# vtk DataFile Version 3.0
Vector Field
ASCII
DATASET RECTILINEAR_GRID
DIMENSIONS 0 4 1
X_COORDINATES 0 double

Y_COORDINATES 4 double
0 0.1 0.2 0.3 
Z_COORDINATES 1 double
0.0
POINT_DATA 0
VECTORS vectorField double

