# vtk DataFile Version 3.0
Scalar Field
ASCII
DATASET RECTILINEAR_GRID
DIMENSIONS 102 22 1
X_COORDINATES 102 double
0.000000 0.100000 0.200000 0.300000 0.400000 0.500000 0.600000 0.700000 0.800000 0.900000 1.000000 1.100000 1.200000 1.300000 1.400000 1.500000 1.600000 1.700000 1.800000 1.900000 2.000000 2.100000 2.200000 2.300000 2.400000 2.500000 2.600000 2.700000 2.800000 2.900000 3.000000 3.100000 3.200000 3.300000 3.400000 3.500000 3.600000 3.700000 3.800000 3.900000 4.000000 4.100000 4.200000 4.300000 4.400000 4.500000 4.600000 4.700000 4.800000 4.900000 5.000000 5.100000 5.200000 5.300000 5.400000 5.500000 5.600000 5.700000 5.800000 5.900000 6.000000 6.100000 6.200000 6.300000 6.400000 6.500000 6.600000 6.700000 6.800000 6.900000 7.000000 7.100000 7.200000 7.300000 7.400000 7.500000 7.600000 7.700000 7.800000 7.900000 8.000000 8.100000 8.200000 8.300000 8.400000 8.500000 8.600000 8.700000 8.800000 8.900000 9.000000 9.100000 9.200000 9.300000 9.400000 9.500000 9.600000 9.700000 9.800000 9.900000 10.000000 10.100000 
Y_COORDINATES 22 double
0.000000 0.100000 0.200000 0.300000 0.400000 0.500000 0.600000 0.700000 0.800000 0.900000 1.000000 1.100000 1.200000 1.300000 1.400000 1.500000 1.600000 1.700000 1.800000 1.900000 2.000000 2.100000 
Z_COORDINATES 1 double
0.0
POINT_DATA 2244
SCALARS Pressure double 1
LOOKUP_TABLE default
0.000000e+00
6.756883e+01
6.753601e+01
6.749877e+01
6.745315e+01
6.739509e+01
6.732071e+01
6.722850e+01
6.711783e+01
6.700999e+01
6.692175e+01
6.685823e+01
6.681738e+01
6.679458e+01
6.678531e+01
6.678607e+01
6.679442e+01
6.680866e+01
6.682765e+01
6.685061e+01
6.687712e+01
6.690701e+01
6.694017e+01
6.697618e+01
6.701401e+01
6.705162e+01
6.708597e+01
6.711245e+01
6.712552e+01
6.712172e+01
6.710269e+01
6.707474e+01
6.704584e+01
6.702273e+01
6.700915e+01
6.700590e+01
6.701242e+01
6.702772e+01
6.705054e+01
6.707934e+01
6.711226e+01
6.714722e+01
6.718207e+01
6.721473e+01
6.724327e+01
6.726639e+01
6.728374e+01
6.729589e+01
6.730404e+01
6.730932e+01
6.731314e+01
6.731588e+01
6.731637e+01
6.731303e+01
6.730424e+01
6.728888e+01
6.726686e+01
6.723944e+01
6.720911e+01
6.717919e+01
6.715337e+01
6.713500e+01
6.712630e+01
6.712802e+01
6.713856e+01
6.715706e+01
6.718202e+01
6.721085e+01
6.723976e+01
6.726443e+01
6.728152e+01
6.729023e+01
6.729259e+01
6.729111e+01
6.728755e+01
6.728334e+01
6.727852e+01
6.727279e+01
6.726598e+01
6.725806e+01
6.724913e+01
6.723942e+01
6.722926e+01
6.721906e+01
6.720925e+01
6.720027e+01
6.719250e+01
6.718624e+01
6.718165e+01
6.717874e+01
6.717735e+01
6.717722e+01
6.717814e+01
6.717983e+01
6.718194e+01
6.718394e+01
6.718513e+01
6.718462e+01
6.718122e+01
6.717344e+01
6.715320e+01
0.000000e+00
6.756883e+01
6.756839e+01
6.753557e+01
6.749833e+01
6.745271e+01
6.739466e+01
6.732027e+01
6.722807e+01
6.711739e+01
6.700955e+01
6.692131e+01
6.685779e+01
6.681695e+01
6.679414e+01
6.678487e+01
6.678563e+01
6.679398e+01
6.680822e+01
6.682721e+01
6.685017e+01
6.687668e+01
6.690657e+01
6.693973e+01
6.697574e+01
6.701357e+01
6.705118e+01
6.708553e+01
6.711201e+01
6.712508e+01
6.712128e+01
6.710225e+01
6.707430e+01
6.704541e+01
6.702229e+01
6.700871e+01
6.700546e+01
6.701198e+01
6.702728e+01
6.705010e+01
6.707890e+01
6.711182e+01
6.714678e+01
6.718163e+01
6.721429e+01
6.724283e+01
6.726595e+01
6.728330e+01
6.729545e+01
6.730361e+01
6.730888e+01
6.731270e+01
6.731544e+01
6.731593e+01
6.731259e+01
6.730380e+01
6.728844e+01
6.726642e+01
6.723900e+01
6.720867e+01
6.717875e+01
6.715293e+01
6.713456e+01
6.712586e+01
6.712758e+01
6.713812e+01
6.715662e+01
6.718158e+01
6.721041e+01
6.723932e+01
6.726399e+01
6.728108e+01
6.728979e+01
6.729215e+01
6.729067e+01
6.728711e+01
6.728290e+01
6.727808e+01
6.727235e+01
6.726554e+01
6.725762e+01
6.724869e+01
6.723898e+01
6.722882e+01
6.721862e+01
6.720881e+01
6.719983e+01
6.719206e+01
6.718580e+01
6.718121e+01
6.717830e+01
6.717691e+01
6.717678e+01
6.717770e+01
6.717940e+01
6.718150e+01
6.718350e+01
6.718470e+01
6.718418e+01
6.718078e+01
6.717300e+01
6.715276e+01
6.715320e+01
6.756787e+01
6.756743e+01
6.753613e+01
6.750014e+01
6.745525e+01
6.739693e+01
6.732057e+01
6.722442e+01
6.710392e+01
6.699162e+01
6.690454e+01
6.684440e+01
6.680698e+01
6.678688e+01
6.677940e+01
6.678126e+01
6.679025e+01
6.680483e+01
6.682395e+01
6.684686e+01
6.687314e+01
6.690260e+01
6.693516e+01
6.697053e+01
6.700799e+01
6.704615e+01
6.708237e+01
6.711183e+01
6.712844e+01
6.712745e+01
6.710938e+01
6.708045e+01
6.704895e+01
6.702268e+01
6.700698e+01
6.700256e+01
6.700846e+01
6.702337e+01
6.704587e+01
6.707437e+01
6.710705e+01
6.714178e+01
6.717644e+01
6.720916e+01
6.723802e+01
6.726165e+01
6.727961e+01
6.729233e+01
6.730089e+01
6.730641e+01
6.730987e+01
6.731167e+01
6.731089e+01
6.730625e+01
6.729645e+01
6.728064e+01
6.725879e+01
6.723209e+01
6.720291e+01
6.717440e+01
6.715004e+01
6.713293e+01
6.712527e+01
6.712826e+01
6.713965e+01
6.715880e+01
6.718387e+01
6.721170e+01
6.723816e+01
6.725981e+01
6.727486e+01
6.728325e+01
6.728633e+01
6.728597e+01
6.728363e+01
6.728021e+01
6.727581e+01
6.727032e+01
6.726365e+01
6.725587e+01
6.724712e+01
6.723763e+01
6.722773e+01
6.721782e+01
6.720830e+01
6.719961e+01
6.719210e+01
6.718606e+01
6.718163e+01
6.717887e+01
6.717776e+01
6.717788e+01
6.717907e+01
6.718107e+01
6.718348e+01
6.718574e+01
6.718710e+01
6.718669e+01
6.718354e+01
6.717651e+01
6.715923e+01
6.715967e+01
6.756664e+01
6.756620e+01
6.753806e+01
6.750490e+01
6.746200e+01
6.740371e+01
6.732349e+01
6.721816e+01
6.707403e+01
6.695347e+01
6.687052e+01
6.681806e+01
6.678778e+01
6.677311e+01
6.676904e+01
6.677290e+01
6.678301e+01
6.679817e+01
6.681746e+01
6.684024e+01
6.686608e+01
6.689474e+01
6.692617e+01
6.696027e+01
6.699679e+01
6.703527e+01
6.707508e+01
6.711138e+01
6.713614e+01
6.714073e+01
6.712337e+01
6.709207e+01
6.705622e+01
6.702454e+01
6.700427e+01
6.699750e+01
6.700199e+01
6.701597e+01
6.703767e+01
6.706534e+01
6.709713e+01
6.713112e+01
6.716530e+01
6.719788e+01
6.722716e+01
6.725179e+01
6.727109e+01
6.728520e+01
6.729486e+01
6.730107e+01
6.730462e+01
6.730562e+01
6.730346e+01
6.729741e+01
6.728671e+01
6.727060e+01
6.724898e+01
6.722317e+01
6.719547e+01
6.716882e+01
6.714642e+01
6.713116e+01
6.712531e+01
6.712993e+01
6.714235e+01
6.716169e+01
6.718573e+01
6.721107e+01
6.723387e+01
6.725235e+01
6.726556e+01
6.727351e+01
6.727741e+01
6.727862e+01
6.727803e+01
6.727579e+01
6.727213e+01
6.726714e+01
6.726087e+01
6.725340e+01
6.724492e+01
6.723574e+01
6.722620e+01
6.721668e+01
6.720758e+01
6.719929e+01
6.719216e+01
6.718647e+01
6.718238e+01
6.718001e+01
6.717940e+01
6.717999e+01
6.718165e+01
6.718409e+01
6.718690e+01
6.718946e+01
6.719101e+01
6.719071e+01
6.718797e+01
6.718212e+01
6.716935e+01
6.716979e+01
6.756556e+01
6.756512e+01
6.754191e+01
6.751344e+01
6.747427e+01
6.741668e+01
6.733004e+01
6.720555e+01
6.701615e+01
6.688870e+01
6.681871e+01
6.678036e+01
6.676081e+01
6.675394e+01
6.675445e+01
6.676096e+01
6.677255e+01
6.678843e+01
6.680794e+01
6.683050e+01
6.685572e+01
6.688337e+01
6.691338e+01
6.694595e+01
6.698139e+01
6.702008e+01
6.706259e+01
6.710814e+01
6.714589e+01
6.716151e+01
6.714561e+01
6.710937e+01
6.706679e+01
6.702823e+01
6.700092e+01
6.699047e+01
6.699271e+01
6.700528e+01
6.702584e+01
6.705244e+01
6.708328e+01
6.711648e+01
6.715011e+01
6.718237e+01
6.721187e+01
6.723748e+01
6.725835e+01
6.727419e+01
6.728540e+01
6.729271e+01
6.729692e+01
6.729757e+01
6.729444e+01
6.728734e+01
6.727585e+01
6.725961e+01
6.723862e+01
6.721421e+01
6.718859e+01
6.716439e+01
6.714449e+01
6.713162e+01
6.712813e+01
6.713438e+01
6.714754e+01
6.716635e+01
6.718838e+01
6.721041e+01
6.722937e+01
6.724512e+01
6.725677e+01
6.726440e+01
6.726894e+01
6.727130e+01
6.727214e+01
6.727095e+01
6.726798e+01
6.726343e+01
6.725749e+01
6.725036e+01
6.724225e+01
6.723349e+01
6.722446e+01
6.721550e+01
6.720699e+01
6.719928e+01
6.719269e+01
6.718752e+01
6.718396e+01
6.718223e+01
6.718228e+01
6.718351e+01
6.718575e+01
6.718867e+01
6.719180e+01
6.719449e+01
6.719599e+01
6.719569e+01
6.719347e+01
6.718906e+01
6.718076e+01
6.718120e+01
6.756517e+01
6.756473e+01
6.754834e+01
6.752686e+01
6.749428e+01
6.743982e+01
6.734443e+01
6.718094e+01
6.691248e+01
6.679451e+01
6.675110e+01
6.673297e+01
6.672733e+01
6.673022e+01
6.673609e+01
6.674567e+01
6.675901e+01
6.677579e+01
6.679555e+01
6.681784e+01
6.684231e+01
6.686883e+01
6.689738e+01
6.692855e+01
6.696326e+01
6.700242e+01
6.704664e+01
6.709511e+01
6.714697e+01
6.718142e+01
6.717576e+01
6.713316e+01
6.708054e+01
6.703330e+01
6.699985e+01
6.698309e+01
6.698332e+01
6.699404e+01
6.701302e+01
6.703818e+01
6.706777e+01
6.709996e+01
6.713289e+01
6.716472e+01
6.719423e+01
6.722071e+01
6.724302e+01
6.726059e+01
6.727351e+01
6.728229e+01
6.728758e+01
6.728838e+01
6.728428e+01
6.727604e+01
6.726400e+01
6.724815e+01
6.722852e+01
6.720632e+01
6.718357e+01
6.716250e+01
6.714567e+01
6.713563e+01
6.713472e+01
6.714216e+01
6.715535e+01
6.717273e+01
6.719193e+01
6.721016e+01
6.722570e+01
6.723891e+01
6.724902e+01
6.725625e+01
6.726118e+01
6.726438e+01
6.726620e+01
6.726571e+01
6.726323e+01
6.725905e+01
6.725347e+01
6.724676e+01
6.723918e+01
6.723103e+01
6.722272e+01
6.721455e+01
6.720684e+01
6.719991e+01
6.719406e+01
6.718959e+01
6.718679e+01
6.718595e+01
6.718675e+01
6.718864e+01
6.719140e+01
6.719463e+01
6.719779e+01
6.720025e+01
6.720138e+01
6.720107e+01
6.719935e+01
6.719630e+01
6.719162e+01
6.719206e+01
6.756593e+01
6.756549e+01
6.755771e+01
6.754602e+01
6.752488e+01
6.748098e+01
6.738169e+01
6.714831e+01
6.673138e+01
6.666282e+01
6.667292e+01
6.668192e+01
6.669126e+01
6.670392e+01
6.671498e+01
6.672765e+01
6.674291e+01
6.676075e+01
6.678085e+01
6.680283e+01
6.682641e+01
6.685160e+01
6.687871e+01
6.690830e+01
6.694206e+01
6.698130e+01
6.702711e+01
6.707737e+01
6.712911e+01
6.717210e+01
6.718054e+01
6.715063e+01
6.709544e+01
6.704290e+01
6.700499e+01
6.698429e+01
6.698030e+01
6.698932e+01
6.700581e+01
6.702837e+01
6.705558e+01
6.708584e+01
6.711730e+01
6.714807e+01
6.717676e+01
6.720352e+01
6.722696e+01
6.724619e+01
6.726088e+01
6.727104e+01
6.727687e+01
6.727712e+01
6.727171e+01
6.726256e+01
6.725070e+01
6.723629e+01
6.721918e+01
6.720034e+01
6.718137e+01
6.716416e+01
6.715093e+01
6.714399e+01
6.714542e+01
6.715322e+01
6.716544e+01
6.718044e+01
6.719613e+01
6.721036e+01
6.722279e+01
6.723345e+01
6.724202e+01
6.724866e+01
6.725368e+01
6.725733e+01
6.725967e+01
6.725962e+01
6.725751e+01
6.725372e+01
6.724862e+01
6.724255e+01
6.723576e+01
6.722851e+01
6.722123e+01
6.721414e+01
6.720749e+01
6.720157e+01
6.719669e+01
6.719316e+01
6.719133e+01
6.719154e+01
6.719301e+01
6.719540e+01
6.719839e+01
6.720153e+01
6.720429e+01
6.720615e+01
6.720680e+01
6.720645e+01
6.720516e+01
6.720325e+01
6.720112e+01
6.720156e+01
6.756799e+01
6.756755e+01
6.756958e+01
6.757032e+01
6.756721e+01
6.755021e+01
6.748196e+01
6.721404e+01
6.640900e+01
6.649009e+01
6.660726e+01
6.664321e+01
6.666108e+01
6.667892e+01
6.669310e+01
6.670826e+01
6.672545e+01
6.674443e+01
6.676494e+01
6.678651e+01
6.680879e+01
6.683191e+01
6.685647e+01
6.688324e+01
6.691254e+01
6.694369e+01
6.697776e+01
6.701364e+01
6.707154e+01
6.712125e+01
6.712568e+01
6.710938e+01
6.708629e+01
6.705374e+01
6.702395e+01
6.700225e+01
6.699370e+01
6.699793e+01
6.701105e+01
6.702937e+01
6.705241e+01
6.707894e+01
6.710731e+01
6.713565e+01
6.716202e+01
6.718759e+01
6.721102e+01
6.723108e+01
6.724682e+01
6.725747e+01
6.726281e+01
6.726148e+01
6.725499e+01
6.724605e+01
6.723584e+01
6.722439e+01
6.721123e+01
6.719695e+01
6.718264e+01
6.716986e+01
6.716054e+01
6.715663e+01
6.715958e+01
6.716678e+01
6.717702e+01
6.718883e+01
6.720060e+01
6.721089e+01
6.722019e+01
6.722834e+01
6.723526e+01
6.724106e+01
6.724580e+01
6.724947e+01
6.725192e+01
6.725212e+01
6.725041e+01
6.724720e+01
6.724288e+01
6.723779e+01
6.723216e+01
6.722622e+01
6.722031e+01
6.721460e+01
6.720931e+01
6.720467e+01
6.720100e+01
6.719863e+01
6.719798e+01
6.719899e+01
6.720090e+01
6.720342e+01
6.720618e+01
6.720877e+01
6.721078e+01
6.721185e+01
6.721211e+01
6.721169e+01
6.721076e+01
6.720970e+01
6.720915e+01
6.720959e+01
6.757106e+01
6.757062e+01
6.758224e+01
6.759607e+01
6.761488e+01
6.764106e+01
6.767113e+01
6.777080e+01
6.709034e+01
6.656723e+01
6.664350e+01
6.664402e+01
6.665270e+01
6.666567e+01
6.667882e+01
6.669533e+01
6.671394e+01
6.673308e+01
6.675293e+01
6.677271e+01
6.679158e+01
6.680927e+01
6.682639e+01
6.684426e+01
6.686387e+01
6.688406e+01
6.690958e+01
6.694122e+01
6.697858e+01
6.700859e+01
6.702688e+01
6.704059e+01
6.705286e+01
6.705922e+01
6.705301e+01
6.703747e+01
6.702518e+01
6.702267e+01
6.702995e+01
6.704268e+01
6.705994e+01
6.708101e+01
6.710448e+01
6.712857e+01
6.715131e+01
6.717354e+01
6.719497e+01
6.721391e+01
6.722869e+01
6.723800e+01
6.724171e+01
6.723903e+01
6.723321e+01
6.722662e+01
6.722006e+01
6.721327e+01
6.720546e+01
6.719674e+01
6.718769e+01
6.717962e+01
6.717413e+01
6.717276e+01
6.717593e+01
6.718172e+01
6.718919e+01
6.719728e+01
6.720493e+01
6.721150e+01
6.721760e+01
6.722317e+01
6.722826e+01
6.723283e+01
6.723680e+01
6.724004e+01
6.724225e+01
6.724270e+01
6.724165e+01
6.723942e+01
6.723637e+01
6.723274e+01
6.722871e+01
6.722451e+01
6.722034e+01
6.721634e+01
6.721267e+01
6.720956e+01
6.720729e+01
6.720620e+01
6.720658e+01
6.720799e+01
6.720991e+01
6.721207e+01
6.721416e+01
6.721587e+01
6.721695e+01
6.721737e+01
6.721729e+01
6.721682e+01
6.721618e+01
6.721566e+01
6.721591e+01
6.721635e+01
6.757445e+01
6.757401e+01
6.759309e+01
6.761696e+01
6.765204e+01
6.770881e+01
6.780462e+01
6.793862e+01
6.796999e+01
0.000000e+00
6.665198e+01
6.665154e+01
6.665982e+01
6.667487e+01
6.668359e+01
6.669836e+01
6.671738e+01
6.673626e+01
6.675474e+01
6.677192e+01
6.678680e+01
6.679907e+01
6.680950e+01
6.681917e+01
6.682682e+01
6.683183e+01
6.683861e+01
6.685063e+01
6.687836e+01
6.691932e+01
6.696278e+01
6.700259e+01
6.703796e+01
6.706902e+01
6.708665e+01
6.708521e+01
6.707195e+01
6.706220e+01
6.706137e+01
6.706720e+01
6.707743e+01
6.709161e+01
6.710852e+01
6.712659e+01
6.714396e+01
6.716036e+01
6.717697e+01
6.719187e+01
6.720288e+01
6.720896e+01
6.721068e+01
6.720899e+01
6.720682e+01
6.720540e+01
6.720470e+01
6.720413e+01
6.720276e+01
6.720012e+01
6.719648e+01
6.719294e+01
6.719075e+01
6.719092e+01
6.719343e+01
6.719708e+01
6.720126e+01
6.720538e+01
6.720897e+01
6.721193e+01
6.721477e+01
6.721761e+01
6.722049e+01
6.722331e+01
6.722595e+01
6.722827e+01
6.723007e+01
6.723099e+01
6.723109e+01
6.723050e+01
6.722935e+01
6.722778e+01
6.722588e+01
6.722383e+01
6.722173e+01
6.721968e+01
6.721783e+01
6.721638e+01
6.721557e+01
6.721561e+01
6.721653e+01
6.721786e+01
6.721933e+01
6.722072e+01
6.722186e+01
6.722259e+01
6.722284e+01
6.722274e+01
6.722239e+01
6.722192e+01
6.722148e+01
6.722125e+01
6.722171e+01
6.722215e+01
6.757741e+01
6.757697e+01
6.760006e+01
6.762850e+01
6.766852e+01
6.772805e+01
6.781341e+01
6.791635e+01
6.800049e+01
6.800093e+01
0.000000e+00
6.670422e+01
6.670378e+01
6.670981e+01
6.671855e+01
6.673023e+01
6.674686e+01
6.676456e+01
6.678123e+01
6.679542e+01
6.680607e+01
6.681251e+01
6.681436e+01
6.681100e+01
6.680337e+01
6.679115e+01
6.677999e+01
6.677504e+01
6.680288e+01
6.686164e+01
6.692831e+01
6.698922e+01
6.703973e+01
6.708253e+01
6.711751e+01
6.713156e+01
6.712683e+01
6.711254e+01
6.710329e+01
6.710124e+01
6.710358e+01
6.710981e+01
6.711877e+01
6.712897e+01
6.713855e+01
6.714680e+01
6.715561e+01
6.716287e+01
6.716690e+01
6.716840e+01
6.716953e+01
6.717315e+01
6.717882e+01
6.718550e+01
6.719232e+01
6.719862e+01
6.720364e+01
6.720695e+01
6.720853e+01
6.720894e+01
6.720923e+01
6.720993e+01
6.721112e+01
6.721222e+01
6.721291e+01
6.721306e+01
6.721270e+01
6.721208e+01
6.721154e+01
6.721131e+01
6.721146e+01
6.721194e+01
6.721267e+01
6.721362e+01
6.721500e+01
6.721682e+01
6.721881e+01
6.722068e+01
6.722226e+01
6.722343e+01
6.722419e+01
6.722462e+01
6.722479e+01
6.722481e+01
6.722481e+01
6.722495e+01
6.722536e+01
6.722605e+01
6.722697e+01
6.722785e+01
6.722854e+01
6.722897e+01
6.722909e+01
6.722892e+01
6.722853e+01
6.722801e+01
6.722748e+01
6.722702e+01
6.722670e+01
6.722657e+01
6.722684e+01
6.722728e+01
6.757954e+01
6.757911e+01
6.760267e+01
6.763073e+01
6.766764e+01
6.771776e+01
6.778429e+01
6.784956e+01
6.787702e+01
6.765691e+01
6.765735e+01
0.000000e+00
6.672787e+01
6.675108e+01
6.675374e+01
6.677037e+01
6.679023e+01
6.680718e+01
6.682000e+01
6.682816e+01
6.683132e+01
6.682924e+01
6.682181e+01
6.680900e+01
6.679047e+01
6.676246e+01
6.672908e+01
6.671608e+01
6.675781e+01
6.683379e+01
6.691873e+01
6.699548e+01
6.705440e+01
6.710078e+01
6.714126e+01
6.716958e+01
6.717696e+01
6.716768e+01
6.715271e+01
6.714303e+01
6.713746e+01
6.713530e+01
6.713529e+01
6.713585e+01
6.713532e+01
6.713334e+01
6.713038e+01
6.712620e+01
6.712247e+01
6.712078e+01
6.712596e+01
6.713810e+01
6.715368e+01
6.716976e+01
6.718463e+01
6.719740e+01
6.720793e+01
6.721616e+01
6.722200e+01
6.722564e+01
6.722755e+01
6.722788e+01
6.722729e+01
6.722568e+01
6.722311e+01
6.721977e+01
6.721599e+01
6.721206e+01
6.720816e+01
6.720459e+01
6.720156e+01
6.719919e+01
6.719757e+01
6.719677e+01
6.719792e+01
6.720117e+01
6.720578e+01
6.721092e+01
6.721590e+01
6.722031e+01
6.722397e+01
6.722696e+01
6.722942e+01
6.723146e+01
6.723315e+01
6.723458e+01
6.723571e+01
6.723643e+01
6.723689e+01
6.723705e+01
6.723688e+01
6.723641e+01
6.723574e+01
6.723495e+01
6.723414e+01
6.723336e+01
6.723272e+01
6.723227e+01
6.723200e+01
6.723185e+01
6.723168e+01
6.723212e+01
6.758080e+01
6.758036e+01
6.760158e+01
6.762578e+01
6.765546e+01
6.769170e+01
6.772756e+01
6.774129e+01
6.768606e+01
6.757873e+01
6.719174e+01
6.689144e+01
6.672664e+01
6.676047e+01
6.677109e+01
6.679731e+01
6.682292e+01
6.683747e+01
6.684688e+01
6.685206e+01
6.685172e+01
6.684475e+01
6.683118e+01
6.681193e+01
6.678281e+01
6.673896e+01
6.669210e+01
6.669113e+01
6.674666e+01
6.683503e+01
6.693084e+01
6.701373e+01
6.707712e+01
6.712505e+01
6.716364e+01
6.719673e+01
6.721678e+01
6.721794e+01
6.720615e+01
6.719096e+01
6.717857e+01
6.716837e+01
6.715883e+01
6.714834e+01
6.713610e+01
6.712176e+01
6.710611e+01
6.709098e+01
6.707889e+01
6.707466e+01
6.708639e+01
6.710854e+01
6.713473e+01
6.716025e+01
6.718239e+01
6.720045e+01
6.721516e+01
6.722690e+01
6.723564e+01
6.724130e+01
6.724387e+01
6.724358e+01
6.724141e+01
6.723754e+01
6.723224e+01
6.722593e+01
6.721913e+01
6.721215e+01
6.720501e+01
6.719812e+01
6.719182e+01
6.718645e+01
6.718229e+01
6.717951e+01
6.718057e+01
6.718555e+01
6.719321e+01
6.720209e+01
6.721092e+01
6.721880e+01
6.722532e+01
6.723069e+01
6.723513e+01
6.723878e+01
6.724169e+01
6.724386e+01
6.724521e+01
6.724565e+01
6.724563e+01
6.724517e+01
6.724434e+01
6.724324e+01
6.724201e+01
6.724081e+01
6.723973e+01
6.723881e+01
6.723812e+01
6.723771e+01
6.723751e+01
6.723738e+01
6.723680e+01
6.723724e+01
6.758137e+01
6.758093e+01
6.759795e+01
6.761649e+01
6.763669e+01
6.765593e+01
6.766511e+01
6.764431e+01
6.755756e+01
6.739464e+01
6.713664e+01
6.659026e+01
6.669194e+01
6.676483e+01
6.679385e+01
6.682063e+01
6.684150e+01
6.685343e+01
6.686313e+01
6.686852e+01
6.686648e+01
6.685632e+01
6.683889e+01
6.681523e+01
6.677724e+01
6.672110e+01
6.668285e+01
6.669971e+01
6.676669e+01
6.686028e+01
6.695734e+01
6.703697e+01
6.709951e+01
6.714761e+01
6.718444e+01
6.721472e+01
6.724017e+01
6.725335e+01
6.725146e+01
6.723856e+01
6.722237e+01
6.720441e+01
6.718448e+01
6.716251e+01
6.713982e+01
6.711393e+01
6.708641e+01
6.706067e+01
6.704019e+01
6.703702e+01
6.705632e+01
6.708850e+01
6.712444e+01
6.715805e+01
6.718547e+01
6.720726e+01
6.722462e+01
6.723834e+01
6.724863e+01
6.725528e+01
6.725802e+01
6.725727e+01
6.725392e+01
6.724831e+01
6.724083e+01
6.723202e+01
6.722251e+01
6.721274e+01
6.720253e+01
6.719239e+01
6.718286e+01
6.717450e+01
6.716779e+01
6.716307e+01
6.716429e+01
6.717121e+01
6.718212e+01
6.719492e+01
6.720775e+01
6.721897e+01
6.722811e+01
6.723549e+01
6.724145e+01
6.724620e+01
6.724983e+01
6.725231e+01
6.725360e+01
6.725377e+01
6.725336e+01
6.725247e+01
6.725119e+01
6.724967e+01
6.724809e+01
6.724661e+01
6.724538e+01
6.724439e+01
6.724373e+01
6.724342e+01
6.724338e+01
6.724343e+01
6.724285e+01
6.724329e+01
6.758155e+01
6.758111e+01
6.759312e+01
6.760513e+01
6.761577e+01
6.762128e+01
6.761340e+01
6.757765e+01
6.749227e+01
6.733895e+01
6.713107e+01
6.684531e+01
6.680841e+01
6.681987e+01
6.683140e+01
6.684509e+01
6.685713e+01
6.686710e+01
6.687328e+01
6.687355e+01
6.686763e+01
6.685615e+01
6.683953e+01
6.681621e+01
6.677414e+01
6.672553e+01
6.670863e+01
6.673997e+01
6.681117e+01
6.690192e+01
6.698997e+01
6.706280e+01
6.712078e+01
6.716625e+01
6.720139e+01
6.722763e+01
6.724746e+01
6.726344e+01
6.727080e+01
6.726681e+01
6.725340e+01
6.723239e+01
6.720578e+01
6.717576e+01
6.714525e+01
6.710960e+01
6.707207e+01
6.703723e+01
6.701011e+01
6.701212e+01
6.703954e+01
6.708046e+01
6.712410e+01
6.716274e+01
6.719332e+01
6.721708e+01
6.723554e+01
6.724987e+01
6.726052e+01
6.726739e+01
6.727007e+01
6.726914e+01
6.726513e+01
6.725838e+01
6.724933e+01
6.723851e+01
6.722664e+01
6.721432e+01
6.720123e+01
6.718803e+01
6.717542e+01
6.716420e+01
6.715514e+01
6.714882e+01
6.715048e+01
6.715942e+01
6.717350e+01
6.719003e+01
6.720660e+01
6.722078e+01
6.723211e+01
6.724100e+01
6.724794e+01
6.725329e+01
6.725720e+01
6.725972e+01
6.726087e+01
6.726086e+01
6.726023e+01
6.725908e+01
6.725756e+01
6.725583e+01
6.725406e+01
6.725242e+01
6.725111e+01
6.725013e+01
6.724956e+01
6.724945e+01
6.724974e+01
6.725026e+01
6.725048e+01
6.725092e+01
6.758161e+01
6.758118e+01
6.758795e+01
6.759377e+01
6.759652e+01
6.759250e+01
6.757534e+01
6.753563e+01
6.746127e+01
6.734025e+01
6.717524e+01
6.698743e+01
6.691026e+01
6.688400e+01
6.687472e+01
6.687352e+01
6.687513e+01
6.687751e+01
6.687723e+01
6.687313e+01
6.686540e+01
6.685491e+01
6.684001e+01
6.681804e+01
6.678366e+01
6.675543e+01
6.675671e+01
6.679604e+01
6.686460e+01
6.694616e+01
6.702278e+01
6.708766e+01
6.714016e+01
6.718169e+01
6.721416e+01
6.723930e+01
6.725829e+01
6.727188e+01
6.727915e+01
6.727821e+01
6.726816e+01
6.724856e+01
6.722052e+01
6.718684e+01
6.715108e+01
6.710845e+01
6.706354e+01
6.702191e+01
6.699504e+01
6.700327e+01
6.703781e+01
6.708491e+01
6.713301e+01
6.717347e+01
6.720500e+01
6.722902e+01
6.724724e+01
6.726104e+01
6.727118e+01
6.727770e+01
6.728027e+01
6.727936e+01
6.727517e+01
6.726794e+01
6.725797e+01
6.724575e+01
6.723195e+01
6.721737e+01
6.720166e+01
6.718560e+01
6.717011e+01
6.715628e+01
6.714523e+01
6.713792e+01
6.714025e+01
6.715115e+01
6.716807e+01
6.718781e+01
6.720751e+01
6.722403e+01
6.723701e+01
6.724689e+01
6.725431e+01
6.725980e+01
6.726366e+01
6.726605e+01
6.726706e+01
6.726699e+01
6.726628e+01
6.726505e+01
6.726347e+01
6.726169e+01
6.725988e+01
6.725822e+01
6.725689e+01
6.725600e+01
6.725560e+01
6.725579e+01
6.725661e+01
6.725797e+01
6.726004e+01
6.726048e+01
6.758158e+01
6.758114e+01
6.758320e+01
6.758380e+01
6.758060e+01
6.757034e+01
6.754837e+01
6.750866e+01
6.744434e+01
6.734848e+01
6.721991e+01
6.707644e+01
6.698906e+01
6.694235e+01
6.691655e+01
6.690235e+01
6.689407e+01
6.688847e+01
6.688263e+01
6.687501e+01
6.686562e+01
6.685419e+01
6.684003e+01
6.682120e+01
6.679913e+01
6.678867e+01
6.680377e+01
6.684767e+01
6.691200e+01
6.698386e+01
6.705107e+01
6.710887e+01
6.715636e+01
6.719448e+01
6.722477e+01
6.724853e+01
6.726595e+01
6.727725e+01
6.728246e+01
6.728141e+01
6.727288e+01
6.725536e+01
6.722863e+01
6.719476e+01
6.715663e+01
6.711044e+01
6.706173e+01
6.701775e+01
6.699632e+01
6.701069e+01
6.705011e+01
6.710009e+01
6.714884e+01
6.718860e+01
6.721923e+01
6.724213e+01
6.725908e+01
6.727162e+01
6.728067e+01
6.728648e+01
6.728888e+01
6.728807e+01
6.728408e+01
6.727693e+01
6.726672e+01
6.725378e+01
6.723862e+01
6.722212e+01
6.720410e+01
6.718542e+01
6.716729e+01
6.715112e+01
6.713849e+01
6.713094e+01
6.713414e+01
6.714683e+01
6.716609e+01
6.718832e+01
6.721027e+01
6.722846e+01
6.724252e+01
6.725291e+01
6.726040e+01
6.726569e+01
6.726926e+01
6.727140e+01
6.727227e+01
6.727220e+01
6.727150e+01
6.727031e+01
6.726879e+01
6.726709e+01
6.726538e+01
6.726382e+01
6.726258e+01
6.726184e+01
6.726169e+01
6.726229e+01
6.726379e+01
6.726632e+01
6.727126e+01
6.727170e+01
6.758157e+01
6.758113e+01
6.757931e+01
6.757583e+01
6.756834e+01
6.755408e+01
6.752958e+01
6.749074e+01
6.743338e+01
6.735361e+01
6.725060e+01
6.713595e+01
6.704844e+01
6.698998e+01
6.695244e+01
6.692810e+01
6.691161e+01
6.689941e+01
6.688878e+01
6.687805e+01
6.686659e+01
6.685406e+01
6.684021e+01
6.682508e+01
6.681349e+01
6.681595e+01
6.684048e+01
6.688705e+01
6.694788e+01
6.701271e+01
6.707326e+01
6.712569e+01
6.716920e+01
6.720455e+01
6.723302e+01
6.725544e+01
6.727174e+01
6.728201e+01
6.728648e+01
6.728503e+01
6.727676e+01
6.726027e+01
6.723474e+01
6.720128e+01
6.716163e+01
6.711412e+01
6.706481e+01
6.702336e+01
6.700970e+01
6.702942e+01
6.707135e+01
6.712135e+01
6.716799e+01
6.720567e+01
6.723432e+01
6.725535e+01
6.727051e+01
6.728143e+01
6.728914e+01
6.729411e+01
6.729625e+01
6.729555e+01
6.729195e+01
6.728524e+01
6.727533e+01
6.726227e+01
6.724638e+01
6.722838e+01
6.720841e+01
6.718741e+01
6.716685e+01
6.714862e+01
6.713481e+01
6.712763e+01
6.713184e+01
6.714608e+01
6.716717e+01
6.719114e+01
6.721445e+01
6.723366e+01
6.724834e+01
6.725891e+01
6.726619e+01
6.727106e+01
6.727416e+01
6.727594e+01
6.727667e+01
6.727658e+01
6.727591e+01
6.727479e+01
6.727339e+01
6.727184e+01
6.727030e+01
6.726893e+01
6.726787e+01
6.726734e+01
6.726750e+01
6.726857e+01
6.727085e+01
6.727468e+01
6.728313e+01
6.728357e+01
6.758161e+01
6.758117e+01
6.757644e+01
6.756999e+01
6.755957e+01
6.754281e+01
6.751694e+01
6.747897e+01
6.742605e+01
6.735599e+01
6.726888e+01
6.717266e+01
6.708951e+01
6.702621e+01
6.698083e+01
6.694891e+01
6.692608e+01
6.690884e+01
6.689444e+01
6.688107e+01
6.686775e+01
6.685416e+01
6.684056e+01
6.682886e+01
6.682480e+01
6.683615e+01
6.686705e+01
6.691504e+01
6.697309e+01
6.703315e+01
6.708916e+01
6.713790e+01
6.717866e+01
6.721204e+01
6.723904e+01
6.726038e+01
6.727621e+01
6.728654e+01
6.729145e+01
6.729056e+01
6.728292e+01
6.726722e+01
6.724232e+01
6.720842e+01
6.716660e+01
6.711756e+01
6.706869e+01
6.703264e+01
6.702645e+01
6.705062e+01
6.709379e+01
6.714244e+01
6.718650e+01
6.722181e+01
6.724811e+01
6.726686e+01
6.728002e+01
6.728931e+01
6.729590e+01
6.730039e+01
6.730248e+01
6.730201e+01
6.729886e+01
6.729274e+01
6.728339e+01
6.727063e+01
6.725451e+01
6.723548e+01
6.721393e+01
6.719090e+01
6.716816e+01
6.714806e+01
6.713335e+01
6.712690e+01
6.713215e+01
6.714771e+01
6.717015e+01
6.719524e+01
6.721923e+01
6.723902e+01
6.725403e+01
6.726466e+01
6.727168e+01
6.727605e+01
6.727858e+01
6.727991e+01
6.728043e+01
6.728024e+01
6.727953e+01
6.727844e+01
6.727714e+01
6.727573e+01
6.727438e+01
6.727320e+01
6.727237e+01
6.727208e+01
6.727256e+01
6.727409e+01
6.727710e+01
6.728219e+01
6.729415e+01
6.729459e+01
6.758168e+01
6.758125e+01
6.757458e+01
6.756621e+01
6.755399e+01
6.753578e+01
6.750923e+01
6.747192e+01
6.742172e+01
6.735723e+01
6.727919e+01
6.719368e+01
6.711466e+01
6.704976e+01
6.700014e+01
6.696349e+01
6.693644e+01
6.691574e+01
6.689871e+01
6.688342e+01
6.686872e+01
6.685429e+01
6.684103e+01
6.683214e+01
6.683320e+01
6.684986e+01
6.688400e+01
6.693245e+01
6.698874e+01
6.704599e+01
6.709920e+01
6.714562e+01
6.718458e+01
6.721664e+01
6.724271e+01
6.726351e+01
6.727940e+01
6.729024e+01
6.729596e+01
6.729605e+01
6.728948e+01
6.727480e+01
6.725055e+01
6.721593e+01
6.717140e+01
6.711986e+01
6.707103e+01
6.704015e+01
6.703947e+01
6.706691e+01
6.711084e+01
6.715825e+01
6.720031e+01
6.723358e+01
6.725801e+01
6.727509e+01
6.728678e+01
6.729483e+01
6.730053e+01
6.730463e+01
6.730671e+01
6.730666e+01
6.730419e+01
6.729888e+01
6.729025e+01
6.727796e+01
6.726190e+01
6.724227e+01
6.721953e+01
6.719482e+01
6.717016e+01
6.714838e+01
6.713290e+01
6.712719e+01
6.713331e+01
6.714984e+01
6.717320e+01
6.719899e+01
6.722333e+01
6.724353e+01
6.725881e+01
6.726936e+01
6.727607e+01
6.727998e+01
6.728203e+01
6.728294e+01
6.728326e+01
6.728294e+01
6.728217e+01
6.728110e+01
6.727986e+01
6.727858e+01
6.727736e+01
6.727636e+01
6.727571e+01
6.727563e+01
6.727636e+01
6.727825e+01
6.728183e+01
6.728787e+01
6.730274e+01
6.730317e+01
6.758174e+01
6.758130e+01
6.757367e+01
6.756438e+01
6.755133e+01
6.753250e+01
6.750574e+01
6.746891e+01
6.742011e+01
6.735831e+01
6.728446e+01
6.720383e+01
6.712704e+01
6.706165e+01
6.701010e+01
6.697113e+01
6.694194e+01
6.691947e+01
6.690107e+01
6.688475e+01
6.686930e+01
6.685447e+01
6.684158e+01
6.683423e+01
6.683769e+01
6.685651e+01
6.689173e+01
6.694004e+01
6.699533e+01
6.705123e+01
6.710323e+01
6.714871e+01
6.718699e+01
6.721854e+01
6.724420e+01
6.726473e+01
6.728057e+01
6.729182e+01
6.729828e+01
6.729931e+01
6.729380e+01
6.728023e+01
6.725687e+01
6.722203e+01
6.717522e+01
6.712080e+01
6.707130e+01
6.704332e+01
6.704577e+01
6.707486e+01
6.711882e+01
6.716521e+01
6.720625e+01
6.723874e+01
6.726253e+01
6.727906e+01
6.729022e+01
6.729778e+01
6.730306e+01
6.730673e+01
6.730879e+01
6.730908e+01
6.730718e+01
6.730253e+01
6.729455e+01
6.728281e+01
6.726706e+01
6.724725e+01
6.722380e+01
6.719785e+01
6.717156e+01
6.714825e+01
6.713202e+01
6.712646e+01
6.713305e+01
6.715025e+01
6.717426e+01
6.720048e+01
6.722494e+01
6.724534e+01
6.726080e+01
6.727149e+01
6.727824e+01
6.728209e+01
6.728400e+01
6.728476e+01
6.728483e+01
6.728437e+01
6.728354e+01
6.728249e+01
6.728130e+01
6.728010e+01
6.727899e+01
6.727810e+01
6.727758e+01
6.727763e+01
6.727851e+01
6.728061e+01
6.728450e+01
6.729103e+01
6.730755e+01
6.730799e+01
0.000000e+00
6.758174e+01
6.757411e+01
6.756482e+01
6.755177e+01
6.753294e+01
6.750618e+01
6.746935e+01
6.742055e+01
6.735875e+01
6.728490e+01
6.720427e+01
6.712748e+01
6.706209e+01
6.701054e+01
6.697157e+01
6.694238e+01
6.691991e+01
6.690151e+01
6.688518e+01
6.686974e+01
6.685491e+01
6.684202e+01
6.683467e+01
6.683813e+01
6.685695e+01
6.689217e+01
6.694047e+01
6.699577e+01
6.705167e+01
6.710367e+01
6.714914e+01
6.718743e+01
6.721898e+01
6.724464e+01
6.726517e+01
6.728100e+01
6.729226e+01
6.729872e+01
6.729975e+01
6.729424e+01
6.728066e+01
6.725731e+01
6.722247e+01
6.717566e+01
6.712124e+01
6.707174e+01
6.704376e+01
6.704621e+01
6.707530e+01
6.711926e+01
6.716565e+01
6.720669e+01
6.723918e+01
6.726297e+01
6.727950e+01
6.729066e+01
6.729822e+01
6.730350e+01
6.730717e+01
6.730923e+01