# vtk DataFile Version 3.0
Scalar Field
ASCII
DATASET RECTILINEAR_GRID
DIMENSIONS 102 22 1
X_COORDINATES 102 double
0.000000 0.100000 0.200000 0.300000 0.400000 0.500000 0.600000 0.700000 0.800000 0.900000 1.000000 1.100000 1.200000 1.300000 1.400000 1.500000 1.600000 1.700000 1.800000 1.900000 2.000000 2.100000 2.200000 2.300000 2.400000 2.500000 2.600000 2.700000 2.800000 2.900000 3.000000 3.100000 3.200000 3.300000 3.400000 3.500000 3.600000 3.700000 3.800000 3.900000 4.000000 4.100000 4.200000 4.300000 4.400000 4.500000 4.600000 4.700000 4.800000 4.900000 5.000000 5.100000 5.200000 5.300000 5.400000 5.500000 5.600000 5.700000 5.800000 5.900000 6.000000 6.100000 6.200000 6.300000 6.400000 6.500000 6.600000 6.700000 6.800000 6.900000 7.000000 7.100000 7.200000 7.300000 7.400000 7.500000 7.600000 7.700000 7.800000 7.900000 8.000000 8.100000 8.200000 8.300000 8.400000 8.500000 8.600000 8.700000 8.800000 8.900000 9.000000 9.100000 9.200000 9.300000 9.400000 9.500000 9.600000 9.700000 9.800000 9.900000 10.000000 10.100000 
Y_COORDINATES 22 double
0.000000 0.100000 0.200000 0.300000 0.400000 0.500000 0.600000 0.700000 0.800000 0.900000 1.000000 1.100000 1.200000 1.300000 1.400000 1.500000 1.600000 1.700000 1.800000 1.900000 2.000000 2.100000 
Z_COORDINATES 1 double
0.0
POINT_DATA 2244
SCALARS Pressure double 1
LOOKUP_TABLE default
0.000000e+00
3.925589e+01
3.923112e+01
3.920276e+01
3.916771e+01
3.912229e+01
3.906278e+01
3.898732e+01
3.889407e+01
3.879923e+01
3.871525e+01
3.864544e+01
3.858793e+01
3.853990e+01
3.849977e+01
3.846789e+01
3.844590e+01
3.843512e+01
3.843533e+01
3.844509e+01
3.846250e+01
3.848568e+01
3.851301e+01
3.854325e+01
3.857546e+01
3.860882e+01
3.864256e+01
3.867586e+01
3.870786e+01
3.873768e+01
3.876444e+01
3.878741e+01
3.880619e+01
3.882073e+01
3.883138e+01
3.883873e+01
3.884350e+01
3.884637e+01
3.884792e+01
3.884861e+01
3.884877e+01
3.884859e+01
3.884822e+01
3.884773e+01
3.884717e+01
3.884656e+01
3.884593e+01
3.884527e+01
3.884461e+01
3.884394e+01
3.884326e+01
3.884258e+01
3.884191e+01
3.884125e+01
3.884060e+01
3.883995e+01
3.883932e+01
3.883871e+01
3.883811e+01
3.883752e+01
3.883695e+01
3.883638e+01
3.883584e+01
3.883530e+01
3.883478e+01
3.883426e+01
3.883376e+01
3.883327e+01
3.883278e+01
3.883230e+01
3.883183e+01
3.883137e+01
3.883091e+01
3.883046e+01
3.883002e+01
3.882958e+01
3.882914e+01
3.882871e+01
3.882829e+01
3.882787e+01
3.882746e+01
3.882705e+01
3.882664e+01
3.882625e+01
3.882585e+01
3.882547e+01
3.882508e+01
3.882471e+01
3.882434e+01
3.882398e+01
3.882362e+01
3.882327e+01
3.882293e+01
3.882259e+01
3.882226e+01
3.882194e+01
3.882162e+01
3.882129e+01
3.882096e+01
3.882059e+01
3.882029e+01
0.000000e+00
3.925589e+01
3.925658e+01
3.923180e+01
3.920345e+01
3.916840e+01
3.912297e+01
3.906346e+01
3.898801e+01
3.889476e+01
3.879992e+01
3.871594e+01
3.864613e+01
3.858861e+01
3.854058e+01
3.850046e+01
3.846857e+01
3.844659e+01
3.843581e+01
3.843602e+01
3.844578e+01
3.846319e+01
3.848636e+01
3.851369e+01
3.854394e+01
3.857614e+01
3.860951e+01
3.864325e+01
3.867654e+01
3.870855e+01
3.873837e+01
3.876512e+01
3.878810e+01
3.880687e+01
3.882142e+01
3.883207e+01
3.883942e+01
3.884419e+01
3.884705e+01
3.884861e+01
3.884930e+01
3.884945e+01
3.884928e+01
3.884890e+01
3.884841e+01
3.884785e+01
3.884725e+01
3.884661e+01
3.884596e+01
3.884529e+01
3.884462e+01
3.884395e+01
3.884327e+01
3.884260e+01
3.884194e+01
3.884128e+01
3.884064e+01
3.884001e+01
3.883940e+01
3.883879e+01
3.883821e+01
3.883763e+01
3.883707e+01
3.883652e+01
3.883599e+01
3.883546e+01
3.883495e+01
3.883445e+01
3.883395e+01
3.883347e+01
3.883299e+01
3.883252e+01
3.883206e+01
3.883160e+01
3.883115e+01
3.883070e+01
3.883026e+01
3.882983e+01
3.882940e+01
3.882898e+01
3.882856e+01
3.882814e+01
3.882773e+01
3.882733e+01
3.882693e+01
3.882654e+01
3.882615e+01
3.882577e+01
3.882540e+01
3.882503e+01
3.882466e+01
3.882431e+01
3.882396e+01
3.882361e+01
3.882328e+01
3.882295e+01
3.882262e+01
3.882230e+01
3.882198e+01
3.882165e+01
3.882128e+01
3.882097e+01
3.882029e+01
3.925477e+01
3.925545e+01
3.923208e+01
3.920490e+01
3.917056e+01
3.912491e+01
3.906355e+01
3.898427e+01
3.888213e+01
3.878329e+01
3.870050e+01
3.863401e+01
3.857984e+01
3.853431e+01
3.849562e+01
3.846426e+01
3.844233e+01
3.843183e+01
3.843256e+01
3.844290e+01
3.846087e+01
3.848447e+01
3.851207e+01
3.854243e+01
3.857466e+01
3.860799e+01
3.864168e+01
3.867493e+01
3.870692e+01
3.873682e+01
3.876373e+01
3.878693e+01
3.880596e+01
3.882073e+01
3.883156e+01
3.883905e+01
3.884392e+01
3.884685e+01
3.884845e+01
3.884918e+01
3.884937e+01
3.884921e+01
3.884886e+01
3.884838e+01
3.884783e+01
3.884723e+01
3.884659e+01
3.884594e+01
3.884527e+01
3.884460e+01
3.884392e+01
3.884325e+01
3.884258e+01
3.884192e+01
3.884126e+01
3.884063e+01
3.884000e+01
3.883939e+01
3.883879e+01
3.883821e+01
3.883763e+01
3.883708e+01
3.883653e+01
3.883600e+01
3.883548e+01
3.883497e+01
3.883447e+01
3.883397e+01
3.883349e+01
3.883301e+01
3.883255e+01
3.883208e+01
3.883163e+01
3.883118e+01
3.883073e+01
3.883029e+01
3.882986e+01
3.882943e+01
3.882900e+01
3.882859e+01
3.882817e+01
3.882776e+01
3.882736e+01
3.882696e+01
3.882657e+01
3.882618e+01
3.882580e+01
3.882542e+01
3.882505e+01
3.882469e+01
3.882433e+01
3.882398e+01
3.882364e+01
3.882330e+01
3.882297e+01
3.882265e+01
3.882233e+01
3.882201e+01
3.882170e+01
3.882139e+01
3.882108e+01
3.882039e+01
3.925295e+01
3.925364e+01
3.923320e+01
3.920868e+01
3.917626e+01
3.913074e+01
3.906593e+01
3.897810e+01
3.885511e+01
3.874942e+01
3.867075e+01
3.861165e+01
3.856405e+01
3.852309e+01
3.848686e+01
3.845618e+01
3.843413e+01
3.842404e+01
3.842583e+01
3.843732e+01
3.845634e+01
3.848071e+01
3.850874e+01
3.853923e+01
3.857136e+01
3.860449e+01
3.863796e+01
3.867104e+01
3.870295e+01
3.873291e+01
3.876011e+01
3.878378e+01
3.880335e+01
3.881866e+01
3.882995e+01
3.883781e+01
3.884296e+01
3.884611e+01
3.884789e+01
3.884875e+01
3.884904e+01
3.884896e+01
3.884865e+01
3.884821e+01
3.884767e+01
3.884708e+01
3.884646e+01
3.884581e+01
3.884514e+01
3.884447e+01
3.884380e+01
3.884314e+01
3.884247e+01
3.884182e+01
3.884118e+01
3.884055e+01
3.883994e+01
3.883934e+01
3.883875e+01
3.883817e+01
3.883761e+01
3.883707e+01
3.883653e+01
3.883601e+01
3.883549e+01
3.883499e+01
3.883449e+01
3.883400e+01
3.883352e+01
3.883305e+01
3.883259e+01
3.883212e+01
3.883167e+01
3.883122e+01
3.883078e+01
3.883034e+01
3.882990e+01
3.882947e+01
3.882905e+01
3.882863e+01
3.882821e+01
3.882780e+01
3.882740e+01
3.882700e+01
3.882660e+01
3.882621e+01
3.882583e+01
3.882545e+01
3.882508e+01
3.882472e+01
3.882436e+01
3.882401e+01
3.882367e+01
3.882333e+01
3.882300e+01
3.882268e+01
3.882236e+01
3.882205e+01
3.882175e+01
3.882147e+01
3.882116e+01
3.882048e+01
3.925082e+01
3.925151e+01
3.923564e+01
3.921549e+01
3.918667e+01
3.914216e+01
3.907197e+01
3.896709e+01
3.880503e+01
3.869463e+01
3.862778e+01
3.858105e+01
3.854308e+01
3.850843e+01
3.847513e+01
3.844464e+01
3.842164e+01
3.841167e+01
3.841526e+01
3.842871e+01
3.844950e+01
3.847514e+01
3.850385e+01
3.853450e+01
3.856647e+01
3.859929e+01
3.863246e+01
3.866532e+01
3.869711e+01
3.872709e+01
3.875463e+01
3.877892e+01
3.879926e+01
3.881534e+01
3.882733e+01
3.883576e+01
3.884135e+01
3.884484e+01
3.884686e+01
3.884791e+01
3.884833e+01
3.884836e+01
3.884814e+01
3.884776e+01
3.884727e+01
3.884672e+01
3.884613e+01
3.884551e+01
3.884487e+01
3.884422e+01
3.884357e+01
3.884292e+01
3.884228e+01
3.884165e+01
3.884103e+01
3.884042e+01
3.883983e+01
3.883924e+01
3.883867e+01
3.883812e+01
3.883757e+01
3.883704e+01
3.883652e+01
3.883601e+01
3.883551e+01
3.883501e+01
3.883453e+01
3.883405e+01
3.883357e+01
3.883310e+01
3.883264e+01
3.883218e+01
3.883173e+01
3.883128e+01
3.883084e+01
3.883040e+01
3.882996e+01
3.882953e+01
3.882911e+01
3.882869e+01
3.882827e+01
3.882786e+01
3.882745e+01
3.882705e+01
3.882665e+01
3.882626e+01
3.882587e+01
3.882550e+01
3.882512e+01
3.882476e+01
3.882440e+01
3.882405e+01
3.882370e+01
3.882336e+01
3.882303e+01
3.882271e+01
3.882240e+01
3.882209e+01
3.882180e+01
3.882153e+01
3.882123e+01
3.882054e+01
3.924879e+01
3.924948e+01
3.923987e+01
3.922621e+01
3.920375e+01
3.916286e+01
3.908608e+01
3.894810e+01
3.871835e+01
3.861684e+01
3.857392e+01
3.854571e+01
3.852033e+01
3.849344e+01
3.846318e+01
3.843142e+01
3.840539e+01
3.839398e+01
3.840016e+01
3.841680e+01
3.844059e+01
3.846832e+01
3.849810e+01
3.852900e+01
3.856069e+01
3.859304e+01
3.862576e+01
3.865833e+01
3.869000e+01
3.871991e+01
3.874784e+01
3.877292e+01
3.879424e+01
3.881130e+01
3.882412e+01
3.883318e+01
3.883922e+01
3.884303e+01
3.884529e+01
3.884653e+01
3.884712e+01
3.884730e+01
3.884721e+01
3.884695e+01
3.884657e+01
3.884610e+01
3.884558e+01
3.884502e+01
3.884444e+01
3.884384e+01
3.884324e+01
3.884263e+01
3.884202e+01
3.884142e+01
3.884083e+01
3.884025e+01
3.883969e+01
3.883913e+01
3.883859e+01
3.883806e+01
3.883754e+01
3.883703e+01
3.883652e+01
3.883603e+01
3.883554e+01
3.883506e+01
3.883458e+01
3.883411e+01
3.883364e+01
3.883318e+01
3.883272e+01
3.883227e+01
3.883181e+01
3.883137e+01
3.883092e+01
3.883048e+01
3.883004e+01
3.882961e+01
3.882918e+01
3.882876e+01
3.882834e+01
3.882792e+01
3.882751e+01
3.882711e+01
3.882671e+01
3.882631e+01
3.882593e+01
3.882554e+01
3.882517e+01
3.882480e+01
3.882444e+01
3.882408e+01
3.882374e+01
3.882340e+01
3.882307e+01
3.882274e+01
3.882243e+01
3.882213e+01
3.882185e+01
3.882158e+01
3.882127e+01
3.882059e+01
3.924723e+01
3.924792e+01
3.924609e+01
3.924138e+01
3.922972e+01
3.919962e+01
3.912193e+01
3.892580e+01
3.856708e+01
3.851098e+01
3.851455e+01
3.851036e+01
3.849930e+01
3.848188e+01
3.845618e+01
3.842196e+01
3.838932e+01
3.837269e+01
3.837955e+01
3.840188e+01
3.843092e+01
3.846210e+01
3.849361e+01
3.852483e+01
3.855605e+01
3.858762e+01
3.861962e+01
3.865168e+01
3.868306e+01
3.871270e+01
3.874074e+01
3.876655e+01
3.878887e+01
3.880690e+01
3.882049e+01
3.883011e+01
3.883653e+01
3.884061e+01
3.884309e+01
3.884454e+01
3.884534e+01
3.884572e+01
3.884584e+01
3.884577e+01
3.884556e+01
3.884524e+01
3.884486e+01
3.884441e+01
3.884391e+01
3.884338e+01
3.884283e+01
3.884228e+01
3.884172e+01
3.884117e+01
3.884062e+01
3.884009e+01
3.883956e+01
3.883904e+01
3.883853e+01
3.883803e+01
3.883754e+01
3.883705e+01
3.883657e+01
3.883609e+01
3.883561e+01
3.883514e+01
3.883468e+01
3.883421e+01
3.883375e+01
3.883329e+01
3.883283e+01
3.883238e+01
3.883192e+01
3.883147e+01
3.883103e+01
3.883058e+01
3.883014e+01
3.882971e+01
3.882927e+01
3.882885e+01
3.882842e+01
3.882800e+01
3.882759e+01
3.882718e+01
3.882678e+01
3.882638e+01
3.882599e+01
3.882560e+01
3.882522e+01
3.882485e+01
3.882448e+01
3.882413e+01
3.882378e+01
3.882344e+01
3.882310e+01
3.882278e+01
3.882247e+01
3.882217e+01
3.882188e+01
3.882162e+01
3.882131e+01
3.882062e+01
3.924625e+01
3.924694e+01
3.925376e+01
3.926011e+01
3.926490e+01
3.926024e+01
3.921390e+01
3.899059e+01
3.828803e+01
3.836796e+01
3.846137e+01
3.847944e+01
3.847895e+01
3.847023e+01
3.845542e+01
3.842254e+01
3.838201e+01
3.835654e+01
3.835978e+01
3.838657e+01
3.842495e+01
3.846134e+01
3.849529e+01
3.852675e+01
3.855700e+01
3.858710e+01
3.861763e+01
3.864849e+01
3.867897e+01
3.870785e+01
3.873510e+01
3.876100e+01
3.878382e+01
3.880240e+01
3.881643e+01
3.882637e+01
3.883305e+01
3.883736e+01
3.884008e+01
3.884178e+01
3.884287e+01
3.884357e+01
3.884399e+01
3.884424e+01
3.884432e+01
3.884421e+01
3.884399e+01
3.884368e+01
3.884330e+01
3.884287e+01
3.884242e+01
3.884194e+01
3.884146e+01
3.884097e+01
3.884048e+01
3.883999e+01
3.883951e+01
3.883903e+01
3.883856e+01
3.883808e+01
3.883761e+01
3.883715e+01
3.883668e+01
3.883622e+01
3.883575e+01
3.883529e+01
3.883483e+01
3.883436e+01
3.883390e+01
3.883344e+01
3.883298e+01
3.883252e+01
3.883207e+01
3.883161e+01
3.883116e+01
3.883071e+01
3.883026e+01
3.882982e+01
3.882938e+01
3.882895e+01
3.882852e+01
3.882810e+01
3.882768e+01
3.882726e+01
3.882685e+01
3.882645e+01
3.882605e+01
3.882566e+01
3.882528e+01
3.882490e+01
3.882453e+01
3.882417e+01
3.882382e+01
3.882347e+01
3.882314e+01
3.882281e+01
3.882250e+01
3.882220e+01
3.882191e+01
3.882165e+01
3.882134e+01
3.882065e+01
3.924560e+01
3.924629e+01
3.926126e+01
3.927878e+01
3.930270e+01
3.933681e+01
3.938153e+01
3.950003e+01
3.889335e+01
3.842453e+01
3.848248e+01
3.846774e+01
3.845803e+01
3.844694e+01
3.844111e+01
3.842223e+01
3.838488e+01
3.835405e+01
3.835337e+01
3.838234e+01
3.842751e+01
3.847179e+01
3.850927e+01
3.854072e+01
3.856929e+01
3.859677e+01
3.862448e+01
3.865270e+01
3.868086e+01
3.870773e+01
3.873252e+01
3.875700e+01
3.877899e+01
3.879712e+01
3.881099e+01
3.882101e+01
3.882796e+01
3.883264e+01
3.883579e+01
3.883793e+01
3.883951e+01
3.884074e+01
3.884159e+01
3.884217e+01
3.884256e+01
3.884278e+01
3.884286e+01
3.884281e+01
3.884266e+01
3.884242e+01
3.884211e+01
3.884176e+01
3.884137e+01
3.884095e+01
3.884052e+01
3.884009e+01
3.883964e+01
3.883919e+01
3.883874e+01
3.883828e+01
3.883783e+01
3.883737e+01
3.883691e+01
3.883644e+01
3.883598e+01
3.883551e+01
3.883505e+01
3.883458e+01
3.883411e+01
3.883364e+01
3.883318e+01
3.883271e+01
3.883224e+01
3.883178e+01
3.883132e+01
3.883086e+01
3.883041e+01
3.882996e+01
3.882951e+01
3.882907e+01
3.882863e+01
3.882820e+01
3.882777e+01
3.882735e+01
3.882694e+01
3.882653e+01
3.882613e+01
3.882573e+01
3.882534e+01
3.882496e+01
3.882459e+01
3.882422e+01
3.882386e+01
3.882352e+01
3.882318e+01
3.882285e+01
3.882253e+01
3.882223e+01
3.882194e+01
3.882167e+01
3.882135e+01
3.882067e+01
3.924479e+01
3.924548e+01
3.926634e+01
3.929176e+01
3.932864e+01
3.938731e+01
3.948453e+01
3.961559e+01
3.962749e+01
0.000000e+00
3.846766e+01
3.846835e+01
3.844381e+01
3.842304e+01
3.840228e+01
3.838127e+01
3.835691e+01
3.834216e+01
3.834968e+01
3.838420e+01
3.843244e+01
3.848733e+01
3.853240e+01
3.856581e+01
3.859342e+01
3.861764e+01
3.864131e+01
3.866536e+01
3.868945e+01
3.871241e+01
3.873318e+01
3.875427e+01
3.877358e+01
3.878992e+01
3.880293e+01
3.881283e+01
3.882023e+01
3.882556e+01
3.882948e+01
3.883220e+01
3.883430e+01
3.883604e+01
3.883756e+01
3.883887e+01
3.883998e+01
3.884087e+01
3.884152e+01
3.884195e+01
3.884218e+01
3.884223e+01
3.884213e+01
3.884193e+01
3.884164e+01
3.884130e+01
3.884091e+01
3.884049e+01
3.884006e+01
3.883961e+01
3.883915e+01
3.883869e+01
3.883822e+01
3.883775e+01
3.883727e+01
3.883679e+01
3.883631e+01
3.883583e+01
3.883535e+01
3.883487e+01
3.883438e+01
3.883390e+01
3.883342e+01
3.883294e+01
3.883246e+01
3.883198e+01
3.883151e+01
3.883104e+01
3.883058e+01
3.883011e+01
3.882966e+01
3.882921e+01
3.882876e+01
3.882832e+01
3.882788e+01
3.882745e+01
3.882703e+01
3.882662e+01
3.882621e+01
3.882580e+01
3.882541e+01
3.882502e+01
3.882464e+01
3.882427e+01
3.882391e+01
3.882356e+01
3.882321e+01
3.882288e+01
3.882256e+01
3.882225e+01
3.882196e+01
3.882169e+01
3.882136e+01
3.882068e+01
3.924338e+01
3.924407e+01
3.926745e+01
3.929553e+01
3.933464e+01
3.939206e+01
3.947525e+01
3.957294e+01
3.964076e+01
3.964007e+01
0.000000e+00
3.842157e+01
3.842225e+01
3.839066e+01
3.835641e+01
3.832030e+01
3.828681e+01
3.827774e+01
3.830635e+01
3.836960e+01
3.844463e+01
3.851433e+01
3.856564e+01
3.860338e+01
3.862916e+01
3.864957e+01
3.866798e+01
3.868625e+01
3.870429e+01
3.872116e+01
3.873625e+01
3.875164e+01
3.876613e+01
3.877917e+01
3.879048e+01
3.879984e+01
3.880791e+01
3.881411e+01
3.881939e+01
3.882379e+01
3.882747e+01
3.883060e+01
3.883330e+01
3.883562e+01
3.883758e+01
3.883920e+01
3.884048e+01
3.884142e+01
3.884204e+01
3.884240e+01
3.884253e+01
3.884248e+01
3.884229e+01
3.884200e+01
3.884164e+01
3.884122e+01
3.884077e+01
3.884029e+01
3.883980e+01
3.883930e+01
3.883880e+01
3.883829e+01
3.883778e+01
3.883727e+01
3.883676e+01
3.883625e+01
3.883573e+01
3.883523e+01
3.883472e+01
3.883421e+01
3.883371e+01
3.883321e+01
3.883271e+01
3.883222e+01
3.883173e+01
3.883124e+01
3.883076e+01
3.883029e+01
3.882982e+01
3.882935e+01
3.882889e+01
3.882844e+01
3.882800e+01
3.882756e+01
3.882713e+01
3.882671e+01
3.882629e+01
3.882588e+01
3.882548e+01
3.882509e+01
3.882470e+01
3.882433e+01
3.882396e+01
3.882360e+01
3.882325e+01
3.882291e+01
3.882259e+01
3.882228e+01
3.882198e+01
3.882170e+01
3.882137e+01
3.882068e+01
3.924124e+01
3.924192e+01
3.926449e+01
3.929066e+01
3.932532e+01
3.937296e+01
3.943342e+01
3.948579e+01
3.950850e+01
3.924809e+01
3.924741e+01
0.000000e+00
3.838087e+01
3.834086e+01
3.831040e+01
3.826593e+01
3.822050e+01
3.821257e+01
3.825569e+01
3.834441e+01
3.845795e+01
3.856149e+01
3.862764e+01
3.866274e+01
3.868141e+01
3.869404e+01
3.870489e+01
3.871522e+01
3.872471e+01
3.873298e+01
3.874011e+01
3.874723e+01
3.875451e+01
3.876253e+01
3.877185e+01
3.878195e+01
3.879229e+01
3.880161e+01
3.880983e+01
3.881665e+01
3.882213e+01
3.882659e+01
3.883032e+01
3.883347e+01
3.883606e+01
3.883819e+01
3.883989e+01
3.884119e+01
3.884212e+01
3.884274e+01
3.884308e+01
3.884319e+01
3.884311e+01
3.884288e+01
3.884255e+01
3.884213e+01
3.884166e+01
3.884115e+01
3.884061e+01
3.884007e+01
3.883951e+01
3.883896e+01
3.883840e+01
3.883784e+01
3.883729e+01
3.883673e+01
3.883619e+01
3.883564e+01
3.883510e+01
3.883457e+01
3.883403e+01
3.883351e+01
3.883299e+01
3.883247e+01
3.883196e+01
3.883146e+01
3.883096e+01
3.883047e+01
3.882999e+01
3.882951e+01
3.882904e+01
3.882858e+01
3.882812e+01
3.882767e+01
3.882723e+01
3.882680e+01
3.882638e+01
3.882596e+01
3.882555e+01
3.882515e+01
3.882476e+01
3.882438e+01
3.882400e+01
3.882364e+01
3.882329e+01
3.882294e+01
3.882261e+01
3.882229e+01
3.882199e+01
3.882170e+01
3.882136e+01
3.882067e+01
3.923861e+01
3.923929e+01
3.925859e+01
3.927997e+01
3.930578e+01
3.933587e+01
3.936295e+01
3.936499e+01
3.929776e+01
3.916929e+01
3.873903e+01
3.841758e+01
3.826712e+01
3.831718e+01
3.828869e+01
3.824272e+01
3.820327e+01
3.820743e+01
3.826421e+01
3.836682e+01
3.849512e+01
3.861777e+01
3.869072e+01
3.872669e+01
3.874081e+01
3.874707e+01
3.874795e+01
3.874791e+01
3.874659e+01
3.874479e+01
3.874315e+01
3.874141e+01
3.874111e+01
3.874432e+01
3.875182e+01
3.876362e+01
3.877780e+01
3.879136e+01
3.880276e+01
3.881191e+01
3.881895e+01
3.882446e+01
3.882891e+01
3.883254e+01
3.883549e+01
3.883789e+01
3.883979e+01
3.884127e+01
3.884237e+01
3.884314e+01
3.884362e+01
3.884385e+01
3.884386e+01
3.884371e+01
3.884341e+01
3.884302e+01
3.884254e+01
3.884202e+01
3.884146e+01
3.884087e+01
3.884027e+01
3.883967e+01
3.883906e+01
3.883846e+01
3.883786e+01
3.883726e+01
3.883667e+01
3.883609e+01
3.883551e+01
3.883494e+01
3.883438e+01
3.883383e+01
3.883328e+01
3.883274e+01
3.883221e+01
3.883169e+01
3.883117e+01
3.883066e+01
3.883016e+01
3.882967e+01
3.882919e+01
3.882871e+01
3.882824e+01
3.882779e+01
3.882734e+01
3.882689e+01
3.882646e+01
3.882604e+01
3.882562e+01
3.882522e+01
3.882482e+01
3.882443e+01
3.882405e+01
3.882368e+01
3.882332e+01
3.882297e+01
3.882263e+01
3.882231e+01
3.882200e+01
3.882170e+01
3.882135e+01
3.882066e+01
3.923588e+01
3.923657e+01
3.925078e+01
3.926525e+01
3.928012e+01
3.929231e+01
3.929232e+01
3.925992e+01
3.915744e+01
3.897456e+01
3.868800e+01
3.809750e+01
3.821843e+01
3.827067e+01
3.827769e+01
3.824420e+01
3.822449e+01
3.824401e+01
3.830928e+01
3.841326e+01
3.853818e+01
3.865018e+01
3.872443e+01
3.875611e+01
3.876794e+01
3.877625e+01
3.877663e+01
3.877028e+01
3.876087e+01
3.875165e+01
3.874338e+01
3.873405e+01
3.872614e+01
3.872511e+01
3.873385e+01
3.875025e+01
3.876878e+01
3.878576e+01
3.879940e+01
3.880974e+01
3.881766e+01
3.882382e+01
3.882872e+01
3.883264e+01
3.883579e+01
3.883831e+01
3.884028e+01
3.884180e+01
3.884292e+01
3.884371e+01
3.884421e+01
3.884446e+01
3.884451e+01
3.884439e+01
3.884413e+01
3.884375e+01
3.884330e+01
3.884277e+01
3.884220e+01
3.884160e+01
3.884097e+01
3.884034e+01
3.883970e+01
3.883905e+01
3.883842e+01
3.883778e+01
3.883716e+01
3.883654e+01
3.883593e+01
3.883533e+01
3.883473e+01
3.883415e+01
3.883358e+01
3.883301e+01
3.883246e+01
3.883191e+01
3.883138e+01
3.883085e+01
3.883034e+01
3.882983e+01
3.882933e+01
3.882884e+01
3.882837e+01
3.882790e+01
3.882744e+01
3.882699e+01
3.882655e+01
3.882611e+01
3.882569e+01
3.882528e+01
3.882487e+01
3.882448e+01
3.882409e+01
3.882371e+01
3.882335e+01
3.882299e+01
3.882265e+01
3.882231e+01
3.882200e+01
3.882169e+01
3.882133e+01
3.882064e+01
3.923310e+01
3.923379e+01
3.924221e+01
3.924944e+01
3.925421e+01
3.925248e+01
3.923570e+01
3.918900e+01
3.908936e+01
3.891717e+01
3.868611e+01
3.837374e+01
3.833148e+01
3.832665e+01
3.831622e+01
3.829143e+01
3.828468e+01
3.831047e+01
3.837285e+01
3.846657e+01
3.856722e+01
3.864859e+01
3.870246e+01
3.873493e+01
3.875667e+01
3.876933e+01
3.877223e+01
3.876669e+01
3.875812e+01
3.874953e+01
3.873955e+01
3.872493e+01
3.871351e+01
3.871402e+01
3.872666e+01
3.874608e+01
3.876693e+01
3.878486e+01
3.879890e+01
3.880969e+01
3.881797e+01
3.882438e+01
3.882941e+01
3.883339e+01
3.883655e+01
3.883904e+01
3.884099e+01
3.884248e+01
3.884357e+01
3.884433e+01
3.884481e+01
3.884505e+01
3.884509e+01
3.884497e+01
3.884471e+01
3.884435e+01
3.884390e+01
3.884338e+01
3.884281e+01
3.884221e+01
3.884157e+01
3.884092e+01
3.884026e+01
3.883959e+01
3.883892e+01
3.883826e+01
3.883761e+01
3.883696e+01
3.883632e+01
3.883569e+01
3.883507e+01
3.883446e+01
3.883386e+01
3.883327e+01
3.883270e+01
3.883213e+01
3.883158e+01
3.883104e+01
3.883050e+01
3.882998e+01
3.882947e+01
3.882897e+01
3.882848e+01
3.882800e+01
3.882753e+01
3.882707e+01
3.882662e+01
3.882619e+01
3.882576e+01
3.882534e+01
3.882492e+01
3.882452e+01
3.882413e+01
3.882375e+01
3.882337e+01
3.882301e+01
3.882266e+01
3.882232e+01
3.882199e+01
3.882168e+01
3.882131e+01
3.882062e+01
3.923060e+01
3.923129e+01
3.923407e+01
3.923476e+01
3.923145e+01
3.922024e+01
3.919455e+01
3.914464e+01
3.905773e+01
3.892046e+01
3.873623e+01
3.852812e+01
3.843910e+01
3.839882e+01
3.837309e+01
3.835217e+01
3.835066e+01
3.837613e+01
3.842951e+01
3.850548e+01
3.858187e+01
3.864570e+01
3.869255e+01
3.872475e+01
3.874535e+01
3.875628e+01
3.875838e+01
3.875515e+01
3.875052e+01
3.874439e+01
3.873410e+01
3.871948e+01
3.871139e+01
3.871538e+01
3.872972e+01
3.874966e+01
3.876984e+01
3.878689e+01
3.880052e+01
3.881112e+01
3.881931e+01
3.882565e+01
3.883060e+01
3.883447e+01
3.883750e+01
3.883987e+01
3.884170e+01
3.884308e+01
3.884409e+01
3.884480e+01
3.884524e+01
3.884547e+01
3.884551e+01
3.884540e+01
3.884516e+01
3.884481e+01
3.884437e+01
3.884386e+01
3.884330e+01
3.884270e+01
3.884206e+01
3.884140e+01
3.884073e+01
3.884005e+01
3.883936e+01
3.883868e+01
3.883800e+01
3.883733e+01
3.883667e+01
3.883601e+01
3.883537e+01
3.883474e+01
3.883412e+01
3.883351e+01
3.883292e+01
3.883233e+01
3.883176e+01
3.883121e+01
3.883066e+01
3.883012e+01
3.882960e+01
3.882909e+01
3.882859e+01
3.882810e+01
3.882762e+01
3.882715e+01
3.882670e+01
3.882625e+01
3.882581e+01
3.882539e+01
3.882497e+01
3.882456e+01
3.882416e+01
3.882378e+01
3.882340e+01
3.882303e+01
3.882266e+01
3.882231e+01
3.882198e+01
3.882166e+01
3.882127e+01
3.882059e+01
3.922859e+01
3.922927e+01
3.922711e+01
3.922238e+01
3.921305e+01
3.919568e+01
3.916545e+01
3.911604e+01
3.904019e+01
3.893017e+01
3.878481e+01
3.862394e+01
3.852327e+01
3.846471e+01
3.842859e+01
3.840778e+01
3.840707e+01
3.842948e+01
3.847353e+01
3.853271e+01
3.859262e+01
3.864464e+01
3.868526e+01
3.871468e+01
3.873374e+01
3.874398e+01
3.874709e+01
3.874572e+01
3.874261e+01
3.873667e+01
3.872707e+01
3.871677e+01
3.871386e+01
3.872105e+01
3.873629e+01
3.875541e+01
3.877394e+01
3.878986e+01
3.880276e+01
3.881292e+01
3.882082e+01
3.882695e+01
3.883172e+01
3.883543e+01
3.883833e+01
3.884057e+01
3.884229e+01
3.884358e+01
3.884452e+01
3.884516e+01
3.884557e+01
3.884577e+01
3.884580e+01
3.884569e+01
3.884546e+01
3.884512e+01
3.884470e+01
3.884421e+01
3.884366e+01
3.884306e+01
3.884243e+01
3.884177e+01
3.884110e+01
3.884041e+01
3.883971e+01
3.883902e+01
3.883833e+01
3.883764e+01
3.883696e+01
3.883629e+01
3.883563e+01
3.883498e+01
3.883434e+01
3.883372e+01
3.883311e+01
3.883251e+01
3.883192e+01
3.883135e+01
3.883079e+01
3.883025e+01
3.882971e+01
3.882919e+01
3.882868e+01
3.882818e+01
3.882770e+01
3.882722e+01
3.882676e+01
3.882631e+01
3.882587e+01
3.882543e+01
3.882501e+01
3.882460e+01
3.882419e+01
3.882380e+01
3.882341e+01
3.882304e+01
3.882267e+01
3.882231e+01
3.882196e+01
3.882163e+01
3.882123e+01
3.882055e+01
3.922711e+01
3.922780e+01
3.922162e+01
3.921271e+01
3.919905e+01
3.917774e+01
3.914509e+01
3.909679e+01
3.902833e+01
3.893543e+01
3.881726e+01
3.868731e+01
3.858712e+01
3.851880e+01
3.847522e+01
3.845240e+01
3.845041e+01
3.846908e+01
3.850528e+01
3.855245e+01
3.860111e+01
3.864477e+01
3.868031e+01
3.870694e+01
3.872481e+01
3.873498e+01
3.873888e+01
3.873842e+01
3.873527e+01
3.872916e+01
3.872115e+01
3.871541e+01
3.871686e+01
3.872651e+01
3.874214e+01
3.876022e+01
3.877754e+01
3.879256e+01
3.880488e+01
3.881464e+01
3.882225e+01
3.882814e+01
3.883269e+01
3.883622e+01
3.883895e+01
3.884105e+01
3.884266e+01
3.884386e+01
3.884474e+01
3.884535e+01
3.884574e+01
3.884594e+01
3.884597e+01
3.884586e+01
3.884564e+01
3.884532e+01
3.884491e+01
3.884444e+01
3.884390e+01
3.884331e+01
3.884269e+01
3.884204e+01
3.884137e+01
3.884068e+01
3.883998e+01
3.883928e+01
3.883858e+01
3.883788e+01
3.883719e+01
3.883651e+01
3.883583e+01
3.883517e+01
3.883452e+01
3.883389e+01
3.883326e+01
3.883265e+01
3.883206e+01
3.883147e+01
3.883090e+01
3.883035e+01
3.882981e+01
3.882928e+01
3.882876e+01
3.882825e+01
3.882776e+01
3.882728e+01
3.882681e+01
3.882635e+01
3.882591e+01
3.882547e+01
3.882504e+01
3.882463e+01
3.882422e+01
3.882382e+01
3.882343e+01
3.882304e+01
3.882266e+01
3.882229e+01
3.882193e+01
3.882158e+01
3.882118e+01
3.882049e+01
3.922614e+01
3.922683e+01
3.921765e+01
3.920572e+01
3.918912e+01
3.916531e+01
3.913133e+01
3.908396e+01
3.902010e+01
3.893732e+01
3.883596e+01
3.872565e+01
3.863083e+01
3.855975e+01
3.851233e+01
3.848714e+01
3.848288e+01
3.849763e+01
3.852746e+01
3.856641e+01
3.860750e+01
3.864535e+01
3.867708e+01
3.870152e+01
3.871850e+01
3.872863e+01
3.873295e+01
3.873278e+01
3.872926e+01
3.872324e+01
3.871710e+01
3.871479e+01
3.871925e+01
3.873052e+01
3.874633e+01
3.876369e+01
3.878023e+01
3.879466e+01
3.880657e+01
3.881604e+01
3.882342e+01
3.882910e+01
3.883345e+01
3.883680e+01
3.883937e+01
3.884134e+01
3.884285e+01
3.884399e+01
3.884482e+01
3.884541e+01
3.884578e+01
3.884598e+01
3.884602e+01
3.884593e+01
3.884572e+01
3.884541e+01
3.884502e+01
3.884456e+01
3.884404e+01
3.884347e+01
3.884285e+01
3.884221e+01
3.884154e+01
3.884086e+01
3.884016e+01
3.883946e+01
3.883875e+01
3.883805e+01
3.883735e+01
3.883666e+01
3.883598e+01
3.883531e+01
3.883465e+01
3.883401e+01
3.883338e+01
3.883276e+01
3.883215e+01
3.883156e+01
3.883099e+01
3.883042e+01
3.882988e+01
3.882934e+01
3.882882e+01
3.882831e+01
3.882781e+01
3.882732e+01
3.882685e+01
3.882639e+01
3.882594e+01
3.882550e+01
3.882507e+01
3.882465e+01
3.882423e+01
3.882383e+01
3.882343e+01
3.882304e+01
3.882266e+01
3.882228e+01
3.882190e+01
3.882153e+01
3.882112e+01
3.882043e+01
3.922559e+01
3.922627e+01
3.921512e+01
3.920124e+01
3.918283e+01
3.915757e+01
3.912292e+01
3.907623e+01
3.901511e+01
3.893807e+01
3.884620e+01
3.874719e+01
3.865721e+01
3.858597e+01
3.853682e+01
3.850998e+01
3.850387e+01
3.851581e+01
3.854149e+01
3.857537e+01
3.861170e+01
3.864588e+01
3.867510e+01
3.869806e+01
3.871443e+01
3.872451e+01
3.872900e+01
3.872882e+01
3.872503e+01
3.871933e+01
3.871482e+01
3.871481e+01
3.872112e+01
3.873326e+01
3.874905e+01
3.876593e+01
3.878199e+01
3.879605e+01
3.880771e+01
3.881700e+01
3.882423e+01
3.882977e+01
3.883398e+01
3.883719e+01
3.883963e+01
3.884150e+01
3.884293e+01
3.884401e+01
3.884481e+01
3.884537e+01
3.884574e+01
3.884594e+01
3.884599e+01
3.884591e+01
3.884571e+01
3.884542e+01
3.884505e+01
3.884460e+01
3.884409e+01
3.884353e+01
3.884293e+01
3.884229e+01
3.884163e+01
3.884095e+01
3.884026e+01
3.883956e+01
3.883885e+01
3.883815e+01
3.883745e+01
3.883676e+01
3.883607e+01
3.883540e+01
3.883473e+01
3.883408e+01
3.883345e+01
3.883282e+01
3.883221e+01
3.883162e+01
3.883104e+01
3.883047e+01
3.882992e+01
3.882938e+01
3.882885e+01
3.882834e+01
3.882784e+01
3.882735e+01
3.882688e+01
3.882641e+01
3.882596e+01
3.882552e+01
3.882508e+01
3.882466e+01
3.882425e+01
3.882384e+01
3.882344e+01
3.882304e+01
3.882265e+01
3.882226e+01
3.882186e+01
3.882146e+01
3.882104e+01
3.882035e+01
3.922536e+01
3.922605e+01
3.921392e+01
3.919910e+01
3.917986e+01
3.915400e+01
3.911916e+01
3.907295e+01
3.901326e+01
3.893895e+01
3.885140e+01
3.875747e+01
3.866999e+01
3.859893e+01
3.854907e+01
3.852135e+01
3.851421e+01
3.852465e+01
3.854823e+01
3.857963e+01
3.861364e+01
3.864600e+01
3.867399e+01
3.869620e+01
3.871224e+01
3.872230e+01
3.872689e+01
3.872672e+01
3.872292e+01
3.871769e+01
3.871415e+01
3.871522e+01
3.872226e+01
3.873464e+01
3.875029e+01
3.876685e+01
3.878264e+01
3.879654e+01
3.880811e+01
3.881736e+01
3.882455e+01
3.883005e+01
3.883422e+01
3.883737e+01
3.883976e+01
3.884158e+01
3.884297e+01
3.884401e+01
3.884479e+01
3.884534e+01
3.884570e+01
3.884589e+01
3.884594e+01
3.884586e+01
3.884568e+01
3.884540e+01
3.884503e+01
3.884459e+01
3.884409e+01
3.884354e+01
3.884294e+01
3.884231e+01
3.884165e+01
3.884098e+01
3.884029e+01
3.883959e+01
3.883889e+01
3.883818e+01
3.883748e+01
3.883679e+01
3.883611e+01
3.883543e+01
3.883477e+01
3.883411e+01
3.883348e+01
3.883285e+01
3.883224e+01
3.883164e+01
3.883106e+01
3.883049e+01
3.882994e+01
3.882940e+01
3.882887e+01
3.882835e+01
3.882785e+01
3.882736e+01
3.882689e+01
3.882642e+01
3.882597e+01
3.882552e+01
3.882509e+01
3.882466e+01
3.882425e+01
3.882384e+01
3.882344e+01
3.882304e+01
3.882264e+01
3.882224e+01
3.882182e+01
3.882135e+01
3.882093e+01
3.882025e+01
0.000000e+00
3.922536e+01
3.921323e+01
3.919842e+01
3.917918e+01
3.915331e+01
3.911847e+01
3.907227e+01
3.901257e+01
3.893827e+01
3.885071e+01
3.875678e+01
3.866930e+01
3.859825e+01
3.854838e+01
3.852066e+01
3.851353e+01
3.852396e+01
3.854755e+01
3.857894e+01
3.861296e+01
3.864532e+01
3.867330e+01
3.869551e+01
3.871155e+01
3.872161e+01
3.872620e+01
3.872604e+01
3.872224e+01
3.871700e+01
3.871346e+01
3.871453e+01
3.872158e+01
3.873395e+01
3.874960e+01
3.876616e+01
3.878195e+01
3.879585e+01
3.880742e+01
3.881667e+01
3.882386e+01
3.882936e+01
3.883353e+01
3.883669e+01
3.883908e+01
3.884090e+01
3.884228e+01
3.884333e+01
3.884410e+01
3.884465e+01
3.884501e+01
3.884520e+01
3.884525e+01
3.884518e+01
3.884499e+01
3.884471e+01
3.884434e+01
3.884390e+01
3.884340e+01
3.884285e+01
3.884225e+01