# vtk DataFile Version 3.0
Scalar Field
ASCII
DATASET RECTILINEAR_GRID
DIMENSIONS 102 22 1
X_COORDINATES 102 double
0.000000 0.100000 0.200000 0.300000 0.400000 0.500000 0.600000 0.700000 0.800000 0.900000 1.000000 1.100000 1.200000 1.300000 1.400000 1.500000 1.600000 1.700000 1.800000 1.900000 2.000000 2.100000 2.200000 2.300000 2.400000 2.500000 2.600000 2.700000 2.800000 2.900000 3.000000 3.100000 3.200000 3.300000 3.400000 3.500000 3.600000 3.700000 3.800000 3.900000 4.000000 4.100000 4.200000 4.300000 4.400000 4.500000 4.600000 4.700000 4.800000 4.900000 5.000000 5.100000 5.200000 5.300000 5.400000 5.500000 5.600000 5.700000 5.800000 5.900000 6.000000 6.100000 6.200000 6.300000 6.400000 6.500000 6.600000 6.700000 6.800000 6.900000 7.000000 7.100000 7.200000 7.300000 7.400000 7.500000 7.600000 7.700000 7.800000 7.900000 8.000000 8.100000 8.200000 8.300000 8.400000 8.500000 8.600000 8.700000 8.800000 8.900000 9.000000 9.100000 9.200000 9.300000 9.400000 9.500000 9.600000 9.700000 9.800000 9.900000 10.000000 10.100000 
Y_COORDINATES 22 double
0.000000 0.100000 0.200000 0.300000 0.400000 0.500000 0.600000 0.700000 0.800000 0.900000 1.000000 1.100000 1.200000 1.300000 1.400000 1.500000 1.600000 1.700000 1.800000 1.900000 2.000000 2.100000 
Z_COORDINATES 1 double
0.0
POINT_DATA 2244
SCALARS Pressure double 1
LOOKUP_TABLE default
0.000000e+00
6.884521e+01
6.881987e+01
6.879057e+01
6.875420e+01
6.870720e+01
6.864617e+01
6.856975e+01
6.847729e+01
6.838604e+01
6.830909e+01
6.824983e+01
6.820578e+01
6.817252e+01
6.814571e+01
6.812199e+01
6.809964e+01
6.807904e+01
6.806236e+01
6.805224e+01
6.805007e+01
6.805552e+01
6.806740e+01
6.808431e+01
6.810506e+01
6.812889e+01
6.815548e+01
6.818479e+01
6.821689e+01
6.825169e+01
6.828884e+01
6.832767e+01
6.836727e+01
6.840657e+01
6.844440e+01
6.847948e+01
6.851074e+01
6.853771e+01
6.856071e+01
6.858050e+01
6.859852e+01
6.861429e+01
6.862454e+01
6.862353e+01
6.860441e+01
6.856208e+01
6.849865e+01
6.842508e+01
6.835827e+01
6.831443e+01
6.830100e+01
6.831147e+01
6.834010e+01
6.838035e+01
6.842523e+01
6.846819e+01
6.850395e+01
6.852978e+01
6.854577e+01
6.855404e+01
6.855729e+01
6.855761e+01
6.855616e+01
6.855425e+01
6.855116e+01
6.854617e+01
6.853889e+01
6.852930e+01
6.851775e+01
6.850487e+01
6.849150e+01
6.847853e+01
6.846686e+01
6.845727e+01
6.845036e+01
6.844650e+01
6.844577e+01
6.844802e+01
6.845281e+01
6.845972e+01
6.846833e+01
6.847809e+01
6.848834e+01
6.849827e+01
6.850696e+01
6.851356e+01
6.851744e+01
6.851846e+01
6.851692e+01
6.851340e+01
6.850865e+01
6.850339e+01
6.849817e+01
6.849337e+01
6.848924e+01
6.848593e+01
6.848351e+01
6.848200e+01
6.848139e+01
6.848167e+01
6.848390e+01
0.000000e+00
6.884521e+01
6.884569e+01
6.882035e+01
6.879105e+01
6.875467e+01
6.870768e+01
6.864665e+01
6.857023e+01
6.847777e+01
6.838652e+01
6.830957e+01
6.825030e+01
6.820625e+01
6.817300e+01
6.814618e+01
6.812247e+01
6.810012e+01
6.807952e+01
6.806284e+01
6.805272e+01
6.805054e+01
6.805600e+01
6.806788e+01
6.808479e+01
6.810554e+01
6.812937e+01
6.815596e+01
6.818527e+01
6.821737e+01
6.825217e+01
6.828931e+01
6.832815e+01
6.836775e+01
6.840705e+01
6.844488e+01
6.847995e+01
6.851122e+01
6.853819e+01
6.856118e+01
6.858098e+01
6.859900e+01
6.861477e+01
6.862501e+01
6.862400e+01
6.860489e+01
6.856255e+01
6.849913e+01
6.842556e+01
6.835875e+01
6.831490e+01
6.830148e+01
6.831195e+01
6.834058e+01
6.838083e+01
6.842571e+01
6.846867e+01
6.850443e+01
6.853026e+01
6.854625e+01
6.855452e+01
6.855777e+01
6.855809e+01
6.855664e+01
6.855473e+01
6.855163e+01
6.854665e+01
6.853937e+01
6.852978e+01
6.851823e+01
6.850535e+01
6.849198e+01
6.847901e+01
6.846734e+01
6.845775e+01
6.845084e+01
6.844698e+01
6.844625e+01
6.844850e+01
6.845329e+01
6.846020e+01
6.846881e+01
6.847857e+01
6.848882e+01
6.849875e+01
6.850744e+01
6.851404e+01
6.851792e+01
6.851894e+01
6.851740e+01
6.851388e+01
6.850913e+01
6.850387e+01
6.849864e+01
6.849385e+01
6.848972e+01
6.848641e+01
6.848399e+01
6.848248e+01
6.848187e+01
6.848215e+01
6.848438e+01
6.848390e+01
6.884457e+01
6.884505e+01
6.882110e+01
6.879298e+01
6.875731e+01
6.871008e+01
6.864718e+01
6.856687e+01
6.846537e+01
6.836981e+01
6.829368e+01
6.823748e+01
6.819680e+01
6.816652e+01
6.814214e+01
6.812023e+01
6.809886e+01
6.807836e+01
6.806121e+01
6.805058e+01
6.804841e+01
6.805409e+01
6.806630e+01
6.808347e+01
6.810432e+01
6.812804e+01
6.815433e+01
6.818321e+01
6.821481e+01
6.824912e+01
6.828586e+01
6.832438e+01
6.836376e+01
6.840288e+01
6.844064e+01
6.847574e+01
6.850703e+01
6.853392e+01
6.855659e+01
6.857582e+01
6.859244e+01
6.860546e+01
6.861206e+01
6.860827e+01
6.858815e+01
6.854640e+01
6.848535e+01
6.841609e+01
6.835372e+01
6.831258e+01
6.830059e+01
6.831163e+01
6.833905e+01
6.837681e+01
6.841844e+01
6.845847e+01
6.849316e+01
6.851983e+01
6.853767e+01
6.854802e+01
6.855307e+01
6.855475e+01
6.855426e+01
6.855255e+01
6.854929e+01
6.854405e+01
6.853656e+01
6.852689e+01
6.851540e+01
6.850273e+01
6.848970e+01
6.847717e+01
6.846596e+01
6.845682e+01
6.845030e+01
6.844676e+01
6.844631e+01
6.844891e+01
6.845404e+01
6.846129e+01
6.847024e+01
6.848028e+01
6.849062e+01
6.850031e+01
6.850845e+01
6.851433e+01
6.851753e+01
6.851807e+01
6.851631e+01
6.851270e+01
6.850793e+01
6.850271e+01
6.849755e+01
6.849285e+01
6.848883e+01
6.848563e+01
6.848330e+01
6.848186e+01
6.848131e+01
6.848164e+01
6.848381e+01
6.848334e+01
6.884374e+01
6.884422e+01
6.882319e+01
6.879771e+01
6.876395e+01
6.871680e+01
6.865034e+01
6.856130e+01
6.843842e+01
6.833509e+01
6.826230e+01
6.821308e+01
6.817920e+01
6.815460e+01
6.813485e+01
6.811643e+01
6.809691e+01
6.807647e+01
6.805821e+01
6.804644e+01
6.804424e+01
6.805044e+01
6.806332e+01
6.808101e+01
6.810202e+01
6.812547e+01
6.815110e+01
6.817901e+01
6.820946e+01
6.824262e+01
6.827832e+01
6.831601e+01
6.835476e+01
6.839347e+01
6.843100e+01
6.846610e+01
6.849758e+01
6.852466e+01
6.854729e+01
6.856618e+01
6.858200e+01
6.859297e+01
6.859671e+01
6.858984e+01
6.856828e+01
6.852786e+01
6.846963e+01
6.840526e+01
6.834791e+01
6.831023e+01
6.829935e+01
6.831060e+01
6.833561e+01
6.836952e+01
6.840700e+01
6.844343e+01
6.847587e+01
6.850259e+01
6.852259e+01
6.853602e+01
6.854402e+01
6.854804e+01
6.854932e+01
6.854849e+01
6.854544e+01
6.854014e+01
6.853258e+01
6.852293e+01
6.851154e+01
6.849912e+01
6.848647e+01
6.847442e+01
6.846378e+01
6.845521e+01
6.844927e+01
6.844628e+01
6.844641e+01
6.844971e+01
6.845542e+01
6.846322e+01
6.847259e+01
6.848279e+01
6.849288e+01
6.850178e+01
6.850893e+01
6.851382e+01
6.851622e+01
6.851632e+01
6.851437e+01
6.851076e+01
6.850615e+01
6.850112e+01
6.849614e+01
6.849158e+01
6.848769e+01
6.848459e+01
6.848234e+01
6.848095e+01
6.848041e+01
6.848069e+01
6.848264e+01
6.848216e+01
6.884306e+01
6.884354e+01
6.882706e+01
6.880594e+01
6.877576e+01
6.872953e+01
6.865749e+01
6.855107e+01
6.838765e+01
6.827766e+01
6.821574e+01
6.817869e+01
6.815483e+01
6.813828e+01
6.812511e+01
6.811198e+01
6.809518e+01
6.807436e+01
6.805387e+01
6.803986e+01
6.803729e+01
6.804457e+01
6.805875e+01
6.807741e+01
6.809880e+01
6.812191e+01
6.814653e+01
6.817297e+01
6.820172e+01
6.823315e+01
6.826730e+01
6.830374e+01
6.834160e+01
6.837970e+01
6.841681e+01
6.845182e+01
6.848361e+01
6.851127e+01
6.853450e+01
6.855388e+01
6.857007e+01
6.858023e+01
6.858026e+01
6.856929e+01
6.854608e+01
6.850850e+01
6.845604e+01
6.839899e+01
6.834807e+01
6.831419e+01
6.830384e+01
6.831444e+01
6.833639e+01
6.836599e+01
6.839901e+01
6.843157e+01
6.846099e+01
6.848681e+01
6.850740e+01
6.852239e+01
6.853244e+01
6.853859e+01
6.854181e+01
6.854248e+01
6.854023e+01
6.853527e+01
6.852782e+01
6.851825e+01
6.850702e+01
6.849494e+01
6.848282e+01
6.847145e+01
6.846156e+01
6.845378e+01
6.844862e+01
6.844641e+01
6.844749e+01
6.845163e+01
6.845805e+01
6.846636e+01
6.847589e+01
6.848572e+01
6.849476e+01
6.850235e+01
6.850826e+01
6.851212e+01
6.851391e+01
6.851393e+01
6.851199e+01
6.850861e+01
6.850427e+01
6.849944e+01
6.849460e+01
6.849018e+01
6.848640e+01
6.848339e+01
6.848122e+01
6.847986e+01
6.847929e+01
6.847946e+01
6.848109e+01
6.848061e+01
6.884292e+01
6.884340e+01
6.883316e+01
6.881854e+01
6.879469e+01
6.875197e+01
6.867299e+01
6.853258e+01
6.829815e+01
6.819500e+01
6.815574e+01
6.813669e+01
6.812571e+01
6.811883e+01
6.811358e+01
6.810808e+01
6.809568e+01
6.807383e+01
6.804909e+01
6.803101e+01
6.802672e+01
6.803592e+01
6.805262e+01
6.807310e+01
6.809540e+01
6.811823e+01
6.814155e+01
6.816599e+01
6.819238e+01
6.822141e+01
6.825339e+01
6.828811e+01
6.832477e+01
6.836213e+01
6.839876e+01
6.843366e+01
6.846607e+01
6.849515e+01
6.852048e+01
6.854181e+01
6.855814e+01
6.856662e+01
6.856163e+01
6.854647e+01
6.852278e+01
6.848955e+01
6.844537e+01
6.839783e+01
6.835508e+01
6.832587e+01
6.831593e+01
6.832502e+01
6.834349e+01
6.836855e+01
6.839690e+01
6.842533e+01
6.845119e+01
6.847502e+01
6.849510e+01
6.851069e+01
6.852193e+01
6.852949e+01
6.853411e+01
6.853607e+01
6.853441e+01
6.852964e+01
6.852229e+01
6.851291e+01
6.850203e+01
6.849052e+01
6.847920e+01
6.846877e+01
6.845989e+01
6.845312e+01
6.844896e+01
6.844782e+01
6.845015e+01
6.845509e+01
6.846206e+01
6.847046e+01
6.847946e+01
6.848802e+01
6.849533e+01
6.850149e+01
6.850612e+01
6.850915e+01
6.851076e+01
6.851084e+01
6.850921e+01
6.850621e+01
6.850221e+01
6.849763e+01
6.849298e+01
6.848874e+01
6.848510e+01
6.848221e+01
6.848011e+01
6.847879e+01
6.847819e+01
6.847820e+01
6.847933e+01
6.847885e+01
6.884363e+01
6.884411e+01
6.884166e+01
6.883604e+01
6.882302e+01
6.879099e+01
6.871058e+01
6.851007e+01
6.814171e+01
6.808042e+01
6.808672e+01
6.809158e+01
6.809451e+01
6.809692e+01
6.809906e+01
6.810261e+01
6.809991e+01
6.807857e+01
6.804757e+01
6.802240e+01
6.801411e+01
6.802385e+01
6.804584e+01
6.806953e+01
6.809383e+01
6.811673e+01
6.813853e+01
6.816047e+01
6.818381e+01
6.820966e+01
6.823874e+01
6.827109e+01
6.830605e+01
6.834237e+01
6.837833e+01
6.841291e+01
6.844604e+01
6.847747e+01
6.850646e+01
6.853053e+01
6.854610e+01
6.854893e+01
6.853757e+01
6.851979e+01
6.849829e+01
6.847181e+01
6.843807e+01
6.840156e+01
6.836812e+01
6.834440e+01
6.833526e+01
6.834198e+01
6.835665e+01
6.837700e+01
6.840045e+01
6.842436e+01
6.844641e+01
6.846728e+01
6.848570e+01
6.850076e+01
6.851227e+01
6.852052e+01
6.852592e+01
6.852865e+01
6.852729e+01
6.852268e+01
6.851558e+01
6.850671e+01
6.849663e+01
6.848616e+01
6.847608e+01
6.846696e+01
6.845940e+01
6.845392e+01
6.845103e+01
6.845132e+01
6.845471e+01
6.846016e+01
6.846710e+01
6.847478e+01
6.848229e+01
6.848879e+01
6.849442e+01
6.849904e+01
6.850257e+01
6.850510e+01
6.850680e+01
6.850710e+01
6.850589e+01
6.850335e+01
6.849979e+01
6.849559e+01
6.849128e+01
6.848733e+01
6.848393e+01
6.848123e+01
6.847927e+01
6.847804e+01
6.847744e+01
6.847730e+01
6.847766e+01
6.847718e+01
6.884523e+01
6.884571e+01
6.885197e+01
6.885753e+01
6.886112e+01
6.885466e+01
6.880543e+01
6.857619e+01
6.785574e+01
6.792682e+01
6.802331e+01
6.805199e+01
6.806561e+01
6.807317e+01
6.807923e+01
6.808615e+01
6.809635e+01
6.808711e+01
6.805272e+01
6.801985e+01
6.800620e+01
6.801537e+01
6.804052e+01
6.806974e+01
6.809834e+01
6.812209e+01
6.814217e+01
6.816130e+01
6.818097e+01
6.820273e+01
6.822781e+01
6.825666e+01
6.828886e+01
6.832322e+01
6.835798e+01
6.839179e+01
6.842509e+01
6.845743e+01
6.848708e+01
6.851103e+01
6.852301e+01
6.851839e+01
6.850475e+01
6.848914e+01
6.847337e+01
6.845613e+01
6.843448e+01
6.840994e+01
6.838618e+01
6.836824e+01
6.836028e+01
6.836415e+01
6.837480e+01
6.839025e+01
6.840855e+01
6.842758e+01
6.844539e+01
6.846255e+01
6.847833e+01
6.849182e+01
6.850267e+01
6.851081e+01
6.851632e+01
6.851919e+01
6.851797e+01
6.851369e+01
6.850733e+01
6.849959e+01
6.849100e+01
6.848225e+01
6.847397e+01
6.846662e+01
6.846073e+01
6.845682e+01
6.845544e+01
6.845717e+01
6.846105e+01
6.846635e+01
6.847237e+01
6.847838e+01
6.848366e+01
6.848815e+01
6.849203e+01
6.849527e+01
6.849794e+01
6.850014e+01
6.850189e+01
6.850242e+01
6.850165e+01
6.849969e+01
6.849677e+01
6.849322e+01
6.848951e+01
6.848606e+01
6.848309e+01
6.848072e+01
6.847902e+01
6.847798e+01
6.847747e+01
6.847727e+01
6.847671e+01
6.847623e+01
6.884740e+01
6.884788e+01
6.886239e+01
6.887934e+01
6.890240e+01
6.893526e+01
6.897814e+01
6.909563e+01
6.847521e+01
6.798177e+01
6.803769e+01
6.803859e+01
6.804261e+01
6.804733e+01
6.805395e+01
6.806139e+01
6.807316e+01
6.807244e+01
6.805034e+01
6.802038e+01
6.800579e+01
6.801514e+01
6.804226e+01
6.807663e+01
6.810983e+01
6.813633e+01
6.815604e+01
6.817336e+01
6.818953e+01
6.820651e+01
6.822626e+01
6.824982e+01
6.827713e+01
6.830720e+01
6.833829e+01
6.836838e+01
6.839480e+01
6.842363e+01
6.845304e+01
6.847342e+01
6.847985e+01
6.847423e+01
6.846559e+01
6.845740e+01
6.845057e+01
6.844404e+01
6.843507e+01
6.842242e+01
6.840797e+01
6.839556e+01
6.838888e+01
6.839006e+01
6.839657e+01
6.840699e+01
6.841991e+01
6.843369e+01
6.844680e+01
6.845964e+01
6.847192e+01
6.848289e+01
6.849208e+01
6.849917e+01
6.850405e+01
6.850652e+01
6.850555e+01
6.850222e+01
6.849743e+01
6.849177e+01
6.848556e+01
6.847933e+01
6.847347e+01
6.846836e+01
6.846448e+01
6.846235e+01
6.846250e+01
6.846494e+01
6.846859e+01
6.847284e+01
6.847707e+01
6.848078e+01
6.848372e+01
6.848625e+01
6.848847e+01
6.849050e+01
6.849239e+01
6.849416e+01
6.849568e+01
6.849636e+01
6.849611e+01
6.849495e+01
6.849301e+01
6.849049e+01
6.848775e+01
6.848515e+01
6.848286e+01
6.848104e+01
6.847976e+01
6.847902e+01
6.847872e+01
6.847855e+01
6.847729e+01
6.847681e+01
6.884956e+01
6.885004e+01
6.887059e+01
6.889571e+01
6.893220e+01
6.899047e+01
6.908757e+01
6.921869e+01
6.923466e+01
0.000000e+00
6.804366e+01
6.804413e+01
6.804071e+01
6.803649e+01
6.803266e+01
6.802964e+01
6.802848e+01
6.802261e+01
6.800814e+01
6.799509e+01
6.799561e+01
6.801385e+01
6.804777e+01
6.808669e+01
6.812448e+01
6.815593e+01
6.817911e+01
6.819601e+01
6.821078e+01
6.822330e+01
6.823696e+01
6.825357e+01
6.827343e+01
6.829562e+01
6.831826e+01
6.833892e+01
6.835774e+01
6.838195e+01
6.840207e+01
6.841325e+01
6.841747e+01
6.842178e+01
6.842601e+01
6.843008e+01
6.843418e+01
6.843817e+01
6.844037e+01
6.843848e+01
6.843231e+01
6.842470e+01
6.841919e+01
6.841801e+01
6.842052e+01
6.842595e+01
6.843335e+01
6.844160e+01
6.844956e+01
6.845753e+01
6.846549e+01
6.847290e+01
6.847927e+01
6.848427e+01
6.848777e+01
6.848962e+01
6.848951e+01
6.848819e+01
6.848617e+01
6.848372e+01
6.848090e+01
6.847799e+01
6.847514e+01
6.847267e+01
6.847100e+01
6.847059e+01
6.847174e+01
6.847398e+01
6.847653e+01
6.847895e+01
6.848085e+01
6.848208e+01
6.848281e+01
6.848341e+01
6.848406e+01
6.848486e+01
6.848579e+01
6.848680e+01
6.848781e+01
6.848859e+01
6.848902e+01
6.848899e+01
6.848848e+01
6.848748e+01
6.848620e+01
6.848484e+01
6.848357e+01
6.848252e+01
6.848182e+01
6.848148e+01
6.848140e+01
6.848125e+01
6.847975e+01
6.847927e+01
6.885117e+01
6.885165e+01
6.887487e+01
6.890292e+01
6.894208e+01
6.899974e+01
6.908351e+01
6.918249e+01
6.925158e+01
6.925110e+01
0.000000e+00
6.803402e+01
6.803449e+01
6.802431e+01
6.801007e+01
6.799469e+01
6.797735e+01
6.795643e+01
6.793527e+01
6.792958e+01
6.794706e+01
6.798720e+01
6.804219e+01
6.809957e+01
6.815012e+01
6.818755e+01
6.821603e+01
6.823435e+01
6.824756e+01
6.825686e+01
6.826436e+01
6.827307e+01
6.828363e+01
6.829518e+01
6.830613e+01
6.831438e+01
6.832255e+01
6.832939e+01
6.833492e+01
6.834062e+01
6.835423e+01
6.837344e+01
6.839320e+01
6.841090e+01
6.842600e+01
6.843915e+01
6.844984e+01
6.845636e+01
6.845747e+01
6.845428e+01
6.844970e+01
6.844650e+01
6.844536e+01
6.844602e+01
6.844796e+01
6.845049e+01
6.845293e+01
6.845544e+01
6.845816e+01
6.846080e+01
6.846312e+01
6.846498e+01
6.846645e+01
6.846794e+01
6.846976e+01
6.847189e+01
6.847412e+01
6.847616e+01
6.847774e+01
6.847880e+01
6.847937e+01
6.847972e+01
6.848021e+01
6.848109e+01
6.848237e+01
6.848362e+01
6.848437e+01
6.848439e+01
6.848376e+01
6.848271e+01
6.848136e+01
6.848005e+01
6.847899e+01
6.847828e+01
6.847792e+01
6.847783e+01
6.847810e+01
6.847900e+01
6.848035e+01
6.848187e+01
6.848329e+01
6.848439e+01
6.848507e+01
6.848537e+01
6.848542e+01
6.848536e+01
6.848532e+01
6.848534e+01
6.848534e+01
6.848506e+01
6.848371e+01
6.848323e+01
6.885201e+01
6.885248e+01
6.887503e+01
6.890140e+01
6.893648e+01
6.898485e+01
6.904649e+01
6.910007e+01
6.912504e+01
6.887177e+01
6.887129e+01
0.000000e+00
6.801463e+01
6.799573e+01
6.798409e+01
6.796241e+01
6.793416e+01
6.790123e+01
6.787130e+01
6.787052e+01
6.790228e+01
6.796142e+01
6.803638e+01
6.811387e+01
6.818408e+01
6.823830e+01
6.827523e+01
6.829684e+01
6.830851e+01
6.831326e+01
6.831434e+01
6.831481e+01
6.831508e+01
6.831389e+01
6.830978e+01
6.830220e+01
6.829123e+01
6.827897e+01
6.826947e+01
6.827443e+01
6.830088e+01
6.833622e+01
6.837139e+01
6.840178e+01
6.842627e+01
6.844613e+01
6.846258e+01
6.847491e+01
6.848149e+01
6.848217e+01
6.847898e+01
6.847442e+01
6.847017e+01
6.846648e+01
6.846317e+01
6.845993e+01
6.845648e+01
6.845288e+01
6.844931e+01
6.844589e+01
6.844292e+01
6.844084e+01
6.844008e+01
6.844238e+01
6.844774e+01
6.845496e+01
6.846278e+01
6.847023e+01
6.847659e+01
6.848172e+01
6.848574e+01
6.848879e+01
6.849101e+01
6.849231e+01
6.849278e+01
6.849241e+01
6.849106e+01
6.848886e+01
6.848609e+01
6.848310e+01
6.847987e+01
6.847675e+01
6.847396e+01
6.847160e+01
6.846972e+01
6.846830e+01
6.846769e+01
6.846870e+01
6.847107e+01
6.847435e+01
6.847800e+01
6.848153e+01
6.848447e+01
6.848669e+01
6.848825e+01
6.848928e+01
6.848987e+01
6.849009e+01
6.848995e+01
6.848942e+01
6.848841e+01
6.848793e+01
6.885221e+01
6.885269e+01
6.887208e+01
6.889386e+01
6.892035e+01
6.895147e+01
6.897997e+01
6.898374e+01
6.892049e+01
6.879770e+01
6.837801e+01
6.806985e+01
6.794119e+01
6.798972e+01
6.797194e+01
6.794442e+01
6.791086e+01
6.787196e+01
6.784561e+01
6.785407e+01
6.789818e+01
6.797020e+01
6.805727e+01
6.814574e+01
6.822583e+01
6.829227e+01
6.833853e+01
6.836928e+01
6.838798e+01
6.839223e+01
6.838507e+01
6.837407e+01
6.835942e+01
6.834125e+01
6.832147e+01
6.829722e+01
6.826673e+01
6.823517e+01
6.821195e+01
6.822516e+01
6.826510e+01
6.831494e+01
6.836292e+01
6.840279e+01
6.843352e+01
6.845774e+01
6.847747e+01
6.849312e+01
6.850338e+01
6.850718e+01
6.850534e+01
6.850016e+01
6.849366e+01
6.848630e+01
6.847820e+01
6.846939e+01
6.846005e+01
6.845027e+01
6.844025e+01
6.843064e+01
6.842231e+01
6.841614e+01
6.841279e+01
6.841657e+01
6.842629e+01
6.843945e+01
6.845353e+01
6.846672e+01
6.847765e+01
6.848646e+01
6.849335e+01
6.849842e+01
6.850163e+01
6.850272e+01
6.850215e+01
6.850024e+01
6.849708e+01
6.849297e+01
6.848833e+01
6.848360e+01
6.847862e+01
6.847373e+01
6.846917e+01
6.846511e+01
6.846166e+01
6.845891e+01
6.845742e+01
6.845858e+01
6.846204e+01
6.846715e+01
6.847310e+01
6.847913e+01
6.848432e+01
6.848842e+01
6.849142e+01
6.849341e+01
6.849452e+01
6.849485e+01
6.849454e+01
6.849383e+01
6.849324e+01
6.849276e+01
6.885215e+01
6.885263e+01
6.886701e+01
6.888201e+01
6.889772e+01
6.891111e+01
6.891272e+01
6.888248e+01
6.878377e+01
6.860752e+01
6.833060e+01
6.776265e+01
6.789363e+01
6.794662e+01
6.795423e+01
6.793757e+01
6.790475e+01
6.786942e+01
6.785609e+01
6.787610e+01
6.792839e+01
6.800447e+01
6.809241e+01
6.818050e+01
6.825896e+01
6.832751e+01
6.838046e+01
6.841678e+01
6.844375e+01
6.845306e+01
6.843926e+01
6.841856e+01
6.839300e+01
6.836347e+01
6.833300e+01
6.829462e+01
6.824792e+01
6.819974e+01
6.817622e+01
6.819938e+01
6.825089e+01
6.831129e+01
6.836758e+01
6.841206e+01
6.844614e+01
6.847246e+01
6.849339e+01
6.851016e+01
6.852232e+01
6.852850e+01
6.852816e+01
6.852314e+01
6.851507e+01
6.850468e+01
6.849238e+01
6.847857e+01
6.846392e+01
6.844843e+01
6.843230e+01
6.841668e+01
6.840297e+01
6.839243e+01
6.838707e+01
6.839294e+01
6.840752e+01
6.842694e+01
6.844744e+01
6.846590e+01
6.848083e+01
6.849256e+01
6.850149e+01
6.850781e+01
6.851143e+01
6.851210e+01
6.851064e+01
6.850750e+01
6.850288e+01
6.849718e+01
6.849088e+01
6.848451e+01
6.847788e+01
6.847127e+01
6.846496e+01
6.845921e+01
6.845425e+01
6.845027e+01
6.844802e+01
6.844939e+01
6.845394e+01
6.846082e+01
6.846896e+01
6.847733e+01
6.848456e+01
6.849029e+01
6.849450e+01
6.849728e+01
6.849879e+01
6.849920e+01
6.849880e+01
6.849799e+01
6.849767e+01
6.849719e+01
6.885178e+01
6.885226e+01
6.886089e+01
6.886872e+01
6.887444e+01
6.887400e+01
6.885892e+01
6.881442e+01
6.871785e+01
6.855038e+01
6.832675e+01
6.802644e+01
6.799181e+01
6.798902e+01
6.798005e+01
6.796000e+01
6.793013e+01
6.790470e+01
6.790146e+01
6.792668e+01
6.797854e+01
6.804995e+01
6.812927e+01
6.820323e+01
6.826879e+01
6.832411e+01
6.837084e+01
6.841639e+01
6.845413e+01
6.846499e+01
6.845540e+01
6.843724e+01
6.841063e+01
6.837657e+01
6.834001e+01
6.829188e+01
6.823453e+01
6.817745e+01
6.816511e+01
6.819870e+01
6.825825e+01
6.832412e+01
6.838220e+01
6.842758e+01
6.846221e+01
6.848866e+01
6.850927e+01
6.852561e+01
6.853797e+01
6.854534e+01
6.854642e+01
6.854239e+01
6.853384e+01
6.852148e+01
6.850596e+01
6.848802e+01
6.846881e+01
6.844822e+01
6.842652e+01
6.840532e+01
6.838649e+01
6.837179e+01
6.836555e+01
6.837397e+01
6.839347e+01
6.841882e+01
6.844514e+01
6.846792e+01
6.848587e+01
6.849956e+01
6.850965e+01
6.851648e+01
6.852011e+01
6.852040e+01
6.851837e+01
6.851438e+01
6.850872e+01
6.850178e+01
6.849407e+01
6.848613e+01
6.847796e+01
6.846969e+01
6.846168e+01
6.845432e+01
6.844797e+01
6.844296e+01
6.844015e+01
6.844179e+01
6.844735e+01
6.845580e+01
6.846582e+01
6.847617e+01
6.848507e+01
6.849210e+01
6.849723e+01
6.850059e+01
6.850239e+01
6.850289e+01
6.850247e+01
6.850161e+01
6.850126e+01
6.850078e+01
6.885138e+01
6.885186e+01
6.885489e+01
6.885622e+01
6.885390e+01
6.884403e+01
6.882005e+01
6.877225e+01
6.868789e+01
6.855382e+01
6.837423e+01
6.817261e+01
6.808775e+01
6.804808e+01
6.802064e+01
6.799466e+01
6.796822e+01
6.795131e+01
6.795422e+01
6.798058e+01
6.802820e+01
6.809129e+01
6.815830e+01
6.822223e+01
6.828059e+01
6.833254e+01
6.837817e+01
6.841600e+01
6.844095e+01
6.844875e+01
6.844521e+01
6.843157e+01
6.840772e+01
6.837598e+01
6.834101e+01
6.829066e+01
6.822982e+01
6.818116e+01
6.818104e+01
6.822170e+01
6.828346e+01
6.834846e+01
6.840352e+01
6.844675e+01
6.847975e+01
6.850483e+01
6.852416e+01
6.853927e+01
6.855073e+01
6.855793e+01
6.856009e+01
6.855721e+01
6.854924e+01
6.853634e+01
6.851902e+01
6.849818e+01
6.847531e+01
6.845037e+01
6.842378e+01
6.839762e+01
6.837433e+01
6.835630e+01
6.835032e+01
6.836162e+01
6.838563e+01
6.841597e+01
6.844686e+01
6.847262e+01
6.849247e+01
6.850712e+01
6.851751e+01
6.852427e+01
6.852765e+01
6.852770e+01
6.852536e+01
6.852091e+01
6.851462e+01
6.850684e+01
6.849803e+01
6.848870e+01
6.847909e+01
6.846925e+01
6.845963e+01
6.845075e+01
6.844314e+01
6.843735e+01
6.843421e+01
6.843617e+01
6.844260e+01
6.845231e+01
6.846381e+01
6.847566e+01
6.848578e+01
6.849375e+01
6.849952e+01
6.850325e+01
6.850523e+01
6.850580e+01
6.850538e+01
6.850445e+01
6.850378e+01
6.850330e+01
6.885114e+01
6.885162e+01
6.884971e+01
6.884566e+01
6.883734e+01
6.882134e+01
6.879281e+01
6.874542e+01
6.867185e+01
6.856430e+01
6.842182e+01
6.826410e+01
6.816498e+01
6.810462e+01
6.806295e+01
6.803084e+01
6.800615e+01
6.799423e+01
6.800046e+01
6.802622e+01
6.806889e+01
6.812320e+01
6.818063e+01
6.823655e+01
6.828862e+01
6.833565e+01
6.837601e+01
6.840686e+01
6.842565e+01
6.843231e+01
6.842919e+01
6.841717e+01
6.839665e+01
6.836971e+01
6.833695e+01
6.829107e+01
6.823789e+01
6.820578e+01
6.821558e+01
6.825863e+01
6.831761e+01
6.837694e+01
6.842699e+01
6.846656e+01
6.849685e+01
6.851983e+01
6.853742e+01
6.855101e+01
6.856117e+01
6.856753e+01
6.856995e+01
6.856800e+01
6.856114e+01
6.854893e+01
6.853134e+01
6.850905e+01
6.848358e+01
6.845517e+01
6.842448e+01
6.839413e+01
6.836728e+01
6.834722e+01
6.834257e+01
6.835681e+01
6.838458e+01
6.841856e+01
6.845232e+01
6.847967e+01
6.850028e+01
6.851501e+01
6.852503e+01
6.853126e+01
6.853422e+01
6.853411e+01
6.853165e+01
6.852703e+01
6.852046e+01
6.851222e+01
6.850266e+01
6.849223e+01
6.848135e+01
6.847005e+01
6.845892e+01
6.844862e+01
6.843988e+01
6.843347e+01
6.843026e+01
6.843255e+01
6.843970e+01
6.845037e+01
6.846290e+01
6.847570e+01
6.848664e+01
6.849523e+01
6.850140e+01
6.850535e+01
6.850741e+01
6.850799e+01
6.850753e+01
6.850650e+01
6.850529e+01
6.850481e+01
6.885109e+01
6.885157e+01
6.884566e+01
6.883743e+01
6.882481e+01
6.880487e+01
6.877391e+01
6.872757e+01
6.866126e+01
6.857048e+01
6.845420e+01
6.832512e+01
6.822395e+01
6.815155e+01
6.809996e+01
6.806278e+01
6.803828e+01
6.802873e+01
6.803642e+01
6.806105e+01
6.809957e+01
6.814710e+01
6.819772e+01
6.824762e+01
6.829454e+01
6.833684e+01
6.837247e+01
6.839916e+01
6.841569e+01
6.842206e+01
6.841923e+01
6.840781e+01
6.838849e+01
6.836310e+01
6.833087e+01
6.828994e+01
6.824921e+01
6.823318e+01
6.825118e+01
6.829488e+01
6.834962e+01
6.840298e+01
6.844830e+01
6.848429e+01
6.851186e+01
6.853275e+01
6.854866e+01
6.856079e+01
6.856974e+01
6.857552e+01
6.857785e+01
6.857651e+01
6.857076e+01
6.855975e+01
6.854291e+01
6.852037e+01
6.849331e+01
6.846227e+01
6.842827e+01
6.839451e+01
6.836508e+01
6.834452e+01
6.834196e+01
6.835895e+01
6.838949e+01
6.842573e+01
6.846055e+01
6.848839e+01
6.850893e+01
6.852312e+01
6.853231e+01
6.853770e+01
6.854008e+01
6.853984e+01
6.853731e+01
6.853266e+01
6.852603e+01
6.851762e+01
6.850764e+01
6.849646e+01
6.848451e+01
6.847195e+01
6.845943e+01
6.844779e+01
6.843798e+01
6.843106e+01
6.842796e+01
6.843061e+01
6.843833e+01
6.844969e+01
6.846289e+01
6.847621e+01
6.848761e+01
6.849658e+01
6.850299e+01
6.850705e+01
6.850913e+01
6.850965e+01
6.850909e+01
6.850789e+01
6.850612e+01
6.850564e+01
6.885120e+01
6.885168e+01
6.884277e+01
6.883153e+01
6.881597e+01
6.879353e+01
6.876123e+01
6.871579e+01
6.865398e+01
6.857312e+01
6.847307e+01
6.836244e+01
6.826492e+01
6.818776e+01
6.812999e+01
6.808904e+01
6.806395e+01
6.805522e+01
6.806313e+01
6.808626e+01
6.812138e+01
6.816414e+01
6.821002e+01
6.825561e+01
6.829860e+01
6.833720e+01
6.836954e+01
6.839394e+01
6.840949e+01
6.841599e+01
6.841366e+01
6.840279e+01
6.838384e+01
6.835800e+01
6.832513e+01
6.828799e+01
6.825883e+01
6.825444e+01
6.827851e+01
6.832255e+01
6.837401e+01
6.842301e+01
6.846468e+01
6.849784e+01
6.852324e+01
6.854244e+01
6.855702e+01
6.856818e+01
6.857659e+01
6.858216e+01
6.858471e+01
6.858402e+01
6.857936e+01
6.856966e+01
6.855397e+01
6.853185e+01
6.850386e+01
6.847074e+01
6.843395e+01
6.839732e+01
6.836606e+01
6.834627e+01
6.834604e+01
6.836536e+01
6.839781e+01
6.843512e+01
6.846997e+01
6.849766e+01
6.851776e+01
6.853121e+01
6.853943e+01
6.854386e+01
6.854553e+01
6.854505e+01
6.854238e+01
6.853770e+01
6.853110e+01
6.852267e+01
6.851252e+01
6.850088e+01
6.848811e+01
6.847449e+01
6.846076e+01
6.844788e+01
6.843706e+01
6.842963e+01
6.842676e+01
6.842975e+01
6.843795e+01
6.844982e+01
6.846344e+01
6.847699e+01
6.848865e+01
6.849784e+01
6.850442e+01
6.850856e+01
6.851063e+01
6.851106e+01
6.851032e+01
6.850886e+01
6.850662e+01
6.850614e+01
6.885136e+01
6.885184e+01
6.884096e+01
6.882778e+01
6.881041e+01
6.878653e+01
6.875355e+01
6.870877e+01
6.864965e+01
6.857439e+01
6.848349e+01
6.838356e+01
6.828988e+01
6.821127e+01
6.815042e+01
6.810727e+01
6.808153e+01
6.807289e+01
6.808055e+01
6.810247e+01
6.813532e+01
6.817507e+01
6.821790e+01
6.826067e+01
6.830106e+01
6.833723e+01
6.836755e+01
6.839069e+01
6.840579e+01
6.841248e+01
6.841064e+01
6.840024e+01
6.838137e+01
6.835446e+01
6.832072e+01
6.828652e+01
6.826548e+01
6.826897e+01
6.829696e+01
6.834082e+01
6.838984e+01
6.843607e+01
6.847545e+01
6.850683e+01
6.853084e+01
6.854890e+01
6.856252e+01
6.857294e+01
6.858101e+01
6.858677e+01
6.859002e+01
6.859037e+01
6.858688e+01
6.857845e+01
6.856394e+01
6.854251e+01
6.851404e+01
6.847919e+01
6.843989e+01
6.840057e+01
6.836774e+01
6.834906e+01
6.835082e+01
6.837192e+01
6.840559e+01
6.844341e+01
6.847811e+01
6.850563e+01
6.852522e+01
6.853779e+01
6.854502e+01
6.854852e+01
6.854955e+01
6.854882e+01
6.854607e+01
6.854148e+01
6.853506e+01
6.852679e+01
6.851668e+01
6.850483e+01
6.849148e+01
6.847706e+01
6.846232e+01
6.844836e+01
6.843663e+01
6.842870e+01
6.842604e+01
6.842931e+01
6.843789e+01
6.845017e+01
6.846410e+01
6.847775e+01
6.848960e+01
6.849897e+01
6.850568e+01
6.850986e+01
6.851190e+01
6.851224e+01
6.851132e+01
6.850955e+01
6.850689e+01
6.850641e+01
6.885150e+01
6.885198e+01
6.884012e+01
6.882600e+01
6.880781e+01
6.878333e+01
6.875017e+01
6.870587e+01
6.864816e+01
6.857558e+01
6.848887e+01
6.839377e+01
6.830215e+01
6.822309e+01
6.816087e+01
6.811667e+01
6.809050e+01
6.808174e+01
6.808912e+01
6.811032e+01
6.814199e+01
6.818025e+01
6.822157e+01
6.826293e+01
6.830200e+01
6.833695e+01
6.836628e+01
6.838884e+01
6.840382e+01
6.841072e+01
6.840927e+01
6.839928e+01
6.838049e+01
6.835279e+01
6.831870e+01
6.828675e+01
6.827001e+01
6.827667e+01
6.830562e+01
6.834879e+01
6.839642e+01
6.844134e+01
6.847978e+01
6.851054e+01
6.853414e+01
6.855185e+01
6.856515e+01
6.857529e+01
6.858313e+01
6.858893e+01
6.859267e+01
6.859381e+01
6.859139e+01
6.858415e+01
6.857080e+01
6.855021e+01
6.852176e+01
6.848566e+01
6.844412e+01
6.840223e+01
6.836779e+01
6.834939e+01
6.835205e+01
6.837415e+01
6.840876e+01
6.844697e+01
6.848162e+01
6.850913e+01
6.852865e+01
6.854107e+01
6.854802e+01
6.855120e+01
6.855189e+01
6.855078e+01
6.854798e+01
6.854352e+01
6.853731e+01
6.852925e+01
6.851930e+01
6.850747e+01
6.849389e+01
6.847904e+01
6.846366e+01
6.844894e+01
6.843650e+01
6.842820e+01
6.842551e+01
6.842893e+01
6.843773e+01
6.845024e+01
6.846433e+01
6.847796e+01
6.848984e+01
6.849926e+01
6.850602e+01
6.851027e+01
6.851238e+01
6.851275e+01
6.851181e+01
6.850987e+01
6.850644e+01
6.850596e+01
0.000000e+00
6.885150e+01
6.883964e+01
6.882553e+01
6.880733e+01
6.878285e+01
6.874969e+01
6.870539e+01
6.864768e+01
6.857510e+01
6.848839e+01
6.839330e+01
6.830168e+01
6.822262e+01
6.816040e+01
6.811619e+01
6.809002e+01
6.808126e+01
6.808864e+01
6.810984e+01
6.814151e+01
6.817977e+01
6.822110e+01
6.826245e+01
6.830152e+01
6.833648e+01
6.836580e+01
6.838836e+01
6.840334e+01
6.841024e+01
6.840880e+01
6.839880e+01
6.838001e+01
6.835231e+01
6.831822e+01
6.828627e+01
6.826953e+01
6.827619e+01
6.830514e+01
6.834831e+01
6.839594e+01
6.844086e+01
6.847930e+01
6.851007e+01
6.853366e+01
6.855138e+01
6.856467e+01
6.857481e+01
6.858265e+01
6.858845e+01
6.859219e+01
6.859333e+01
6.859091e+01
6.858368e+01
6.857032e+01
6.854974e+01
6.852128e+01
6.848518e+01
6.844364e+01
6.840175e+01
6.836731e+01