# vtk DataFile Version 3.0
Scalar Field
ASCII
DATASET RECTILINEAR_GRID
DIMENSIONS 102 22 1
X_COORDINATES 102 double
0.000000 0.100000 0.200000 0.300000 0.400000 0.500000 0.600000 0.700000 0.800000 0.900000 1.000000 1.100000 1.200000 1.300000 1.400000 1.500000 1.600000 1.700000 1.800000 1.900000 2.000000 2.100000 2.200000 2.300000 2.400000 2.500000 2.600000 2.700000 2.800000 2.900000 3.000000 3.100000 3.200000 3.300000 3.400000 3.500000 3.600000 3.700000 3.800000 3.900000 4.000000 4.100000 4.200000 4.300000 4.400000 4.500000 4.600000 4.700000 4.800000 4.900000 5.000000 5.100000 5.200000 5.300000 5.400000 5.500000 5.600000 5.700000 5.800000 5.900000 6.000000 6.100000 6.200000 6.300000 6.400000 6.500000 6.600000 6.700000 6.800000 6.900000 7.000000 7.100000 7.200000 7.300000 7.400000 7.500000 7.600000 7.700000 7.800000 7.900000 8.000000 8.100000 8.200000 8.300000 8.400000 8.500000 8.600000 8.700000 8.800000 8.900000 9.000000 9.100000 9.200000 9.300000 9.400000 9.500000 9.600000 9.700000 9.800000 9.900000 10.000000 10.100000 
Y_COORDINATES 22 double
0.000000 0.100000 0.200000 0.300000 0.400000 0.500000 0.600000 0.700000 0.800000 0.900000 1.000000 1.100000 1.200000 1.300000 1.400000 1.500000 1.600000 1.700000 1.800000 1.900000 2.000000 2.100000 
Z_COORDINATES 1 double
0.0
POINT_DATA 2244
SCALARS Pressure double 1
LOOKUP_TABLE default
0.000000e+00
3.857150e+01
3.853456e+01
3.849297e+01
3.844262e+01
3.837929e+01
3.829894e+01
3.820047e+01
3.808317e+01
3.797216e+01
3.788741e+01
3.783477e+01
3.781082e+01
3.780962e+01
3.782535e+01
3.785345e+01
3.789034e+01
3.793309e+01
3.797897e+01
3.802502e+01
3.806803e+01
3.810520e+01
3.813492e+01
3.815712e+01
3.817281e+01
3.818351e+01
3.819067e+01
3.819549e+01
3.819880e+01
3.820114e+01
3.820286e+01
3.820416e+01
3.820517e+01
3.820597e+01
3.820661e+01
3.820712e+01
3.820755e+01
3.820791e+01
3.820821e+01
3.820848e+01
3.820872e+01
3.820894e+01
3.820915e+01
3.820935e+01
3.820955e+01
3.820974e+01
3.820992e+01
3.821010e+01
3.821027e+01
3.821044e+01
3.821060e+01
3.821075e+01
3.821089e+01
3.821103e+01
3.821116e+01
3.821127e+01
3.821138e+01
3.821148e+01
3.821156e+01
3.821164e+01
3.821171e+01
3.821177e+01
3.821181e+01
3.821185e+01
3.821188e+01
3.821190e+01
3.821192e+01
3.821192e+01
3.821192e+01
3.821191e+01
3.821189e+01
3.821187e+01
3.821184e+01
3.821181e+01
3.821177e+01
3.821172e+01
3.821167e+01
3.821162e+01
3.821156e+01
3.821149e+01
3.821142e+01
3.821135e+01
3.821127e+01
3.821119e+01
3.821111e+01
3.821102e+01
3.821093e+01
3.821084e+01
3.821074e+01
3.821064e+01
3.821053e+01
3.821042e+01
3.821031e+01
3.821019e+01
3.821007e+01
3.820993e+01
3.820979e+01
3.820963e+01
3.820944e+01
3.820918e+01
3.820905e+01
0.000000e+00
3.857150e+01
3.857109e+01
3.853415e+01
3.849257e+01
3.844222e+01
3.837888e+01
3.829853e+01
3.820006e+01
3.808277e+01
3.797175e+01
3.788700e+01
3.783436e+01
3.781041e+01
3.780921e+01
3.782494e+01
3.785304e+01
3.788993e+01
3.793268e+01
3.797856e+01
3.802461e+01
3.806762e+01
3.810479e+01
3.813451e+01
3.815671e+01
3.817240e+01
3.818310e+01
3.819027e+01
3.819508e+01
3.819839e+01
3.820073e+01
3.820245e+01
3.820375e+01
3.820476e+01
3.820556e+01
3.820620e+01
3.820671e+01
3.820714e+01
3.820750e+01
3.820780e+01
3.820807e+01
3.820831e+01
3.820853e+01
3.820874e+01
3.820894e+01
3.820914e+01
3.820933e+01
3.820951e+01
3.820969e+01
3.820986e+01
3.821003e+01
3.821019e+01
3.821034e+01
3.821049e+01
3.821062e+01
3.821075e+01
3.821086e+01
3.821097e+01
3.821107e+01
3.821116e+01
3.821123e+01
3.821130e+01
3.821136e+01
3.821140e+01
3.821144e+01
3.821147e+01
3.821149e+01
3.821151e+01
3.821151e+01
3.821151e+01
3.821150e+01
3.821148e+01
3.821146e+01
3.821143e+01
3.821140e+01
3.821136e+01
3.821131e+01
3.821126e+01
3.821121e+01
3.821115e+01
3.821108e+01
3.821101e+01
3.821094e+01
3.821086e+01
3.821078e+01
3.821070e+01
3.821061e+01
3.821052e+01
3.821043e+01
3.821033e+01
3.821023e+01
3.821012e+01
3.821001e+01
3.820990e+01
3.820978e+01
3.820966e+01
3.820952e+01
3.820938e+01
3.820922e+01
3.820903e+01
3.820877e+01
3.820864e+01
3.820905e+01
3.856996e+01
3.856955e+01
3.853414e+01
3.849376e+01
3.844404e+01
3.838023e+01
3.829757e+01
3.819481e+01
3.806648e+01
3.795043e+01
3.786712e+01
3.781853e+01
3.779855e+01
3.780037e+01
3.781821e+01
3.784783e+01
3.788593e+01
3.792963e+01
3.797616e+01
3.802262e+01
3.806596e+01
3.810349e+01
3.813365e+01
3.815630e+01
3.817234e+01
3.818325e+01
3.819051e+01
3.819533e+01
3.819859e+01
3.820089e+01
3.820256e+01
3.820382e+01
3.820479e+01
3.820556e+01
3.820617e+01
3.820668e+01
3.820709e+01
3.820744e+01
3.820775e+01
3.820802e+01
3.820826e+01
3.820849e+01
3.820871e+01
3.820892e+01
3.820912e+01
3.820931e+01
3.820950e+01
3.820968e+01
3.820986e+01
3.821003e+01
3.821020e+01
3.821035e+01
3.821050e+01
3.821063e+01
3.821076e+01
3.821088e+01
3.821098e+01
3.821108e+01
3.821117e+01
3.821124e+01
3.821131e+01
3.821137e+01
3.821141e+01
3.821145e+01
3.821148e+01
3.821150e+01
3.821151e+01
3.821152e+01
3.821151e+01
3.821150e+01
3.821149e+01
3.821146e+01
3.821143e+01
3.821140e+01
3.821136e+01
3.821131e+01
3.821126e+01
3.821121e+01
3.821115e+01
3.821108e+01
3.821101e+01
3.821094e+01
3.821086e+01
3.821078e+01
3.821070e+01
3.821061e+01
3.821052e+01
3.821042e+01
3.821032e+01
3.821022e+01
3.821012e+01
3.821001e+01
3.820989e+01
3.820978e+01
3.820965e+01
3.820952e+01
3.820939e+01
3.820923e+01
3.820907e+01
3.820888e+01
3.820876e+01
3.820917e+01
3.856773e+01
3.856732e+01
3.853511e+01
3.849753e+01
3.844961e+01
3.838539e+01
3.829807e+01
3.818505e+01
3.803007e+01
3.790447e+01
3.782610e+01
3.778706e+01
3.777564e+01
3.778336e+01
3.780503e+01
3.783722e+01
3.787721e+01
3.792235e+01
3.796989e+01
3.801705e+01
3.806111e+01
3.809962e+01
3.813095e+01
3.815473e+01
3.817169e+01
3.818319e+01
3.819073e+01
3.819562e+01
3.819885e+01
3.820107e+01
3.820266e+01
3.820385e+01
3.820477e+01
3.820550e+01
3.820609e+01
3.820657e+01
3.820698e+01
3.820733e+01
3.820763e+01
3.820791e+01
3.820817e+01
3.820841e+01
3.820864e+01
3.820887e+01
3.820908e+01
3.820929e+01
3.820949e+01
3.820969e+01
3.820987e+01
3.821005e+01
3.821022e+01
3.821038e+01
3.821053e+01
3.821067e+01
3.821080e+01
3.821092e+01
3.821102e+01
3.821112e+01
3.821120e+01
3.821128e+01
3.821134e+01
3.821140e+01
3.821144e+01
3.821148e+01
3.821150e+01
3.821152e+01
3.821153e+01
3.821154e+01
3.821153e+01
3.821152e+01
3.821150e+01
3.821147e+01
3.821144e+01
3.821141e+01
3.821137e+01
3.821132e+01
3.821127e+01
3.821121e+01
3.821115e+01
3.821108e+01
3.821101e+01
3.821094e+01
3.821086e+01
3.821078e+01
3.821070e+01
3.821061e+01
3.821052e+01
3.821042e+01
3.821032e+01
3.821022e+01
3.821011e+01
3.821001e+01
3.820989e+01
3.820978e+01
3.820966e+01
3.820953e+01
3.820940e+01
3.820926e+01
3.820911e+01
3.820896e+01
3.820885e+01
3.820926e+01
3.856533e+01
3.856492e+01
3.853775e+01
3.850483e+01
3.846034e+01
3.839605e+01
3.830077e+01
3.816588e+01
3.795973e+01
3.782556e+01
3.776251e+01
3.774157e+01
3.774376e+01
3.775964e+01
3.778616e+01
3.782144e+01
3.786367e+01
3.791060e+01
3.795955e+01
3.800784e+01
3.805319e+01
3.809344e+01
3.812675e+01
3.815236e+01
3.817068e+01
3.818299e+01
3.819089e+01
3.819588e+01
3.819907e+01
3.820120e+01
3.820270e+01
3.820381e+01
3.820467e+01
3.820536e+01
3.820591e+01
3.820638e+01
3.820679e+01
3.820714e+01
3.820746e+01
3.820776e+01
3.820804e+01
3.820830e+01
3.820856e+01
3.820881e+01
3.820904e+01
3.820927e+01
3.820949e+01
3.820970e+01
3.820991e+01
3.821009e+01
3.821027e+01
3.821044e+01
3.821059e+01
3.821073e+01
3.821086e+01
3.821098e+01
3.821109e+01
3.821118e+01
3.821126e+01
3.821134e+01
3.821140e+01
3.821145e+01
3.821149e+01
3.821152e+01
3.821154e+01
3.821156e+01
3.821157e+01
3.821157e+01
3.821156e+01
3.821154e+01
3.821152e+01
3.821149e+01
3.821146e+01
3.821142e+01
3.821138e+01
3.821133e+01
3.821128e+01
3.821122e+01
3.821116e+01
3.821109e+01
3.821102e+01
3.821094e+01
3.821086e+01
3.821078e+01
3.821070e+01
3.821061e+01
3.821052e+01
3.821042e+01
3.821032e+01
3.821022e+01
3.821011e+01
3.821001e+01
3.820989e+01
3.820978e+01
3.820966e+01
3.820954e+01
3.820941e+01
3.820928e+01
3.820915e+01
3.820902e+01
3.820892e+01
3.820933e+01
3.856344e+01
3.856303e+01
3.854289e+01
3.851700e+01
3.847879e+01
3.841653e+01
3.830992e+01
3.813006e+01
3.783487e+01
3.771062e+01
3.767838e+01
3.768422e+01
3.770384e+01
3.772952e+01
3.776155e+01
3.780019e+01
3.784489e+01
3.789397e+01
3.794489e+01
3.799489e+01
3.804219e+01
3.808510e+01
3.812126e+01
3.814931e+01
3.816932e+01
3.818259e+01
3.819091e+01
3.819600e+01
3.819916e+01
3.820121e+01
3.820263e+01
3.820367e+01
3.820448e+01
3.820513e+01
3.820567e+01
3.820613e+01
3.820654e+01
3.820691e+01
3.820726e+01
3.820758e+01
3.820789e+01
3.820819e+01
3.820848e+01
3.820876e+01
3.820903e+01
3.820929e+01
3.820953e+01
3.820976e+01
3.820997e+01
3.821017e+01
3.821036e+01
3.821053e+01
3.821069e+01
3.821083e+01
3.821096e+01
3.821108e+01
3.821118e+01
3.821127e+01
3.821135e+01
3.821142e+01
3.821147e+01
3.821152e+01
3.821156e+01
3.821158e+01
3.821160e+01
3.821161e+01
3.821161e+01
3.821161e+01
3.821160e+01
3.821158e+01
3.821155e+01
3.821152e+01
3.821149e+01
3.821144e+01
3.821140e+01
3.821135e+01
3.821129e+01
3.821123e+01
3.821117e+01
3.821110e+01
3.821103e+01
3.821095e+01
3.821087e+01
3.821079e+01
3.821070e+01
3.821061e+01
3.821052e+01
3.821042e+01
3.821032e+01
3.821022e+01
3.821012e+01
3.821001e+01
3.820990e+01
3.820978e+01
3.820966e+01
3.820954e+01
3.820942e+01
3.820930e+01
3.820918e+01
3.820907e+01
3.820897e+01
3.820938e+01
3.856267e+01
3.856226e+01
3.855112e+01
3.853528e+01
3.850843e+01
3.845582e+01
3.834208e+01
3.808206e+01
3.762104e+01
3.754764e+01
3.757590e+01
3.761970e+01
3.765867e+01
3.769463e+01
3.773207e+01
3.777391e+01
3.782120e+01
3.787289e+01
3.792651e+01
3.797896e+01
3.802887e+01
3.807552e+01
3.811546e+01
3.814647e+01
3.816828e+01
3.818237e+01
3.819095e+01
3.819604e+01
3.819912e+01
3.820109e+01
3.820244e+01
3.820343e+01
3.820421e+01
3.820484e+01
3.820538e+01
3.820585e+01
3.820628e+01
3.820668e+01
3.820706e+01
3.820743e+01
3.820779e+01
3.820813e+01
3.820846e+01
3.820878e+01
3.820907e+01
3.820936e+01
3.820962e+01
3.820987e+01
3.821010e+01
3.821031e+01
3.821050e+01
3.821067e+01
3.821083e+01
3.821097e+01
3.821110e+01
3.821121e+01
3.821131e+01
3.821139e+01
3.821146e+01
3.821152e+01
3.821157e+01
3.821161e+01
3.821164e+01
3.821166e+01
3.821167e+01
3.821168e+01
3.821167e+01
3.821166e+01
3.821164e+01
3.821162e+01
3.821159e+01
3.821156e+01
3.821152e+01
3.821147e+01
3.821142e+01
3.821137e+01
3.821131e+01
3.821125e+01
3.821118e+01
3.821111e+01
3.821104e+01
3.821096e+01
3.821088e+01
3.821079e+01
3.821071e+01
3.821062e+01
3.821052e+01
3.821043e+01
3.821033e+01
3.821022e+01
3.821012e+01
3.821001e+01
3.820990e+01
3.820979e+01
3.820967e+01
3.820955e+01
3.820944e+01
3.820932e+01
3.820921e+01
3.820911e+01
3.820901e+01
3.820942e+01
3.856336e+01
3.856295e+01
3.856224e+01
3.855946e+01
3.855126e+01
3.852590e+01
3.844220e+01
3.814320e+01
3.725763e+01
3.733577e+01
3.747980e+01
3.756181e+01
3.761476e+01
3.765908e+01
3.770052e+01
3.774500e+01
3.779516e+01
3.785020e+01
3.790742e+01
3.796315e+01
3.801598e+01
3.806716e+01
3.811144e+01
3.814533e+01
3.816842e+01
3.818276e+01
3.819117e+01
3.819607e+01
3.819898e+01
3.820088e+01
3.820222e+01
3.820318e+01
3.820393e+01
3.820456e+01
3.820511e+01
3.820561e+01
3.820608e+01
3.820653e+01
3.820696e+01
3.820738e+01
3.820779e+01
3.820818e+01
3.820855e+01
3.820890e+01
3.820922e+01
3.820953e+01
3.820981e+01
3.821007e+01
3.821030e+01
3.821051e+01
3.821070e+01
3.821087e+01
3.821103e+01
3.821116e+01
3.821128e+01
3.821138e+01
3.821147e+01
3.821154e+01
3.821160e+01
3.821165e+01
3.821169e+01
3.821172e+01
3.821174e+01
3.821175e+01
3.821176e+01
3.821175e+01
3.821174e+01
3.821173e+01
3.821170e+01
3.821167e+01
3.821164e+01
3.821160e+01
3.821156e+01
3.821151e+01
3.821145e+01
3.821140e+01
3.821133e+01
3.821127e+01
3.821120e+01
3.821113e+01
3.821105e+01
3.821097e+01
3.821089e+01
3.821080e+01
3.821071e+01
3.821062e+01
3.821053e+01
3.821043e+01
3.821033e+01
3.821023e+01
3.821012e+01
3.821001e+01
3.820990e+01
3.820979e+01
3.820968e+01
3.820956e+01
3.820945e+01
3.820934e+01
3.820923e+01
3.820913e+01
3.820904e+01
3.820945e+01
3.856531e+01
3.856490e+01
3.857463e+01
3.858600e+01
3.860126e+01
3.862160e+01
3.864001e+01
3.872483e+01
3.799164e+01
3.741566e+01
3.749473e+01
3.754677e+01
3.759392e+01
3.764415e+01
3.768531e+01
3.772947e+01
3.778090e+01
3.783786e+01
3.789712e+01
3.795473e+01
3.800846e+01
3.806246e+01
3.810964e+01
3.814524e+01
3.816885e+01
3.818314e+01
3.819132e+01
3.819618e+01
3.819892e+01
3.820062e+01
3.820186e+01
3.820284e+01
3.820364e+01
3.820434e+01
3.820496e+01
3.820554e+01
3.820608e+01
3.820659e+01
3.820709e+01
3.820756e+01
3.820801e+01
3.820843e+01
3.820883e+01
3.820919e+01
3.820953e+01
3.820984e+01
3.821012e+01
3.821038e+01
3.821060e+01
3.821081e+01
3.821098e+01
3.821114e+01
3.821128e+01
3.821140e+01
3.821150e+01
3.821159e+01
3.821166e+01
3.821172e+01
3.821177e+01
3.821181e+01
3.821184e+01
3.821185e+01
3.821186e+01
3.821186e+01
3.821186e+01
3.821184e+01
3.821183e+01
3.821180e+01
3.821177e+01
3.821173e+01
3.821169e+01
3.821165e+01
3.821160e+01
3.821155e+01
3.821149e+01
3.821143e+01
3.821136e+01
3.821129e+01
3.821122e+01
3.821115e+01
3.821107e+01
3.821099e+01
3.821090e+01
3.821081e+01
3.821072e+01
3.821063e+01
3.821053e+01
3.821044e+01
3.821033e+01
3.821023e+01
3.821012e+01
3.821002e+01
3.820991e+01
3.820980e+01
3.820968e+01
3.820957e+01
3.820946e+01
3.820935e+01
3.820925e+01
3.820915e+01
3.820906e+01
3.820947e+01
3.856782e+01
3.856741e+01
3.858558e+01
3.860827e+01
3.864184e+01
3.869672e+01
3.879066e+01
3.892789e+01
3.896142e+01
0.000000e+00
3.757792e+01
3.757751e+01
3.759156e+01
3.763807e+01
3.767939e+01
3.773160e+01
3.778530e+01
3.784215e+01
3.790009e+01
3.795601e+01
3.800754e+01
3.806050e+01
3.810682e+01
3.814156e+01
3.816483e+01
3.817970e+01
3.818832e+01
3.819326e+01
3.819657e+01
3.819903e+01
3.820093e+01
3.820241e+01
3.820358e+01
3.820452e+01
3.820530e+01
3.820598e+01
3.820659e+01
3.820714e+01
3.820765e+01
3.820813e+01
3.820858e+01
3.820900e+01
3.820938e+01
3.820973e+01
3.821004e+01
3.821033e+01
3.821059e+01
3.821082e+01
3.821102e+01
3.821120e+01
3.821135e+01
3.821148e+01
3.821160e+01
3.821170e+01
3.821178e+01
3.821184e+01
3.821190e+01
3.821194e+01
3.821197e+01
3.821199e+01
3.821200e+01
3.821200e+01
3.821200e+01
3.821199e+01
3.821197e+01
3.821195e+01
3.821192e+01
3.821188e+01
3.821184e+01
3.821180e+01
3.821175e+01
3.821170e+01
3.821165e+01
3.821159e+01
3.821153e+01
3.821146e+01
3.821139e+01
3.821132e+01
3.821124e+01
3.821117e+01
3.821109e+01
3.821100e+01
3.821091e+01
3.821083e+01
3.821073e+01
3.821064e+01
3.821054e+01
3.821044e+01
3.821034e+01
3.821024e+01
3.821013e+01
3.821002e+01
3.820991e+01
3.820980e+01
3.820969e+01
3.820958e+01
3.820947e+01
3.820936e+01
3.820926e+01
3.820917e+01
3.820908e+01
3.820949e+01
3.857007e+01
3.856967e+01
3.859279e+01
3.862124e+01
3.866138e+01
3.872140e+01
3.880886e+01
3.891587e+01
3.899413e+01
3.899454e+01
0.000000e+00
3.764588e+01
3.764547e+01
3.766741e+01
3.769592e+01
3.774529e+01
3.780358e+01
3.786017e+01
3.791374e+01
3.796400e+01
3.801071e+01
3.805660e+01
3.809672e+01
3.812775e+01
3.815006e+01
3.816538e+01
3.817667e+01
3.818526e+01
3.819169e+01
3.819641e+01
3.819986e+01
3.820237e+01
3.820418e+01
3.820550e+01
3.820647e+01
3.820722e+01
3.820782e+01
3.820834e+01
3.820879e+01
3.820921e+01
3.820958e+01
3.820993e+01
3.821024e+01
3.821053e+01
3.821078e+01
3.821101e+01
3.821122e+01
3.821140e+01
3.821155e+01
3.821169e+01
3.821180e+01
3.821190e+01
3.821198e+01
3.821204e+01
3.821209e+01
3.821213e+01
3.821216e+01
3.821218e+01
3.821218e+01
3.821219e+01
3.821218e+01
3.821216e+01
3.821215e+01
3.821212e+01
3.821209e+01
3.821205e+01
3.821201e+01
3.821197e+01
3.821192e+01
3.821187e+01
3.821182e+01
3.821176e+01
3.821170e+01
3.821163e+01
3.821157e+01
3.821150e+01
3.821142e+01
3.821135e+01
3.821127e+01
3.821119e+01
3.821110e+01
3.821102e+01
3.821093e+01
3.821084e+01
3.821074e+01
3.821065e+01
3.821055e+01
3.821045e+01
3.821035e+01
3.821024e+01
3.821013e+01
3.821003e+01
3.820992e+01
3.820980e+01
3.820969e+01
3.820958e+01
3.820947e+01
3.820937e+01
3.820927e+01
3.820918e+01
3.820909e+01
3.820949e+01
3.857154e+01
3.857113e+01
3.859558e+01
3.862462e+01
3.866294e+01
3.871492e+01
3.878303e+01
3.885646e+01
3.887948e+01
3.869575e+01
3.869616e+01
0.000000e+00
3.770077e+01
3.775525e+01
3.775849e+01
3.779577e+01
3.784759e+01
3.789646e+01
3.793968e+01
3.797880e+01
3.801195e+01
3.804125e+01
3.806977e+01
3.809820e+01
3.812437e+01
3.814731e+01
3.816527e+01
3.817818e+01
3.818748e+01
3.819410e+01
3.819900e+01
3.820260e+01
3.820518e+01
3.820699e+01
3.820823e+01
3.820907e+01
3.820966e+01
3.821010e+01
3.821044e+01
3.821073e+01
3.821097e+01
3.821119e+01
3.821139e+01
3.821157e+01
3.821173e+01
3.821187e+01
3.821199e+01
3.821210e+01
3.821219e+01
3.821226e+01
3.821232e+01
3.821237e+01
3.821241e+01
3.821243e+01
3.821244e+01
3.821245e+01
3.821245e+01
3.821244e+01
3.821242e+01
3.821240e+01
3.821237e+01
3.821234e+01
3.821230e+01
3.821226e+01
3.821222e+01
3.821217e+01
3.821212e+01
3.821206e+01
3.821201e+01
3.821195e+01
3.821188e+01
3.821182e+01
3.821175e+01
3.821168e+01
3.821161e+01
3.821153e+01
3.821146e+01
3.821138e+01
3.821129e+01
3.821121e+01
3.821112e+01
3.821104e+01
3.821095e+01
3.821085e+01
3.821076e+01
3.821066e+01
3.821056e+01
3.821046e+01
3.821035e+01
3.821025e+01
3.821014e+01
3.821003e+01
3.820992e+01
3.820981e+01
3.820970e+01
3.820958e+01
3.820948e+01
3.820937e+01
3.820927e+01
3.820918e+01
3.820909e+01
3.820950e+01
3.857209e+01
3.857168e+01
3.859448e+01
3.862044e+01
3.865193e+01
3.869064e+01
3.873191e+01
3.875149e+01
3.870246e+01
3.861166e+01
3.825194e+01
3.795479e+01
3.775846e+01
3.777305e+01
3.779565e+01
3.785331e+01
3.791247e+01
3.794195e+01
3.796870e+01
3.799218e+01
3.800953e+01
3.802266e+01
3.804354e+01
3.807239e+01
3.810559e+01
3.813517e+01
3.815809e+01
3.817332e+01
3.818410e+01
3.819205e+01
3.819807e+01
3.820262e+01
3.820596e+01
3.820833e+01
3.820994e+01
3.821098e+01
3.821164e+01
3.821204e+01
3.821230e+01
3.821246e+01
3.821257e+01
3.821264e+01
3.821271e+01
3.821276e+01
3.821280e+01
3.821283e+01
3.821286e+01
3.821288e+01
3.821289e+01
3.821290e+01
3.821290e+01
3.821289e+01
3.821287e+01
3.821285e+01
3.821282e+01
3.821279e+01
3.821275e+01
3.821271e+01
3.821267e+01
3.821262e+01
3.821257e+01
3.821252e+01
3.821246e+01
3.821241e+01
3.821235e+01
3.821229e+01
3.821222e+01
3.821216e+01
3.821209e+01
3.821202e+01
3.821195e+01
3.821188e+01
3.821180e+01
3.821173e+01
3.821165e+01
3.821157e+01
3.821149e+01
3.821141e+01
3.821132e+01
3.821123e+01
3.821114e+01
3.821105e+01
3.821096e+01
3.821087e+01
3.821077e+01
3.821067e+01
3.821057e+01
3.821047e+01
3.821036e+01
3.821025e+01
3.821014e+01
3.821003e+01
3.820992e+01
3.820981e+01
3.820970e+01
3.820958e+01
3.820947e+01
3.820937e+01
3.820927e+01
3.820917e+01
3.820908e+01
3.820949e+01
3.857187e+01
3.857146e+01
3.859063e+01
3.861131e+01
3.863411e+01
3.865713e+01
3.867149e+01
3.865684e+01
3.858001e+01
3.842896e+01
3.818721e+01
3.765683e+01
3.774304e+01
3.780044e+01
3.783655e+01
3.788945e+01
3.792510e+01
3.794758e+01
3.797110e+01
3.799242e+01
3.800071e+01
3.800636e+01
3.802671e+01
3.806017e+01
3.809770e+01
3.813069e+01
3.815423e+01
3.817090e+01
3.818289e+01
3.819166e+01
3.819817e+01
3.820305e+01
3.820668e+01
3.820933e+01
3.821119e+01
3.821244e+01
3.821324e+01
3.821370e+01
3.821395e+01
3.821406e+01
3.821409e+01
3.821407e+01
3.821402e+01
3.821396e+01
3.821390e+01
3.821383e+01
3.821376e+01
3.821369e+01
3.821363e+01
3.821356e+01
3.821349e+01
3.821342e+01
3.821335e+01
3.821328e+01
3.821321e+01
3.821314e+01
3.821307e+01
3.821299e+01
3.821292e+01
3.821285e+01
3.821277e+01
3.821270e+01
3.821263e+01
3.821255e+01
3.821248e+01
3.821240e+01
3.821233e+01
3.821225e+01
3.821217e+01
3.821209e+01
3.821202e+01
3.821194e+01
3.821186e+01
3.821177e+01
3.821169e+01
3.821161e+01
3.821152e+01
3.821143e+01
3.821135e+01
3.821126e+01
3.821116e+01
3.821107e+01
3.821098e+01
3.821088e+01
3.821078e+01
3.821068e+01
3.821058e+01
3.821047e+01
3.821037e+01
3.821026e+01
3.821015e+01
3.821004e+01
3.820992e+01
3.820981e+01
3.820970e+01
3.820958e+01
3.820947e+01
3.820936e+01
3.820926e+01
3.820916e+01
3.820907e+01
3.820948e+01
3.857118e+01
3.857077e+01
3.858528e+01
3.859995e+01
3.861375e+01
3.862312e+01
3.862000e+01
3.859009e+01
3.851324e+01
3.837147e+01
3.817600e+01
3.789990e+01
3.786001e+01
3.786693e+01
3.788333e+01
3.791235e+01
3.793684e+01
3.795551e+01
3.797416e+01
3.798799e+01
3.799397e+01
3.800438e+01
3.802795e+01
3.806228e+01
3.809993e+01
3.813048e+01
3.815367e+01
3.817084e+01
3.818347e+01
3.819273e+01
3.819950e+01
3.820441e+01
3.820796e+01
3.821051e+01
3.821232e+01
3.821357e+01
3.821440e+01
3.821492e+01
3.821521e+01
3.821534e+01
3.821535e+01
3.821530e+01
3.821519e+01
3.821506e+01
3.821492e+01
3.821477e+01
3.821463e+01
3.821448e+01
3.821434e+01
3.821420e+01
3.821407e+01
3.821395e+01
3.821382e+01
3.821370e+01
3.821359e+01
3.821348e+01
3.821337e+01
3.821327e+01
3.821317e+01
3.821307e+01
3.821297e+01
3.821287e+01
3.821278e+01
3.821269e+01
3.821260e+01
3.821251e+01
3.821242e+01
3.821234e+01
3.821225e+01
3.821216e+01
3.821208e+01
3.821199e+01
3.821191e+01
3.821182e+01
3.821173e+01
3.821164e+01
3.821155e+01
3.821146e+01
3.821137e+01
3.821128e+01
3.821118e+01
3.821109e+01
3.821099e+01
3.821089e+01
3.821079e+01
3.821069e+01
3.821059e+01
3.821048e+01
3.821037e+01
3.821026e+01
3.821015e+01
3.821004e+01
3.820993e+01
3.820981e+01
3.820969e+01
3.820958e+01
3.820946e+01
3.820935e+01
3.820924e+01
3.820915e+01
3.820905e+01
3.820946e+01
3.857029e+01
3.856988e+01
3.857954e+01
3.858838e+01
3.859441e+01
3.859411e+01
3.858128e+01
3.854676e+01
3.847931e+01
3.836811e+01
3.821381e+01
3.803458e+01
3.796006e+01
3.793535e+01
3.793202e+01
3.794201e+01
3.795462e+01
3.796644e+01
3.797820e+01
3.798815e+01
3.799687e+01
3.801183e+01
3.803752e+01
3.807122e+01
3.810524e+01
3.813367e+01
3.815590e+01
3.817263e+01
3.818497e+01
3.819398e+01
3.820054e+01
3.820531e+01
3.820879e+01
3.821132e+01
3.821314e+01
3.821443e+01
3.821530e+01
3.821587e+01
3.821619e+01
3.821635e+01
3.821637e+01
3.821630e+01
3.821617e+01
3.821600e+01
3.821581e+01
3.821561e+01
3.821540e+01
3.821519e+01
3.821499e+01
3.821480e+01
3.821461e+01
3.821443e+01
3.821426e+01
3.821410e+01
3.821395e+01
3.821380e+01
3.821366e+01
3.821352e+01
3.821339e+01
3.821327e+01
3.821315e+01
3.821304e+01
3.821293e+01
3.821282e+01
3.821272e+01
3.821262e+01
3.821252e+01
3.821242e+01
3.821232e+01
3.821223e+01
3.821214e+01
3.821204e+01
3.821195e+01
3.821186e+01
3.821177e+01
3.821167e+01
3.821158e+01
3.821149e+01
3.821139e+01
3.821130e+01
3.821120e+01
3.821110e+01
3.821100e+01
3.821090e+01
3.821080e+01
3.821070e+01
3.821059e+01
3.821049e+01
3.821038e+01
3.821027e+01
3.821016e+01
3.821004e+01
3.820993e+01
3.820981e+01
3.820969e+01
3.820957e+01
3.820945e+01
3.820934e+01
3.820923e+01
3.820912e+01
3.820902e+01
3.820943e+01
3.856943e+01
3.856902e+01
3.857421e+01
3.857795e+01
3.857803e+01
3.857135e+01
3.855339e+01
3.851832e+01
3.845976e+01
3.837172e+01
3.825259e+01
3.811773e+01
3.803579e+01
3.799388e+01
3.797506e+01
3.797057e+01
3.797269e+01
3.797763e+01
3.798425e+01
3.799222e+01
3.800322e+01
3.802148e+01
3.804834e+01
3.808045e+01
3.811159e+01
3.813812e+01
3.815919e+01
3.817516e+01
3.818692e+01
3.819545e+01
3.820161e+01
3.820610e+01
3.820941e+01
3.821185e+01
3.821366e+01
3.821497e+01
3.821590e+01
3.821651e+01
3.821689e+01
3.821708e+01
3.821713e+01
3.821708e+01
3.821694e+01
3.821676e+01
3.821654e+01
3.821630e+01
3.821606e+01
3.821581e+01
3.821556e+01
3.821532e+01
3.821509e+01
3.821487e+01
3.821465e+01
3.821445e+01
3.821426e+01
3.821408e+01
3.821391e+01
3.821375e+01
3.821360e+01
3.821345e+01
3.821332e+01
3.821318e+01
3.821306e+01
3.821294e+01
3.821282e+01
3.821271e+01
3.821260e+01
3.821249e+01
3.821239e+01
3.821229e+01
3.821219e+01
3.821209e+01
3.821199e+01
3.821189e+01
3.821180e+01
3.821170e+01
3.821161e+01
3.821151e+01
3.821141e+01
3.821131e+01
3.821122e+01
3.821112e+01
3.821102e+01
3.821091e+01
3.821081e+01
3.821071e+01
3.821060e+01
3.821049e+01
3.821038e+01
3.821027e+01
3.821016e+01
3.821004e+01
3.820993e+01
3.820981e+01
3.820969e+01
3.820957e+01
3.820944e+01
3.820932e+01
3.820920e+01
3.820909e+01
3.820899e+01
3.820940e+01
3.856870e+01
3.856829e+01
3.856971e+01
3.856942e+01
3.856520e+01
3.855441e+01
3.853371e+01
3.849921e+01
3.844700e+01
3.837380e+01
3.827894e+01
3.817262e+01
3.809213e+01
3.804025e+01
3.801029e+01
3.799507e+01
3.798857e+01
3.798734e+01
3.799000e+01
3.799681e+01
3.800949e+01
3.802997e+01
3.805749e+01
3.808827e+01
3.811755e+01
3.814256e+01
3.816242e+01
3.817745e+01
3.818849e+01
3.819649e+01
3.820231e+01
3.820659e+01
3.820978e+01
3.821218e+01
3.821398e+01
3.821532e+01
3.821629e+01
3.821695e+01
3.821737e+01
3.821760e+01
3.821768e+01
3.821764e+01
3.821752e+01
3.821733e+01
3.821710e+01
3.821685e+01
3.821657e+01
3.821630e+01
3.821602e+01
3.821574e+01
3.821548e+01
3.821522e+01
3.821498e+01
3.821475e+01
3.821453e+01
3.821432e+01
3.821413e+01
3.821394e+01
3.821377e+01
3.821361e+01
3.821345e+01
3.821331e+01
3.821317e+01
3.821303e+01
3.821291e+01
3.821278e+01
3.821267e+01
3.821255e+01
3.821244e+01
3.821233e+01
3.821223e+01
3.821213e+01
3.821202e+01
3.821192e+01
3.821182e+01
3.821173e+01
3.821163e+01
3.821153e+01
3.821143e+01
3.821133e+01
3.821123e+01
3.821113e+01
3.821103e+01
3.821092e+01
3.821082e+01
3.821071e+01
3.821061e+01
3.821050e+01
3.821039e+01
3.821027e+01
3.821016e+01
3.821004e+01
3.820993e+01
3.820981e+01
3.820968e+01
3.820956e+01
3.820943e+01
3.820930e+01
3.820917e+01
3.820904e+01
3.820894e+01
3.820935e+01
3.856814e+01
3.856773e+01
3.856629e+01
3.856305e+01
3.855589e+01
3.854253e+01
3.852036e+01
3.848656e+01
3.843853e+01
3.837444e+01
3.829461e+01
3.820632e+01
3.813079e+01
3.807497e+01
3.803757e+01
3.801445e+01
3.800129e+01
3.799508e+01
3.799471e+01
3.800074e+01
3.801451e+01
3.803638e+01
3.806433e+01
3.809431e+01
3.812238e+01
3.814619e+01
3.816501e+01
3.817920e+01
3.818959e+01
3.819715e+01
3.820269e+01
3.820682e+01
3.820995e+01
3.821233e+01
3.821414e+01
3.821550e+01
3.821650e+01
3.821721e+01
3.821767e+01
3.821793e+01
3.821804e+01
3.821802e+01
3.821791e+01
3.821773e+01
3.821750e+01
3.821724e+01
3.821695e+01
3.821665e+01
3.821636e+01
3.821606e+01
3.821577e+01
3.821549e+01
3.821523e+01
3.821497e+01
3.821473e+01
3.821451e+01
3.821429e+01
3.821409e+01
3.821390e+01
3.821373e+01
3.821356e+01
3.821340e+01
3.821325e+01
3.821311e+01
3.821297e+01
3.821284e+01
3.821272e+01
3.821260e+01
3.821248e+01
3.821237e+01
3.821226e+01
3.821216e+01
3.821205e+01
3.821195e+01
3.821184e+01
3.821174e+01
3.821164e+01
3.821154e+01
3.821144e+01
3.821134e+01
3.821124e+01
3.821114e+01
3.821103e+01
3.821093e+01
3.821082e+01
3.821072e+01
3.821061e+01
3.821050e+01
3.821039e+01
3.821028e+01
3.821016e+01
3.821005e+01
3.820993e+01
3.820980e+01
3.820968e+01
3.820955e+01
3.820941e+01
3.820927e+01
3.820913e+01
3.820899e+01
3.820887e+01
3.820928e+01
3.856777e+01
3.856736e+01
3.856401e+01
3.855887e+01
3.854989e+01
3.853504e+01
3.851212e+01
3.847892e+01
3.843349e+01
3.837472e+01
3.830352e+01
3.822567e+01
3.815449e+01
3.809748e+01
3.805602e+01
3.802798e+01
3.801027e+01
3.800054e+01
3.799807e+01
3.800355e+01
3.801793e+01
3.804068e+01
3.806889e+01
3.809842e+01
3.812573e+01
3.814870e+01
3.816674e+01
3.818028e+01
3.819020e+01
3.819745e+01
3.820282e+01
3.820687e+01
3.820996e+01
3.821234e+01
3.821417e+01
3.821556e+01
3.821659e+01
3.821732e+01
3.821781e+01
3.821810e+01
3.821824e+01
3.821824e+01
3.821814e+01
3.821797e+01
3.821774e+01
3.821748e+01
3.821719e+01
3.821688e+01
3.821657e+01
3.821626e+01
3.821596e+01
3.821567e+01
3.821539e+01
3.821512e+01
3.821487e+01
3.821463e+01
3.821440e+01
3.821419e+01
3.821399e+01
3.821380e+01
3.821363e+01
3.821346e+01
3.821331e+01
3.821316e+01
3.821302e+01
3.821288e+01
3.821275e+01
3.821263e+01
3.821251e+01
3.821240e+01
3.821228e+01
3.821217e+01
3.821207e+01
3.821196e+01
3.821186e+01
3.821176e+01
3.821165e+01
3.821155e+01
3.821145e+01
3.821135e+01
3.821124e+01
3.821114e+01
3.821104e+01
3.821093e+01
3.821083e+01
3.821072e+01
3.821061e+01
3.821050e+01
3.821039e+01
3.821028e+01
3.821016e+01
3.821005e+01
3.820993e+01
3.820980e+01
3.820968e+01
3.820954e+01
3.820940e+01
3.820925e+01
3.820909e+01
3.820891e+01
3.820879e+01
3.820920e+01
3.856759e+01
3.856718e+01
3.856288e+01
3.855681e+01
3.854698e+01
3.853148e+01
3.850832e+01
3.847553e+01
3.843146e+01
3.837528e+01
3.830810e+01
3.823502e+01
3.816616e+01
3.810885e+01
3.806554e+01
3.803510e+01
3.801506e+01
3.800349e+01
3.799993e+01
3.800509e+01
3.801966e+01
3.804264e+01
3.807086e+01
3.810015e+01
3.812714e+01
3.814976e+01
3.816744e+01
3.818068e+01
3.819038e+01
3.819750e+01
3.820280e+01
3.820681e+01
3.820989e+01
3.821228e+01
3.821412e+01
3.821552e+01
3.821657e+01
3.821733e+01
3.821784e+01
3.821815e+01
3.821830e+01
3.821832e+01
3.821823e+01
3.821807e+01
3.821784e+01
3.821758e+01
3.821729e+01
3.821698e+01
3.821667e+01
3.821635e+01
3.821605e+01
3.821575e+01
3.821546e+01
3.821519e+01
3.821493e+01
3.821468e+01
3.821445e+01
3.821424e+01
3.821403e+01
3.821384e+01
3.821366e+01
3.821349e+01
3.821333e+01
3.821318e+01
3.821304e+01
3.821290e+01
3.821277e+01
3.821265e+01
3.821252e+01
3.821241e+01
3.821229e+01
3.821218e+01
3.821208e+01
3.821197e+01
3.821186e+01
3.821176e+01
3.821166e+01
3.821156e+01
3.821145e+01
3.821135e+01
3.821125e+01
3.821114e+01
3.821104e+01
3.821094e+01
3.821083e+01
3.821072e+01
3.821061e+01
3.821050e+01
3.821039e+01
3.821028e+01
3.821016e+01
3.821005e+01
3.820993e+01
3.820980e+01
3.820967e+01
3.820954e+01
3.820939e+01
3.820924e+01
3.820905e+01
3.820880e+01
3.820867e+01
3.820908e+01
0.000000e+00
3.856759e+01
3.856329e+01
3.855722e+01
3.854739e+01
3.853189e+01
3.850873e+01
3.847594e+01
3.843187e+01
3.837569e+01
3.830851e+01
3.823543e+01
3.816657e+01
3.810926e+01
3.806595e+01
3.803551e+01
3.801547e+01
3.800390e+01
3.800034e+01
3.800550e+01
3.802007e+01
3.804305e+01
3.807127e+01
3.810056e+01
3.812755e+01
3.815017e+01
3.816785e+01
3.818109e+01
3.819079e+01
3.819791e+01
3.820321e+01
3.820722e+01
3.821030e+01
3.821268e+01
3.821453e+01
3.821593e+01
3.821698e+01
3.821774e+01
3.821825e+01
3.821856e+01
3.821871e+01
3.821872e+01
3.821864e+01
3.821847e+01
3.821825e+01
3.821799e+01
3.821770e+01
3.821739e+01
3.821708e+01
3.821676e+01
3.821646e+01
3.821616e+01
3.821587e+01
3.821560e+01
3.821534e+01
3.821509e+01
3.821486e+01
3.821465e+01
3.821444e+01
3.821425e+01
3.821407e+01