# vtk DataFile Version 3.0
Scalar Field
ASCII
DATASET RECTILINEAR_GRID
DIMENSIONS 102 22 1
X_COORDINATES 102 double
0.000000 0.100000 0.200000 0.300000 0.400000 0.500000 0.600000 0.700000 0.800000 0.900000 1.000000 1.100000 1.200000 1.300000 1.400000 1.500000 1.600000 1.700000 1.800000 1.900000 2.000000 2.100000 2.200000 2.300000 2.400000 2.500000 2.600000 2.700000 2.800000 2.900000 3.000000 3.100000 3.200000 3.300000 3.400000 3.500000 3.600000 3.700000 3.800000 3.900000 4.000000 4.100000 4.200000 4.300000 4.400000 4.500000 4.600000 4.700000 4.800000 4.900000 5.000000 5.100000 5.200000 5.300000 5.400000 5.500000 5.600000 5.700000 5.800000 5.900000 6.000000 6.100000 6.200000 6.300000 6.400000 6.500000 6.600000 6.700000 6.800000 6.900000 7.000000 7.100000 7.200000 7.300000 7.400000 7.500000 7.600000 7.700000 7.800000 7.900000 8.000000 8.100000 8.200000 8.300000 8.400000 8.500000 8.600000 8.700000 8.800000 8.900000 9.000000 9.100000 9.200000 9.300000 9.400000 9.500000 9.600000 9.700000 9.800000 9.900000 10.000000 10.100000 
Y_COORDINATES 22 double
0.000000 0.100000 0.200000 0.300000 0.400000 0.500000 0.600000 0.700000 0.800000 0.900000 1.000000 1.100000 1.200000 1.300000 1.400000 1.500000 1.600000 1.700000 1.800000 1.900000 2.000000 2.100000 
Z_COORDINATES 1 double
0.0
POINT_DATA 2244
SCALARS Pressure double 1
LOOKUP_TABLE default
0.000000e+00
1.766530e+01
1.763928e+01
1.760988e+01
1.757376e+01
1.752706e+01
1.746576e+01
1.738767e+01
1.729019e+01
1.718976e+01
1.709937e+01
1.702307e+01
1.696005e+01
1.690884e+01
1.686910e+01
1.684161e+01
1.682695e+01
1.682446e+01
1.683247e+01
1.684901e+01
1.687208e+01
1.689998e+01
1.693130e+01
1.696490e+01
1.699975e+01
1.703488e+01
1.706931e+01
1.710209e+01
1.713224e+01
1.715889e+01
1.718137e+01
1.719934e+01
1.721291e+01
1.722256e+01
1.722898e+01
1.723295e+01
1.723518e+01
1.723626e+01
1.723660e+01
1.723649e+01
1.723613e+01
1.723560e+01
1.723499e+01
1.723432e+01
1.723362e+01
1.723289e+01
1.723215e+01
1.723140e+01
1.723064e+01
1.722988e+01
1.722913e+01
1.722838e+01
1.722765e+01
1.722693e+01
1.722622e+01
1.722553e+01
1.722485e+01
1.722419e+01
1.722354e+01
1.722291e+01
1.722229e+01
1.722169e+01
1.722110e+01
1.722053e+01
1.721996e+01
1.721941e+01
1.721886e+01
1.721833e+01
1.721780e+01
1.721729e+01
1.721678e+01
1.721628e+01
1.721578e+01
1.721530e+01
1.721482e+01
1.721435e+01
1.721388e+01
1.721342e+01
1.721297e+01
1.721253e+01
1.721209e+01
1.721166e+01
1.721124e+01
1.721082e+01
1.721042e+01
1.721002e+01
1.720963e+01
1.720924e+01
1.720887e+01
1.720850e+01
1.720814e+01
1.720779e+01
1.720745e+01
1.720712e+01
1.720680e+01
1.720648e+01
1.720617e+01
1.720586e+01
1.720554e+01
1.720518e+01
1.720491e+01
0.000000e+00
1.766530e+01
1.766582e+01
1.763980e+01
1.761039e+01
1.757428e+01
1.752757e+01
1.746628e+01
1.738819e+01
1.729071e+01
1.719028e+01
1.709989e+01
1.702359e+01
1.696057e+01
1.690936e+01
1.686961e+01
1.684213e+01
1.682747e+01
1.682498e+01
1.683299e+01
1.684952e+01
1.687260e+01
1.690049e+01
1.693181e+01
1.696541e+01
1.700027e+01
1.703540e+01
1.706983e+01
1.710260e+01
1.713276e+01
1.715941e+01
1.718189e+01
1.719986e+01
1.721343e+01
1.722307e+01
1.722949e+01
1.723346e+01
1.723570e+01
1.723677e+01
1.723711e+01
1.723701e+01
1.723664e+01
1.723612e+01
1.723551e+01
1.723484e+01
1.723413e+01
1.723341e+01
1.723266e+01
1.723191e+01
1.723116e+01
1.723040e+01
1.722965e+01
1.722890e+01
1.722817e+01
1.722745e+01
1.722674e+01
1.722605e+01
1.722537e+01
1.722471e+01
1.722406e+01
1.722343e+01
1.722281e+01
1.722221e+01
1.722162e+01
1.722104e+01
1.722048e+01
1.721992e+01
1.721938e+01
1.721885e+01
1.721832e+01
1.721780e+01
1.721729e+01
1.721679e+01
1.721630e+01
1.721582e+01
1.721534e+01
1.721486e+01
1.721440e+01
1.721394e+01
1.721349e+01
1.721305e+01
1.721261e+01
1.721218e+01
1.721176e+01
1.721134e+01
1.721093e+01
1.721054e+01
1.721014e+01
1.720976e+01
1.720939e+01
1.720902e+01
1.720866e+01
1.720831e+01
1.720797e+01
1.720764e+01
1.720732e+01
1.720700e+01
1.720669e+01
1.720638e+01
1.720606e+01
1.720570e+01
1.720543e+01
1.720491e+01
1.766380e+01
1.766432e+01
1.763973e+01
1.761152e+01
1.757613e+01
1.752920e+01
1.746605e+01
1.738417e+01
1.727773e+01
1.717343e+01
1.708444e+01
1.701151e+01
1.695165e+01
1.690256e+01
1.686385e+01
1.683678e+01
1.682260e+01
1.682070e+01
1.682934e+01
1.684649e+01
1.687007e+01
1.689833e+01
1.692987e+01
1.696359e+01
1.699850e+01
1.703365e+01
1.706811e+01
1.710098e+01
1.713130e+01
1.715819e+01
1.718093e+01
1.719915e+01
1.721293e+01
1.722272e+01
1.722924e+01
1.723328e+01
1.723556e+01
1.723667e+01
1.723704e+01
1.723696e+01
1.723661e+01
1.723610e+01
1.723549e+01
1.723483e+01
1.723412e+01
1.723339e+01
1.723265e+01
1.723189e+01
1.723114e+01
1.723038e+01
1.722963e+01
1.722889e+01
1.722816e+01
1.722744e+01
1.722673e+01
1.722604e+01
1.722537e+01
1.722471e+01
1.722407e+01
1.722344e+01
1.722283e+01
1.722223e+01
1.722164e+01
1.722107e+01
1.722050e+01
1.721995e+01
1.721941e+01
1.721888e+01
1.721835e+01
1.721784e+01
1.721733e+01
1.721683e+01
1.721634e+01
1.721585e+01
1.721537e+01
1.721490e+01
1.721444e+01
1.721398e+01
1.721353e+01
1.721308e+01
1.721264e+01
1.721221e+01
1.721179e+01
1.721137e+01
1.721097e+01
1.721057e+01
1.721017e+01
1.720979e+01
1.720942e+01
1.720905e+01
1.720869e+01
1.720834e+01
1.720800e+01
1.720767e+01
1.720735e+01
1.720703e+01
1.720672e+01
1.720642e+01
1.720612e+01
1.720582e+01
1.720554e+01
1.720502e+01
1.766129e+01
1.766180e+01
1.764022e+01
1.761471e+01
1.758127e+01
1.753450e+01
1.746792e+01
1.737753e+01
1.725010e+01
1.713932e+01
1.705486e+01
1.698933e+01
1.693557e+01
1.689020e+01
1.685312e+01
1.682654e+01
1.681315e+01
1.681240e+01
1.682225e+01
1.684051e+01
1.686500e+01
1.689386e+01
1.692571e+01
1.695951e+01
1.699440e+01
1.702951e+01
1.706398e+01
1.709693e+01
1.712750e+01
1.715483e+01
1.717813e+01
1.719692e+01
1.721120e+01
1.722141e+01
1.722825e+01
1.723252e+01
1.723499e+01
1.723624e+01
1.723672e+01
1.723671e+01
1.723641e+01
1.723594e+01
1.723535e+01
1.723469e+01
1.723399e+01
1.723327e+01
1.723253e+01
1.723178e+01
1.723102e+01
1.723027e+01
1.722953e+01
1.722880e+01
1.722808e+01
1.722737e+01
1.722667e+01
1.722600e+01
1.722533e+01
1.722469e+01
1.722405e+01
1.722344e+01
1.722283e+01
1.722224e+01
1.722166e+01
1.722109e+01
1.722054e+01
1.721999e+01
1.721945e+01
1.721892e+01
1.721840e+01
1.721789e+01
1.721738e+01
1.721688e+01
1.721639e+01
1.721590e+01
1.721542e+01
1.721495e+01
1.721448e+01
1.721403e+01
1.721357e+01
1.721313e+01
1.721269e+01
1.721226e+01
1.721183e+01
1.721142e+01
1.721101e+01
1.721060e+01
1.721021e+01
1.720983e+01
1.720945e+01
1.720908e+01
1.720872e+01
1.720837e+01
1.720803e+01
1.720770e+01
1.720738e+01
1.720706e+01
1.720676e+01
1.720646e+01
1.720618e+01
1.720591e+01
1.720563e+01
1.720511e+01
1.765815e+01
1.765867e+01
1.764174e+01
1.762069e+01
1.759091e+01
1.754517e+01
1.747319e+01
1.736560e+01
1.719906e+01
1.708457e+01
1.701249e+01
1.695915e+01
1.691406e+01
1.687344e+01
1.683785e+01
1.681117e+01
1.679843e+01
1.679956e+01
1.681133e+01
1.683143e+01
1.685737e+01
1.688717e+01
1.691949e+01
1.695343e+01
1.698829e+01
1.702336e+01
1.705783e+01
1.709086e+01
1.712171e+01
1.714961e+01
1.717369e+01
1.719332e+01
1.720838e+01
1.721923e+01
1.722657e+01
1.723122e+01
1.723395e+01
1.723540e+01
1.723602e+01
1.723612e+01
1.723591e+01
1.723550e+01
1.723496e+01
1.723434e+01
1.723367e+01
1.723297e+01
1.723226e+01
1.723153e+01
1.723080e+01
1.723007e+01
1.722935e+01
1.722863e+01
1.722793e+01
1.722724e+01
1.722657e+01
1.722591e+01
1.722527e+01
1.722464e+01
1.722402e+01
1.722342e+01
1.722283e+01
1.722225e+01
1.722169e+01
1.722113e+01
1.722058e+01
1.722004e+01
1.721951e+01
1.721898e+01
1.721846e+01
1.721795e+01
1.721745e+01
1.721695e+01
1.721646e+01
1.721597e+01
1.721549e+01
1.721502e+01
1.721455e+01
1.721409e+01
1.721363e+01
1.721319e+01
1.721274e+01
1.721231e+01
1.721188e+01
1.721147e+01
1.721105e+01
1.721065e+01
1.721026e+01
1.720987e+01
1.720949e+01
1.720912e+01
1.720876e+01
1.720841e+01
1.720807e+01
1.720774e+01
1.720741e+01
1.720710e+01
1.720680e+01
1.720651e+01
1.720623e+01
1.720597e+01
1.720570e+01
1.720518e+01
1.765488e+01
1.765539e+01
1.764486e+01
1.763040e+01
1.760705e+01
1.756494e+01
1.748626e+01
1.734516e+01
1.711143e+01
1.700753e+01
1.696036e+01
1.692514e+01
1.689106e+01
1.685545e+01
1.682000e+01
1.679127e+01
1.677776e+01
1.678154e+01
1.679632e+01
1.681938e+01
1.684760e+01
1.687882e+01
1.691181e+01
1.694591e+01
1.698071e+01
1.701569e+01
1.705018e+01
1.708330e+01
1.711438e+01
1.714300e+01
1.716810e+01
1.718884e+01
1.720488e+01
1.721650e+01
1.722438e+01
1.722940e+01
1.723239e+01
1.723403e+01
1.723482e+01
1.723507e+01
1.723499e+01
1.723470e+01
1.723427e+01
1.723374e+01
1.723314e+01
1.723251e+01
1.723184e+01
1.723116e+01
1.723047e+01
1.722978e+01
1.722909e+01
1.722841e+01
1.722774e+01
1.722708e+01
1.722644e+01
1.722581e+01
1.722519e+01
1.722459e+01
1.722400e+01
1.722342e+01
1.722284e+01
1.722228e+01
1.722173e+01
1.722118e+01
1.722065e+01
1.722011e+01
1.721959e+01
1.721907e+01
1.721855e+01
1.721804e+01
1.721754e+01
1.721704e+01
1.721655e+01
1.721606e+01
1.721558e+01
1.721510e+01
1.721463e+01
1.721417e+01
1.721371e+01
1.721326e+01
1.721281e+01
1.721238e+01
1.721195e+01
1.721153e+01
1.721111e+01
1.721070e+01
1.721031e+01
1.720992e+01
1.720954e+01
1.720917e+01
1.720880e+01
1.720845e+01
1.720811e+01
1.720777e+01
1.720745e+01
1.720714e+01
1.720684e+01
1.720655e+01
1.720628e+01
1.720603e+01
1.720575e+01
1.720523e+01
1.765188e+01
1.765240e+01
1.764981e+01
1.764444e+01
1.763200e+01
1.760075e+01
1.752100e+01
1.732104e+01
1.695876e+01
1.690423e+01
1.690530e+01
1.689376e+01
1.687266e+01
1.684272e+01
1.680558e+01
1.677082e+01
1.675206e+01
1.675764e+01
1.677739e+01
1.680545e+01
1.683732e+01
1.687070e+01
1.690458e+01
1.693879e+01
1.697335e+01
1.700808e+01
1.704245e+01
1.707557e+01
1.710657e+01
1.713581e+01
1.716201e+01
1.718392e+01
1.720097e+01
1.721332e+01
1.722168e+01
1.722701e+01
1.723022e+01
1.723207e+01
1.723306e+01
1.723352e+01
1.723364e+01
1.723354e+01
1.723328e+01
1.723290e+01
1.723244e+01
1.723191e+01
1.723132e+01
1.723071e+01
1.723008e+01
1.722944e+01
1.722880e+01
1.722816e+01
1.722754e+01
1.722692e+01
1.722632e+01
1.722573e+01
1.722514e+01
1.722457e+01
1.722401e+01
1.722345e+01
1.722290e+01
1.722235e+01
1.722181e+01
1.722128e+01
1.722075e+01
1.722022e+01
1.721970e+01
1.721918e+01
1.721867e+01
1.721816e+01
1.721766e+01
1.721716e+01
1.721666e+01
1.721617e+01
1.721568e+01
1.721520e+01
1.721473e+01
1.721426e+01
1.721380e+01
1.721334e+01
1.721289e+01
1.721245e+01
1.721202e+01
1.721159e+01
1.721118e+01
1.721077e+01
1.721036e+01
1.720997e+01
1.720959e+01
1.720921e+01
1.720885e+01
1.720849e+01
1.720815e+01
1.720781e+01
1.720749e+01
1.720717e+01
1.720687e+01
1.720659e+01
1.720632e+01
1.720607e+01
1.720580e+01
1.720528e+01
1.764934e+01
1.764985e+01
1.765611e+01
1.766198e+01
1.766620e+01
1.766061e+01
1.761230e+01
1.738471e+01
1.667664e+01
1.676512e+01
1.685953e+01
1.686966e+01
1.686045e+01
1.683982e+01
1.680308e+01
1.676010e+01
1.673103e+01
1.673158e+01
1.675655e+01
1.679367e+01
1.683115e+01
1.686761e+01
1.690247e+01
1.693639e+01
1.697010e+01
1.700395e+01
1.703762e+01
1.707026e+01
1.710046e+01
1.712964e+01
1.715643e+01
1.717912e+01
1.719681e+01
1.720960e+01
1.721826e+01
1.722382e+01
1.722726e+01
1.722934e+01
1.723061e+01
1.723138e+01
1.723182e+01
1.723204e+01
1.723207e+01
1.723190e+01
1.723160e+01
1.723120e+01
1.723073e+01
1.723022e+01
1.722968e+01
1.722912e+01
1.722855e+01
1.722798e+01
1.722741e+01
1.722684e+01
1.722628e+01
1.722573e+01
1.722518e+01
1.722464e+01
1.722410e+01
1.722356e+01
1.722303e+01
1.722249e+01
1.722196e+01
1.722144e+01
1.722091e+01
1.722039e+01
1.721986e+01
1.721935e+01
1.721883e+01
1.721832e+01
1.721781e+01
1.721730e+01
1.721680e+01
1.721630e+01
1.721581e+01
1.721532e+01
1.721484e+01
1.721437e+01
1.721390e+01
1.721344e+01
1.721299e+01
1.721254e+01
1.721210e+01
1.721167e+01
1.721125e+01
1.721083e+01
1.721043e+01
1.721003e+01
1.720964e+01
1.720926e+01
1.720890e+01
1.720854e+01
1.720819e+01
1.720785e+01
1.720752e+01
1.720721e+01
1.720691e+01
1.720662e+01
1.720636e+01
1.720611e+01
1.720583e+01
1.720531e+01
1.764705e+01
1.764757e+01
1.766218e+01
1.767944e+01
1.770307e+01
1.773670e+01
1.778026e+01
1.789619e+01
1.728590e+01
1.682746e+01
1.689085e+01
1.686065e+01
1.684088e+01
1.683107e+01
1.680805e+01
1.676527e+01
1.672774e+01
1.672163e+01
1.674779e+01
1.679154e+01
1.683706e+01
1.687738e+01
1.691284e+01
1.694547e+01
1.697700e+01
1.700845e+01
1.703987e+01
1.707047e+01
1.709869e+01
1.712601e+01
1.715183e+01
1.717402e+01
1.719148e+01
1.720426e+01
1.721313e+01
1.721904e+01
1.722293e+01
1.722545e+01
1.722723e+01
1.722857e+01
1.722945e+01
1.723001e+01
1.723035e+01
1.723051e+01
1.723051e+01
1.723037e+01
1.723013e+01
1.722980e+01
1.722940e+01
1.722895e+01
1.722848e+01
1.722798e+01
1.722747e+01
1.722695e+01
1.722643e+01
1.722590e+01
1.722538e+01
1.722485e+01
1.722432e+01
1.722379e+01
1.722326e+01
1.722273e+01
1.722220e+01
1.722167e+01
1.722114e+01
1.722061e+01
1.722008e+01
1.721956e+01
1.721903e+01
1.721851e+01
1.721799e+01
1.721748e+01
1.721697e+01
1.721646e+01
1.721596e+01
1.721546e+01
1.721498e+01
1.721449e+01
1.721402e+01
1.721355e+01
1.721309e+01
1.721263e+01
1.721219e+01
1.721175e+01
1.721132e+01
1.721090e+01
1.721049e+01
1.721009e+01
1.720970e+01
1.720932e+01
1.720894e+01
1.720858e+01
1.720823e+01
1.720789e+01
1.720756e+01
1.720725e+01
1.720694e+01
1.720666e+01
1.720639e+01
1.720614e+01
1.720585e+01
1.720533e+01
1.764456e+01
1.764508e+01
1.766578e+01
1.769114e+01
1.772800e+01
1.778666e+01
1.788391e+01
1.801551e+01
1.802998e+01
0.000000e+00
1.685202e+01
1.685253e+01
1.682348e+01
1.680298e+01
1.677611e+01
1.674711e+01
1.672289e+01
1.672136e+01
1.674978e+01
1.679498e+01
1.685263e+01
1.689915e+01
1.693637e+01
1.696747e+01
1.699574e+01
1.702326e+01
1.705062e+01
1.707721e+01
1.710150e+01
1.712501e+01
1.714768e+01
1.716750e+01
1.718357e+01
1.719589e+01
1.720504e+01
1.721159e+01
1.721636e+01
1.721953e+01
1.722186e+01
1.722374e+01
1.722532e+01
1.722667e+01
1.722777e+01
1.722863e+01
1.722922e+01
1.722957e+01
1.722971e+01
1.722966e+01
1.722947e+01
1.722917e+01
1.722879e+01
1.722835e+01
1.722788e+01
1.722738e+01
1.722686e+01
1.722634e+01
1.722580e+01
1.722527e+01
1.722473e+01
1.722418e+01
1.722364e+01
1.722309e+01
1.722255e+01
1.722200e+01
1.722145e+01
1.722091e+01
1.722036e+01
1.721982e+01
1.721928e+01
1.721875e+01
1.721821e+01
1.721768e+01
1.721716e+01
1.721664e+01
1.721613e+01
1.721562e+01
1.721512e+01
1.721463e+01
1.721415e+01
1.721367e+01
1.721320e+01
1.721274e+01
1.721229e+01
1.721184e+01
1.721141e+01
1.721098e+01
1.721056e+01
1.721016e+01
1.720976e+01
1.720937e+01
1.720900e+01
1.720863e+01
1.720827e+01
1.720793e+01
1.720760e+01
1.720728e+01
1.720697e+01
1.720668e+01
1.720641e+01
1.720616e+01
1.720587e+01
1.720535e+01
1.764146e+01
1.764197e+01
1.766537e+01
1.769354e+01
1.773280e+01
1.779032e+01
1.787306e+01
1.797053e+01
1.804548e+01
1.804497e+01
0.000000e+00
1.680081e+01
1.680132e+01
1.676498e+01
1.672912e+01
1.669630e+01
1.668217e+01
1.670064e+01
1.674944e+01
1.681288e+01
1.687715e+01
1.692983e+01
1.697176e+01
1.700184e+01
1.702605e+01
1.704822e+01
1.706963e+01
1.708998e+01
1.710808e+01
1.712554e+01
1.714241e+01
1.715774e+01
1.717113e+01
1.718229e+01
1.719174e+01
1.719910e+01
1.720515e+01
1.721023e+01
1.721440e+01
1.721787e+01
1.722078e+01
1.722325e+01
1.722529e+01
1.722695e+01
1.722821e+01
1.722910e+01
1.722965e+01
1.722992e+01
1.722995e+01
1.722980e+01
1.722951e+01
1.722912e+01
1.722866e+01
1.722815e+01
1.722761e+01
1.722705e+01
1.722648e+01
1.722590e+01
1.722532e+01
1.722474e+01
1.722416e+01
1.722358e+01
1.722300e+01
1.722242e+01
1.722185e+01
1.722128e+01
1.722071e+01
1.722014e+01
1.721958e+01
1.721902e+01
1.721847e+01
1.721792e+01
1.721738e+01
1.721685e+01
1.721632e+01
1.721580e+01
1.721529e+01
1.721478e+01
1.721429e+01
1.721380e+01
1.721332e+01
1.721285e+01
1.721239e+01
1.721194e+01
1.721149e+01
1.721106e+01
1.721064e+01
1.721023e+01
1.720982e+01
1.720943e+01
1.720905e+01
1.720868e+01
1.720832e+01
1.720797e+01
1.720763e+01
1.720731e+01
1.720700e+01
1.720671e+01
1.720643e+01
1.720617e+01
1.720587e+01
1.720536e+01
1.763763e+01
1.763815e+01
1.766088e+01
1.768721e+01
1.772184e+01
1.776956e+01
1.783044e+01
1.788459e+01
1.790792e+01
1.764847e+01
1.764795e+01
0.000000e+00
1.675666e+01
1.671303e+01
1.667754e+01
1.663532e+01
1.662154e+01
1.665376e+01
1.672938e+01
1.683076e+01
1.692562e+01
1.698877e+01
1.702625e+01
1.705177e+01
1.706900e+01
1.708357e+01
1.709652e+01
1.710774e+01
1.711702e+01
1.712548e+01
1.713365e+01
1.714211e+01
1.715140e+01
1.716255e+01
1.717406e+01
1.718472e+01
1.719425e+01
1.720219e+01
1.720847e+01
1.721346e+01
1.721755e+01
1.722093e+01
1.722367e+01
1.722588e+01
1.722762e+01
1.722891e+01
1.722981e+01
1.723036e+01
1.723061e+01
1.723061e+01
1.723042e+01
1.723008e+01
1.722964e+01
1.722912e+01
1.722855e+01
1.722795e+01
1.722733e+01
1.722670e+01
1.722606e+01
1.722543e+01
1.722480e+01
1.722417e+01
1.722354e+01
1.722292e+01
1.722231e+01
1.722170e+01
1.722110e+01
1.722050e+01
1.721991e+01
1.721933e+01
1.721875e+01
1.721818e+01
1.721762e+01
1.721707e+01
1.721652e+01
1.721599e+01
1.721546e+01
1.721494e+01
1.721443e+01
1.721393e+01
1.721344e+01
1.721296e+01
1.721249e+01
1.721203e+01
1.721158e+01
1.721114e+01
1.721071e+01
1.721029e+01
1.720989e+01
1.720949e+01
1.720910e+01
1.720872e+01
1.720836e+01
1.720801e+01
1.720766e+01
1.720734e+01
1.720702e+01
1.720673e+01
1.720644e+01
1.720618e+01
1.720588e+01
1.720536e+01
1.763329e+01
1.763380e+01
1.765332e+01
1.767497e+01
1.770110e+01
1.773158e+01
1.775941e+01
1.776258e+01
1.769474e+01
1.756548e+01
1.713505e+01
1.680715e+01
1.663585e+01
1.668361e+01
1.665415e+01
1.661708e+01
1.661351e+01
1.665723e+01
1.674585e+01
1.686384e+01
1.697972e+01
1.705257e+01
1.709133e+01
1.711107e+01
1.712110e+01
1.712479e+01
1.712632e+01
1.712614e+01
1.712547e+01
1.712417e+01
1.712318e+01
1.712499e+01
1.713037e+01
1.714206e+01
1.715725e+01
1.717272e+01
1.718609e+01
1.719676e+01
1.720485e+01
1.721104e+01
1.721593e+01
1.721986e+01
1.722301e+01
1.722552e+01
1.722750e+01
1.722900e+01
1.723009e+01
1.723081e+01
1.723122e+01
1.723135e+01
1.723126e+01
1.723100e+01
1.723059e+01
1.723009e+01
1.722951e+01
1.722888e+01
1.722822e+01
1.722754e+01
1.722686e+01
1.722617e+01
1.722548e+01
1.722480e+01
1.722413e+01
1.722346e+01
1.722280e+01
1.722216e+01
1.722151e+01
1.722088e+01
1.722026e+01
1.721965e+01
1.721905e+01
1.721845e+01
1.721787e+01
1.721730e+01
1.721673e+01
1.721618e+01
1.721564e+01
1.721510e+01
1.721458e+01
1.721407e+01
1.721357e+01
1.721308e+01
1.721260e+01
1.721213e+01
1.721167e+01
1.721122e+01
1.721079e+01
1.721036e+01
1.720995e+01
1.720954e+01
1.720915e+01
1.720877e+01
1.720840e+01
1.720804e+01
1.720769e+01
1.720736e+01
1.720704e+01
1.720674e+01
1.720645e+01
1.720618e+01
1.720587e+01
1.720535e+01
1.762896e+01
1.762947e+01
1.764408e+01
1.765894e+01
1.767418e+01
1.768681e+01
1.768740e+01
1.765559e+01
1.755319e+01
1.736868e+01
1.707992e+01
1.648029e+01
1.658913e+01
1.664875e+01
1.665058e+01
1.663466e+01
1.664665e+01
1.669929e+01
1.679080e+01
1.690737e+01
1.702178e+01
1.709100e+01
1.712172e+01
1.713975e+01
1.715245e+01
1.715185e+01
1.714581e+01
1.713719e+01
1.712947e+01
1.712037e+01
1.711094e+01
1.710609e+01
1.711129e+01
1.712692e+01
1.714682e+01
1.716613e+01
1.718221e+01
1.719423e+01
1.720329e+01
1.721022e+01
1.721563e+01
1.721990e+01
1.722328e+01
1.722594e+01
1.722800e+01
1.722955e+01
1.723066e+01
1.723141e+01
1.723184e+01
1.723201e+01
1.723197e+01
1.723174e+01
1.723137e+01
1.723089e+01
1.723032e+01
1.722969e+01
1.722902e+01
1.722832e+01
1.722760e+01
1.722687e+01
1.722615e+01
1.722542e+01
1.722471e+01
1.722400e+01
1.722330e+01
1.722261e+01
1.722194e+01
1.722127e+01
1.722062e+01
1.721998e+01
1.721935e+01
1.721873e+01
1.721812e+01
1.721753e+01
1.721694e+01
1.721637e+01
1.721581e+01
1.721526e+01
1.721473e+01
1.721420e+01
1.721369e+01
1.721319e+01
1.721270e+01
1.721222e+01
1.721176e+01
1.721130e+01
1.721086e+01
1.721043e+01
1.721001e+01
1.720960e+01
1.720920e+01
1.720881e+01
1.720844e+01
1.720807e+01
1.720772e+01
1.720738e+01
1.720706e+01
1.720675e+01
1.720645e+01
1.720618e+01
1.720586e+01
1.720534e+01
1.762473e+01
1.762525e+01
1.763415e+01
1.764181e+01
1.764697e+01
1.764560e+01
1.762918e+01
1.758279e+01
1.748334e+01
1.731084e+01
1.707817e+01
1.676133e+01
1.671388e+01
1.671157e+01
1.670206e+01
1.669395e+01
1.671117e+01
1.676132e+01
1.684274e+01
1.693885e+01
1.701756e+01
1.707077e+01
1.710663e+01
1.713135e+01
1.714376e+01
1.714532e+01
1.714002e+01
1.713273e+01
1.712593e+01
1.711323e+01
1.709913e+01
1.709449e+01
1.710375e+01
1.712252e+01
1.714480e+01
1.716538e+01
1.718162e+01
1.719404e+01
1.720349e+01
1.721071e+01
1.721629e+01
1.722064e+01
1.722405e+01
1.722670e+01
1.722874e+01
1.723026e+01
1.723135e+01
1.723207e+01
1.723248e+01
1.723264e+01
1.723259e+01
1.723237e+01
1.723201e+01
1.723154e+01
1.723098e+01
1.723035e+01
1.722968e+01
1.722897e+01
1.722824e+01
1.722749e+01
1.722674e+01
1.722599e+01
1.722524e+01
1.722450e+01
1.722377e+01
1.722305e+01
1.722234e+01
1.722164e+01
1.722096e+01
1.722029e+01
1.721963e+01
1.721899e+01
1.721836e+01
1.721775e+01
1.721715e+01
1.721656e+01
1.721598e+01
1.721542e+01
1.721487e+01
1.721433e+01
1.721381e+01
1.721330e+01
1.721280e+01
1.721231e+01
1.721184e+01
1.721138e+01
1.721092e+01
1.721049e+01
1.721006e+01
1.720965e+01
1.720924e+01
1.720885e+01
1.720847e+01
1.720810e+01
1.720774e+01
1.720740e+01
1.720707e+01
1.720675e+01
1.720645e+01
1.720617e+01
1.720584e+01
1.720532e+01
1.762092e+01
1.762144e+01
1.762475e+01
1.762589e+01
1.762294e+01
1.761201e+01
1.758653e+01
1.753679e+01
1.745005e+01
1.731312e+01
1.712855e+01
1.691880e+01
1.682856e+01
1.679064e+01
1.676924e+01
1.676131e+01
1.677682e+01
1.681869e+01
1.688399e+01
1.695562e+01
1.701697e+01
1.706343e+01
1.709678e+01
1.711814e+01
1.712876e+01
1.713077e+01
1.712853e+01
1.712575e+01
1.711936e+01
1.710678e+01
1.709590e+01
1.709575e+01
1.710734e+01
1.712667e+01
1.714864e+01
1.716783e+01
1.718339e+01
1.719553e+01
1.720485e+01
1.721199e+01
1.721750e+01
1.722175e+01
1.722503e+01
1.722755e+01
1.722946e+01
1.723088e+01
1.723188e+01
1.723255e+01
1.723294e+01
1.723309e+01
1.723305e+01
1.723284e+01
1.723249e+01
1.723204e+01
1.723149e+01
1.723088e+01
1.723021e+01
1.722950e+01
1.722876e+01
1.722800e+01
1.722724e+01
1.722647e+01
1.722570e+01
1.722494e+01
1.722418e+01
1.722343e+01
1.722270e+01
1.722198e+01
1.722127e+01
1.722058e+01
1.721990e+01
1.721924e+01
1.721859e+01
1.721795e+01
1.721733e+01
1.721673e+01
1.721614e+01
1.721556e+01
1.721500e+01
1.721445e+01
1.721392e+01
1.721340e+01
1.721289e+01
1.721239e+01
1.721191e+01
1.721144e+01
1.721099e+01
1.721054e+01
1.721011e+01
1.720969e+01
1.720928e+01
1.720888e+01
1.720850e+01
1.720813e+01
1.720776e+01
1.720741e+01
1.720707e+01
1.720675e+01
1.720644e+01
1.720615e+01
1.720581e+01
1.720529e+01
1.761776e+01
1.761827e+01
1.761666e+01
1.761240e+01
1.760340e+01
1.758626e+01
1.755617e+01
1.750686e+01
1.743117e+01
1.732162e+01
1.717686e+01
1.701648e+01
1.691655e+01
1.686127e+01
1.683089e+01
1.682016e+01
1.683132e+01
1.686415e+01
1.691410e+01
1.696868e+01
1.701778e+01
1.705730e+01
1.708661e+01
1.710565e+01
1.711584e+01
1.711935e+01
1.711913e+01
1.711688e+01
1.711080e+01
1.710152e+01
1.709648e+01
1.710068e+01
1.711406e+01
1.713309e+01
1.715323e+01
1.717107e+01
1.718577e+01
1.719739e+01
1.720640e+01
1.721334e+01
1.721867e+01
1.722277e+01
1.722591e+01
1.722830e+01
1.723009e+01
1.723140e+01
1.723233e+01
1.723294e+01
1.723328e+01
1.723341e+01
1.723336e+01
1.723315e+01
1.723282e+01
1.723238e+01
1.723185e+01
1.723125e+01
1.723059e+01
1.722989e+01
1.722916e+01
1.722841e+01
1.722764e+01
1.722686e+01
1.722608e+01
1.722530e+01
1.722452e+01
1.722376e+01
1.722301e+01
1.722226e+01
1.722154e+01
1.722083e+01
1.722013e+01
1.721945e+01
1.721878e+01
1.721813e+01
1.721750e+01
1.721688e+01
1.721627e+01
1.721569e+01
1.721511e+01
1.721455e+01
1.721401e+01
1.721348e+01
1.721297e+01
1.721246e+01
1.721198e+01
1.721150e+01
1.721104e+01
1.721059e+01
1.721015e+01
1.720973e+01
1.720932e+01
1.720891e+01
1.720852e+01
1.720815e+01
1.720778e+01
1.720742e+01
1.720708e+01
1.720674e+01
1.720642e+01
1.720612e+01
1.720577e+01
1.720526e+01
1.761532e+01
1.761584e+01
1.761024e+01
1.760179e+01
1.758845e+01
1.756733e+01
1.753480e+01
1.748660e+01
1.741835e+01
1.732599e+01
1.720888e+01
1.708065e+01
1.698293e+01
1.691875e+01
1.688116e+01
1.686626e+01
1.687265e+01
1.689775e+01
1.693619e+01
1.697912e+01
1.701936e+01
1.705313e+01
1.707895e+01
1.709644e+01
1.710655e+01
1.711085e+01
1.711129e+01
1.710882e+01
1.710350e+01
1.709802e+01
1.709768e+01
1.710523e+01
1.711979e+01
1.713826e+01
1.715710e+01
1.717396e+01
1.718800e+01
1.719919e+01
1.720790e+01
1.721459e+01
1.721970e+01
1.722360e+01
1.722656e+01
1.722880e+01
1.723048e+01
1.723170e+01
1.723257e+01
1.723314e+01
1.723347e+01
1.723359e+01
1.723354e+01
1.723334e+01
1.723302e+01
1.723260e+01
1.723209e+01
1.723151e+01
1.723086e+01
1.723018e+01
1.722945e+01
1.722870e+01
1.722793e+01
1.722715e+01
1.722636e+01
1.722557e+01
1.722479e+01
1.722401e+01
1.722325e+01
1.722249e+01
1.722175e+01
1.722103e+01
1.722031e+01
1.721962e+01
1.721894e+01
1.721828e+01
1.721763e+01
1.721700e+01
1.721639e+01
1.721579e+01
1.721521e+01
1.721464e+01
1.721409e+01
1.721355e+01
1.721303e+01
1.721252e+01
1.721203e+01
1.721155e+01
1.721108e+01
1.721063e+01
1.721019e+01
1.720976e+01
1.720934e+01
1.720894e+01
1.720854e+01
1.720816e+01
1.720779e+01
1.720743e+01
1.720707e+01
1.720673e+01
1.720640e+01
1.720608e+01
1.720573e+01
1.720521e+01
1.761361e+01
1.761413e+01
1.760554e+01
1.759407e+01
1.757778e+01
1.755415e+01
1.752029e+01
1.747305e+01
1.740947e+01
1.732737e+01
1.722736e+01
1.711940e+01
1.702796e+01
1.696154e+01
1.691998e+01
1.690132e+01
1.690308e+01
1.692176e+01
1.695199e+01
1.698703e+01
1.702106e+01
1.705054e+01
1.707374e+01
1.709009e+01
1.710005e+01
1.710465e+01
1.710516e+01
1.710254e+01
1.709833e+01
1.709582e+01
1.709871e+01
1.710846e+01
1.712378e+01
1.714188e+01
1.715995e+01
1.717618e+01
1.718978e+01
1.720066e+01
1.720913e+01
1.721560e+01
1.722050e+01
1.722421e+01
1.722701e+01
1.722911e+01
1.723069e+01
1.723184e+01
1.723266e+01
1.723321e+01
1.723352e+01
1.723365e+01
1.723360e+01
1.723342e+01
1.723312e+01
1.723271e+01
1.723222e+01
1.723165e+01
1.723102e+01
1.723035e+01
1.722963e+01
1.722889e+01
1.722812e+01
1.722734e+01
1.722656e+01
1.722577e+01
1.722498e+01
1.722420e+01
1.722342e+01
1.722266e+01
1.722191e+01
1.722117e+01
1.722045e+01
1.721975e+01
1.721906e+01
1.721838e+01
1.721773e+01
1.721709e+01
1.721647e+01
1.721587e+01
1.721528e+01
1.721470e+01
1.721415e+01
1.721360e+01
1.721308e+01
1.721257e+01
1.721207e+01
1.721159e+01
1.721112e+01
1.721066e+01
1.721021e+01
1.720978e+01
1.720936e+01
1.720896e+01
1.720856e+01
1.720817e+01
1.720780e+01
1.720743e+01
1.720707e+01
1.720671e+01
1.720636e+01
1.720603e+01
1.720566e+01
1.720515e+01
1.761255e+01
1.761306e+01
1.760250e+01
1.758909e+01
1.757098e+01
1.754591e+01
1.751137e+01
1.746484e+01
1.740407e+01
1.732783e+01
1.723752e+01
1.714119e+01
1.705503e+01
1.698871e+01
1.694524e+01
1.692410e+01
1.692268e+01
1.693712e+01
1.696225e+01
1.699232e+01
1.702237e+01
1.704904e+01
1.707049e+01
1.708607e+01
1.709587e+01
1.710052e+01
1.710092e+01
1.709836e+01
1.709519e+01
1.709472e+01
1.709966e+01
1.711069e+01
1.712637e+01
1.714418e+01
1.716179e+01
1.717764e+01
1.719097e+01
1.720167e+01
1.720998e+01
1.721630e+01
1.722105e+01
1.722461e+01
1.722728e+01
1.722927e+01
1.723076e+01
1.723186e+01
1.723264e+01
1.723317e+01
1.723348e+01
1.723361e+01
1.723358e+01
1.723341e+01
1.723312e+01
1.723273e+01
1.723226e+01
1.723170e+01
1.723109e+01
1.723043e+01
1.722972e+01
1.722899e+01
1.722823e+01
1.722745e+01
1.722666e+01
1.722588e+01
1.722509e+01
1.722430e+01
1.722352e+01
1.722276e+01
1.722200e+01
1.722126e+01
1.722053e+01
1.721982e+01
1.721913e+01
1.721845e+01
1.721779e+01
1.721715e+01
1.721652e+01
1.721591e+01
1.721532e+01
1.721474e+01
1.721418e+01
1.721364e+01
1.721311e+01
1.721259e+01
1.721209e+01
1.721161e+01
1.721114e+01
1.721068e+01
1.721023e+01
1.720980e+01
1.720938e+01
1.720897e+01
1.720857e+01
1.720818e+01
1.720780e+01
1.720743e+01
1.720706e+01
1.720669e+01
1.720632e+01
1.720596e+01
1.720559e+01
1.720507e+01
1.761206e+01
1.761258e+01
1.760104e+01
1.758670e+01
1.756776e+01
1.754207e+01
1.750735e+01
1.746131e+01
1.740199e+01
1.732854e+01
1.724265e+01
1.715154e+01
1.706809e+01
1.700207e+01
1.695778e+01
1.693538e+01
1.693233e+01
1.694465e+01
1.696726e+01
1.699488e+01
1.702295e+01
1.704821e+01
1.706879e+01
1.708395e+01
1.709367e+01
1.709835e+01
1.709875e+01
1.709642e+01
1.709399e+01
1.709456e+01
1.710039e+01
1.711186e+01
1.712755e+01
1.714513e+01
1.716246e+01
1.717813e+01
1.719137e+01
1.720203e+01
1.721031e+01
1.721660e+01
1.722130e+01
1.722480e+01
1.722741e+01
1.722935e+01
1.723080e+01
1.723186e+01
1.723262e+01
1.723313e+01
1.723344e+01
1.723356e+01
1.723354e+01
1.723337e+01
1.723309e+01
1.723271e+01
1.723224e+01
1.723170e+01
1.723110e+01
1.723044e+01
1.722974e+01
1.722901e+01
1.722826e+01
1.722749e+01
1.722670e+01
1.722591e+01
1.722513e+01
1.722434e+01
1.722356e+01
1.722280e+01
1.722204e+01
1.722130e+01
1.722057e+01
1.721986e+01
1.721916e+01
1.721848e+01
1.721782e+01
1.721717e+01
1.721655e+01
1.721594e+01
1.721534e+01
1.721476e+01
1.721420e+01
1.721365e+01
1.721312e+01
1.721261e+01
1.721211e+01
1.721162e+01
1.721115e+01
1.721069e+01
1.721024e+01
1.720980e+01
1.720938e+01
1.720897e+01
1.720857e+01
1.720818e+01
1.720780e+01
1.720742e+01
1.720705e+01
1.720668e+01
1.720629e+01
1.720585e+01
1.720548e+01
1.720496e+01
0.000000e+00
1.761206e+01
1.760052e+01
1.758618e+01
1.756724e+01
1.754155e+01
1.750683e+01
1.746079e+01
1.740147e+01
1.732802e+01
1.724213e+01
1.715102e+01
1.706757e+01
1.700155e+01
1.695727e+01
1.693486e+01
1.693181e+01
1.694413e+01
1.696674e+01
1.699437e+01
1.702243e+01
1.704769e+01
1.706828e+01
1.708344e+01
1.709315e+01
1.709784e+01
1.709823e+01
1.709590e+01
1.709347e+01
1.709404e+01
1.709987e+01
1.711134e+01
1.712703e+01
1.714461e+01
1.716194e+01
1.717761e+01
1.719085e+01
1.720151e+01
1.720980e+01
1.721608e+01
1.722079e+01
1.722429e+01
1.722689e+01
1.722883e+01
1.723028e+01
1.723134e+01
1.723210e+01
1.723262e+01
1.723292e+01
1.723305e+01
1.723302e+01
1.723286e+01
1.723258e+01
1.723220e+01
1.723173e+01
1.723118e+01
1.723058e+01
1.722992e+01
1.722922e+01
1.722849e+01
1.722774e+01