# vtk DataFile Version 3.0
Scalar Field
ASCII
DATASET RECTILINEAR_GRID
DIMENSIONS 102 22 1
X_COORDINATES 102 double
0.000000 0.100000 0.200000 0.300000 0.400000 0.500000 0.600000 0.700000 0.800000 0.900000 1.000000 1.100000 1.200000 1.300000 1.400000 1.500000 1.600000 1.700000 1.800000 1.900000 2.000000 2.100000 2.200000 2.300000 2.400000 2.500000 2.600000 2.700000 2.800000 2.900000 3.000000 3.100000 3.200000 3.300000 3.400000 3.500000 3.600000 3.700000 3.800000 3.900000 4.000000 4.100000 4.200000 4.300000 4.400000 4.500000 4.600000 4.700000 4.800000 4.900000 5.000000 5.100000 5.200000 5.300000 5.400000 5.500000 5.600000 5.700000 5.800000 5.900000 6.000000 6.100000 6.200000 6.300000 6.400000 6.500000 6.600000 6.700000 6.800000 6.900000 7.000000 7.100000 7.200000 7.300000 7.400000 7.500000 7.600000 7.700000 7.800000 7.900000 8.000000 8.100000 8.200000 8.300000 8.400000 8.500000 8.600000 8.700000 8.800000 8.900000 9.000000 9.100000 9.200000 9.300000 9.400000 9.500000 9.600000 9.700000 9.800000 9.900000 10.000000 10.100000 
Y_COORDINATES 22 double
0.000000 0.100000 0.200000 0.300000 0.400000 0.500000 0.600000 0.700000 0.800000 0.900000 1.000000 1.100000 1.200000 1.300000 1.400000 1.500000 1.600000 1.700000 1.800000 1.900000 2.000000 2.100000 
Z_COORDINATES 1 double
0.0
POINT_DATA 2244
SCALARS Pressure double 1
LOOKUP_TABLE default
0.000000e+00
2.767951e+01
2.765016e+01
2.761725e+01
2.757701e+01
2.752532e+01
2.745792e+01
2.737252e+01
2.726647e+01
2.715808e+01
2.706211e+01
2.698368e+01
2.692241e+01
2.687653e+01
2.684454e+01
2.682498e+01
2.681620e+01
2.681643e+01
2.682407e+01
2.683779e+01
2.685660e+01
2.687980e+01
2.690693e+01
2.693762e+01
2.697154e+01
2.700828e+01
2.704741e+01
2.708839e+01
2.713056e+01
2.717300e+01
2.721460e+01
2.725439e+01
2.729164e+01
2.732575e+01
2.735406e+01
2.736898e+01
2.735996e+01
2.731950e+01
2.724970e+01
2.716553e+01
2.708925e+01
2.703955e+01
2.702069e+01
2.702559e+01
2.704678e+01
2.707774e+01
2.711357e+01
2.715066e+01
2.718614e+01
2.721755e+01
2.724294e+01
2.726142e+01
2.727337e+01
2.728025e+01
2.728391e+01
2.728591e+01
2.728717e+01
2.728890e+01
2.729094e+01
2.729272e+01
2.729343e+01
2.729206e+01
2.728745e+01
2.727863e+01
2.726503e+01
2.724675e+01
2.722462e+01
2.720000e+01
2.717465e+01
2.715056e+01
2.712970e+01
2.711371e+01
2.710368e+01
2.709991e+01
2.710169e+01
2.710767e+01
2.711747e+01
2.713060e+01
2.714629e+01
2.716329e+01
2.717995e+01
2.719450e+01
2.720551e+01
2.721248e+01
2.721598e+01
2.721712e+01
2.721700e+01
2.721642e+01
2.721582e+01
2.721543e+01
2.721526e+01
2.721529e+01
2.721546e+01
2.721570e+01
2.721595e+01
2.721617e+01
2.721631e+01
2.721632e+01
2.721617e+01
2.721579e+01
2.721535e+01
0.000000e+00
2.767951e+01
2.767960e+01
2.765025e+01
2.761733e+01
2.757709e+01
2.752539e+01
2.745798e+01
2.737256e+01
2.726651e+01
2.715810e+01
2.706211e+01
2.698367e+01
2.692238e+01
2.687649e+01
2.684447e+01
2.682489e+01
2.681612e+01
2.681637e+01
2.682402e+01
2.683775e+01
2.685656e+01
2.687977e+01
2.690691e+01
2.693761e+01
2.697154e+01
2.700830e+01
2.704743e+01
2.708842e+01
2.713060e+01
2.717304e+01
2.721464e+01
2.725444e+01
2.729168e+01
2.732578e+01
2.735409e+01
2.736899e+01
2.735996e+01
2.731949e+01
2.724968e+01
2.716550e+01
2.708920e+01
2.703950e+01
2.702064e+01
2.702554e+01
2.704674e+01
2.707770e+01
2.711354e+01
2.715063e+01
2.718611e+01
2.721753e+01
2.724292e+01
2.726140e+01
2.727335e+01
2.728023e+01
2.728390e+01
2.728591e+01
2.728717e+01
2.728891e+01
2.729094e+01
2.729273e+01
2.729344e+01
2.729207e+01
2.728746e+01
2.727864e+01
2.726504e+01
2.724675e+01
2.722462e+01
2.719999e+01
2.717464e+01
2.715056e+01
2.712969e+01
2.711371e+01
2.710367e+01
2.709990e+01
2.710168e+01
2.710766e+01
2.711745e+01
2.713059e+01
2.714627e+01
2.716327e+01
2.717993e+01
2.719448e+01
2.720549e+01
2.721245e+01
2.721596e+01
2.721710e+01
2.721698e+01
2.721640e+01
2.721581e+01
2.721541e+01
2.721524e+01
2.721528e+01
2.721544e+01
2.721568e+01
2.721594e+01
2.721616e+01
2.721630e+01
2.721631e+01
2.721616e+01
2.721578e+01
2.721534e+01
2.721535e+01
2.767802e+01
2.767811e+01
2.765024e+01
2.761855e+01
2.757904e+01
2.752712e+01
2.745783e+01
2.736863e+01
2.725333e+01
2.714104e+01
2.704656e+01
2.697154e+01
2.691330e+01
2.686943e+01
2.683863e+01
2.682000e+01
2.681197e+01
2.681276e+01
2.682082e+01
2.683480e+01
2.685370e+01
2.687684e+01
2.690380e+01
2.693426e+01
2.696792e+01
2.700443e+01
2.704332e+01
2.708403e+01
2.712590e+01
2.716804e+01
2.720921e+01
2.724836e+01
2.728479e+01
2.731780e+01
2.734383e+01
2.735682e+01
2.734854e+01
2.731016e+01
2.724329e+01
2.716297e+01
2.708872e+01
2.703766e+01
2.701748e+01
2.702075e+01
2.704028e+01
2.707013e+01
2.710543e+01
2.714231e+01
2.717784e+01
2.720966e+01
2.723574e+01
2.725516e+01
2.726814e+01
2.727596e+01
2.728034e+01
2.728282e+01
2.728445e+01
2.728595e+01
2.728747e+01
2.728856e+01
2.728852e+01
2.728648e+01
2.728152e+01
2.727269e+01
2.725933e+01
2.724144e+01
2.721994e+01
2.719617e+01
2.717179e+01
2.714872e+01
2.712879e+01
2.711355e+01
2.710400e+01
2.710059e+01
2.710303e+01
2.710944e+01
2.711957e+01
2.713283e+01
2.714821e+01
2.716421e+01
2.717912e+01
2.719164e+01
2.720115e+01
2.720753e+01
2.721120e+01
2.721294e+01
2.721361e+01
2.721382e+01
2.721393e+01
2.721408e+01
2.721434e+01
2.721469e+01
2.721508e+01
2.721548e+01
2.721586e+01
2.721618e+01
2.721641e+01
2.721650e+01
2.721640e+01
2.721603e+01
2.721510e+01
2.721511e+01
2.767551e+01
2.767559e+01
2.765083e+01
2.762194e+01
2.758445e+01
2.753269e+01
2.745990e+01
2.736207e+01
2.722491e+01
2.710602e+01
2.701631e+01
2.694881e+01
2.689655e+01
2.685641e+01
2.682773e+01
2.681077e+01
2.680407e+01
2.680587e+01
2.681463e+01
2.682902e+01
2.684799e+01
2.687091e+01
2.689739e+01
2.692721e+01
2.696019e+01
2.699603e+01
2.703431e+01
2.707443e+01
2.711570e+01
2.715723e+01
2.719779e+01
2.723611e+01
2.727141e+01
2.730391e+01
2.733136e+01
2.734601e+01
2.733972e+01
2.730386e+01
2.723660e+01
2.715672e+01
2.708343e+01
2.703201e+01
2.700988e+01
2.701233e+01
2.702984e+01
2.705762e+01
2.709129e+01
2.712711e+01
2.716203e+01
2.719379e+01
2.722079e+01
2.724193e+01
2.725700e+01
2.726684e+01
2.727284e+01
2.727642e+01
2.727866e+01
2.728025e+01
2.728136e+01
2.728175e+01
2.728098e+01
2.727845e+01
2.727328e+01
2.726461e+01
2.725179e+01
2.723463e+01
2.721413e+01
2.719162e+01
2.716868e+01
2.714704e+01
2.712843e+01
2.711426e+01
2.710552e+01
2.710282e+01
2.710610e+01
2.711298e+01
2.712317e+01
2.713595e+01
2.715013e+01
2.716423e+01
2.717680e+01
2.718717e+01
2.719525e+01
2.720098e+01
2.720482e+01
2.720735e+01
2.720901e+01
2.721021e+01
2.721119e+01
2.721206e+01
2.721288e+01
2.721366e+01
2.721438e+01
2.721504e+01
2.721563e+01
2.721613e+01
2.721651e+01
2.721674e+01
2.721676e+01
2.721645e+01
2.721500e+01
2.721501e+01
2.767241e+01
2.767249e+01
2.765258e+01
2.762830e+01
2.759456e+01
2.754379e+01
2.746531e+01
2.734965e+01
2.717154e+01
2.704900e+01
2.697256e+01
2.691746e+01
2.687363e+01
2.683821e+01
2.681194e+01
2.679700e+01
2.679226e+01
2.679553e+01
2.680540e+01
2.682045e+01
2.683959e+01
2.686217e+01
2.688793e+01
2.691678e+01
2.694869e+01
2.698350e+01
2.702085e+01
2.706016e+01
2.710061e+01
2.714138e+01
2.718145e+01
2.721950e+01
2.725467e+01
2.728757e+01
2.731879e+01
2.733532e+01
2.732901e+01
2.729610e+01
2.723288e+01
2.715370e+01
2.708103e+01
2.702916e+01
2.700488e+01
2.700672e+01
2.702198e+01
2.704679e+01
2.707763e+01
2.711121e+01
2.714460e+01
2.717543e+01
2.720254e+01
2.722476e+01
2.724173e+01
2.725380e+01
2.726182e+01
2.726690e+01
2.726999e+01
2.727180e+01
2.727281e+01
2.727268e+01
2.727137e+01
2.726843e+01
2.726324e+01
2.725506e+01
2.724324e+01
2.722752e+01
2.720863e+01
2.718799e+01
2.716701e+01
2.714729e+01
2.713038e+01
2.711761e+01
2.710997e+01
2.710819e+01
2.711216e+01
2.711927e+01
2.712908e+01
2.714077e+01
2.715318e+01
2.716502e+01
2.717525e+01
2.718388e+01
2.719079e+01
2.719603e+01
2.719992e+01
2.720286e+01
2.720514e+01
2.720702e+01
2.720863e+01
2.721006e+01
2.721134e+01
2.721249e+01
2.721352e+01
2.721443e+01
2.721523e+01
2.721592e+01
2.721649e+01
2.721693e+01
2.721717e+01
2.721707e+01
2.721576e+01
2.721577e+01
2.766927e+01
2.766933e+01
2.765608e+01
2.763863e+01
2.761148e+01
2.756424e+01
2.747841e+01
2.732729e+01
2.707880e+01
2.696804e+01
2.691786e+01
2.688104e+01
2.684757e+01
2.681690e+01
2.679214e+01
2.677849e+01
2.677636e+01
2.678165e+01
2.679319e+01
2.680931e+01
2.682878e+01
2.685098e+01
2.687577e+01
2.690327e+01
2.693366e+01
2.696700e+01
2.700310e+01
2.704142e+01
2.708108e+01
2.712121e+01
2.716153e+01
2.720124e+01
2.723908e+01
2.727367e+01
2.730285e+01
2.731984e+01
2.730789e+01
2.727422e+01
2.722252e+01
2.715428e+01
2.708869e+01
2.703822e+01
2.701157e+01
2.700922e+01
2.702240e+01
2.704355e+01
2.707048e+01
2.710058e+01
2.713123e+01
2.716000e+01
2.718595e+01
2.720828e+01
2.722614e+01
2.723948e+01
2.724888e+01
2.725517e+01
2.725911e+01
2.726128e+01
2.726217e+01
2.726167e+01
2.725980e+01
2.725657e+01
2.725164e+01
2.724442e+01
2.723423e+01
2.722067e+01
2.720412e+01
2.718599e+01
2.716754e+01
2.715018e+01
2.713534e+01
2.712426e+01
2.711793e+01
2.711701e+01
2.712120e+01
2.712799e+01
2.713683e+01
2.714689e+01
2.715718e+01
2.716672e+01
2.717494e+01
2.718210e+01
2.718804e+01
2.719284e+01
2.719670e+01
2.719987e+01
2.720252e+01
2.720479e+01
2.720678e+01
2.720854e+01
2.721009e+01
2.721147e+01
2.721269e+01
2.721377e+01
2.721472e+01
2.721557e+01
2.721634e+01
2.721701e+01
2.721757e+01
2.721791e+01
2.721747e+01
2.721748e+01
2.766656e+01
2.766661e+01
2.766167e+01
2.765369e+01
2.763776e+01
2.760140e+01
2.751356e+01
2.729961e+01
2.691677e+01
2.685925e+01
2.686065e+01
2.684772e+01
2.682527e+01
2.679801e+01
2.677181e+01
2.675592e+01
2.675653e+01
2.676444e+01
2.677860e+01
2.679654e+01
2.681675e+01
2.683862e+01
2.686221e+01
2.688793e+01
2.691627e+01
2.694758e+01
2.698195e+01
2.701905e+01
2.705799e+01
2.709752e+01
2.713824e+01
2.718092e+01
2.722475e+01
2.726223e+01
2.728824e+01
2.729281e+01
2.727039e+01
2.723755e+01
2.719958e+01
2.715303e+01
2.710315e+01
2.705977e+01
2.703233e+01
2.702482e+01
2.703402e+01
2.705056e+01
2.707266e+01
2.709823e+01
2.712497e+01
2.715061e+01
2.717389e+01
2.719489e+01
2.721241e+01
2.722610e+01
2.723618e+01
2.724313e+01
2.724743e+01
2.724952e+01
2.724984e+01
2.724874e+01
2.724623e+01
2.724282e+01
2.723849e+01
2.723275e+01
2.722489e+01
2.721429e+01
2.720091e+01
2.718598e+01
2.717057e+01
2.715595e+01
2.714344e+01
2.713419e+01
2.712909e+01
2.712862e+01
2.713237e+01
2.713816e+01
2.714546e+01
2.715354e+01
2.716162e+01
2.716904e+01
2.717562e+01
2.718152e+01
2.718664e+01
2.719104e+01
2.719479e+01
2.719803e+01
2.720084e+01
2.720331e+01
2.720548e+01
2.720739e+01
2.720907e+01
2.721055e+01
2.721186e+01
2.721303e+01
2.721408e+01
2.721506e+01
2.721599e+01
2.721692e+01
2.721787e+01
2.721883e+01
2.721981e+01
2.721982e+01
2.766448e+01
2.766453e+01
2.766893e+01
2.767274e+01
2.767412e+01
2.766407e+01
2.760771e+01
2.736361e+01
2.661997e+01
2.671471e+01
2.681786e+01
2.682789e+01
2.681559e+01
2.679186e+01
2.676042e+01
2.673761e+01
2.673329e+01
2.674473e+01
2.676383e+01
2.678501e+01
2.680667e+01
2.682838e+01
2.685053e+01
2.687393e+01
2.689943e+01
2.692778e+01
2.695943e+01
2.699445e+01
2.703226e+01
2.707161e+01
2.711070e+01
2.714689e+01
2.718446e+01
2.722660e+01
2.724820e+01
2.723996e+01
2.721876e+01
2.719584e+01
2.717396e+01
2.714949e+01
2.711933e+01
2.708796e+01
2.706358e+01
2.705240e+01
2.705571e+01
2.706726e+01
2.708394e+01
2.710422e+01
2.712614e+01
2.714766e+01
2.716712e+01
2.718537e+01
2.720121e+01
2.721410e+01
2.722392e+01
2.723076e+01
2.723481e+01
2.723640e+01
2.723599e+01
2.723405e+01
2.723094e+01
2.722753e+01
2.722410e+01
2.722034e+01
2.721543e+01
2.720851e+01
2.719908e+01
2.718795e+01
2.717596e+01
2.716429e+01
2.715412e+01
2.714653e+01
2.714228e+01
2.714166e+01
2.714435e+01
2.714865e+01
2.715406e+01
2.716005e+01
2.716608e+01
2.717173e+01
2.717691e+01
2.718177e+01
2.718622e+01
2.719022e+01
2.719381e+01
2.719699e+01
2.719982e+01
2.720231e+01
2.720451e+01
2.720644e+01
2.720813e+01
2.720962e+01
2.721094e+01
2.721213e+01
2.721324e+01
2.721430e+01
2.721538e+01
2.721656e+01
2.721792e+01
2.721958e+01
2.722223e+01
2.722224e+01
2.766285e+01
2.766289e+01
2.767623e+01
2.769219e+01
2.771406e+01
2.774494e+01
2.778326e+01
2.789220e+01
2.725609e+01
2.678856e+01
2.686235e+01
2.682779e+01
2.681161e+01
2.680004e+01
2.676562e+01
2.673636e+01
2.672543e+01
2.673481e+01
2.675634e+01
2.678224e+01
2.680616e+01
2.682799e+01
2.684846e+01
2.686879e+01
2.689016e+01
2.691362e+01
2.693982e+01
2.696882e+01
2.699969e+01
2.703075e+01
2.706004e+01
2.709003e+01
2.713274e+01
2.716497e+01
2.717543e+01
2.717332e+01
2.716698e+01
2.715991e+01
2.715416e+01
2.714821e+01
2.713701e+01
2.711910e+01
2.710047e+01
2.708810e+01
2.708602e+01
2.709195e+01
2.710279e+01
2.711724e+01
2.713361e+01
2.715011e+01
2.716513e+01
2.717940e+01
2.719233e+01
2.720322e+01
2.721167e+01
2.721746e+01
2.722060e+01
2.722139e+01
2.722033e+01
2.721784e+01
2.721455e+01
2.721150e+01
2.720927e+01
2.720776e+01
2.720621e+01
2.720349e+01
2.719859e+01
2.719166e+01
2.718331e+01
2.717455e+01
2.716650e+01
2.716015e+01
2.715618e+01
2.715488e+01
2.715612e+01
2.715867e+01
2.716214e+01
2.716617e+01
2.717041e+01
2.717460e+01
2.717861e+01
2.718258e+01
2.718641e+01
2.719002e+01
2.719336e+01
2.719638e+01
2.719910e+01
2.720150e+01
2.720363e+01
2.720549e+01
2.720711e+01
2.720854e+01
2.720982e+01
2.721099e+01
2.721211e+01
2.721323e+01
2.721442e+01
2.721580e+01
2.721751e+01
2.721981e+01
2.722410e+01
2.722411e+01
2.766116e+01
2.766118e+01
2.768124e+01
2.770612e+01
2.774243e+01
2.780055e+01
2.789731e+01
2.803062e+01
2.805166e+01
0.000000e+00
2.681401e+01
2.681401e+01
2.679250e+01
2.678327e+01
2.676169e+01
2.674102e+01
2.673311e+01
2.674192e+01
2.676280e+01
2.679115e+01
2.681764e+01
2.684123e+01
2.686099e+01
2.687876e+01
2.689578e+01
2.691321e+01
2.693181e+01
2.695174e+01
2.697221e+01
2.699236e+01
2.701057e+01
2.703544e+01
2.705946e+01
2.707952e+01
2.709553e+01
2.711153e+01
2.712467e+01
2.713496e+01
2.714398e+01
2.715231e+01
2.715613e+01
2.715130e+01
2.713944e+01
2.712765e+01
2.712153e+01
2.712217e+01
2.712718e+01
2.713555e+01
2.714590e+01
2.715673e+01
2.716671e+01
2.717612e+01
2.718499e+01
2.719260e+01
2.719842e+01
2.720215e+01
2.720383e+01
2.720382e+01
2.720259e+01
2.720032e+01
2.719782e+01
2.719612e+01
2.719572e+01
2.719663e+01
2.719829e+01
2.719961e+01
2.719934e+01
2.719673e+01
2.719197e+01
2.718592e+01
2.717962e+01
2.717405e+01
2.716993e+01
2.716763e+01
2.716727e+01
2.716803e+01
2.716966e+01
2.717193e+01
2.717460e+01
2.717750e+01
2.718049e+01
2.718362e+01
2.718683e+01
2.718999e+01
2.719301e+01
2.719580e+01
2.719834e+01
2.720059e+01
2.720259e+01
2.720434e+01
2.720586e+01
2.720719e+01
2.720838e+01
2.720950e+01
2.721060e+01
2.721174e+01
2.721299e+01
2.721449e+01
2.721645e+01
2.721918e+01
2.722465e+01
2.722466e+01
2.765889e+01
2.765891e+01
2.768224e+01
2.771064e+01
2.775031e+01
2.780876e+01
2.789231e+01
2.799111e+01
2.807269e+01
2.807271e+01
0.000000e+00
2.678746e+01
2.678746e+01
2.676762e+01
2.675137e+01
2.674161e+01
2.674569e+01
2.676390e+01
2.678991e+01
2.681829e+01
2.684608e+01
2.687143e+01
2.689269e+01
2.691031e+01
2.692477e+01
2.693726e+01
2.694845e+01
2.695917e+01
2.696775e+01
2.697325e+01
2.697580e+01
2.697797e+01
2.698135e+01
2.699490e+01
2.702667e+01
2.706311e+01
2.709605e+01
2.712265e+01
2.714391e+01
2.716220e+01
2.717626e+01
2.718192e+01
2.717788e+01
2.716812e+01
2.715957e+01
2.715560e+01
2.715514e+01
2.715752e+01
2.716165e+01
2.716639e+01
2.717073e+01
2.717451e+01
2.717817e+01
2.718110e+01
2.718293e+01
2.718361e+01
2.718341e+01
2.718272e+01
2.718183e+01
2.718119e+01
2.718133e+01
2.718244e+01
2.718471e+01
2.718823e+01
2.719276e+01
2.719747e+01
2.720113e+01
2.720246e+01
2.720112e+01
2.719753e+01
2.719267e+01
2.718759e+01
2.718314e+01
2.717982e+01
2.717783e+01
2.717687e+01
2.717678e+01
2.717740e+01
2.717858e+01
2.718018e+01
2.718212e+01
2.718440e+01
2.718696e+01
2.718966e+01
2.719234e+01
2.719491e+01
2.719726e+01
2.719935e+01
2.720121e+01
2.720286e+01
2.720431e+01
2.720557e+01
2.720667e+01
2.720775e+01
2.720884e+01
2.721000e+01
2.721133e+01
2.721294e+01
2.721501e+01
2.721785e+01
2.722334e+01
2.722335e+01
2.765586e+01
2.765587e+01
2.767903e+01
2.770618e+01
2.774163e+01
2.779016e+01
2.785314e+01
2.791218e+01
2.793689e+01
2.769537e+01
2.769539e+01
0.000000e+00
2.676584e+01
2.674422e+01
2.672713e+01
2.672444e+01
2.674448e+01
2.678347e+01
2.682778e+01
2.686532e+01
2.689591e+01
2.692326e+01
2.694667e+01
2.696479e+01
2.697845e+01
2.698756e+01
2.699091e+01
2.698748e+01
2.697943e+01
2.696872e+01
2.694954e+01
2.692653e+01
2.690981e+01
2.693083e+01
2.697875e+01
2.703360e+01
2.708330e+01
2.712279e+01
2.715244e+01
2.717646e+01
2.719647e+01
2.720975e+01
2.721288e+01
2.720720e+01
2.719784e+01
2.719030e+01
2.718512e+01
2.718191e+01
2.717993e+01
2.717832e+01
2.717636e+01
2.717378e+01
2.717102e+01
2.716779e+01
2.716423e+01
2.716084e+01
2.715823e+01
2.715690e+01
2.715768e+01
2.716088e+01
2.716563e+01
2.717118e+01
2.717715e+01
2.718351e+01
2.719037e+01
2.719743e+01
2.720372e+01
2.720794e+01
2.720933e+01
2.720793e+01
2.720451e+01
2.720005e+01
2.719537e+01
2.719110e+01
2.718770e+01
2.718514e+01
2.718338e+01
2.718235e+01
2.718198e+01
2.718220e+01
2.718298e+01
2.718436e+01
2.718625e+01
2.718848e+01
2.719093e+01
2.719345e+01
2.719581e+01
2.719780e+01
2.719962e+01
2.720121e+01
2.720256e+01
2.720376e+01
2.720488e+01
2.720599e+01
2.720715e+01
2.720840e+01
2.720979e+01
2.721141e+01
2.721340e+01
2.721591e+01
2.722016e+01
2.722017e+01
2.765220e+01
2.765220e+01
2.767247e+01
2.769512e+01
2.772273e+01
2.775550e+01
2.778652e+01
2.779383e+01
2.773044e+01
2.760977e+01
2.719549e+01
2.687236e+01
2.668257e+01
2.671977e+01
2.671090e+01
2.671756e+01
2.674897e+01
2.680163e+01
2.686068e+01
2.690571e+01
2.693985e+01
2.697139e+01
2.700049e+01
2.702102e+01
2.703227e+01
2.703475e+01
2.702785e+01
2.701280e+01
2.699317e+01
2.696707e+01
2.692752e+01
2.688182e+01
2.686209e+01
2.689461e+01
2.695642e+01
2.702483e+01
2.708592e+01
2.713236e+01
2.716707e+01
2.719400e+01
2.721626e+01
2.723373e+01
2.724293e+01
2.724221e+01
2.723460e+01
2.722501e+01
2.721616e+01
2.720812e+01
2.720038e+01
2.719229e+01
2.718343e+01
2.717377e+01
2.716357e+01
2.715332e+01
2.714380e+01
2.713601e+01
2.713081e+01
2.712877e+01
2.713243e+01
2.714087e+01
2.715168e+01
2.716292e+01
2.717347e+01
2.718283e+01
2.719146e+01
2.719961e+01
2.720695e+01
2.721256e+01
2.721548e+01
2.721544e+01
2.721311e+01
2.720930e+01
2.720467e+01
2.719997e+01
2.719562e+01
2.719178e+01
2.718855e+01
2.718600e+01
2.718414e+01
2.718299e+01
2.718259e+01
2.718305e+01
2.718438e+01
2.718634e+01
2.718867e+01
2.719120e+01
2.719361e+01
2.719577e+01
2.719769e+01
2.719938e+01
2.720088e+01
2.720222e+01
2.720348e+01
2.720470e+01
2.720593e+01
2.720722e+01
2.720858e+01
2.721006e+01
2.721169e+01
2.721351e+01
2.721587e+01
2.721588e+01
2.764826e+01
2.764825e+01
2.766399e+01
2.768045e+01
2.769765e+01
2.771284e+01
2.771672e+01
2.768897e+01
2.759240e+01
2.741493e+01
2.713591e+01
2.654921e+01
2.664535e+01
2.671537e+01
2.672856e+01
2.674135e+01
2.677599e+01
2.682923e+01
2.688913e+01
2.692988e+01
2.696521e+01
2.700305e+01
2.703922e+01
2.706585e+01
2.707274e+01
2.706896e+01
2.705386e+01
2.703053e+01
2.700263e+01
2.696389e+01
2.690802e+01
2.685095e+01
2.684393e+01
2.688816e+01
2.695950e+01
2.703530e+01
2.709960e+01
2.714852e+01
2.718521e+01
2.721308e+01
2.723524e+01
2.725348e+01
2.726638e+01
2.727087e+01
2.726672e+01
2.725789e+01
2.724710e+01
2.723510e+01
2.722188e+01
2.720732e+01
2.719166e+01
2.717521e+01
2.715781e+01
2.714053e+01
2.712477e+01
2.711195e+01
2.710316e+01
2.710061e+01
2.710846e+01
2.712316e+01
2.714076e+01
2.715820e+01
2.717312e+01
2.718537e+01
2.719549e+01
2.720394e+01
2.721094e+01
2.721618e+01
2.721894e+01
2.721892e+01
2.721708e+01
2.721400e+01
2.721008e+01
2.720556e+01
2.720078e+01
2.719606e+01
2.719170e+01
2.718791e+01
2.718481e+01
2.718230e+01
2.718061e+01
2.718003e+01
2.718077e+01
2.718266e+01
2.718531e+01
2.718832e+01
2.719126e+01
2.719392e+01
2.719622e+01
2.719819e+01
2.719988e+01
2.720140e+01
2.720276e+01
2.720404e+01
2.720528e+01
2.720649e+01
2.720768e+01
2.720884e+01
2.720994e+01
2.721090e+01
2.721127e+01
2.721128e+01
2.764451e+01
2.764449e+01
2.765480e+01
2.766429e+01
2.767159e+01
2.767282e+01
2.765952e+01
2.761689e+01
2.752246e+01
2.735659e+01
2.713166e+01
2.682290e+01
2.677558e+01
2.678045e+01
2.678256e+01
2.678985e+01
2.681573e+01
2.685797e+01
2.690384e+01
2.694365e+01
2.698220e+01
2.701945e+01
2.704990e+01
2.707080e+01
2.707666e+01
2.707105e+01
2.705605e+01
2.703283e+01
2.700396e+01
2.695912e+01
2.689479e+01
2.684808e+01
2.685636e+01
2.690939e+01
2.698379e+01
2.705934e+01
2.712093e+01
2.716845e+01
2.720441e+01
2.723170e+01
2.725285e+01
2.726974e+01
2.728282e+01
2.729021e+01
2.728981e+01
2.728393e+01
2.727335e+01
2.725911e+01
2.724186e+01
2.722215e+01
2.720087e+01
2.717849e+01
2.715453e+01
2.713059e+01
2.710863e+01
2.709053e+01
2.707769e+01
2.707620e+01
2.708875e+01
2.710987e+01
2.713407e+01
2.715678e+01
2.717523e+01
2.718981e+01
2.720117e+01
2.720978e+01
2.721577e+01
2.721900e+01
2.721946e+01
2.721842e+01
2.721673e+01
2.721455e+01
2.721159e+01
2.720772e+01
2.720308e+01
2.719801e+01
2.719296e+01
2.718835e+01
2.718401e+01
2.718007e+01
2.717666e+01
2.717536e+01
2.717624e+01
2.717881e+01
2.718233e+01
2.718615e+01
2.718979e+01
2.719300e+01
2.719570e+01
2.719791e+01
2.719974e+01
2.720131e+01
2.720268e+01
2.720392e+01
2.720505e+01
2.720608e+01
2.720700e+01
2.720776e+01
2.720828e+01
2.720837e+01
2.720701e+01
2.720702e+01
2.764103e+01
2.764101e+01
2.764589e+01
2.764898e+01
2.764823e+01
2.763984e+01
2.761730e+01
2.757101e+01
2.748855e+01
2.735727e+01
2.717923e+01
2.697613e+01
2.688962e+01
2.685744e+01
2.684404e+01
2.684348e+01
2.685905e+01
2.688870e+01
2.692448e+01
2.695866e+01
2.699144e+01
2.702068e+01
2.704408e+01
2.705849e+01
2.706255e+01
2.705750e+01
2.704433e+01
2.702496e+01
2.700058e+01
2.695790e+01
2.690222e+01
2.687627e+01
2.689589e+01
2.695076e+01
2.702120e+01
2.708934e+01
2.714544e+01
2.718932e+01
2.722289e+01
2.724853e+01
2.726838e+01
2.728391e+01
2.729559e+01
2.730247e+01
2.730476e+01
2.730156e+01
2.729280e+01
2.727863e+01
2.725961e+01
2.723665e+01
2.721118e+01
2.718395e+01
2.715431e+01
2.712440e+01
2.709668e+01
2.707365e+01
2.705730e+01
2.705839e+01
2.707576e+01
2.710257e+01
2.713220e+01
2.715840e+01
2.717912e+01
2.719494e+01
2.720665e+01
2.721488e+01
2.722000e+01
2.722228e+01
2.722209e+01
2.722065e+01
2.721838e+01
2.721534e+01
2.721152e+01
2.720706e+01
2.720235e+01
2.719731e+01
2.719211e+01
2.718693e+01
2.718175e+01
2.717653e+01
2.717250e+01
2.717142e+01
2.717299e+01
2.717641e+01
2.718078e+01
2.718536e+01
2.718967e+01
2.719324e+01
2.719614e+01
2.719845e+01
2.720031e+01
2.720184e+01
2.720312e+01
2.720421e+01
2.720515e+01
2.720593e+01
2.720653e+01
2.720688e+01
2.720684e+01
2.720620e+01
2.720353e+01
2.720354e+01
2.763806e+01
2.763804e+01
2.763809e+01
2.763584e+01
2.762906e+01
2.761441e+01
2.758714e+01
2.754110e+01
2.746931e+01
2.736465e+01
2.722574e+01
2.707137e+01
2.697616e+01
2.692549e+01
2.689956e+01
2.689076e+01
2.689733e+01
2.691649e+01
2.694264e+01
2.696979e+01
2.699607e+01
2.701922e+01
2.703693e+01
2.704726e+01
2.704946e+01
2.704409e+01
2.703229e+01
2.701624e+01
2.699362e+01
2.695860e+01
2.692269e+01
2.691453e+01
2.694177e+01
2.699497e+01
2.705846e+01
2.711843e+01
2.716866e+01
2.720850e+01
2.723929e+01
2.726298e+01
2.728133e+01
2.729546e+01
2.730566e+01
2.731193e+01
2.731437e+01
2.731259e+01
2.730573e+01
2.729305e+01
2.727439e+01
2.725033e+01
2.722232e+01
2.719153e+01
2.715733e+01
2.712237e+01
2.708973e+01
2.706267e+01
2.704517e+01
2.704939e+01
2.707092e+01
2.710190e+01
2.713493e+01
2.716279e+01
2.718445e+01
2.720052e+01
2.721193e+01
2.721952e+01
2.722395e+01
2.722574e+01
2.722536e+01
2.722366e+01
2.722086e+01
2.721707e+01
2.721239e+01
2.720712e+01
2.720169e+01
2.719606e+01
2.719027e+01
2.718441e+01
2.717856e+01
2.717284e+01
2.716930e+01
2.716899e+01
2.717142e+01
2.717568e+01
2.718080e+01
2.718601e+01
2.719061e+01
2.719438e+01
2.719737e+01
2.719968e+01
2.720147e+01
2.720286e+01
2.720396e+01
2.720484e+01
2.720552e+01
2.720601e+01
2.720627e+01
2.720621e+01
2.720572e+01
2.720456e+01
2.720115e+01
2.720116e+01
2.763573e+01
2.763570e+01
2.763181e+01
2.762542e+01
2.761431e+01
2.759565e+01
2.756590e+01
2.752091e+01
2.745645e+01
2.736867e+01
2.725693e+01
2.713414e+01
2.704094e+01
2.698032e+01
2.694479e+01
2.692864e+01
2.692798e+01
2.693916e+01
2.695757e+01
2.697859e+01
2.699951e+01
2.701797e+01
2.703186e+01
2.703964e+01
2.704061e+01
2.703499e+01
2.702372e+01
2.700824e+01
2.698691e+01
2.696015e+01
2.694118e+01
2.694658e+01
2.697921e+01
2.703064e+01
2.708834e+01
2.714232e+01
2.718797e+01
2.722447e+01
2.725287e+01
2.727477e+01
2.729168e+01
2.730458e+01
2.731387e+01
2.731962e+01
2.732204e+01
2.732090e+01
2.731532e+01
2.730423e+01
2.728686e+01
2.726312e+01
2.723395e+01
2.720068e+01
2.716303e+01
2.712404e+01
2.708753e+01
2.705791e+01
2.704213e+01
2.704924e+01
2.707376e+01
2.710712e+01
2.714121e+01
2.716936e+01
2.719093e+01
2.720655e+01
2.721724e+01
2.722404e+01
2.722780e+01
2.722919e+01
2.722872e+01
2.722683e+01
2.722371e+01
2.721947e+01
2.721424e+01
2.720826e+01
2.720189e+01
2.719528e+01
2.718846e+01
2.718164e+01
2.717516e+01
2.716961e+01
2.716699e+01
2.716769e+01
2.717109e+01
2.717617e+01
2.718191e+01
2.718748e+01
2.719227e+01
2.719615e+01
2.719915e+01
2.720141e+01
2.720306e+01
2.720426e+01
2.720513e+01
2.720573e+01
2.720611e+01
2.720627e+01
2.720619e+01
2.720578e+01
2.720494e+01
2.720348e+01
2.719995e+01
2.719996e+01
2.763406e+01
2.763402e+01
2.762718e+01
2.761778e+01
2.760373e+01
2.758257e+01
2.755149e+01
2.750747e+01
2.744768e+01
2.737007e+01
2.727519e+01
2.717230e+01
2.708500e+01
2.702114e+01
2.697977e+01
2.695762e+01
2.695109e+01
2.695630e+01
2.696905e+01
2.698538e+01
2.700230e+01
2.701738e+01
2.702866e+01
2.703471e+01
2.703480e+01
2.702892e+01
2.701765e+01
2.700183e+01
2.698180e+01
2.696214e+01
2.695472e+01
2.696941e+01
2.700602e+01
2.705617e+01
2.710990e+01
2.715984e+01
2.720225e+01
2.723633e+01
2.726292e+01
2.728347e+01
2.729937e+01
2.731155e+01
2.732047e+01
2.732623e+01
2.732905e+01
2.732866e+01
2.732417e+01
2.731447e+01
2.729847e+01
2.727554e+01
2.724590e+01
2.721067e+01
2.717014e+01
2.712771e+01
2.708820e+01
2.705776e+01
2.704490e+01
2.705471e+01
2.708124e+01
2.711557e+01
2.714929e+01
2.717700e+01
2.719799e+01
2.721287e+01
2.722270e+01
2.722862e+01
2.723165e+01
2.723257e+01
2.723191e+01
2.722983e+01
2.722650e+01
2.722201e+01
2.721646e+01
2.720998e+01
2.720276e+01
2.719503e+01
2.718696e+01
2.717902e+01
2.717197e+01
2.716694e+01
2.716528e+01
2.716704e+01
2.717141e+01
2.717723e+01
2.718347e+01
2.718930e+01
2.719424e+01
2.719816e+01
2.720111e+01
2.720323e+01
2.720470e+01
2.720568e+01
2.720629e+01
2.720661e+01
2.720670e+01
2.720657e+01
2.720619e+01
2.720550e+01
2.720441e+01
2.720283e+01
2.719974e+01
2.719975e+01
2.763300e+01
2.763296e+01
2.762416e+01
2.761284e+01
2.759697e+01
2.757436e+01
2.754262e+01
2.749933e+01
2.744239e+01
2.737063e+01
2.728535e+01
2.719392e+01
2.711161e+01
2.704720e+01
2.700279e+01
2.697691e+01
2.696651e+01
2.696781e+01
2.697685e+01
2.699001e+01
2.700427e+01
2.701716e+01
2.702677e+01
2.703171e+01
2.703123e+01
2.702511e+01
2.701359e+01
2.699736e+01
2.697864e+01
2.696441e+01
2.696448e+01
2.698465e+01
2.702302e+01
2.707214e+01
2.712352e+01
2.717104e+01
2.721148e+01
2.724404e+01
2.726945e+01
2.728905e+01
2.730418e+01
2.731588e+01
2.732490e+01
2.733119e+01
2.733485e+01
2.733542e+01
2.733208e+01
2.732365e+01
2.730893e+01
2.728694e+01
2.725725e+01
2.722038e+01
2.717721e+01
2.713146e+01
2.708925e+01
2.705885e+01
2.704877e+01
2.706088e+01
2.708882e+01
2.712349e+01
2.715673e+01
2.718402e+01
2.720436e+01
2.721835e+01
2.722725e+01
2.723235e+01
2.723472e+01
2.723518e+01
2.723431e+01
2.723207e+01
2.722864e+01
2.722408e+01
2.721843e+01
2.721167e+01
2.720382e+01
2.719505e+01
2.718578e+01
2.717677e+01
2.716928e+01
2.716476e+01
2.716394e+01
2.716663e+01
2.717186e+01
2.717835e+01
2.718494e+01
2.719091e+01
2.719590e+01
2.719982e+01
2.720272e+01
2.720474e+01
2.720607e+01
2.720687e+01
2.720728e+01
2.720738e+01
2.720724e+01
2.720688e+01
2.720627e+01
2.720536e+01
2.720411e+01
2.720248e+01
2.720010e+01
2.720012e+01
2.763250e+01
2.763246e+01
2.762269e+01
2.761044e+01
2.759374e+01
2.757051e+01
2.753859e+01
2.749580e+01
2.744032e+01
2.737136e+01
2.729049e+01
2.720423e+01
2.712451e+01
2.706010e+01
2.701434e+01
2.698664e+01
2.697430e+01
2.697364e+01
2.698082e+01
2.699235e+01
2.700521e+01
2.701698e+01
2.702575e+01
2.703018e+01
2.702945e+01
2.702324e+01
2.701154e+01
2.699517e+01
2.697761e+01
2.696631e+01
2.696966e+01
2.699182e+01
2.703050e+01
2.707881e+01
2.712898e+01
2.717543e+01
2.721511e+01
2.724719e+01
2.727225e+01
2.729155e+01
2.730641e+01
2.731793e+01
2.732687e+01
2.733349e+01
2.733779e+01
2.733924e+01
2.733694e+01
2.732967e+01
2.731610e+01
2.729508e+01
2.726575e+01
2.722783e+01
2.718243e+01
2.713360e+01
2.708882e+01
2.705813e+01
2.704943e+01
2.706305e+01
2.709224e+01
2.712724e+01
2.716024e+01
2.718728e+01
2.720734e+01
2.722100e+01
2.722956e+01
2.723433e+01
2.723643e+01
2.723668e+01
2.723555e+01
2.723319e+01
2.722972e+01
2.722518e+01
2.721954e+01
2.721271e+01
2.720457e+01
2.719524e+01
2.718529e+01
2.717577e+01
2.716819e+01
2.716394e+01
2.716358e+01
2.716672e+01
2.717230e+01
2.717898e+01
2.718564e+01
2.719164e+01
2.719666e+01
2.720060e+01
2.720350e+01
2.720551e+01
2.720680e+01
2.720753e+01
2.720784e+01
2.720783e+01
2.720757e+01
2.720708e+01
2.720634e+01
2.720533e+01
2.720398e+01
2.720228e+01
2.719997e+01
2.719998e+01
0.000000e+00
2.763250e+01
2.762273e+01
2.761048e+01
2.759378e+01
2.757056e+01
2.753864e+01
2.749584e+01
2.744035e+01
2.737139e+01
2.729051e+01
2.720424e+01
2.712451e+01
2.706009e+01
2.701433e+01
2.698663e+01
2.697428e+01
2.697363e+01
2.698081e+01
2.699233e+01
2.700520e+01
2.701698e+01
2.702575e+01
2.703018e+01
2.702946e+01
2.702326e+01
2.701156e+01
2.699521e+01
2.697765e+01
2.696636e+01
2.696971e+01
2.699188e+01
2.703056e+01
2.707886e+01
2.712902e+01
2.717546e+01
2.721513e+01
2.724720e+01
2.727226e+01
2.729155e+01
2.730640e+01
2.731792e+01
2.732685e+01
2.733347e+01
2.733776e+01
2.733922e+01
2.733693e+01
2.732965e+01
2.731609e+01
2.729507e+01
2.726575e+01
2.722783e+01
2.718244e+01
2.713361e+01
2.708884e+01
2.705814e+01
2.704945e+01
2.706307e+01
2.709226e+01
2.712726e+01
2.716025e+01