# vtk DataFile Version 3.0
Scalar Field
ASCII
DATASET RECTILINEAR_GRID
DIMENSIONS 102 22 1
X_COORDINATES 102 double
0.000000 0.100000 0.200000 0.300000 0.400000 0.500000 0.600000 0.700000 0.800000 0.900000 1.000000 1.100000 1.200000 1.300000 1.400000 1.500000 1.600000 1.700000 1.800000 1.900000 2.000000 2.100000 2.200000 2.300000 2.400000 2.500000 2.600000 2.700000 2.800000 2.900000 3.000000 3.100000 3.200000 3.300000 3.400000 3.500000 3.600000 3.700000 3.800000 3.900000 4.000000 4.100000 4.200000 4.300000 4.400000 4.500000 4.600000 4.700000 4.800000 4.900000 5.000000 5.100000 5.200000 5.300000 5.400000 5.500000 5.600000 5.700000 5.800000 5.900000 6.000000 6.100000 6.200000 6.300000 6.400000 6.500000 6.600000 6.700000 6.800000 6.900000 7.000000 7.100000 7.200000 7.300000 7.400000 7.500000 7.600000 7.700000 7.800000 7.900000 8.000000 8.100000 8.200000 8.300000 8.400000 8.500000 8.600000 8.700000 8.800000 8.900000 9.000000 9.100000 9.200000 9.300000 9.400000 9.500000 9.600000 9.700000 9.800000 9.900000 10.000000 10.100000 
Y_COORDINATES 22 double
0.000000 0.100000 0.200000 0.300000 0.400000 0.500000 0.600000 0.700000 0.800000 0.900000 1.000000 1.100000 1.200000 1.300000 1.400000 1.500000 1.600000 1.700000 1.800000 1.900000 2.000000 2.100000 
Z_COORDINATES 1 double
0.0
POINT_DATA 2244
SCALARS Pressure double 1
LOOKUP_TABLE default
0.000000e+00
7.052852e+01
7.050244e+01
7.047208e+01
7.043432e+01
7.038565e+01
7.032280e+01
7.024466e+01
7.015120e+01
7.006046e+01
6.998607e+01
6.993167e+01
6.989483e+01
6.987110e+01
6.985588e+01
6.984503e+01
6.983498e+01
6.982331e+01
6.980982e+01
6.979677e+01
6.978769e+01
6.978524e+01
6.979003e+01
6.980109e+01
6.981702e+01
6.983659e+01
6.985904e+01
6.988407e+01
6.991177e+01
6.994230e+01
6.997571e+01
7.001172e+01
7.004969e+01
7.008864e+01
7.012741e+01
7.016477e+01
7.019940e+01
7.023011e+01
7.025621e+01
7.027778e+01
7.029558e+01
7.031057e+01
7.032422e+01
7.033494e+01
7.033934e+01
7.033232e+01
7.030881e+01
7.026638e+01
7.020871e+01
7.014542e+01
7.008997e+01
7.005469e+01
7.004546e+01
7.005691e+01
7.008494e+01
7.012422e+01
7.016827e+01
7.021031e+01
7.024455e+01
7.026799e+01
7.028127e+01
7.028725e+01
7.028899e+01
7.028851e+01
7.028703e+01
7.028538e+01
7.028287e+01
7.027886e+01
7.027292e+01
7.026484e+01
7.025465e+01
7.024261e+01
7.022922e+01
7.021514e+01
7.020119e+01
7.018825e+01
7.017717e+01
7.016867e+01
7.016326e+01
7.016117e+01
7.016233e+01
7.016637e+01
7.017314e+01
7.018235e+01
7.019359e+01
7.020617e+01
7.021914e+01
7.023131e+01
7.024144e+01
7.024865e+01
7.025285e+01
7.025460e+01
7.025473e+01
7.025400e+01
7.025289e+01
7.025197e+01
7.025132e+01
7.025109e+01
7.025161e+01
7.025358e+01
7.026109e+01
0.000000e+00
7.052852e+01
7.052894e+01
7.050286e+01
7.047250e+01
7.043474e+01
7.038607e+01
7.032322e+01
7.024508e+01
7.015163e+01
7.006088e+01
6.998649e+01
6.993209e+01
6.989525e+01
6.987152e+01
6.985630e+01
6.984545e+01
6.983540e+01
6.982373e+01
6.981024e+01
6.979719e+01
6.978811e+01
6.978566e+01
6.979045e+01
6.980151e+01
6.981744e+01
6.983701e+01
6.985946e+01
6.988449e+01
6.991219e+01
6.994273e+01
6.997614e+01
7.001215e+01
7.005011e+01
7.008906e+01
7.012783e+01
7.016519e+01
7.019982e+01
7.023053e+01
7.025663e+01
7.027820e+01
7.029600e+01
7.031099e+01
7.032464e+01
7.033536e+01
7.033976e+01
7.033274e+01
7.030923e+01
7.026680e+01
7.020913e+01
7.014584e+01
7.009039e+01
7.005511e+01
7.004588e+01
7.005733e+01
7.008536e+01
7.012464e+01
7.016870e+01
7.021073e+01
7.024498e+01
7.026841e+01
7.028169e+01
7.028767e+01
7.028941e+01
7.028893e+01
7.028745e+01
7.028580e+01
7.028329e+01
7.027928e+01
7.027335e+01
7.026526e+01
7.025507e+01
7.024303e+01
7.022964e+01
7.021556e+01
7.020161e+01
7.018867e+01
7.017759e+01
7.016909e+01
7.016368e+01
7.016159e+01
7.016275e+01
7.016679e+01
7.017356e+01
7.018278e+01
7.019401e+01
7.020659e+01
7.021957e+01
7.023173e+01
7.024186e+01
7.024907e+01
7.025327e+01
7.025502e+01
7.025515e+01
7.025442e+01
7.025332e+01
7.025239e+01
7.025174e+01
7.025151e+01
7.025203e+01
7.025400e+01
7.026151e+01
7.026109e+01
7.052816e+01
7.052858e+01
7.050391e+01
7.047473e+01
7.043768e+01
7.038879e+01
7.032406e+01
7.024201e+01
7.013940e+01
7.004416e+01
6.997038e+01
6.991879e+01
6.988504e+01
6.986399e+01
6.985107e+01
6.984230e+01
6.983407e+01
6.982363e+01
6.981043e+01
6.979688e+01
6.978702e+01
6.978420e+01
6.978916e+01
6.980054e+01
6.981675e+01
6.983641e+01
6.985871e+01
6.988339e+01
6.991056e+01
6.994052e+01
6.997336e+01
7.000887e+01
7.004645e+01
7.008513e+01
7.012371e+01
7.016098e+01
7.019568e+01
7.022652e+01
7.025274e+01
7.027428e+01
7.029184e+01
7.030627e+01
7.031817e+01
7.032611e+01
7.032724e+01
7.031800e+01
7.029391e+01
7.025216e+01
7.019699e+01
7.013750e+01
7.008585e+01
7.005311e+01
7.004550e+01
7.005779e+01
7.008514e+01
7.012233e+01
7.016305e+01
7.020155e+01
7.023398e+01
7.025787e+01
7.027291e+01
7.028098e+01
7.028456e+01
7.028553e+01
7.028491e+01
7.028349e+01
7.028087e+01
7.027665e+01
7.027053e+01
7.026236e+01
7.025222e+01
7.024037e+01
7.022730e+01
7.021365e+01
7.020018e+01
7.018772e+01
7.017707e+01
7.016893e+01
7.016378e+01
7.016192e+01
7.016344e+01
7.016777e+01
7.017483e+01
7.018435e+01
7.019578e+01
7.020826e+01
7.022062e+01
7.023163e+01
7.024044e+01
7.024658e+01
7.025015e+01
7.025171e+01
7.025197e+01
7.025154e+01
7.025090e+01
7.025029e+01
7.024982e+01
7.024963e+01
7.025002e+01
7.025156e+01
7.025697e+01
7.025654e+01
7.052792e+01
7.052834e+01
7.050660e+01
7.048008e+01
7.044494e+01
7.039612e+01
7.032778e+01
7.023690e+01
7.011250e+01
7.000895e+01
6.993811e+01
6.989307e+01
6.986567e+01
6.984978e+01
6.984112e+01
6.983632e+01
6.983184e+01
6.982396e+01
6.981122e+01
6.979653e+01
6.978504e+01
6.978134e+01
6.978672e+01
6.979879e+01
6.981557e+01
6.983541e+01
6.985739e+01
6.988129e+01
6.990736e+01
6.993601e+01
6.996750e+01
7.000180e+01
7.003839e+01
7.007632e+01
7.011441e+01
7.015142e+01
7.018613e+01
7.021728e+01
7.024396e+01
7.026588e+01
7.028354e+01
7.029775e+01
7.030839e+01
7.031377e+01
7.031203e+01
7.030031e+01
7.027547e+01
7.023512e+01
7.018303e+01
7.012812e+01
7.008103e+01
7.005161e+01
7.004560e+01
7.005825e+01
7.008360e+01
7.011710e+01
7.015342e+01
7.018779e+01
7.021764e+01
7.024134e+01
7.025836e+01
7.026937e+01
7.027573e+01
7.027889e+01
7.027993e+01
7.027926e+01
7.027683e+01
7.027256e+01
7.026638e+01
7.025827e+01
7.024829e+01
7.023671e+01
7.022405e+01
7.021093e+01
7.019807e+01
7.018623e+01
7.017618e+01
7.016858e+01
7.016392e+01
7.016259e+01
7.016467e+01
7.016947e+01
7.017692e+01
7.018661e+01
7.019786e+01
7.020962e+01
7.022065e+01
7.022986e+01
7.023698e+01
7.024185e+01
7.024471e+01
7.024613e+01
7.024668e+01
7.024679e+01
7.024675e+01
7.024669e+01
7.024654e+01
7.024640e+01
7.024650e+01
7.024725e+01
7.025023e+01
7.024980e+01
7.052813e+01
7.052855e+01
7.051136e+01
7.048923e+01
7.045768e+01
7.040975e+01
7.033570e+01
7.022722e+01
7.006118e+01
6.994986e+01
6.988947e+01
6.985651e+01
6.983855e+01
6.982988e+01
6.982705e+01
6.982782e+01
6.982900e+01
6.982551e+01
6.981337e+01
6.979635e+01
6.978186e+01
6.977639e+01
6.978255e+01
6.979595e+01
6.981392e+01
6.983418e+01
6.985574e+01
6.987848e+01
6.990284e+01
6.992951e+01
6.995903e+01
6.999154e+01
7.002666e+01
7.006352e+01
7.010090e+01
7.013747e+01
7.017204e+01
7.020354e+01
7.023094e+01
7.025371e+01
7.027207e+01
7.028667e+01
7.029754e+01
7.030077e+01
7.029552e+01
7.028101e+01
7.025580e+01
7.021839e+01
7.017135e+01
7.012270e+01
7.008127e+01
7.005559e+01
7.005079e+01
7.006303e+01
7.008566e+01
7.011501e+01
7.014675e+01
7.017699e+01
7.020386e+01
7.022661e+01
7.024413e+01
7.025656e+01
7.026478e+01
7.026984e+01
7.027263e+01
7.027320e+01
7.027139e+01
7.026738e+01
7.026131e+01
7.025333e+01
7.024361e+01
7.023243e+01
7.022038e+01
7.020802e+01
7.019601e+01
7.018504e+01
7.017582e+01
7.016896e+01
7.016503e+01
7.016456e+01
7.016735e+01
7.017273e+01
7.018047e+01
7.019004e+01
7.020058e+01
7.021095e+01
7.022003e+01
7.022726e+01
7.023277e+01
7.023654e+01
7.023889e+01
7.024028e+01
7.024110e+01
7.024160e+01
7.024192e+01
7.024215e+01
7.024219e+01
7.024204e+01
7.024183e+01
7.024181e+01
7.024277e+01
7.024234e+01
7.052915e+01
7.052957e+01
7.051865e+01
7.050306e+01
7.047787e+01
7.043337e+01
7.035212e+01
7.020891e+01
6.996952e+01
6.986419e+01
6.982622e+01
6.981121e+01
6.980565e+01
6.980568e+01
6.980956e+01
6.981649e+01
6.982493e+01
6.982894e+01
6.981876e+01
6.979760e+01
6.977785e+01
6.976930e+01
6.977575e+01
6.979181e+01
6.981226e+01
6.983350e+01
6.985470e+01
6.987595e+01
6.989799e+01
6.992198e+01
6.994878e+01
6.997883e+01
7.001196e+01
7.004738e+01
7.008385e+01
7.011988e+01
7.015420e+01
7.018615e+01
7.021474e+01
7.023930e+01
7.025967e+01
7.027557e+01
7.028622e+01
7.028644e+01
7.027723e+01
7.026051e+01
7.023626e+01
7.020331e+01
7.016311e+01
7.012223e+01
7.008759e+01
7.006614e+01
7.006228e+01
7.007335e+01
7.009284e+01
7.011786e+01
7.014499e+01
7.017106e+01
7.019457e+01
7.021549e+01
7.023255e+01
7.024550e+01
7.025478e+01
7.026108e+01
7.026504e+01
7.026657e+01
7.026517e+01
7.026129e+01
7.025531e+01
7.024756e+01
7.023830e+01
7.022780e+01
7.021664e+01
7.020536e+01
7.019451e+01
7.018469e+01
7.017655e+01
7.017071e+01
7.016778e+01
7.016845e+01
7.017198e+01
7.017780e+01
7.018552e+01
7.019444e+01
7.020363e+01
7.021206e+01
7.021892e+01
7.022438e+01
7.022847e+01
7.023132e+01
7.023325e+01
7.023456e+01
7.023549e+01
7.023615e+01
7.023662e+01
7.023691e+01
7.023703e+01
7.023684e+01
7.023638e+01
7.023574e+01
7.023517e+01
7.023475e+01
7.053127e+01
7.053169e+01
7.052863e+01
7.052211e+01
7.050781e+01
7.047396e+01
7.039087e+01
7.018595e+01
6.980895e+01
6.974399e+01
6.975211e+01
6.976215e+01
6.977042e+01
6.977900e+01
6.978947e+01
6.980060e+01
6.981481e+01
6.983003e+01
6.982868e+01
6.980332e+01
6.977561e+01
6.976207e+01
6.976748e+01
6.978651e+01
6.981241e+01
6.983556e+01
6.985666e+01
6.987631e+01
6.989542e+01
6.991600e+01
6.993932e+01
6.996616e+01
6.999661e+01
7.003003e+01
7.006519e+01
7.010043e+01
7.013411e+01
7.016641e+01
7.019662e+01
7.022405e+01
7.024744e+01
7.026446e+01
7.027281e+01
7.026791e+01
7.025487e+01
7.023768e+01
7.021669e+01
7.019035e+01
7.015892e+01
7.012703e+01
7.009987e+01
7.008289e+01
7.007975e+01
7.008893e+01
7.010490e+01
7.012542e+01
7.014782e+01
7.016957e+01
7.018937e+01
7.020768e+01
7.022331e+01
7.023583e+01
7.024535e+01
7.025222e+01
7.025681e+01
7.025883e+01
7.025762e+01
7.025383e+01
7.024808e+01
7.024083e+01
7.023239e+01
7.022301e+01
7.021320e+01
7.020342e+01
7.019409e+01
7.018577e+01
7.017902e+01
7.017449e+01
7.017290e+01
7.017473e+01
7.017877e+01
7.018462e+01
7.019174e+01
7.019936e+01
7.020665e+01
7.021283e+01
7.021771e+01
7.022157e+01
7.022443e+01
7.022651e+01
7.022803e+01
7.022915e+01
7.022999e+01
7.023060e+01
7.023101e+01
7.023123e+01
7.023127e+01
7.023104e+01
7.023044e+01
7.022941e+01
7.022781e+01
7.022738e+01
7.053450e+01
7.053492e+01
7.054066e+01
7.054547e+01
7.054797e+01
7.053982e+01
7.048781e+01
7.025322e+01
6.951732e+01
6.958282e+01
6.968271e+01
6.972020e+01
6.973934e+01
6.975355e+01
6.976757e+01
6.978193e+01
6.979607e+01
6.981527e+01
6.982877e+01
6.981182e+01
6.977691e+01
6.975898e+01
6.976329e+01
6.978584e+01
6.981630e+01
6.984384e+01
6.986568e+01
6.988450e+01
6.990008e+01
6.991671e+01
6.993578e+01
6.995841e+01
6.998507e+01
7.001539e+01
7.004821e+01
7.008185e+01
7.011421e+01
7.014606e+01
7.017743e+01
7.020658e+01
7.023085e+01
7.024624e+01
7.024946e+01
7.024018e+01
7.022681e+01
7.021268e+01
7.019776e+01
7.018016e+01
7.015899e+01
7.013678e+01
7.011728e+01
7.010470e+01
7.010207e+01
7.010880e+01
7.012093e+01
7.013675e+01
7.015423e+01
7.017139e+01
7.018714e+01
7.020219e+01
7.021555e+01
7.022677e+01
7.023574e+01
7.024248e+01
7.024711e+01
7.024917e+01
7.024803e+01
7.024452e+01
7.023940e+01
7.023316e+01
7.022611e+01
7.021840e+01
7.021048e+01
7.020265e+01
7.019527e+01
7.018879e+01
7.018376e+01
7.018083e+01
7.018073e+01
7.018328e+01
7.018740e+01
7.019268e+01
7.019854e+01
7.020431e+01
7.020941e+01
7.021341e+01
7.021659e+01
7.021903e+01
7.022087e+01
7.022225e+01
7.022330e+01
7.022410e+01
7.022467e+01
7.022505e+01
7.022525e+01
7.022529e+01
7.022518e+01
7.022487e+01
7.022423e+01
7.022309e+01
7.022088e+01
7.022046e+01
7.053847e+01
7.053889e+01
7.055303e+01
7.056945e+01
7.059177e+01
7.062347e+01
7.066436e+01
7.077993e+01
7.014820e+01
6.963700e+01
6.969201e+01
6.970337e+01
6.971588e+01
6.972749e+01
6.974070e+01
6.975486e+01
6.976915e+01
6.978785e+01
6.979843e+01
6.979099e+01
6.976923e+01
6.975485e+01
6.976148e+01
6.978769e+01
6.982297e+01
6.985549e+01
6.988228e+01
6.990139e+01
6.991503e+01
6.992859e+01
6.994331e+01
6.996078e+01
6.998216e+01
7.000752e+01
7.003597e+01
7.006594e+01
7.009546e+01
7.012224e+01
7.014978e+01
7.017781e+01
7.020043e+01
7.021180e+01
7.021056e+01
7.020313e+01
7.019487e+01
7.018766e+01
7.018123e+01
7.017375e+01
7.016337e+01
7.015075e+01
7.013848e+01
7.012992e+01
7.012760e+01
7.013165e+01
7.013975e+01
7.015071e+01
7.016308e+01
7.017536e+01
7.018673e+01
7.019794e+01
7.020830e+01
7.021740e+01
7.022495e+01
7.023080e+01
7.023487e+01
7.023664e+01
7.023578e+01
7.023310e+01
7.022930e+01
7.022481e+01
7.021984e+01
7.021447e+01
7.020899e+01
7.020357e+01
7.019849e+01
7.019416e+01
7.019109e+01
7.018985e+01
7.019096e+01
7.019362e+01
7.019720e+01
7.020125e+01
7.020532e+01
7.020897e+01
7.021188e+01
7.021403e+01
7.021567e+01
7.021689e+01
7.021781e+01
7.021851e+01
7.021902e+01
7.021937e+01
7.021955e+01
7.021957e+01
7.021946e+01
7.021926e+01
7.021897e+01
7.021858e+01
7.021797e+01
7.021694e+01
7.021459e+01
7.021417e+01
7.054254e+01
7.054296e+01
7.056330e+01
7.058818e+01
7.062437e+01
7.068232e+01
7.077936e+01
7.091056e+01
7.093075e+01
0.000000e+00
6.971104e+01
6.971146e+01
6.971944e+01
6.972381e+01
6.972734e+01
6.973208e+01
6.973567e+01
6.974022e+01
6.973899e+01
6.972790e+01
6.971545e+01
6.971719e+01
6.974096e+01
6.978250e+01
6.982752e+01
6.986703e+01
6.990258e+01
6.992534e+01
6.994022e+01
6.995158e+01
6.996320e+01
6.997522e+01
6.999006e+01
7.000843e+01
7.002972e+01
7.005233e+01
7.007413e+01
7.009226e+01
7.011452e+01
7.013661e+01
7.015088e+01
7.015660e+01
7.015844e+01
7.016076e+01
7.016357e+01
7.016671e+01
7.016998e+01
7.017241e+01
7.017208e+01
7.016821e+01
7.016220e+01
7.015697e+01
7.015470e+01
7.015608e+01
7.016018e+01
7.016625e+01
7.017337e+01
7.018055e+01
7.018721e+01
7.019406e+01
7.020068e+01
7.020673e+01
7.021191e+01
7.021601e+01
7.021901e+01
7.022049e+01
7.022053e+01
7.021962e+01
7.021813e+01
7.021630e+01
7.021419e+01
7.021180e+01
7.020922e+01
7.020655e+01
7.020402e+01
7.020199e+01
7.020089e+01
7.020110e+01
7.020267e+01
7.020486e+01
7.020730e+01
7.020967e+01
7.021172e+01
7.021324e+01
7.021420e+01
7.021473e+01
7.021501e+01
7.021514e+01
7.021517e+01
7.021515e+01
7.021505e+01
7.021486e+01
7.021457e+01
7.021419e+01
7.021375e+01
7.021329e+01
7.021283e+01
7.021238e+01
7.021187e+01
7.021114e+01
7.020917e+01
7.020874e+01
7.054609e+01
7.054651e+01
7.056970e+01
7.059778e+01
7.063705e+01
7.069491e+01
7.077890e+01
7.087899e+01
7.095179e+01
7.095137e+01
0.000000e+00
6.972429e+01
6.972471e+01
6.972415e+01
6.971848e+01
6.971130e+01
6.970084e+01
6.968627e+01
6.966575e+01
6.964059e+01
6.962645e+01
6.963969e+01
6.968249e+01
6.974729e+01
6.982025e+01
6.988570e+01
6.993423e+01
6.996521e+01
6.998139e+01
6.999059e+01
6.999834e+01
7.000481e+01
7.001214e+01
7.002181e+01
7.003341e+01
7.004532e+01
7.005536e+01
7.006411e+01
7.007315e+01
7.007959e+01
7.008454e+01
7.009166e+01
7.010551e+01
7.012211e+01
7.013838e+01
7.015292e+01
7.016560e+01
7.017633e+01
7.018405e+01
7.018761e+01
7.018721e+01
7.018455e+01
7.018201e+01
7.018091e+01
7.018120e+01
7.018252e+01
7.018439e+01
7.018631e+01
7.018796e+01
7.018988e+01
7.019190e+01
7.019388e+01
7.019564e+01
7.019717e+01
7.019859e+01
7.020027e+01
7.020226e+01
7.020440e+01
7.020650e+01
7.020838e+01
7.020990e+01
7.021097e+01
7.021159e+01
7.021181e+01
7.021184e+01
7.021198e+01
7.021250e+01
7.021348e+01
7.021484e+01
7.021610e+01
7.021705e+01
7.021756e+01
7.021757e+01
7.021718e+01
7.021647e+01
7.021557e+01
7.021460e+01
7.021366e+01
7.021278e+01
7.021196e+01
7.021117e+01
7.021039e+01
7.020961e+01
7.020884e+01
7.020810e+01
7.020742e+01
7.020685e+01
7.020642e+01
7.020611e+01
7.020582e+01
7.020479e+01
7.020437e+01
7.054884e+01
7.054926e+01
7.057194e+01
7.059855e+01
7.063397e+01
7.068299e+01
7.074581e+01
7.080103e+01
7.082815e+01
7.058100e+01
7.058058e+01
0.000000e+00
6.971732e+01
6.971077e+01
6.970570e+01
6.969212e+01
6.967188e+01
6.964460e+01
6.961041e+01
6.957431e+01
6.956268e+01
6.959015e+01
6.965247e+01
6.973738e+01
6.982955e+01
6.991534e+01
6.998315e+01
7.002711e+01
7.004755e+01
7.005392e+01
7.005605e+01
7.005496e+01
7.005376e+01
7.005351e+01
7.005372e+01
7.005222e+01
7.004773e+01
7.004015e+01
7.003088e+01
7.002223e+01
7.001814e+01
7.003304e+01
7.006102e+01
7.009282e+01
7.012250e+01
7.014763e+01
7.016799e+01
7.018478e+01
7.019814e+01
7.020709e+01
7.021102e+01
7.021082e+01
7.020828e+01
7.020523e+01
7.020212e+01
7.019901e+01
7.019577e+01
7.019231e+01
7.018863e+01
7.018496e+01
7.018142e+01
7.017825e+01
7.017575e+01
7.017427e+01
7.017410e+01
7.017704e+01
7.018237e+01
7.018898e+01
7.019581e+01
7.020217e+01
7.020766e+01
7.021223e+01
7.021598e+01
7.021899e+01
7.022139e+01
7.022332e+01
7.022483e+01
7.022576e+01
7.022627e+01
7.022623e+01
7.022561e+01
7.022442e+01
7.022279e+01
7.022086e+01
7.021878e+01
7.021662e+01
7.021449e+01
7.021245e+01
7.021056e+01
7.020882e+01
7.020723e+01
7.020578e+01
7.020449e+01
7.020334e+01
7.020237e+01
7.020159e+01
7.020103e+01
7.020075e+01
7.020076e+01
7.020109e+01
7.020152e+01
7.020110e+01
7.055083e+01
7.055125e+01
7.057090e+01
7.059312e+01
7.062029e+01
7.065240e+01
7.068232e+01
7.068798e+01
7.062763e+01
7.050886e+01
7.009683e+01
6.979526e+01
6.967131e+01
6.971636e+01
6.970390e+01
6.968279e+01
6.965608e+01
6.962214e+01
6.958090e+01
6.954587e+01
6.954679e+01
6.958897e+01
6.966523e+01
6.976172e+01
6.986290e+01
6.995593e+01
7.003518e+01
7.008905e+01
7.011842e+01
7.013235e+01
7.013555e+01
7.012656e+01
7.011578e+01
7.010277e+01
7.008661e+01
7.006811e+01
7.004834e+01
7.002291e+01
6.999504e+01
6.996986e+01
6.996382e+01
6.998933e+01
7.003130e+01
7.007666e+01
7.011760e+01
7.015035e+01
7.017601e+01
7.019666e+01
7.021334e+01
7.022565e+01
7.023264e+01
7.023431e+01
7.023179e+01
7.022723e+01
7.022134e+01
7.021441e+01
7.020658e+01
7.019810e+01
7.018933e+01
7.018013e+01
7.017099e+01
7.016256e+01
7.015556e+01
7.015059e+01
7.014896e+01
7.015367e+01
7.016309e+01
7.017495e+01
7.018718e+01
7.019840e+01
7.020779e+01
7.021555e+01
7.022196e+01
7.022717e+01
7.023127e+01
7.023425e+01
7.023602e+01
7.023650e+01
7.023616e+01
7.023501e+01
7.023312e+01
7.023062e+01
7.022768e+01
7.022449e+01
7.022122e+01
7.021792e+01
7.021465e+01
7.021150e+01
7.020852e+01
7.020576e+01
7.020326e+01
7.020105e+01
7.019915e+01
7.019759e+01
7.019638e+01
7.019554e+01
7.019510e+01
7.019512e+01
7.019570e+01
7.019682e+01
7.019903e+01
7.019861e+01
7.055248e+01
7.055290e+01
7.056764e+01
7.058322e+01
7.059977e+01
7.061430e+01
7.061745e+01
7.058921e+01
7.049346e+01
7.032157e+01
7.005072e+01
6.949453e+01
6.962710e+01
6.968232e+01
6.968845e+01
6.967755e+01
6.965208e+01
6.961542e+01
6.957530e+01
6.955450e+01
6.957022e+01
6.962329e+01
6.970472e+01
6.980149e+01
6.989786e+01
6.998253e+01
7.005792e+01
7.012081e+01
7.016034e+01
7.018285e+01
7.019677e+01
7.018542e+01
7.016564e+01
7.014132e+01
7.011328e+01
7.008338e+01
7.005094e+01
7.001033e+01
6.996681e+01
6.992873e+01
6.992974e+01
6.996619e+01
7.001969e+01
7.007508e+01
7.012275e+01
7.015975e+01
7.018831e+01
7.021076e+01
7.022872e+01
7.024251e+01
7.025135e+01
7.025453e+01
7.025240e+01
7.024698e+01
7.023894e+01
7.022880e+01
7.021696e+01
7.020398e+01
7.019055e+01
7.017615e+01
7.016162e+01
7.014800e+01
7.013641e+01
7.012776e+01
7.012522e+01
7.013223e+01
7.014621e+01
7.016369e+01
7.018155e+01
7.019742e+01
7.021030e+01
7.022067e+01
7.022904e+01
7.023572e+01
7.024078e+01
7.024419e+01
7.024582e+01
7.024584e+01
7.024480e+01
7.024280e+01
7.023997e+01
7.023647e+01
7.023250e+01
7.022825e+01
7.022390e+01
7.021954e+01
7.021517e+01
7.021087e+01
7.020674e+01
7.020286e+01
7.019933e+01
7.019622e+01
7.019359e+01
7.019150e+01
7.018997e+01
7.018902e+01
7.018869e+01
7.018924e+01
7.019061e+01
7.019265e+01
7.019648e+01
7.019606e+01
7.055363e+01
7.055405e+01
7.056312e+01
7.057162e+01
7.057825e+01
7.057903e+01
7.056549e+01
7.052294e+01
7.042894e+01
7.026503e+01
7.004623e+01
6.975253e+01
6.972107e+01
6.972034e+01
6.971205e+01
6.969536e+01
6.966971e+01
6.963520e+01
6.960580e+01
6.959880e+01
6.962329e+01
6.967839e+01
6.975610e+01
6.984440e+01
6.992696e+01
7.000008e+01
7.006126e+01
7.010766e+01
7.014609e+01
7.018674e+01
7.020972e+01
7.020436e+01
7.018757e+01
7.016271e+01
7.013022e+01
7.009397e+01
7.005241e+01
7.000088e+01
6.994553e+01
6.990838e+01
6.991943e+01
6.996535e+01
7.002621e+01
7.008654e+01
7.013594e+01
7.017411e+01
7.020327e+01
7.022579e+01
7.024351e+01
7.025728e+01
7.026673e+01
7.027083e+01
7.026964e+01
7.026415e+01
7.025489e+01
7.024244e+01
7.022739e+01
7.021056e+01
7.019300e+01
7.017387e+01
7.015432e+01
7.013580e+01
7.011985e+01
7.010782e+01
7.010515e+01
7.011487e+01
7.013349e+01
7.015639e+01
7.017951e+01
7.019932e+01
7.021500e+01
7.022722e+01
7.023677e+01
7.024413e+01
7.024952e+01
7.025293e+01
7.025428e+01
7.025396e+01
7.025244e+01
7.024987e+01
7.024639e+01
7.024218e+01
7.023743e+01
7.023231e+01
7.022699e+01
7.022163e+01
7.021618e+01
7.021074e+01
7.020541e+01
7.020034e+01
7.019566e+01
7.019151e+01
7.018801e+01
7.018525e+01
7.018327e+01
7.018208e+01
7.018182e+01
7.018295e+01
7.018514e+01
7.018795e+01
7.019266e+01
7.019223e+01
7.055455e+01
7.055497e+01
7.055847e+01
7.056052e+01
7.055917e+01
7.055054e+01
7.052809e+01
7.048215e+01
7.040002e+01
7.026876e+01
7.009272e+01
6.989531e+01
6.981321e+01
6.977521e+01
6.974833e+01
6.972315e+01
6.969644e+01
6.966787e+01
6.964986e+01
6.965245e+01
6.968083e+01
6.973315e+01
6.980284e+01
6.987780e+01
6.994892e+01
7.001275e+01
7.006780e+01
7.011384e+01
7.015220e+01
7.018250e+01
7.019557e+01
7.019461e+01
7.018365e+01
7.016218e+01
7.013185e+01
7.009682e+01
7.005292e+01
6.999762e+01
6.993924e+01
6.991325e+01
6.993376e+01
6.998509e+01
7.004786e+01
7.010693e+01
7.015456e+01
7.019134e+01
7.021928e+01
7.024062e+01
7.025717e+01
7.026997e+01
7.027901e+01
7.028336e+01
7.028314e+01
7.027828e+01
7.026892e+01
7.025536e+01
7.023821e+01
7.021841e+01
7.019734e+01
7.017403e+01
7.014998e+01
7.012703e+01
7.010727e+01
7.009261e+01
7.009068e+01
7.010334e+01
7.012625e+01
7.015384e+01
7.018126e+01
7.020399e+01
7.022157e+01
7.023482e+01
7.024477e+01
7.025214e+01
7.025733e+01
7.026045e+01
7.026151e+01
7.026098e+01
7.025919e+01
7.025629e+01
7.025245e+01
7.024781e+01
7.024253e+01
7.023675e+01
7.023063e+01
7.022434e+01
7.021790e+01
7.021135e+01
7.020482e+01
7.019850e+01
7.019258e+01
7.018727e+01
7.018275e+01
7.017918e+01
7.017663e+01
7.017504e+01
7.017489e+01
7.017643e+01
7.017911e+01
7.018223e+01
7.018640e+01
7.018597e+01
7.055541e+01
7.055583e+01
7.055442e+01
7.055112e+01
7.054378e+01
7.052903e+01
7.050201e+01
7.045642e+01
7.038493e+01
7.027977e+01
7.014007e+01
6.998537e+01
6.988829e+01
6.982880e+01
6.978679e+01
6.975331e+01
6.972468e+01
6.970143e+01
6.969111e+01
6.969978e+01
6.972964e+01
6.977802e+01
6.983902e+01
6.990344e+01
6.996541e+01
7.002193e+01
7.007177e+01
7.011439e+01
7.014813e+01
7.017084e+01
7.018075e+01
7.018002e+01
7.017039e+01
7.015183e+01
7.012529e+01
7.009437e+01
7.005240e+01
7.000055e+01
6.995115e+01
6.993887e+01
6.996582e+01
7.001758e+01
7.007722e+01
7.013135e+01
7.017523e+01
7.020915e+01
7.023486e+01
7.025436e+01
7.026931e+01
7.028076e+01
7.028884e+01
7.029310e+01
7.029339e+01
7.028942e+01
7.028080e+01
7.026737e+01
7.024938e+01
7.022768e+01
7.020385e+01
7.017702e+01
7.014903e+01
7.012227e+01
7.009948e+01
7.008341e+01
7.008294e+01
7.009850e+01
7.012503e+01
7.015619e+01
7.018654e+01
7.021106e+01
7.022960e+01
7.024311e+01
7.025280e+01
7.025965e+01
7.026426e+01
7.026690e+01
7.026766e+01
7.026698e+01
7.026505e+01
7.026203e+01
7.025805e+01
7.025322e+01
7.024767e+01
7.024150e+01
7.023481e+01
7.022775e+01
7.022044e+01
7.021287e+01
7.020520e+01
7.019764e+01
7.019043e+01
7.018387e+01
7.017822e+01
7.017372e+01
7.017048e+01
7.016847e+01
7.016835e+01
7.017003e+01
7.017278e+01
7.017558e+01
7.017791e+01
7.017749e+01
7.055624e+01
7.055666e+01
7.055126e+01
7.054380e+01
7.053218e+01
7.051349e+01
7.048404e+01
7.043946e+01
7.037516e+01
7.028660e+01
7.017268e+01
7.004574e+01
6.994590e+01
6.987372e+01
6.982086e+01
6.978060e+01
6.975000e+01
6.972984e+01
6.972424e+01
6.973645e+01
6.976663e+01
6.981158e+01
6.986582e+01
6.992284e+01
6.997812e+01
7.002915e+01
7.007456e+01
7.011315e+01
7.014302e+01
7.016280e+01
7.017202e+01
7.017160e+01
7.016242e+01
7.014483e+01
7.011987e+01
7.008939e+01
7.004972e+01
7.000460e+01
6.997037e+01
6.996952e+01
7.000074e+01
7.005088e+01
7.010555e+01
7.015454e+01
7.019445e+01
7.022534e+01
7.024868e+01
7.026628e+01
7.027968e+01
7.028979e+01
7.029694e+01
7.030097e+01
7.030161e+01
7.029850e+01
7.029098e+01
7.027844e+01
7.026067e+01
7.023812e+01
7.021219e+01
7.018254e+01
7.015124e+01
7.012128e+01
7.009632e+01
7.008022e+01
7.008167e+01
7.009984e+01
7.012914e+01
7.016267e+01
7.019444e+01
7.021980e+01
7.023859e+01
7.025178e+01
7.026074e+01
7.026670e+01
7.027047e+01
7.027248e+01
7.027294e+01
7.027208e+01
7.027006e+01
7.026700e+01
7.026302e+01
7.025818e+01
7.025257e+01
7.024624e+01
7.023925e+01
7.023168e+01
7.022368e+01
7.021527e+01
7.020659e+01
7.019786e+01
7.018939e+01
7.018154e+01
7.017469e+01
7.016917e+01
7.016520e+01
7.016280e+01
7.016263e+01
7.016421e+01
7.016660e+01
7.016849e+01
7.016795e+01
7.016753e+01
7.055701e+01
7.055743e+01
7.054904e+01
7.053857e+01
7.052402e+01
7.050284e+01
7.047206e+01
7.042838e+01
7.036855e+01
7.028983e+01
7.019192e+01
7.008296e+01
6.998620e+01
6.990850e+01
6.984847e+01
6.980313e+01
6.977088e+01
6.975237e+01
6.974956e+01
6.976357e+01
6.979327e+01
6.983523e+01
6.988465e+01
6.993660e+01
6.998727e+01
7.003430e+01
7.007622e+01
7.011171e+01
7.013925e+01
7.015785e+01
7.016717e+01
7.016743e+01
7.015892e+01
7.014185e+01
7.011690e+01
7.008500e+01
7.004609e+01
7.000754e+01
6.998613e+01
6.999428e+01
7.002864e+01
7.007721e+01
7.012781e+01
7.017283e+01
7.020949e+01
7.023785e+01
7.025921e+01
7.027524e+01
7.028743e+01
7.029675e+01
7.030364e+01
7.030764e+01
7.030872e+01
7.030646e+01
7.030011e+01
7.028875e+01
7.027176e+01
7.024908e+01
7.022163e+01
7.018968e+01
7.015551e+01
7.012281e+01
7.009633e+01
7.008129e+01
7.008475e+01
7.010511e+01
7.013635e+01
7.017122e+01
7.020345e+01
7.022904e+01
7.024771e+01
7.026039e+01
7.026848e+01
7.027338e+01
7.027616e+01
7.027746e+01
7.027752e+01
7.027639e+01
7.027424e+01
7.027116e+01
7.026721e+01
7.026244e+01
7.025688e+01
7.025055e+01
7.024347e+01
7.023566e+01
7.022720e+01
7.021818e+01
7.020868e+01
7.019896e+01
7.018935e+01
7.018028e+01
7.017222e+01
7.016567e+01
7.016100e+01
7.015833e+01
7.015805e+01
7.015936e+01
7.016110e+01
7.016170e+01
7.015771e+01
7.015729e+01
7.055761e+01
7.055803e+01
7.054767e+01
7.053526e+01
7.051891e+01
7.049629e+01
7.046483e+01
7.042182e+01
7.036468e+01
7.029153e+01
7.020265e+01
7.010418e+01
7.001091e+01
6.993122e+01
6.986739e+01
6.981903e+01
6.978570e+01
6.976792e+01
6.976642e+01
6.978115e+01
6.981024e+01
6.985019e+01
6.989661e+01
6.994534e+01
6.999304e+01
7.003748e+01
7.007711e+01
7.011060e+01
7.013685e+01
7.015495e+01
7.016452e+01
7.016544e+01
7.015762e+01
7.014095e+01
7.011548e+01
7.008179e+01
7.004290e+01
7.000947e+01
6.999662e+01
7.001113e+01
7.004752e+01
7.009470e+01
7.014246e+01
7.018489e+01
7.021949e+01
7.024623e+01
7.026629e+01
7.028125e+01
7.029255e+01
7.030125e+01
7.030802e+01
7.031241e+01
7.031432e+01
7.031318e+01
7.030800e+01
7.029782e+01
7.028175e+01
7.025932e+01
7.023083e+01
7.019698e+01
7.016026e+01
7.012504e+01
7.009729e+01
7.008358e+01
7.008871e+01
7.011070e+01
7.014321e+01
7.017880e+01
7.021120e+01
7.023692e+01
7.025533e+01
7.026733e+01
7.027451e+01
7.027844e+01
7.028035e+01
7.028107e+01
7.028079e+01
7.027947e+01
7.027726e+01
7.027422e+01
7.027037e+01
7.026572e+01
7.026027e+01
7.025401e+01
7.024694e+01
7.023906e+01
7.023038e+01
7.022096e+01
7.021091e+01
7.020044e+01
7.018991e+01
7.017979e+01
7.017067e+01
7.016319e+01
7.015790e+01
7.015516e+01
7.015481e+01
7.015586e+01
7.015693e+01
7.015626e+01
7.014881e+01
7.014839e+01
7.055796e+01
7.055838e+01
7.054704e+01
7.053371e+01
7.051653e+01
7.049332e+01
7.046168e+01
7.041915e+01
7.036343e+01
7.029295e+01
7.020824e+01
7.011453e+01
7.002317e+01
6.994276e+01
6.987717e+01
6.982733e+01
6.979344e+01
6.977587e+01
6.977482e+01
6.978969e+01
6.981832e+01
6.985720e+01
6.990213e+01
6.994930e+01
6.999557e+01
7.003872e+01
7.007719e+01
7.010972e+01
7.013533e+01
7.015331e+01
7.016316e+01
7.016459e+01
7.015734e+01
7.014106e+01
7.011522e+01
7.008034e+01
7.004167e+01
7.001160e+01
7.000298e+01
7.001971e+01
7.005618e+01
7.010222e+01
7.014851e+01
7.018979e+01
7.022359e+01
7.024980e+01
7.026948e+01
7.028410e+01
7.029508e+01
7.030354e+01
7.031007e+01
7.031470e+01
7.031722e+01
7.031695e+01
7.031284e+01
7.030377e+01
7.028868e+01
7.026679e+01
7.023784e+01
7.020254e+01
7.016356e+01
7.012602e+01
7.009701e+01
7.008370e+01
7.008961e+01
7.011251e+01
7.014593e+01
7.018201e+01
7.021453e+01
7.024038e+01
7.025886e+01
7.027080e+01
7.027774e+01
7.028131e+01
7.028283e+01
7.028313e+01
7.028250e+01
7.028105e+01
7.027884e+01
7.027587e+01
7.027213e+01
7.026760e+01
7.026227e+01
7.025611e+01
7.024911e+01
7.024125e+01
7.023252e+01
7.022292e+01
7.021258e+01
7.020167e+01
7.019052e+01
7.017964e+01
7.016972e+01
7.016159e+01
7.015598e+01
7.015322e+01
7.015292e+01
7.015394e+01
7.015463e+01
7.015314e+01
7.014315e+01
7.014273e+01
0.000000e+00
7.055796e+01
7.054662e+01
7.053329e+01
7.051611e+01
7.049290e+01
7.046126e+01
7.041873e+01
7.036300e+01
7.029253e+01
7.020782e+01
7.011411e+01
7.002275e+01
6.994234e+01
6.987675e+01
6.982691e+01
6.979302e+01
6.977544e+01
6.977440e+01
6.978927e+01
6.981790e+01
6.985678e+01
6.990170e+01
6.994888e+01
6.999514e+01
7.003830e+01
7.007677e+01
7.010929e+01
7.013491e+01
7.015289e+01
7.016274e+01
7.016417e+01
7.015692e+01
7.014064e+01
7.011480e+01
7.007992e+01
7.004125e+01
7.001118e+01
7.000256e+01
7.001929e+01
7.005576e+01
7.010180e+01
7.014809e+01
7.018937e+01
7.022317e+01
7.024938e+01
7.026906e+01
7.028368e+01
7.029466e+01
7.030312e+01
7.030965e+01
7.031428e+01
7.031680e+01
7.031652e+01
7.031242e+01
7.030335e+01
7.028826e+01
7.026637e+01
7.023741e+01
7.020211e+01
7.016314e+01