# vtk DataFile Version 3.0
Scalar Field
ASCII
DATASET RECTILINEAR_GRID
DIMENSIONS 102 22 1
X_COORDINATES 102 double
0.000000 0.100000 0.200000 0.300000 0.400000 0.500000 0.600000 0.700000 0.800000 0.900000 1.000000 1.100000 1.200000 1.300000 1.400000 1.500000 1.600000 1.700000 1.800000 1.900000 2.000000 2.100000 2.200000 2.300000 2.400000 2.500000 2.600000 2.700000 2.800000 2.900000 3.000000 3.100000 3.200000 3.300000 3.400000 3.500000 3.600000 3.700000 3.800000 3.900000 4.000000 4.100000 4.200000 4.300000 4.400000 4.500000 4.600000 4.700000 4.800000 4.900000 5.000000 5.100000 5.200000 5.300000 5.400000 5.500000 5.600000 5.700000 5.800000 5.900000 6.000000 6.100000 6.200000 6.300000 6.400000 6.500000 6.600000 6.700000 6.800000 6.900000 7.000000 7.100000 7.200000 7.300000 7.400000 7.500000 7.600000 7.700000 7.800000 7.900000 8.000000 8.100000 8.200000 8.300000 8.400000 8.500000 8.600000 8.700000 8.800000 8.900000 9.000000 9.100000 9.200000 9.300000 9.400000 9.500000 9.600000 9.700000 9.800000 9.900000 10.000000 10.100000 
Y_COORDINATES 22 double
0.000000 0.100000 0.200000 0.300000 0.400000 0.500000 0.600000 0.700000 0.800000 0.900000 1.000000 1.100000 1.200000 1.300000 1.400000 1.500000 1.600000 1.700000 1.800000 1.900000 2.000000 2.100000 
Z_COORDINATES 1 double
0.0
POINT_DATA 2244
SCALARS Pressure double 1
LOOKUP_TABLE default
0.000000e+00
3.720170e+01
3.717071e+01
3.713506e+01
3.709110e+01
3.703505e+01
3.696342e+01
3.687516e+01
3.677052e+01
3.667024e+01
3.659018e+01
3.653466e+01
3.650102e+01
3.648431e+01
3.648004e+01
3.648476e+01
3.649607e+01
3.651238e+01
3.653254e+01
3.655548e+01
3.657963e+01
3.660266e+01
3.662143e+01
3.663319e+01
3.663743e+01
3.663646e+01
3.663376e+01
3.663208e+01
3.663269e+01
3.663595e+01
3.664207e+01
3.665164e+01
3.666545e+01
3.668417e+01
3.670808e+01
3.673692e+01
3.676984e+01
3.680548e+01
3.684219e+01
3.687820e+01
3.691176e+01
3.694119e+01
3.696541e+01
3.698417e+01
3.699812e+01
3.700845e+01
3.701623e+01
3.702319e+01
3.702869e+01
3.703095e+01
3.702746e+01
3.701557e+01
3.699349e+01
3.696153e+01
3.692241e+01
3.688091e+01
3.684319e+01
3.681529e+01
3.680155e+01
3.680335e+01
3.681759e+01
3.684273e+01
3.687596e+01
3.691296e+01
3.694806e+01
3.697581e+01
3.699300e+01
3.700052e+01
3.700154e+01
3.699893e+01
3.699447e+01
3.698927e+01
3.698293e+01
3.697525e+01
3.696635e+01
3.695661e+01
3.694655e+01
3.693678e+01
3.692787e+01
3.692034e+01
3.691459e+01
3.691086e+01
3.690928e+01
3.690978e+01
3.691217e+01
3.691625e+01
3.692179e+01
3.692857e+01
3.693628e+01
3.694457e+01
3.695304e+01
3.696125e+01
3.696872e+01
3.697508e+01
3.698016e+01
3.698400e+01
3.698684e+01
3.698902e+01
3.699092e+01
3.699292e+01
3.699653e+01
0.000000e+00
3.720170e+01
3.720149e+01
3.717051e+01
3.713486e+01
3.709089e+01
3.703485e+01
3.696322e+01
3.687495e+01
3.677032e+01
3.667004e+01
3.658997e+01
3.653446e+01
3.650081e+01
3.648411e+01
3.647984e+01
3.648455e+01
3.649586e+01
3.651217e+01
3.653234e+01
3.655527e+01
3.657942e+01
3.660245e+01
3.662123e+01
3.663299e+01
3.663723e+01
3.663625e+01
3.663356e+01
3.663187e+01
3.663248e+01
3.663574e+01
3.664187e+01
3.665144e+01
3.666525e+01
3.668396e+01
3.670787e+01
3.673672e+01
3.676964e+01
3.680528e+01
3.684199e+01
3.687800e+01
3.691155e+01
3.694098e+01
3.696520e+01
3.698396e+01
3.699791e+01
3.700825e+01
3.701602e+01
3.702298e+01
3.702848e+01
3.703075e+01
3.702725e+01
3.701536e+01
3.699328e+01
3.696132e+01
3.692220e+01
3.688071e+01
3.684298e+01
3.681508e+01
3.680134e+01
3.680315e+01
3.681739e+01
3.684252e+01
3.687576e+01
3.691275e+01
3.694785e+01
3.697561e+01
3.699279e+01
3.700032e+01
3.700133e+01
3.699872e+01
3.699426e+01
3.698906e+01
3.698272e+01
3.697505e+01
3.696615e+01
3.695640e+01
3.694634e+01
3.693657e+01
3.692766e+01
3.692014e+01
3.691438e+01
3.691065e+01
3.690907e+01
3.690957e+01
3.691197e+01
3.691604e+01
3.692158e+01
3.692836e+01
3.693607e+01
3.694436e+01
3.695284e+01
3.696104e+01
3.696851e+01
3.697488e+01
3.697995e+01
3.698379e+01
3.698663e+01
3.698881e+01
3.699071e+01
3.699272e+01
3.699632e+01
3.699653e+01
3.720125e+01
3.720105e+01
3.717154e+01
3.713712e+01
3.709389e+01
3.703759e+01
3.696402e+01
3.687181e+01
3.675752e+01
3.665264e+01
3.657348e+01
3.652115e+01
3.649081e+01
3.647668e+01
3.647413e+01
3.647989e+01
3.649175e+01
3.650823e+01
3.652828e+01
3.655106e+01
3.657551e+01
3.659970e+01
3.662039e+01
3.663429e+01
3.664012e+01
3.663985e+01
3.663705e+01
3.663473e+01
3.663457e+01
3.663718e+01
3.664257e+01
3.665132e+01
3.666426e+01
3.668214e+01
3.670528e+01
3.673346e+01
3.676585e+01
3.680108e+01
3.683748e+01
3.687327e+01
3.690687e+01
3.693654e+01
3.696113e+01
3.698032e+01
3.699460e+01
3.700507e+01
3.701281e+01
3.701880e+01
3.702268e+01
3.702295e+01
3.701753e+01
3.700440e+01
3.698215e+01
3.695076e+01
3.691312e+01
3.687374e+01
3.683834e+01
3.681251e+01
3.680035e+01
3.680382e+01
3.681899e+01
3.684445e+01
3.687699e+01
3.691170e+01
3.694313e+01
3.696787e+01
3.698418e+01
3.699263e+01
3.699520e+01
3.699423e+01
3.699112e+01
3.698658e+01
3.698054e+01
3.697302e+01
3.696425e+01
3.695466e+01
3.694480e+01
3.693527e+01
3.692662e+01
3.691936e+01
3.691385e+01
3.691034e+01
3.690893e+01
3.690960e+01
3.691220e+01
3.691644e+01
3.692215e+01
3.692909e+01
3.693693e+01
3.694527e+01
3.695364e+01
3.696155e+01
3.696860e+01
3.697449e+01
3.697911e+01
3.698258e+01
3.698518e+01
3.698727e+01
3.698924e+01
3.699141e+01
3.699560e+01
3.699581e+01
3.720100e+01
3.720079e+01
3.717437e+01
3.714272e+01
3.710145e+01
3.704518e+01
3.696779e+01
3.686647e+01
3.672890e+01
3.661531e+01
3.653972e+01
3.649482e+01
3.647147e+01
3.646252e+01
3.646326e+01
3.647099e+01
3.648391e+01
3.650073e+01
3.652053e+01
3.654282e+01
3.656732e+01
3.659347e+01
3.661815e+01
3.663680e+01
3.664588e+01
3.664702e+01
3.664431e+01
3.664110e+01
3.663940e+01
3.664046e+01
3.664437e+01
3.665146e+01
3.666264e+01
3.667880e+01
3.670031e+01
3.672694e+01
3.675793e+01
3.679203e+01
3.682760e+01
3.686288e+01
3.689633e+01
3.692635e+01
3.695176e+01
3.697199e+01
3.698728e+01
3.699843e+01
3.700641e+01
3.701180e+01
3.701400e+01
3.701201e+01
3.700473e+01
3.699054e+01
3.696819e+01
3.693763e+01
3.690200e+01
3.686543e+01
3.683311e+01
3.681012e+01
3.680041e+01
3.680589e+01
3.682183e+01
3.684663e+01
3.687682e+01
3.690769e+01
3.693470e+01
3.695662e+01
3.697198e+01
3.698117e+01
3.698579e+01
3.698706e+01
3.698590e+01
3.698251e+01
3.697716e+01
3.697008e+01
3.696162e+01
3.695225e+01
3.694264e+01
3.693339e+01
3.692506e+01
3.691812e+01
3.691294e+01
3.690974e+01
3.690864e+01
3.690968e+01
3.691262e+01
3.691716e+01
3.692315e+01
3.693029e+01
3.693823e+01
3.694646e+01
3.695446e+01
3.696170e+01
3.696795e+01
3.697304e+01
3.697698e+01
3.697998e+01
3.698237e+01
3.698453e+01
3.698672e+01
3.698915e+01
3.699328e+01
3.699348e+01
3.720132e+01
3.720112e+01
3.717949e+01
3.715243e+01
3.711483e+01
3.705929e+01
3.697562e+01
3.685556e+01
3.667301e+01
3.655108e+01
3.648749e+01
3.645663e+01
3.644432e+01
3.644275e+01
3.644793e+01
3.645833e+01
3.647279e+01
3.649024e+01
3.650995e+01
3.653166e+01
3.655575e+01
3.658318e+01
3.661309e+01
3.663929e+01
3.665428e+01
3.665772e+01
3.665536e+01
3.665141e+01
3.664786e+01
3.664590e+01
3.664724e+01
3.665179e+01
3.666022e+01
3.667381e+01
3.669296e+01
3.671746e+01
3.674663e+01
3.677925e+01
3.681372e+01
3.684830e+01
3.688136e+01
3.691161e+01
3.693790e+01
3.695947e+01
3.697617e+01
3.698848e+01
3.699710e+01
3.700248e+01
3.700331e+01
3.699949e+01
3.699049e+01
3.697545e+01
3.695354e+01
3.692466e+01
3.689195e+01
3.685909e+01
3.683063e+01
3.681115e+01
3.680441e+01
3.681162e+01
3.682780e+01
3.685105e+01
3.687802e+01
3.690466e+01
3.692757e+01
3.694698e+01
3.696141e+01
3.697101e+01
3.697678e+01
3.697971e+01
3.698027e+01
3.697803e+01
3.697338e+01
3.696673e+01
3.695853e+01
3.694938e+01
3.694007e+01
3.693120e+01
3.692329e+01
3.691679e+01
3.691205e+01
3.690929e+01
3.690865e+01
3.691026e+01
3.691364e+01
3.691859e+01
3.692488e+01
3.693215e+01
3.693994e+01
3.694768e+01
3.695479e+01
3.696099e+01
3.696624e+01
3.697047e+01
3.697379e+01
3.697647e+01
3.697883e+01
3.698117e+01
3.698357e+01
3.698622e+01
3.699029e+01
3.699050e+01
3.720267e+01
3.720247e+01
3.718747e+01
3.716726e+01
3.713617e+01
3.708378e+01
3.699168e+01
3.683352e+01
3.657152e+01
3.645691e+01
3.641861e+01
3.640840e+01
3.641083e+01
3.641828e+01
3.642875e+01
3.644239e+01
3.645887e+01
3.647744e+01
3.649747e+01
3.651896e+01
3.654252e+01
3.656959e+01
3.660134e+01
3.663722e+01
3.666257e+01
3.667164e+01
3.667037e+01
3.666603e+01
3.666124e+01
3.665590e+01
3.665187e+01
3.665320e+01
3.665765e+01
3.666803e+01
3.668435e+01
3.670628e+01
3.673319e+01
3.676397e+01
3.679709e+01
3.683081e+01
3.686336e+01
3.689366e+01
3.692081e+01
3.694380e+01
3.696220e+01
3.697614e+01
3.698592e+01
3.699182e+01
3.699143e+01
3.698555e+01
3.697501e+01
3.695978e+01
3.693927e+01
3.691324e+01
3.688457e+01
3.685634e+01
3.683248e+01
3.681699e+01
3.681331e+01
3.682154e+01
3.683711e+01
3.685800e+01
3.688123e+01
3.690348e+01
3.692287e+01
3.693971e+01
3.695288e+01
3.696241e+01
3.696890e+01
3.697296e+01
3.697471e+01
3.697328e+01
3.696915e+01
3.696287e+01
3.695501e+01
3.694619e+01
3.693733e+01
3.692900e+01
3.692167e+01
3.691576e+01
3.691161e+01
3.690944e+01
3.690950e+01
3.691175e+01
3.691564e+01
3.692095e+01
3.692737e+01
3.693443e+01
3.694158e+01
3.694823e+01
3.695404e+01
3.695910e+01
3.696334e+01
3.696681e+01
3.696970e+01
3.697225e+01
3.697468e+01
3.697721e+01
3.697980e+01
3.698267e+01
3.698693e+01
3.698714e+01
3.720541e+01
3.720521e+01
3.719859e+01
3.718796e+01
3.716815e+01
3.712628e+01
3.703061e+01
3.680394e+01
3.639342e+01
3.632269e+01
3.633593e+01
3.635477e+01
3.637459e+01
3.639087e+01
3.640671e+01
3.642385e+01
3.644277e+01
3.646301e+01
3.648376e+01
3.650526e+01
3.652822e+01
3.655447e+01
3.658569e+01
3.662119e+01
3.665410e+01
3.668051e+01
3.668633e+01
3.668353e+01
3.667895e+01
3.667058e+01
3.666265e+01
3.665754e+01
3.665746e+01
3.666442e+01
3.667779e+01
3.669688e+01
3.672109e+01
3.674952e+01
3.678079e+01
3.681318e+01
3.684478e+01
3.687455e+01
3.690227e+01
3.692675e+01
3.694718e+01
3.696305e+01
3.697384e+01
3.697930e+01
3.697682e+01
3.696881e+01
3.695748e+01
3.694333e+01
3.692574e+01
3.690415e+01
3.688082e+01
3.685819e+01
3.683951e+01
3.682820e+01
3.682713e+01
3.683540e+01
3.684937e+01
3.686713e+01
3.688622e+01
3.690405e+01
3.692000e+01
3.693412e+01
3.694570e+01
3.695471e+01
3.696142e+01
3.696611e+01
3.696855e+01
3.696767e+01
3.696401e+01
3.695821e+01
3.695091e+01
3.694274e+01
3.693465e+01
3.692714e+01
3.692064e+01
3.691554e+01
3.691216e+01
3.691078e+01
3.691174e+01
3.691459e+01
3.691887e+01
3.692427e+01
3.693036e+01
3.693661e+01
3.694250e+01
3.694757e+01
3.695210e+01
3.695601e+01
3.695936e+01
3.696227e+01
3.696490e+01
3.696739e+01
3.696990e+01
3.697253e+01
3.697528e+01
3.697842e+01
3.698322e+01
3.698343e+01
3.720961e+01
3.720941e+01
3.721231e+01
3.721383e+01
3.721173e+01
3.719641e+01
3.713162e+01
3.687133e+01
3.607609e+01
3.614394e+01
3.625911e+01
3.630977e+01
3.634066e+01
3.636299e+01
3.638310e+01
3.640322e+01
3.642461e+01
3.644691e+01
3.646883e+01
3.648949e+01
3.650948e+01
3.653058e+01
3.655584e+01
3.659083e+01
3.662617e+01
3.665496e+01
3.667380e+01
3.668640e+01
3.669341e+01
3.668505e+01
3.667693e+01
3.666979e+01
3.666703e+01
3.666983e+01
3.668001e+01
3.669554e+01
3.671603e+01
3.674095e+01
3.676916e+01
3.679905e+01
3.682869e+01
3.685663e+01
3.688380e+01
3.690902e+01
3.693089e+01
3.694778e+01
3.695816e+01
3.696160e+01
3.695661e+01
3.694773e+01
3.693752e+01
3.692644e+01
3.691360e+01
3.689808e+01
3.688120e+01
3.686480e+01
3.685154e+01
3.684419e+01
3.684490e+01
3.685226e+01
3.686372e+01
3.687771e+01
3.689233e+01
3.690577e+01
3.691814e+01
3.692937e+01
3.693904e+01
3.694709e+01
3.695351e+01
3.695829e+01
3.696096e+01
3.696047e+01
3.695741e+01
3.695243e+01
3.694616e+01
3.693916e+01
3.693232e+01
3.692604e+01
3.692070e+01
3.691667e+01
3.691429e+01
3.691394e+01
3.691572e+01
3.691894e+01
3.692323e+01
3.692817e+01
3.693328e+01
3.693809e+01
3.694224e+01
3.694585e+01
3.694906e+01
3.695192e+01
3.695453e+01
3.695699e+01
3.695937e+01
3.696176e+01
3.696426e+01
3.696691e+01
3.696983e+01
3.697332e+01
3.697891e+01
3.697911e+01
3.721489e+01
3.721469e+01
3.722686e+01
3.724113e+01
3.726049e+01
3.728758e+01
3.731979e+01
3.742388e+01
3.675019e+01
3.620966e+01
3.627497e+01
3.629669e+01
3.632139e+01
3.634421e+01
3.636524e+01
3.638483e+01
3.640565e+01
3.642735e+01
3.644830e+01
3.646686e+01
3.648240e+01
3.649367e+01
3.650656e+01
3.652828e+01
3.655453e+01
3.657883e+01
3.660027e+01
3.662668e+01
3.665857e+01
3.668212e+01
3.669092e+01
3.669136e+01
3.668863e+01
3.668904e+01
3.669488e+01
3.670649e+01
3.672198e+01
3.674179e+01
3.676520e+01
3.679082e+01
3.681688e+01
3.684144e+01
3.686564e+01
3.688913e+01
3.690990e+01
3.692538e+01
3.693351e+01
3.693410e+01
3.692890e+01
3.692228e+01
3.691594e+01
3.691015e+01
3.690380e+01
3.689561e+01
3.688586e+01
3.687585e+01
3.686776e+01
3.686375e+01
3.686526e+01
3.687086e+01
3.687913e+01
3.688891e+01
3.689891e+01
3.690797e+01
3.691660e+01
3.692473e+01
3.693214e+01
3.693870e+01
3.694421e+01
3.694851e+01
3.695102e+01
3.695101e+01
3.694895e+01
3.694541e+01
3.694087e+01
3.693573e+01
3.693074e+01
3.692619e+01
3.692241e+01
3.691974e+01
3.691855e+01
3.691921e+01
3.692146e+01
3.692462e+01
3.692831e+01
3.693211e+01
3.693564e+01
3.693862e+01
3.694105e+01
3.694319e+01
3.694515e+01
3.694705e+01
3.694895e+01
3.695090e+01
3.695293e+01
3.695509e+01
3.695749e+01
3.696015e+01
3.696330e+01
3.696723e+01
3.697371e+01
3.697392e+01
3.722051e+01
3.722031e+01
3.723963e+01
3.726362e+01
3.729880e+01
3.735566e+01
3.745187e+01
3.758465e+01
3.761866e+01
0.000000e+00
3.630945e+01
3.630925e+01
3.633136e+01
3.635139e+01
3.636724e+01
3.638346e+01
3.640057e+01
3.641760e+01
3.643276e+01
3.644386e+01
3.644954e+01
3.644912e+01
3.644607e+01
3.644352e+01
3.644340e+01
3.645413e+01
3.648969e+01
3.654536e+01
3.660852e+01
3.666638e+01
3.670754e+01
3.672604e+01
3.672687e+01
3.672360e+01
3.672389e+01
3.673028e+01
3.673958e+01
3.675282e+01
3.676965e+01
3.678895e+01
3.680908e+01
3.682803e+01
3.684564e+01
3.686406e+01
3.688028e+01
3.689116e+01
3.689606e+01
3.689547e+01
3.689416e+01
3.689389e+01
3.689485e+01
3.689640e+01
3.689763e+01
3.689725e+01
3.689467e+01
3.689067e+01
3.688705e+01
3.688543e+01
3.688672e+01
3.689005e+01
3.689475e+01
3.690011e+01
3.690544e+01
3.691018e+01
3.691490e+01
3.691962e+01
3.692426e+01
3.692864e+01
3.693254e+01
3.693580e+01
3.693800e+01
3.693884e+01
3.693851e+01
3.693727e+01
3.693532e+01
3.693288e+01
3.693040e+01
3.692809e+01
3.692623e+01
3.692516e+01
3.692520e+01
3.692655e+01
3.692869e+01
3.693116e+01
3.693360e+01
3.693573e+01
3.693734e+01
3.693842e+01
3.693918e+01
3.693985e+01
3.694058e+01
3.694146e+01
3.694253e+01
3.694380e+01
3.694531e+01
3.694710e+01
3.694931e+01
3.695209e+01
3.695559e+01
3.696007e+01
3.696740e+01
3.696761e+01
3.722571e+01
3.722551e+01
3.724858e+01
3.727689e+01
3.731671e+01
3.737585e+01
3.746099e+01
3.756343e+01
3.765226e+01
3.765246e+01
0.000000e+00
3.637294e+01
3.637273e+01
3.638638e+01
3.639794e+01
3.640962e+01
3.642093e+01
3.642995e+01
3.643478e+01
3.643384e+01
3.642624e+01
3.641147e+01
3.639057e+01
3.636861e+01
3.635430e+01
3.637503e+01
3.643172e+01
3.651071e+01
3.659522e+01
3.667215e+01
3.673492e+01
3.677210e+01
3.678372e+01
3.677678e+01
3.676865e+01
3.676665e+01
3.676882e+01
3.677425e+01
3.678293e+01
3.679381e+01
3.680528e+01
3.681516e+01
3.682404e+01
3.683348e+01
3.683969e+01
3.684251e+01
3.684387e+01
3.684894e+01
3.685729e+01
3.686734e+01
3.687768e+01
3.688745e+01
3.689610e+01
3.690275e+01
3.690676e+01
3.690821e+01
3.690811e+01
3.690787e+01
3.690820e+01
3.690902e+01
3.691003e+01
3.691097e+01
3.691167e+01
3.691210e+01
3.691267e+01
3.691354e+01
3.691472e+01
3.691615e+01
3.691773e+01
3.691942e+01
3.692147e+01
3.692381e+01
3.692618e+01
3.692832e+01
3.692999e+01
3.693109e+01
3.693174e+01
3.693211e+01
3.693243e+01
3.693300e+01
3.693400e+01
3.693543e+01
3.693693e+01
3.693814e+01
3.693884e+01
3.693893e+01
3.693856e+01
3.693786e+01
3.693700e+01
3.693618e+01
3.693556e+01
3.693523e+01
3.693523e+01
3.693560e+01
3.693638e+01
3.693765e+01
3.693972e+01
3.694275e+01
3.694675e+01
3.695185e+01
3.695976e+01
3.695996e+01
3.723005e+01
3.722985e+01
3.725318e+01
3.728095e+01
3.731751e+01
3.736789e+01
3.743413e+01
3.749772e+01
3.752874e+01
3.729879e+01
3.729899e+01
0.000000e+00
3.639791e+01
3.642268e+01
3.642854e+01
3.643719e+01
3.644296e+01
3.644410e+01
3.643977e+01
3.642961e+01
3.641366e+01
3.638938e+01
3.635605e+01
3.631891e+01
3.630251e+01
3.633836e+01
3.641471e+01
3.651094e+01
3.660728e+01
3.669137e+01
3.676136e+01
3.681573e+01
3.684118e+01
3.684253e+01
3.682924e+01
3.681762e+01
3.681073e+01
3.680734e+01
3.680665e+01
3.680729e+01
3.680762e+01
3.680587e+01
3.680236e+01
3.679711e+01
3.679167e+01
3.678767e+01
3.679028e+01
3.680434e+01
3.682457e+01
3.684632e+01
3.686666e+01
3.688435e+01
3.689919e+01
3.691135e+01
3.692043e+01
3.692610e+01
3.692875e+01
3.692914e+01
3.692820e+01
3.692645e+01
3.692397e+01
3.692085e+01
3.691730e+01
3.691359e+01
3.690985e+01
3.690639e+01
3.690348e+01
3.690131e+01
3.690005e+01
3.689983e+01
3.690216e+01
3.690685e+01
3.691296e+01
3.691947e+01
3.692559e+01
3.693072e+01
3.693482e+01
3.693805e+01
3.694059e+01
3.694258e+01
3.694394e+01
3.694476e+01
3.694503e+01
3.694459e+01
3.694343e+01
3.694166e+01
3.693955e+01
3.693726e+01
3.693486e+01
3.693256e+01
3.693051e+01
3.692883e+01
3.692759e+01
3.692686e+01
3.692672e+01
3.692725e+01
3.692918e+01
3.693248e+01
3.693698e+01
3.694254e+01
3.695046e+01
3.695067e+01
3.723347e+01
3.723326e+01
3.725407e+01
3.727784e+01
3.730735e+01
3.734303e+01
3.737812e+01
3.739110e+01
3.733608e+01
3.722572e+01
3.683504e+01
3.654232e+01
3.640357e+01
3.644169e+01
3.645030e+01
3.645715e+01
3.645835e+01
3.645453e+01
3.644565e+01
3.643083e+01
3.640981e+01
3.637786e+01
3.633420e+01
3.629017e+01
3.628692e+01
3.633868e+01
3.642915e+01
3.653560e+01
3.663585e+01
3.671558e+01
3.678000e+01
3.683745e+01
3.688148e+01
3.689805e+01
3.689399e+01
3.687996e+01
3.686510e+01
3.685312e+01
3.684253e+01
3.683140e+01
3.681817e+01
3.680279e+01
3.678454e+01
3.676496e+01
3.674742e+01
3.673557e+01
3.674313e+01
3.676791e+01
3.680052e+01
3.683359e+01
3.686301e+01
3.688685e+01
3.690629e+01
3.692220e+01
3.693460e+01
3.694307e+01
3.694742e+01
3.694787e+01
3.694579e+01
3.694184e+01
3.693636e+01
3.692973e+01
3.692238e+01
3.691487e+01
3.690703e+01
3.689932e+01
3.689226e+01
3.688636e+01
3.688207e+01
3.687971e+01
3.688261e+01
3.689007e+01
3.690041e+01
3.691179e+01
3.692270e+01
3.693184e+01
3.693921e+01
3.694497e+01
3.694929e+01
3.695217e+01
3.695344e+01
3.695344e+01
3.695247e+01
3.695054e+01
3.694775e+01
3.694435e+01
3.694065e+01
3.693688e+01
3.693299e+01
3.692917e+01
3.692561e+01
3.692245e+01
3.691982e+01
3.691785e+01
3.691663e+01
3.691633e+01
3.691807e+01
3.692156e+01
3.692644e+01
3.693216e+01
3.693933e+01
3.693953e+01
3.723611e+01
3.723590e+01
3.725244e+01
3.727049e+01
3.729011e+01
3.730872e+01
3.731716e+01
3.729558e+01
3.720754e+01
3.704439e+01
3.678649e+01
3.624919e+01
3.636505e+01
3.643398e+01
3.646027e+01
3.646692e+01
3.646657e+01
3.646190e+01
3.645179e+01
3.643508e+01
3.641084e+01
3.637240e+01
3.632294e+01
3.629009e+01
3.630559e+01
3.637014e+01
3.646642e+01
3.657348e+01
3.666778e+01
3.674414e+01
3.680397e+01
3.685118e+01
3.689283e+01
3.692514e+01
3.693736e+01
3.693459e+01
3.691967e+01
3.690081e+01
3.687975e+01
3.685610e+01
3.683054e+01
3.680348e+01
3.677179e+01
3.673881e+01
3.670914e+01
3.669368e+01
3.670898e+01
3.674465e+01
3.678827e+01
3.683074e+01
3.686623e+01
3.689425e+01
3.691651e+01
3.693438e+01
3.694841e+01
3.695834e+01
3.696366e+01
3.696416e+01
3.696127e+01
3.695562e+01
3.694772e+01
3.693810e+01
3.692740e+01
3.691641e+01
3.690473e+01
3.689296e+01
3.688186e+01
3.687226e+01
3.686489e+01
3.686065e+01
3.686442e+01
3.687490e+01
3.688967e+01
3.690602e+01
3.692155e+01
3.693434e+01
3.694447e+01
3.695220e+01
3.695774e+01
3.696109e+01
3.696211e+01
3.696139e+01
3.695941e+01
3.695626e+01
3.695213e+01
3.694731e+01
3.694215e+01
3.693696e+01
3.693159e+01
3.692624e+01
3.692111e+01
3.691639e+01
3.691228e+01
3.690897e+01
3.690658e+01
3.690547e+01
3.690690e+01
3.691040e+01
3.691537e+01
3.692079e+01
3.692633e+01
3.692654e+01
3.723833e+01
3.723813e+01
3.724943e+01
3.726077e+01
3.727079e+01
3.727571e+01
3.726722e+01
3.723073e+01
3.714416e+01
3.698960e+01
3.678180e+01
3.649989e+01
3.646858e+01
3.647773e+01
3.648343e+01
3.648254e+01
3.647815e+01
3.647066e+01
3.645869e+01
3.644139e+01
3.641652e+01
3.637748e+01
3.633837e+01
3.632586e+01
3.635562e+01
3.642434e+01
3.651673e+01
3.661260e+01
3.669636e+01
3.676618e+01
3.682263e+01
3.686645e+01
3.689763e+01
3.692035e+01
3.694354e+01
3.695450e+01
3.694842e+01
3.693179e+01
3.690681e+01
3.687585e+01
3.684221e+01
3.680587e+01
3.676353e+01
3.672001e+01
3.668123e+01
3.666886e+01
3.669234e+01
3.673724e+01
3.678895e+01
3.683708e+01
3.687557e+01
3.690552e+01
3.692879e+01
3.694707e+01
3.696130e+01
3.697151e+01
3.697714e+01
3.697785e+01
3.697469e+01
3.696805e+01
3.695844e+01
3.694647e+01
3.693293e+01
3.691882e+01
3.690364e+01
3.688810e+01
3.687321e+01
3.686012e+01
3.684990e+01
3.684442e+01
3.684930e+01
3.686281e+01
3.688178e+01
3.690272e+01
3.692221e+01
3.693800e+01
3.695020e+01
3.695923e+01
3.696543e+01
3.696895e+01
3.696976e+01
3.696857e+01
3.696589e+01
3.696187e+01
3.695673e+01
3.695077e+01
3.694430e+01
3.693771e+01
3.693092e+01
3.692404e+01
3.691731e+01
3.691100e+01
3.690537e+01
3.690070e+01
3.689713e+01
3.689523e+01
3.689621e+01
3.689942e+01
3.690406e+01
3.690862e+01
3.691169e+01
3.691190e+01
3.724011e+01
3.723990e+01
3.724588e+01
3.725097e+01
3.725312e+01
3.724857e+01
3.723090e+01
3.719059e+01
3.711525e+01
3.699263e+01
3.682655e+01
3.663922e+01
3.656291e+01
3.653369e+01
3.651793e+01
3.650521e+01
3.649312e+01
3.648043e+01
3.646582e+01
3.644820e+01
3.642513e+01
3.639558e+01
3.637453e+01
3.637872e+01
3.641656e+01
3.648317e+01
3.656607e+01
3.664847e+01
3.672166e+01
3.678352e+01
3.683417e+01
3.687457e+01
3.690585e+01
3.692964e+01
3.694799e+01
3.695605e+01
3.695410e+01
3.694165e+01
3.691872e+01
3.688706e+01
3.685060e+01
3.680881e+01
3.675969e+01
3.670966e+01
3.666678e+01
3.666301e+01
3.669449e+01
3.674568e+01
3.680154e+01
3.685071e+01
3.688956e+01
3.691937e+01
3.694211e+01
3.695959e+01
3.697299e+01
3.698261e+01
3.698798e+01
3.698902e+01
3.698601e+01
3.697913e+01
3.696869e+01
3.695521e+01
3.693950e+01
3.692269e+01
3.690442e+01
3.688546e+01
3.686713e+01
3.685093e+01
3.683837e+01
3.683236e+01
3.683858e+01
3.685489e+01
3.687747e+01
3.690217e+01
3.692466e+01
3.694260e+01
3.695611e+01
3.696577e+01
3.697217e+01
3.697564e+01
3.697634e+01
3.697491e+01
3.697186e+01
3.696734e+01
3.696154e+01
3.695474e+01
3.694721e+01
3.693932e+01
3.693118e+01
3.692280e+01
3.691449e+01
3.690658e+01
3.689944e+01
3.689342e+01
3.688877e+01
3.688610e+01
3.688647e+01
3.688908e+01
3.689290e+01
3.689605e+01
3.689592e+01
3.689613e+01
3.724157e+01
3.724137e+01
3.724257e+01
3.724242e+01
3.723862e+01
3.722789e+01
3.720550e+01
3.716529e+01
3.710017e+01
3.700288e+01
3.687253e+01
3.672761e+01
3.663840e+01
3.658740e+01
3.655458e+01
3.653024e+01
3.651010e+01
3.649194e+01
3.647432e+01
3.645623e+01
3.643637e+01
3.641772e+01
3.641131e+01
3.642759e+01
3.646994e+01
3.653284e+01
3.660603e+01
3.667787e+01
3.674250e+01
3.679784e+01
3.684384e+01
3.688136e+01
3.691126e+01
3.693341e+01
3.694738e+01
3.695294e+01
3.695081e+01
3.694022e+01
3.691994e+01
3.689040e+01
3.685500e+01
3.681176e+01
3.676063e+01
3.670893e+01
3.667251e+01
3.667666e+01
3.671338e+01
3.676666e+01
3.682217e+01
3.686923e+01
3.690626e+01
3.693439e+01
3.695551e+01
3.697144e+01
3.698345e+01
3.699201e+01
3.699687e+01
3.699800e+01
3.699537e+01
3.698885e+01
3.697843e+01
3.696437e+01
3.694730e+01
3.692834e+01
3.690743e+01
3.688545e+01
3.686406e+01
3.684522e+01
3.683101e+01
3.682520e+01
3.683290e+01
3.685162e+01
3.687698e+01
3.690431e+01
3.692871e+01
3.694792e+01
3.696204e+01
3.697181e+01
3.697803e+01
3.698128e+01
3.698189e+01
3.698042e+01
3.697724e+01
3.697251e+01
3.696638e+01
3.695905e+01
3.695076e+01
3.694180e+01
3.693243e+01
3.692265e+01
3.691281e+01
3.690334e+01
3.689471e+01
3.688739e+01
3.688174e+01
3.687836e+01
3.687801e+01
3.687973e+01
3.688230e+01
3.688361e+01
3.687981e+01
3.688002e+01
3.724281e+01
3.724261e+01
3.723990e+01
3.723564e+01
3.722758e+01
3.721288e+01
3.718799e+01
3.714871e+01
3.709064e+01
3.700959e+01
3.690457e+01
3.678721e+01
3.669619e+01
3.663257e+01
3.658759e+01
3.655362e+01
3.652629e+01
3.650307e+01
3.648248e+01
3.646377e+01
3.644720e+01
3.643716e+01
3.644116e+01
3.646539e+01
3.651019e+01
3.656984e+01
3.663587e+01
3.670030e+01
3.675858e+01
3.680901e+01
3.685154e+01
3.688675e+01
3.691486e+01
3.693532e+01
3.694795e+01
3.695287e+01
3.695037e+01
3.693993e+01
3.692061e+01
3.689228e+01
3.685744e+01
3.681385e+01
3.676374e+01
3.671594e+01
3.669014e+01
3.670138e+01
3.674081e+01
3.679322e+01
3.684531e+01
3.688905e+01
3.692332e+01
3.694908e+01
3.696812e+01
3.698222e+01
3.699265e+01
3.700005e+01
3.700438e+01
3.700552e+01
3.700332e+01
3.699746e+01
3.698763e+01
3.697373e+01
3.695608e+01
3.693558e+01
3.691252e+01
3.688793e+01
3.686385e+01
3.684282e+01
3.682767e+01
3.682269e+01
3.683190e+01
3.685254e+01
3.687981e+01
3.690864e+01
3.693398e+01
3.695373e+01
3.696796e+01
3.697749e+01
3.698328e+01
3.698615e+01
3.698665e+01
3.698519e+01
3.698200e+01
3.697722e+01
3.697098e+01
3.696340e+01
3.695463e+01
3.694490e+01
3.693449e+01
3.692346e+01
3.691221e+01
3.690125e+01
3.689120e+01
3.688265e+01
3.687612e+01
3.687212e+01
3.687100e+01
3.687170e+01
3.687277e+01
3.687201e+01
3.686436e+01
3.686457e+01
3.724382e+01
3.724362e+01
3.723797e+01
3.723074e+01
3.721976e+01
3.720257e+01
3.717633e+01
3.713794e+01
3.708434e+01
3.701304e+01
3.692384e+01
3.682437e+01
3.673677e+01
3.666748e+01
3.661429e+01
3.657292e+01
3.653980e+01
3.651241e+01
3.648929e+01
3.647010e+01
3.645632e+01
3.645232e+01
3.646361e+01
3.649300e+01
3.653885e+01
3.659573e+01
3.665680e+01
3.671617e+01
3.677013e+01
3.681717e+01
3.685716e+01
3.689048e+01
3.691721e+01
3.693698e+01
3.694963e+01
3.695510e+01
3.695320e+01
3.694332e+01
3.692450e+01
3.689631e+01
3.686011e+01
3.681509e+01
3.676580e+01
3.672399e+01
3.670838e+01
3.672582e+01
3.676693e+01
3.681751e+01
3.686608e+01
3.690664e+01
3.693799e+01
3.696123e+01
3.697818e+01
3.699060e+01
3.699981e+01
3.700655e+01
3.701074e+01
3.701202e+01
3.701032e+01
3.700522e+01
3.699622e+01
3.698291e+01
3.696524e+01
3.694375e+01
3.691896e+01
3.689211e+01
3.686564e+01
3.684274e+01
3.682715e+01
3.682336e+01
3.683399e+01
3.685610e+01
3.688457e+01
3.691406e+01
3.693972e+01
3.695960e+01
3.697373e+01
3.698292e+01
3.698821e+01
3.699061e+01
3.699090e+01
3.698937e+01
3.698615e+01
3.698137e+01
3.697511e+01
3.696744e+01
3.695842e+01
3.694819e+01
3.693695e+01
3.692489e+01
3.691242e+01
3.690013e+01
3.688877e+01
3.687912e+01
3.687182e+01
3.686732e+01
3.686553e+01
3.686525e+01
3.686484e+01
3.686208e+01
3.685071e+01
3.685092e+01
3.724456e+01
3.724435e+01
3.723676e+01
3.722761e+01
3.721483e+01
3.719620e+01
3.716929e+01
3.713157e+01
3.708068e+01
3.701496e+01
3.693478e+01
3.684580e+01
3.676189e+01
3.669051e+01
3.663279e+01
3.658670e+01
3.654957e+01
3.651918e+01
3.649424e+01
3.647489e+01
3.646327e+01
3.646325e+01
3.647863e+01
3.651060e+01
3.655673e+01
3.661183e+01
3.666991e+01
3.672614e+01
3.677735e+01
3.682223e+01
3.686061e+01
3.689274e+01
3.691875e+01
3.693835e+01
3.695140e+01
3.695768e+01
3.695675e+01
3.694778e+01
3.692968e+01
3.690147e+01
3.686320e+01
3.681573e+01
3.676630e+01
3.672970e+01
3.672135e+01
3.674326e+01
3.678555e+01
3.683475e+01
3.688074e+01
3.691886e+01
3.694815e+01
3.696967e+01
3.698514e+01
3.699633e+01
3.700461e+01
3.701085e+01
3.701501e+01
3.701677e+01
3.701589e+01
3.701177e+01
3.700368e+01
3.699109e+01
3.697369e+01
3.695163e+01
3.692549e+01
3.689670e+01
3.686807e+01
3.684348e+01
3.682762e+01
3.682493e+01
3.683671e+01
3.685986e+01
3.688907e+01
3.691880e+01
3.694463e+01
3.696465e+01
3.697866e+01
3.698744e+01
3.699221e+01
3.699412e+01
3.699412e+01
3.699251e+01
3.698927e+01
3.698454e+01
3.697836e+01
3.697073e+01
3.696164e+01
3.695113e+01
3.693933e+01
3.692649e+01
3.691304e+01
3.689965e+01
3.688720e+01
3.687662e+01
3.686873e+01
3.686391e+01
3.686166e+01
3.686067e+01
3.685910e+01
3.685474e+01
3.684023e+01
3.684043e+01
3.724495e+01
3.724475e+01
3.723619e+01
3.722612e+01
3.721251e+01
3.719327e+01
3.716618e+01
3.712894e+01
3.707947e+01
3.701645e+01
3.694044e+01
3.685629e+01
3.677442e+01
3.670232e+01
3.664250e+01
3.659405e+01
3.655484e+01
3.652286e+01
3.649698e+01
3.647763e+01
3.646711e+01
3.646888e+01
3.648593e+01
3.651877e+01
3.656475e+01
3.661886e+01
3.667550e+01
3.673031e+01
3.678032e+01
3.682426e+01
3.686191e+01
3.689346e+01
3.691904e+01
3.693863e+01
3.695210e+01
3.695910e+01
3.695903e+01
3.695097e+01
3.693372e+01
3.690581e+01
3.686601e+01
3.681625e+01
3.676630e+01
3.673288e+01
3.672831e+01
3.675217e+01
3.679436e+01
3.684229e+01
3.688694e+01
3.692405e+01
3.695261e+01
3.697355e+01
3.698852e+01
3.699925e+01
3.700712e+01
3.701300e+01
3.701706e+01
3.701919e+01
3.701895e+01
3.701562e+01
3.700839e+01
3.699658e+01
3.697967e+01
3.695751e+01
3.693049e+01
3.690015e+01
3.686955e+01
3.684337e+01
3.682702e+01
3.682473e+01
3.683713e+01
3.686103e+01
3.689081e+01
3.692070e+01
3.694662e+01
3.696674e+01
3.698082e+01
3.698961e+01
3.699432e+01
3.699612e+01
3.699593e+01
3.699414e+01
3.699090e+01
3.698625e+01
3.698019e+01
3.697267e+01
3.696364e+01
3.695309e+01
3.694105e+01
3.692780e+01
3.691378e+01
3.689970e+01
3.688654e+01
3.687541e+01
3.686720e+01
3.686217e+01
3.685968e+01
3.685832e+01
3.685604e+01
3.685063e+01
3.683399e+01
3.683420e+01
0.000000e+00
3.724495e+01
3.723639e+01
3.722632e+01
3.721271e+01
3.719348e+01
3.716638e+01
3.712914e+01
3.707968e+01
3.701665e+01
3.694064e+01
3.685649e+01
3.677462e+01
3.670253e+01
3.664270e+01
3.659425e+01
3.655505e+01
3.652307e+01
3.649719e+01
3.647784e+01
3.646732e+01
3.646909e+01
3.648613e+01
3.651897e+01
3.656495e+01
3.661906e+01
3.667571e+01
3.673051e+01
3.678052e+01
3.682446e+01
3.686212e+01
3.689367e+01
3.691924e+01
3.693884e+01
3.695231e+01
3.695931e+01
3.695924e+01
3.695118e+01
3.693393e+01
3.690602e+01
3.686622e+01
3.681645e+01
3.676651e+01
3.673309e+01
3.672852e+01
3.675237e+01
3.679457e+01
3.684250e+01
3.688715e+01
3.692426e+01
3.695282e+01
3.697375e+01
3.698873e+01
3.699945e+01
3.700733e+01
3.701321e+01
3.701727e+01
3.701939e+01
3.701915e+01
3.701582e+01
3.700860e+01