# vtk DataFile Version 3.0
Scalar Field
ASCII
DATASET RECTILINEAR_GRID
DIMENSIONS 102 22 1
X_COORDINATES 102 double
0.000000 0.100000 0.200000 0.300000 0.400000 0.500000 0.600000 0.700000 0.800000 0.900000 1.000000 1.100000 1.200000 1.300000 1.400000 1.500000 1.600000 1.700000 1.800000 1.900000 2.000000 2.100000 2.200000 2.300000 2.400000 2.500000 2.600000 2.700000 2.800000 2.900000 3.000000 3.100000 3.200000 3.300000 3.400000 3.500000 3.600000 3.700000 3.800000 3.900000 4.000000 4.100000 4.200000 4.300000 4.400000 4.500000 4.600000 4.700000 4.800000 4.900000 5.000000 5.100000 5.200000 5.300000 5.400000 5.500000 5.600000 5.700000 5.800000 5.900000 6.000000 6.100000 6.200000 6.300000 6.400000 6.500000 6.600000 6.700000 6.800000 6.900000 7.000000 7.100000 7.200000 7.300000 7.400000 7.500000 7.600000 7.700000 7.800000 7.900000 8.000000 8.100000 8.200000 8.300000 8.400000 8.500000 8.600000 8.700000 8.800000 8.900000 9.000000 9.100000 9.200000 9.300000 9.400000 9.500000 9.600000 9.700000 9.800000 9.900000 10.000000 10.100000 
Y_COORDINATES 22 double
0.000000 0.100000 0.200000 0.300000 0.400000 0.500000 0.600000 0.700000 0.800000 0.900000 1.000000 1.100000 1.200000 1.300000 1.400000 1.500000 1.600000 1.700000 1.800000 1.900000 2.000000 2.100000 
Z_COORDINATES 1 double
0.0
POINT_DATA 2244
SCALARS Pressure double 1
LOOKUP_TABLE default
0.000000e+00
4.645602e+00
4.614228e+00
4.568334e+00
4.505043e+00
4.421427e+00
4.316069e+00
4.190804e+00
4.051832e+00
3.908109e+00
3.766196e+00
3.627739e+00
3.492020e+00
3.358348e+00
3.226937e+00
3.098651e+00
2.974452e+00
2.855039e+00
2.740749e+00
2.631592e+00
2.527348e+00
2.427668e+00
2.332142e+00
2.240357e+00
2.151921e+00
2.066488e+00
1.983754e+00
1.903465e+00
1.825409e+00
1.749410e+00
1.675326e+00
1.603041e+00
1.532461e+00
1.463509e+00
1.396122e+00
1.330248e+00
1.265844e+00
1.202875e+00
1.141309e+00
1.081120e+00
1.022285e+00
9.647823e-01
9.085936e-01
8.537015e-01
8.000896e-01
7.477426e-01
6.966456e-01
6.467845e-01
5.981453e-01
5.507143e-01
5.044781e-01
4.594232e-01
4.155363e-01
3.728044e-01
3.312141e-01
2.907525e-01
2.514062e-01
2.131624e-01
1.760079e-01
1.399297e-01
1.049149e-01
7.095047e-02
3.802371e-02
6.121809e-03
-2.476786e-02
-5.465783e-02
-8.356050e-02
-1.114881e-01
-1.384527e-01
-1.644663e-01
-1.895405e-01
-2.136867e-01
-2.369163e-01
-2.592402e-01
-2.806691e-01
-3.012135e-01
-3.208836e-01
-3.396890e-01
-3.576394e-01
-3.747440e-01
-3.910114e-01
-4.064502e-01
-4.210684e-01
-4.348737e-01
-4.478734e-01
-4.600746e-01
-4.714836e-01
-4.821068e-01
-4.919499e-01
-5.010184e-01
-5.093177e-01
-5.168527e-01
-5.236285e-01
-5.296501e-01
-5.349229e-01
-5.394534e-01
-5.432497e-01
-5.463236e-01
-5.486952e-01
-5.504061e-01
-5.512235e-01
0.000000e+00
4.645602e+00
4.649880e+00
4.618500e+00
4.572596e+00
4.509294e+00
4.425663e+00
4.320288e+00
4.195006e+00
4.056013e+00
3.912267e+00
3.770331e+00
3.631849e+00
3.496104e+00
3.362405e+00
3.230966e+00
3.102651e+00
2.978422e+00
2.858978e+00
2.744656e+00
2.635464e+00
2.531186e+00
2.431469e+00
2.335906e+00
2.244081e+00
2.155605e+00
2.070130e+00
1.987354e+00
1.907022e+00
1.828920e+00
1.752876e+00
1.678745e+00
1.606413e+00
1.535784e+00
1.466782e+00
1.399345e+00
1.333420e+00
1.268965e+00
1.205944e+00
1.144325e+00
1.084083e+00
1.025194e+00
9.676368e-01
9.113936e-01
8.564467e-01
8.027797e-01
7.503774e-01
6.992251e-01
6.493085e-01
6.006138e-01
5.531273e-01
5.068356e-01
4.617253e-01
4.177833e-01
3.749964e-01
3.333515e-01
2.928355e-01
2.534353e-01
2.151378e-01
1.779302e-01
1.417995e-01
1.067326e-01
7.271680e-02
3.973928e-02
7.787340e-03
-2.315162e-02
-5.309010e-02
-8.204043e-02
-1.100148e-01
-1.370253e-01
-1.630838e-01
-1.882019e-01
-2.123910e-01
-2.356623e-01
-2.580269e-01
-2.794954e-01
-3.000781e-01
-3.197853e-01
-3.386266e-01
-3.566117e-01
-3.737495e-01
-3.900489e-01
-4.055183e-01
-4.201657e-01
-4.339989e-01
-4.470250e-01
-4.592511e-01
-4.706836e-01
-4.813287e-01
-4.911923e-01
-5.002798e-01
-5.085964e-01
-5.161473e-01
-5.229374e-01
-5.289717e-01
-5.342557e-01
-5.387958e-01
-5.426000e-01
-5.456803e-01
-5.480567e-01
-5.497708e-01
-5.505898e-01
-5.512235e-01
4.661111e+00
4.665386e+00
4.636178e+00
4.593127e+00
4.532751e+00
4.451076e+00
4.345240e+00
4.215962e+00
4.070316e+00
3.921171e+00
3.776789e+00
3.636964e+00
3.499664e+00
3.364071e+00
3.230862e+00
3.101307e+00
2.976478e+00
2.856981e+00
2.742980e+00
2.634323e+00
2.530667e+00
2.431577e+00
2.336594e+00
2.245282e+00
2.157240e+00
2.072122e+00
1.989634e+00
1.909529e+00
1.831605e+00
1.755696e+00
1.681667e+00
1.609410e+00
1.538834e+00
1.469869e+00
1.402455e+00
1.336543e+00
1.272092e+00
1.209068e+00
1.147442e+00
1.087188e+00
1.028284e+00
9.707103e-01
9.144475e-01
8.594792e-01
8.057894e-01
7.533631e-01
7.021857e-01
6.522432e-01
6.035217e-01
5.560078e-01
5.096881e-01
4.645495e-01
4.205786e-01
3.777625e-01
3.360881e-01
2.955423e-01
2.561121e-01
2.177846e-01
1.805467e-01
1.443856e-01
1.092885e-01
7.524236e-02
4.223461e-02
1.025254e-02
-2.071639e-02
-5.068464e-02
-7.966451e-02
-1.076682e-01
-1.347076e-01
-1.607946e-01
-1.859408e-01
-2.101576e-01
-2.334562e-01
-2.558474e-01
-2.773419e-01
-2.979501e-01
-3.176821e-01
-3.365476e-01
-3.545559e-01
-3.717163e-01
-3.880375e-01
-4.035278e-01
-4.181953e-01
-4.320475e-01
-4.450919e-01
-4.573351e-01
-4.687837e-01
-4.794438e-01
-4.893213e-01
-4.984214e-01
-5.067494e-01
-5.143102e-01
-5.211086e-01
-5.271493e-01
-5.324375e-01
-5.369788e-01
-5.407798e-01
-5.438493e-01
-5.461980e-01
-5.478345e-01
-5.487747e-01
-5.494122e-01
4.688259e+00
4.692531e+00
4.667513e+00
4.630452e+00
4.576692e+00
4.500044e+00
4.394167e+00
4.256142e+00
4.093963e+00
3.933247e+00
3.785385e+00
3.643336e+00
3.502453e+00
3.362480e+00
3.225546e+00
3.093704e+00
2.968031e+00
2.848779e+00
2.735701e+00
2.628306e+00
2.526015e+00
2.428247e+00
2.334463e+00
2.244189e+00
2.157020e+00
2.072619e+00
1.990707e+00
1.911060e+00
1.833494e+00
1.757863e+00
1.684048e+00
1.611951e+00
1.541496e+00
1.472620e+00
1.405269e+00
1.339400e+00
1.274978e+00
1.211971e+00
1.150352e+00
1.090098e+00
1.031189e+00
9.736042e-01
9.173277e-01
8.623428e-01
8.086341e-01
7.561871e-01
7.049874e-01
6.550214e-01
6.062755e-01
5.587363e-01
5.123906e-01
4.672253e-01
4.232273e-01
3.803837e-01
3.386814e-01
2.981075e-01
2.586490e-01
2.202929e-01
1.830264e-01
1.468367e-01
1.117108e-01
7.763599e-02
4.459962e-02
1.258903e-02
-1.840828e-02
-4.840470e-02
-7.741252e-02
-1.054438e-01
-1.325106e-01
-1.586246e-01
-1.837974e-01
-2.080404e-01
-2.313647e-01
-2.537811e-01
-2.753002e-01
-2.959325e-01
-3.156879e-01
-3.345760e-01
-3.526065e-01
-3.697882e-01
-3.861298e-01
-4.016398e-01
-4.163262e-01
-4.301964e-01
-4.432576e-01
-4.555169e-01
-4.669804e-01
-4.776544e-01
-4.875445e-01
-4.966559e-01
-5.049937e-01
-5.125627e-01
-5.193672e-01
-5.254117e-01
-5.307005e-01
-5.352379e-01
-5.390287e-01
-5.420774e-01
-5.443877e-01
-5.459584e-01
-5.467624e-01
-5.474034e-01
4.724513e+00
4.728783e+00
4.710516e+00
4.683447e+00
4.641641e+00
4.575793e+00
4.473129e+00
4.320690e+00
4.121417e+00
3.942825e+00
3.796156e+00
3.651612e+00
3.503345e+00
3.355045e+00
3.212198e+00
3.077568e+00
2.951570e+00
2.833530e+00
2.722458e+00
2.617361e+00
2.517355e+00
2.421690e+00
2.329750e+00
2.241037e+00
2.155157e+00
2.071800e+00
1.990724e+00
1.911736e+00
1.834686e+00
1.759455e+00
1.685946e+00
1.614083e+00
1.543805e+00
1.475060e+00
1.407806e+00
1.342008e+00
1.277634e+00
1.214660e+00
1.153061e+00
1.092817e+00
1.033910e+00
9.763214e-01
9.200362e-01
8.650389e-01
8.113149e-01
7.588501e-01
7.076308e-01
6.576437e-01
6.088754e-01
5.613128e-01
5.149429e-01
4.697527e-01
4.257294e-01
3.828599e-01
3.411313e-01
3.005309e-01
2.610456e-01
2.226627e-01
1.853692e-01
1.491523e-01
1.139993e-01
7.989739e-02
4.683399e-02
1.479648e-02
-1.622761e-02
-4.625063e-02
-7.528481e-02
-1.033422e-01
-1.304348e-01
-1.565743e-01
-1.817722e-01
-2.060398e-01
-2.293883e-01
-2.518284e-01
-2.733708e-01
-2.940257e-01
-3.138031e-01
-3.327127e-01
-3.507638e-01
-3.679655e-01
-3.843265e-01
-3.998550e-01
-4.145589e-01
-4.284459e-01
-4.415231e-01
-4.537972e-01
-4.652746e-01
-4.759613e-01
-4.858628e-01
-4.949843e-01
-5.033307e-01
-5.109063e-01
-5.177152e-01
-5.237613e-01
-5.290479e-01
-5.335782e-01
-5.373546e-01
-5.403783e-01
-5.426476e-01
-5.441553e-01
-5.448457e-01
-5.454900e-01
4.766105e+00
4.770374e+00
4.761817e+00
4.749540e+00
4.727215e+00
4.682757e+00
4.593817e+00
4.423284e+00
4.128770e+00
3.935238e+00
3.814023e+00
3.663611e+00
3.498421e+00
3.335618e+00
3.185451e+00
3.049277e+00
2.925045e+00
2.810296e+00
2.703005e+00
2.601631e+00
2.505021e+00
2.412312e+00
2.322862e+00
2.236196e+00
2.151972e+00
2.069938e+00
1.989905e+00
1.911734e+00
1.835319e+00
1.760578e+00
1.687446e+00
1.615871e+00
1.545810e+00
1.477229e+00
1.410097e+00
1.344388e+00
1.280078e+00
1.217148e+00
1.155578e+00
1.095352e+00
1.036453e+00
9.788656e-01
9.225760e-01
8.675697e-01
8.138333e-01
7.613534e-01
7.101168e-01
6.601106e-01
6.113218e-01
5.637377e-01
5.173453e-01
4.721320e-01
4.280848e-01
3.851911e-01
3.434379e-01
3.028125e-01
2.633021e-01
2.248938e-01
1.875748e-01
1.513325e-01
1.161539e-01
8.202653e-02
4.893768e-02
1.687483e-02
-1.417445e-02
-4.422248e-02
-7.328147e-02
-1.013634e-01
-1.284803e-01
-1.546437e-01
-1.798651e-01
-2.041560e-01
-2.275272e-01
-2.499896e-01
-2.715537e-01
-2.922298e-01
-3.120279e-01
-3.309576e-01
-3.490282e-01
-3.662486e-01
-3.826276e-01
-3.981734e-01
-4.128939e-01
-4.267965e-01
-4.398885e-01
-4.521764e-01
-4.636666e-01
-4.743650e-01
-4.842769e-01
-4.934075e-01
-5.017612e-01
-5.093423e-01
-5.161544e-01
-5.222007e-01
-5.274837e-01
-5.320054e-01
-5.357665e-01
-5.387657e-01
-5.409990e-01
-5.424572e-01
-5.430758e-01
-5.437233e-01
4.808165e+00
4.812433e+00
4.816335e+00
4.823547e+00
4.829779e+00
4.823999e+00
4.776809e+00
4.606200e+00
4.006028e+00
3.872094e+00
3.866676e+00
3.679173e+00
3.473964e+00
3.290806e+00
3.136587e+00
3.004258e+00
2.886517e+00
2.778587e+00
2.677583e+00
2.581689e+00
2.489697e+00
2.400790e+00
2.314408e+00
2.230191e+00
2.147902e+00
2.067383e+00
1.988531e+00
1.911274e+00
1.835565e+00
1.761365e+00
1.688648e+00
1.617390e+00
1.547570e+00
1.479170e+00
1.412174e+00
1.346565e+00
1.282328e+00
1.219450e+00
1.157915e+00
1.097711e+00
1.038824e+00
9.812417e-01
9.249504e-01
8.699378e-01
8.161913e-01
7.636984e-01
7.124464e-01
6.624230e-01
6.136155e-01
5.660114e-01
5.195982e-01
4.743632e-01
4.302939e-01
3.873774e-01
3.456012e-01
3.049524e-01
2.654184e-01
2.269863e-01
1.896435e-01
1.533772e-01
1.181747e-01
8.402335e-02
5.091063e-02
1.882403e-02
-1.224887e-02
-4.232035e-02
-7.140257e-02
-9.950753e-02
-1.266471e-01
-1.528329e-01
-1.780764e-01
-2.023889e-01
-2.257814e-01
-2.482647e-01
-2.698492e-01
-2.905452e-01
-3.103626e-01
-3.293110e-01
-3.473997e-01
-3.646377e-01
-3.810335e-01
-3.965955e-01
-4.113313e-01
-4.252486e-01
-4.383542e-01
-4.506550e-01
-4.621570e-01
-4.728661e-01
-4.827876e-01
-4.919263e-01
-5.002866e-01
-5.078724e-01
-5.146869e-01
-5.207327e-01
-5.260119e-01
-5.305252e-01
-5.342722e-01
-5.372507e-01
-5.394558e-01
-5.408789e-01
-5.414541e-01
-5.421046e-01
4.845221e+00
4.849489e+00
4.867237e+00
4.896393e+00
4.937988e+00
4.990926e+00
5.045096e+00
5.026633e+00
3.471408e+00
3.685443e+00
4.074435e+00
3.663458e+00
3.387996e+00
3.196207e+00
3.054892e+00
2.938980e+00
2.835583e+00
2.739214e+00
2.647408e+00
2.558805e+00
2.472555e+00
2.388121e+00
2.305220e+00
2.223697e+00
2.143482e+00
2.064556e+00
1.986925e+00
1.910605e+00
1.835612e+00
1.761962e+00
1.689664e+00
1.618725e+00
1.549149e+00
1.480932e+00
1.414074e+00
1.348567e+00
1.284406e+00
1.221581e+00
1.160083e+00
1.099903e+00
1.041031e+00
9.834543e-01
9.271632e-01
8.721459e-01
8.183909e-01
7.658865e-01
7.146206e-01
6.645814e-01
6.157567e-01
5.681343e-01
5.217017e-01
4.764466e-01
4.323566e-01
3.894189e-01
3.476211e-01
3.069505e-01
2.673944e-01
2.289401e-01
1.915750e-01
1.552863e-01
1.200614e-01
8.588778e-02
5.275278e-02
2.064399e-02
-1.045096e-02
-4.054431e-02
-6.964821e-02
-9.777462e-02
-1.249354e-01
-1.511421e-01
-1.764062e-01
-2.007389e-01
-2.241512e-01
-2.466538e-01
-2.682573e-01
-2.889718e-01
-3.088072e-01
-3.277731e-01
-3.458787e-01
-3.631330e-01
-3.795445e-01
-3.951214e-01
-4.098715e-01
-4.238023e-01
-4.369207e-01
-4.492333e-01
-4.607463e-01
-4.714653e-01
-4.813955e-01
-4.905417e-01
-4.989080e-01
-5.064980e-01
-5.133147e-01
-5.193602e-01
-5.246360e-01
-5.291422e-01
-5.328780e-01
-5.358405e-01
-5.380251e-01
-5.394247e-01
-5.399737e-01
-5.406269e-01
4.872150e+00
4.876419e+00
4.906874e+00
4.955540e+00
5.029209e+00
5.138631e+00
5.300333e+00
5.856502e+00
4.659767e+00
3.533320e+00
3.389389e+00
3.388877e+00
3.145863e+00
3.024798e+00
2.935696e+00
2.855375e+00
2.775427e+00
2.695208e+00
2.615084e+00
2.535089e+00
2.455259e+00
2.375642e+00
2.296341e+00
2.217509e+00
2.139313e+00
2.061908e+00
1.985428e+00
1.909981e+00
1.835654e+00
1.762512e+00
1.690602e+00
1.619959e+00
1.550607e+00
1.482562e+00
1.415832e+00
1.350421e+00
1.286330e+00
1.223556e+00
1.162094e+00
1.101937e+00
1.043078e+00
9.855082e-01
9.292177e-01
8.741965e-01
8.204339e-01
7.679190e-01
7.166405e-01
6.665868e-01
6.177461e-01
5.701066e-01
5.236561e-01
4.783823e-01
4.342730e-01
3.913156e-01
3.494978e-01
3.088068e-01
2.692302e-01
2.307553e-01
1.933694e-01
1.570599e-01
1.218142e-01
8.761974e-02
5.446403e-02
2.233463e-02
-8.780793e-03
-3.889447e-02
-6.801849e-02
-9.616480e-02
-1.233452e-01
-1.495713e-01
-1.748544e-01
-1.992059e-01
-2.226366e-01
-2.451573e-01
-2.667783e-01
-2.875099e-01
-3.073620e-01
-3.263440e-01
-3.444652e-01
-3.617346e-01
-3.781606e-01
-3.937514e-01
-4.085147e-01
-4.224580e-01
-4.355882e-01
-4.479118e-01
-4.594348e-01
-4.701630e-01
-4.801014e-01
-4.892546e-01
-4.976266e-01
-5.052207e-01
-5.120397e-01
-5.180855e-01
-5.233590e-01
-5.278603e-01
-5.315880e-01
-5.345394e-01
-5.367102e-01
-5.380948e-01
-5.386281e-01
-5.392839e-01
4.885346e+00
4.889615e+00
4.929040e+00
4.990147e+00
5.082276e+00
5.219180e+00
5.419049e+00
5.610977e+00
5.885516e+00
0.000000e+00
2.713490e+00
2.717524e+00
2.774509e+00
2.798632e+00
2.795980e+00
2.765549e+00
2.714045e+00
2.651920e+00
2.584384e+00
2.513413e+00
2.440013e+00
2.364964e+00
2.288929e+00
2.212461e+00
2.135996e+00
2.059875e+00
1.984357e+00
1.909638e+00
1.835865e+00
1.763145e+00
1.691558e+00
1.621163e+00
1.552001e+00
1.484100e+00
1.417479e+00
1.352150e+00
1.288119e+00
1.225388e+00
1.163957e+00
1.103820e+00
1.044972e+00
9.874076e-01
9.311171e-01
8.760918e-01
8.223219e-01
7.697971e-01
7.185067e-01
6.684395e-01
6.195840e-01
5.719286e-01
5.254614e-01
4.801703e-01
4.360431e-01
3.930675e-01
3.512311e-01
3.105213e-01
2.709257e-01
2.324316e-01
1.950265e-01
1.586977e-01
1.234328e-01
8.921914e-02
5.604429e-02
2.389586e-02
-7.238481e-03
-3.737091e-02
-6.651351e-02
-9.467819e-02
-1.218767e-01
-1.481207e-01
-1.734214e-01
-1.977902e-01
-2.212378e-01
-2.437750e-01
-2.654123e-01
-2.861597e-01
-3.060270e-01
-3.250240e-01
-3.431596e-01
-3.604428e-01
-3.768822e-01
-3.924857e-01
-4.072612e-01
-4.212160e-01
-4.343570e-01
-4.466908e-01
-4.582232e-01
-4.689599e-01
-4.789059e-01
-4.880657e-01
-4.964432e-01
-5.040416e-01
-5.108634e-01
-5.169104e-01
-5.221833e-01
-5.266819e-01
-5.304049e-01
-5.333496e-01
-5.355123e-01
-5.368882e-01
-5.374127e-01
-5.380708e-01
4.883252e+00
4.887522e+00
4.930770e+00
4.995986e+00
5.092813e+00
5.235155e+00
5.442331e+00
5.732934e+00
6.168505e+00
6.164278e+00
0.000000e+00
2.279062e+00
2.283081e+00
2.564553e+00
2.668386e+00
2.686503e+00
2.660053e+00
2.615661e+00
2.560347e+00
2.497418e+00
2.429274e+00
2.357722e+00
2.284078e+00
2.209291e+00
2.134040e+00
2.058815e+00
1.983969e+00
1.909761e+00
1.836379e+00
1.763962e+00
1.692609e+00
1.622395e+00
1.553372e+00
1.485579e+00
1.419039e+00
1.353772e+00
1.289787e+00
1.227089e+00
1.165679e+00
1.105557e+00
1.046718e+00
9.891556e-01
9.328636e-01
8.778335e-01
8.240561e-01
7.715217e-01
7.202199e-01
6.701400e-01
6.212706e-01
5.736005e-01
5.271178e-01
4.818106e-01
4.376669e-01
3.946745e-01
3.528209e-01
3.120938e-01
2.724806e-01
2.339690e-01
1.965462e-01
1.601998e-01
1.249172e-01
9.068587e-02
5.749346e-02
2.532755e-02
-5.824128e-03
-3.597376e-02
-6.513338e-02
-9.331489e-02
-1.205300e-01
-1.467903e-01
-1.721072e-01
-1.964918e-01
-2.199549e-01
-2.425073e-01
-2.641594e-01
-2.849212e-01
-3.048026e-01
-3.238131e-01
-3.419619e-01
-3.592579e-01
-3.757094e-01
-3.913246e-01
-4.061112e-01
-4.200766e-01
-4.332276e-01
-4.455707e-01
-4.571118e-01
-4.678564e-01
-4.778096e-01
-4.869758e-01
-4.953587e-01
-5.029616e-01
-5.097869e-01
-5.158362e-01
-5.211103e-01
-5.256087e-01
-5.293303e-01
-5.322724e-01
-5.344317e-01
-5.358039e-01
-5.363246e-01
-5.369848e-01
4.865970e+00
4.870239e+00
4.911919e+00
4.972973e+00
5.061118e+00
5.187272e+00
5.365962e+00
5.606028e+00
5.960326e+00
5.854907e+00
5.850688e+00
0.000000e+00
2.269028e+00
2.263009e+00
2.546217e+00
2.621007e+00
2.623018e+00
2.595333e+00
2.548855e+00
2.490618e+00
2.425110e+00
2.355152e+00
2.282549e+00
2.208487e+00
2.133769e+00
2.058948e+00
1.984419e+00
1.910461e+00
1.837280e+00
1.765023e+00
1.693799e+00
1.623688e+00
1.554747e+00
1.487017e+00
1.420528e+00
1.355299e+00
1.291341e+00
1.228663e+00
1.167267e+00
1.107153e+00
1.048317e+00
9.907541e-01
9.344587e-01
8.794226e-01
8.256373e-01
7.730932e-01
7.217804e-01
6.716884e-01
6.228060e-01
5.751221e-01
5.286251e-01
4.833032e-01
4.391443e-01
3.961364e-01
3.542671e-01
3.135242e-01
2.738950e-01
2.353673e-01
1.979284e-01
1.615659e-01
1.262672e-01
9.201981e-02
5.881142e-02
2.662962e-02
-4.537844e-03
-3.470311e-02
-6.387821e-02
-9.207502e-02
-1.193052e-01
-1.455804e-01
-1.709119e-01
-1.953108e-01
-2.187881e-01
-2.413542e-01
-2.630197e-01
-2.837947e-01
-3.036888e-01
-3.227117e-01
-3.408724e-01
-3.581799e-01
-3.746425e-01
-3.902683e-01
-4.050651e-01
-4.190401e-01
-4.322001e-01
-4.445517e-01
-4.561008e-01
-4.668529e-01
-4.768129e-01
-4.859852e-01
-4.943737e-01
-5.019815e-01
-5.088110e-01
-5.148639e-01
-5.201409e-01
-5.246416e-01
-5.283649e-01
-5.313083e-01
-5.334685e-01
-5.348412e-01
-5.353622e-01
-5.360244e-01
4.835078e+00
4.839347e+00
4.874956e+00
4.925173e+00
4.994520e+00
5.087406e+00
5.205833e+00
5.343740e+00
5.485989e+00
5.551635e+00
4.723062e+00
3.483364e+00
2.002378e+00
1.349686e+00
2.243300e+00
2.564686e+00
2.618883e+00
2.600361e+00
2.554258e+00
2.494929e+00
2.428374e+00
2.357652e+00
2.284539e+00
2.210155e+00
2.135243e+00
2.060315e+00
1.985734e+00
1.911760e+00
1.838583e+00
1.766342e+00
1.695139e+00
1.625051e+00
1.556132e+00
1.488422e+00
1.421950e+00
1.356733e+00
1.292786e+00
1.230114e+00
1.168722e+00
1.108608e+00
1.049770e+00
9.922038e-01
9.359027e-01
8.808594e-01
8.270654e-01
7.745117e-01
7.231882e-01
6.730846e-01
6.241901e-01
5.764935e-01
5.299833e-01
4.846478e-01
4.404751e-01
3.974531e-01
3.555696e-01
3.148123e-01
2.751687e-01
2.366264e-01
1.991730e-01
1.627959e-01
1.274827e-01
9.322085e-02
5.999805e-02
2.780193e-02
-3.379742e-03
-3.355909e-02
-6.274812e-02
-9.095869e-02
-1.182025e-01
-1.444911e-01
-1.698357e-01
-1.942475e-01
-2.177374e-01
-2.403159e-01
-2.619935e-01
-2.827802e-01
-3.026858e-01
-3.217198e-01
-3.398913e-01
-3.572091e-01
-3.736816e-01
-3.893170e-01
-4.041229e-01
-4.181065e-01
-4.312749e-01
-4.436342e-01
-4.551907e-01
-4.659496e-01
-4.759160e-01
-4.850943e-01
-4.934884e-01
-5.011015e-01
-5.079360e-01
-5.139936e-01
-5.192753e-01
-5.237808e-01
-5.275090e-01
-5.304574e-01
-5.326225e-01
-5.340000e-01
-5.345255e-01
-5.351894e-01
4.793630e+00
4.797898e+00
4.824639e+00
4.859953e+00
4.904677e+00
4.957587e+00
5.012440e+00
5.052382e+00
5.040473e+00
4.890749e+00
4.391323e+00
2.251989e+00
2.663184e+00
2.740730e+00
2.693063e+00
2.703042e+00
2.680296e+00
2.634471e+00
2.575452e+00
2.508924e+00
2.437998e+00
2.364497e+00
2.289568e+00
2.213975e+00
2.138249e+00
2.062771e+00
1.987817e+00
1.913590e+00
1.840242e+00
1.767886e+00
1.696607e+00
1.626469e+00
1.557517e+00
1.489786e+00
1.423299e+00
1.358073e+00
1.294118e+00
1.231440e+00
1.170042e+00
1.109922e+00
1.051078e+00
9.935041e-01
9.371952e-01
8.821434e-01
8.283402e-01
7.757766e-01
7.244428e-01
6.743283e-01
6.254225e-01
5.777142e-01
5.311920e-01
4.858443e-01
4.416591e-01
3.986245e-01
3.567282e-01
3.159580e-01
2.763015e-01
2.377463e-01
2.002798e-01
1.638898e-01
1.285636e-01
9.428887e-02
6.105323e-02
2.884437e-02
-2.349934e-03
-3.254180e-02
-6.174321e-02
-8.996601e-02
-1.172219e-01
-1.435223e-01
-1.688786e-01
-1.933019e-01
-2.168030e-01
-2.393925e-01
-2.610809e-01
-2.818780e-01
-3.017938e-01
-3.208376e-01
-3.390186e-01
-3.563456e-01
-3.728270e-01
-3.884708e-01
-4.032848e-01
-4.172763e-01
-4.304520e-01
-4.428184e-01
-4.543814e-01
-4.651467e-01
-4.751191e-01
-4.843032e-01
-4.927029e-01
-5.003215e-01
-5.071616e-01
-5.132252e-01
-5.185132e-01
-5.230259e-01
-5.267619e-01
-5.297191e-01
-5.318937e-01
-5.332806e-01
-5.338153e-01
-5.344808e-01
4.745468e+00
4.749735e+00
4.766498e+00
4.785780e+00
4.805887e+00
4.822294e+00
4.825278e+00
4.795898e+00
4.699664e+00
4.475069e+00
4.017844e+00
3.121321e+00
3.038074e+00
2.938461e+00
2.863721e+00
2.808434e+00
2.744862e+00
2.675713e+00
2.602910e+00
2.527797e+00
2.451305e+00
2.374091e+00
2.296635e+00
2.219298e+00
2.142356e+00
2.066022e+00
1.990463e+00
1.915808e+00
1.842155e+00
1.769584e+00
1.698152e+00
1.627904e+00
1.558875e+00
1.491088e+00
1.424561e+00
1.359305e+00
1.295329e+00
1.232634e+00
1.171222e+00
1.111091e+00
1.052236e+00
9.946529e-01
9.383346e-01
8.832733e-01
8.294607e-01
7.768874e-01
7.255436e-01
6.754190e-01
6.265028e-01
5.787839e-01
5.322509e-01
4.868922e-01
4.426960e-01
3.996502e-01
3.577426e-01
3.169611e-01
2.772932e-01
2.387265e-01
2.012487e-01
1.648473e-01
1.295097e-01
9.522372e-02
6.197685e-02
2.975684e-02
-1.448532e-03
-3.165135e-02
-6.086359e-02
-8.909709e-02
-1.163635e-01
-1.426743e-01
-1.680409e-01
-1.924742e-01
-2.159851e-01
-2.385842e-01
-2.602819e-01
-2.810881e-01
-3.010128e-01
-3.200652e-01
-3.382545e-01
-3.555896e-01
-3.720787e-01
-3.877300e-01
-4.025511e-01
-4.165494e-01
-4.297316e-01
-4.421042e-01
-4.536733e-01
-4.644443e-01
-4.744223e-01
-4.836118e-01
-4.920170e-01
-4.996413e-01
-5.064875e-01
-5.125579e-01
-5.178537e-01
-5.223755e-01
-5.261225e-01
-5.290925e-01
-5.312816e-01
-5.326836e-01
-5.332342e-01
-5.339010e-01
4.694944e+00
4.699210e+00
4.706466e+00
4.711035e+00
4.709938e+00
4.697532e+00
4.664139e+00
4.594106e+00
4.463914e+00
4.241920e+00
3.896126e+00
3.446375e+00
3.225223e+00
3.073645e+00
2.965098e+00
2.879182e+00
2.795636e+00
2.712334e+00
2.629449e+00
2.547158e+00
2.465546e+00
2.384666e+00
2.304577e+00
2.225340e+00
2.147022e+00
2.069691e+00
1.993406e+00
1.918223e+00
1.844186e+00
1.771334e+00
1.699698e+00
1.629302e+00
1.560165e+00
1.492299e+00
1.425714e+00
1.360416e+00
1.296407e+00
1.233688e+00
1.172257e+00
1.112110e+00
1.053242e+00
9.956475e-01
9.393186e-01
8.842476e-01
8.304254e-01
7.778428e-01
7.264898e-01
6.763559e-01
6.274304e-01
5.797021e-01
5.331596e-01
4.877914e-01
4.435855e-01
4.005300e-01
3.586127e-01
3.178213e-01
2.781436e-01
2.395672e-01
2.020796e-01
1.656683e-01
1.303210e-01
9.602531e-02
6.276880e-02
3.053921e-02
-6.756404e-04
-3.088785e-02
-6.010937e-02
-8.835204e-02
-1.156275e-01
-1.419472e-01
-1.673225e-01
-1.917643e-01
-2.152837e-01
-2.378910e-01
-2.595967e-01
-2.804108e-01
-3.003430e-01
-3.194028e-01
-3.375993e-01
-3.549412e-01
-3.714369e-01
-3.870946e-01
-4.019219e-01
-4.159260e-01
-4.291139e-01
-4.414920e-01
-4.530662e-01
-4.638423e-01
-4.738253e-01
-4.830200e-01
-4.914304e-01
-4.990603e-01
-5.059128e-01
-5.119905e-01
-5.172952e-01
-5.218279e-01
-5.255885e-01
-5.285754e-01
-5.307847e-01
-5.322094e-01
-5.327857e-01
-5.334537e-01
4.646384e+00
4.650648e+00
4.649766e+00
4.642155e+00
4.624497e+00
4.591389e+00
4.534831e+00
4.443763e+00
4.304528e+00
4.103871e+00
3.838952e+00
3.545507e+00
3.326466e+00
3.162008e+00
3.034996e+00
2.930217e+00
2.834085e+00
2.741765e+00
2.652029e+00
2.564454e+00
2.478779e+00
2.394800e+00
2.312362e+00
2.231356e+00
2.151710e+00
2.073386e+00
1.996360e+00
1.920625e+00
1.846178e+00
1.773023e+00
1.701163e+00
1.630601e+00
1.561341e+00
1.493385e+00
1.426733e+00
1.361385e+00
1.297339e+00
1.234591e+00
1.173138e+00
1.112973e+00
1.054091e+00
9.964842e-01
9.401447e-01
8.850640e-01
8.312329e-01
7.786417e-01
7.272804e-01
6.771383e-01
6.282047e-01
5.804683e-01
5.339177e-01
4.885414e-01
4.443273e-01
4.012636e-01
3.593381e-01
3.185386e-01
2.788526e-01
2.402680e-01
2.027722e-01
1.663527e-01
1.309973e-01
9.669352e-02
6.342896e-02
3.119140e-02
-3.135764e-05
-3.025139e-02
-5.948065e-02
-8.773094e-02
-1.150139e-01
-1.413410e-01
-1.667236e-01
-1.911726e-01
-2.146989e-01
-2.373131e-01
-2.590254e-01
-2.798460e-01
-2.997846e-01
-3.188505e-01
-3.370529e-01
-3.544005e-01
-3.709018e-01
-3.865648e-01
-4.013972e-01
-4.154063e-01
-4.285989e-01
-4.409816e-01
-4.525603e-01
-4.633408e-01
-4.733282e-01
-4.825274e-01
-4.909426e-01
-4.985778e-01
-5.054365e-01
-5.115215e-01
-5.168355e-01
-5.213801e-01
-5.251565e-01
-5.281639e-01
-5.303997e-01
-5.318570e-01
-5.324747e-01
-5.331437e-01
4.603476e+00
4.607740e+00
4.600452e+00
4.583531e+00
4.553869e+00
4.506875e+00
4.436559e+00
4.335823e+00
4.197688e+00
4.018280e+00
3.803409e+00
3.577720e+00
3.380853e+00
3.217912e+00
3.083051e+00
2.967528e+00
2.862908e+00
2.764377e+00
2.669904e+00
2.578586e+00
2.489918e+00
2.403554e+00
2.319230e+00
2.236748e+00
2.155959e+00
2.076754e+00
1.999057e+00
1.922812e+00
1.847980e+00
1.774536e+00
1.702459e+00
1.631735e+00
1.562354e+00
1.494308e+00
1.427589e+00
1.362191e+00
1.298107e+00
1.235331e+00
1.173856e+00
1.113674e+00
1.054778e+00
9.971593e-01
9.408099e-01
8.857205e-01
8.318814e-01
7.792828e-01
7.279144e-01
6.777654e-01
6.288250e-01
5.810820e-01
5.345248e-01
4.891418e-01
4.449212e-01
4.018509e-01
3.599187e-01
3.191126e-01
2.794201e-01
2.408288e-01
2.033264e-01
1.669005e-01
1.315385e-01
9.722824e-02
6.395726e-02
3.171331e-02
4.842283e-04
-2.974206e-02
-5.897750e-02
-8.723389e-02
-1.145229e-01
-1.408559e-01
-1.662443e-01
-1.906990e-01
-2.142309e-01
-2.368505e-01
-2.585682e-01
-2.793940e-01
-2.993376e-01
-3.184084e-01
-3.366155e-01
-3.539678e-01
-3.704735e-01
-3.861408e-01
-4.009773e-01
-4.149903e-01
-4.281867e-01
-4.405731e-01
-4.521555e-01
-4.629396e-01
-4.729307e-01
-4.821337e-01
-4.905531e-01
-4.981930e-01
-5.050572e-01
-5.111492e-01
-5.164720e-01
-5.210286e-01
-5.248213e-01
-5.278516e-01
-5.301195e-01
-5.316206e-01
-5.323054e-01
-5.329751e-01
4.569117e+00
4.573380e+00
4.561427e+00
4.537921e+00
4.500154e+00
4.444423e+00
4.366436e+00
4.261914e+00
4.127828e+00
3.964589e+00
3.779320e+00
3.587811e+00
3.409397e+00
3.251816e+00
3.114628e+00
2.993582e+00
2.883587e+00
2.780827e+00
2.683097e+00
2.589205e+00
2.498454e+00
2.410390e+00
2.324685e+00
2.241090e+00
2.159415e+00
2.079513e+00
2.001273e+00
1.924609e+00
1.849457e+00
1.775768e+00
1.703507e+00
1.632644e+00
1.563159e+00
1.495035e+00
1.428258e+00
1.362816e+00
1.298699e+00
1.235897e+00
1.174403e+00
1.114206e+00
1.055297e+00
9.976692e-01
9.413115e-01
8.862149e-01
8.323694e-01
7.797648e-01
7.283908e-01
6.782365e-01
6.292909e-01
5.815427e-01
5.349805e-01
4.895925e-01
4.453668e-01
4.022915e-01
3.603544e-01
3.195433e-01
2.798458e-01
2.412496e-01
2.037423e-01
1.673114e-01
1.319446e-01
9.762940e-02
6.435359e-02
3.210486e-02
8.710413e-04
-2.935993e-02
-5.860001e-02
-8.686097e-02
-1.141545e-01
-1.404919e-01
-1.658846e-01
-1.903436e-01
-2.138797e-01
-2.365034e-01
-2.582251e-01
-2.790548e-01
-2.990021e-01
-3.180766e-01
-3.362873e-01
-3.536430e-01
-3.701520e-01
-3.858225e-01
-4.006621e-01
-4.146781e-01
-4.278774e-01
-4.402666e-01
-4.518518e-01
-4.626387e-01
-4.726326e-01
-4.818386e-01
-4.902613e-01
-4.979050e-01
-5.047738e-01
-5.108716e-01
-5.162020e-01
-5.207691e-01
-5.245767e-01
-5.276294e-01
-5.299311e-01
-5.314838e-01
-5.322704e-01
-5.329407e-01
4.545409e+00
4.549671e+00
4.534620e+00
4.506925e+00
4.464213e+00
4.403464e+00
4.321544e+00
4.215888e+00
4.085562e+00
3.932712e+00
3.763979e+00
3.590341e+00
3.423665e+00
3.270862e+00
3.133555e+00
3.009953e+00
2.896921e+00
2.791549e+00
2.691760e+00
2.596243e+00
2.504178e+00
2.415032e+00
2.328433e+00
2.244105e+00
2.161834e+00
2.081456e+00
2.002839e+00
1.925880e+00
1.850500e+00
1.776637e+00
1.704242e+00
1.633279e+00
1.563718e+00
1.495536e+00
1.428716e+00
1.363242e+00
1.299100e+00
1.236280e+00
1.174771e+00
1.114563e+00
1.055646e+00
9.980109e-01
9.416473e-01
8.865455e-01
8.326954e-01
7.800867e-01
7.287088e-01
6.785508e-01
6.296017e-01
5.818501e-01
5.352844e-01
4.898930e-01
4.456640e-01
4.025854e-01
3.606449e-01
3.198305e-01
2.801297e-01
2.415302e-01
2.040196e-01
1.675854e-01
1.322153e-01
9.789694e-02
6.461791e-02
3.236599e-02
1.129019e-03
-2.910508e-02
-5.834823e-02
-8.661224e-02
-1.139087e-01
-1.402491e-01
-1.656447e-01
-1.901066e-01
-2.136454e-01
-2.362719e-01
-2.579962e-01
-2.788285e-01
-2.987783e-01
-3.178553e-01
-3.360683e-01
-3.534263e-01
-3.699375e-01
-3.856101e-01
-4.004518e-01
-4.144698e-01
-4.276711e-01
-4.400621e-01
-4.516492e-01
-4.624379e-01
-4.724339e-01
-4.816419e-01
-4.900669e-01
-4.977133e-01
-5.045853e-01
-5.106872e-01
-5.160231e-01
-5.205979e-01
-5.244168e-01
-5.274867e-01
-5.298166e-01
-5.314143e-01
-5.323058e-01
-5.329765e-01
4.533734e+00
4.537996e+00
4.521179e+00
4.491361e+00
4.446298e+00
4.383282e+00
4.299738e+00
4.193886e+00
4.065673e+00
3.917824e+00
3.756505e+00
3.590674e+00
3.429558e+00
3.279361e+00
3.142349e+00
3.017774e+00
2.903395e+00
2.796789e+00
2.696009e+00
2.599711e+00
2.507018e+00
2.417354e+00
2.330323e+00
2.245635e+00
2.163070e+00
2.082453e+00
2.003644e+00
1.926535e+00
1.851038e+00
1.777084e+00
1.704620e+00
1.633604e+00
1.564003e+00
1.495791e+00
1.428948e+00
1.363457e+00
1.299303e+00
1.236473e+00
1.174957e+00
1.114743e+00
1.055821e+00
9.981821e-01
9.418154e-01
8.867109e-01
8.328585e-01
7.802478e-01
7.288679e-01
6.787081e-01
6.297572e-01
5.820038e-01
5.354364e-01
4.900434e-01
4.458127e-01
4.027324e-01
3.607903e-01
3.199742e-01
2.802717e-01
2.416706e-01
2.041583e-01
1.677225e-01
1.323508e-01
9.803080e-02
6.475017e-02
3.249666e-02
1.258115e-03
-2.897754e-02
-5.822223e-02
-8.648775e-02
-1.137857e-01
-1.401276e-01
-1.655247e-01
-1.899879e-01
-2.135281e-01
-2.361560e-01
-2.578816e-01
-2.787152e-01
-2.986663e-01
-3.177444e-01
-3.359587e-01
-3.533178e-01
-3.698301e-01
-3.855038e-01
-4.003465e-01
-4.143655e-01
-4.275677e-01
-4.399597e-01
-4.515477e-01
-4.623374e-01
-4.723343e-01
-4.815435e-01
-4.899696e-01
-4.976174e-01
-5.044911e-01
-5.105951e-01
-5.159339e-01
-5.205125e-01
-5.243373e-01
-5.274166e-01
-5.297646e-01
-5.314096e-01
-5.320868e-01
-5.327576e-01