# vtk DataFile Version 3.0
Scalar Field
ASCII
DATASET RECTILINEAR_GRID
DIMENSIONS 102 22 1
X_COORDINATES 102 double
0.000000 0.100000 0.200000 0.300000 0.400000 0.500000 0.600000 0.700000 0.800000 0.900000 1.000000 1.100000 1.200000 1.300000 1.400000 1.500000 1.600000 1.700000 1.800000 1.900000 2.000000 2.100000 2.200000 2.300000 2.400000 2.500000 2.600000 2.700000 2.800000 2.900000 3.000000 3.100000 3.200000 3.300000 3.400000 3.500000 3.600000 3.700000 3.800000 3.900000 4.000000 4.100000 4.200000 4.300000 4.400000 4.500000 4.600000 4.700000 4.800000 4.900000 5.000000 5.100000 5.200000 5.300000 5.400000 5.500000 5.600000 5.700000 5.800000 5.900000 6.000000 6.100000 6.200000 6.300000 6.400000 6.500000 6.600000 6.700000 6.800000 6.900000 7.000000 7.100000 7.200000 7.300000 7.400000 7.500000 7.600000 7.700000 7.800000 7.900000 8.000000 8.100000 8.200000 8.300000 8.400000 8.500000 8.600000 8.700000 8.800000 8.900000 9.000000 9.100000 9.200000 9.300000 9.400000 9.500000 9.600000 9.700000 9.800000 9.900000 10.000000 10.100000 
Y_COORDINATES 22 double
0.000000 0.100000 0.200000 0.300000 0.400000 0.500000 0.600000 0.700000 0.800000 0.900000 1.000000 1.100000 1.200000 1.300000 1.400000 1.500000 1.600000 1.700000 1.800000 1.900000 2.000000 2.100000 
Z_COORDINATES 1 double
0.0
POINT_DATA 2244
SCALARS Pressure double 1
LOOKUP_TABLE default
0.000000e+00
7.557908e+01
7.554914e+01
7.551452e+01
7.547170e+01
7.541701e+01
7.534706e+01
7.526084e+01
7.515878e+01
7.506110e+01
7.498321e+01
7.492926e+01
7.489659e+01
7.488042e+01
7.487632e+01
7.488092e+01
7.489180e+01
7.490718e+01
7.492534e+01
7.494420e+01
7.496092e+01
7.497244e+01
7.497717e+01
7.497650e+01
7.497410e+01
7.497350e+01
7.497645e+01
7.498289e+01
7.499212e+01
7.500383e+01
7.501829e+01
7.503614e+01
7.505803e+01
7.508430e+01
7.511482e+01
7.514889e+01
7.518532e+01
7.522264e+01
7.525922e+01
7.529343e+01
7.532369e+01
7.534894e+01
7.536889e+01
7.538411e+01
7.539576e+01
7.540485e+01
7.541311e+01
7.541966e+01
7.542245e+01
7.541855e+01
7.540489e+01
7.537950e+01
7.534294e+01
7.529880e+01
7.525321e+01
7.521373e+01
7.518730e+01
7.517807e+01
7.518513e+01
7.520561e+01
7.523703e+01
7.527528e+01
7.531470e+01
7.534897e+01
7.537317e+01
7.538620e+01
7.539071e+01
7.539023e+01
7.538711e+01
7.538303e+01
7.537823e+01
7.537224e+01
7.536487e+01
7.535629e+01
7.534690e+01
7.533727e+01
7.532797e+01
7.531958e+01
7.531255e+01
7.530726e+01
7.530394e+01
7.530268e+01
7.530344e+01
7.530604e+01
7.531019e+01
7.531564e+01
7.532209e+01
7.532924e+01
7.533672e+01
7.534413e+01
7.535105e+01
7.535707e+01
7.536188e+01
7.536539e+01
7.536772e+01
7.536921e+01
7.537032e+01
7.537149e+01
7.537309e+01
7.537529e+01
7.537882e+01
0.000000e+00
7.557908e+01
7.557902e+01
7.554908e+01
7.551446e+01
7.547164e+01
7.541696e+01
7.534700e+01
7.526078e+01
7.515872e+01
7.506104e+01
7.498315e+01
7.492920e+01
7.489653e+01
7.488037e+01
7.487626e+01
7.488086e+01
7.489174e+01
7.490712e+01
7.492528e+01
7.494414e+01
7.496087e+01
7.497238e+01
7.497711e+01
7.497644e+01
7.497404e+01
7.497344e+01
7.497639e+01
7.498283e+01
7.499206e+01
7.500377e+01
7.501823e+01
7.503608e+01
7.505797e+01
7.508424e+01
7.511476e+01
7.514883e+01
7.518527e+01
7.522258e+01
7.525916e+01
7.529337e+01
7.532364e+01
7.534888e+01
7.536883e+01
7.538406e+01
7.539570e+01
7.540479e+01
7.541305e+01
7.541960e+01
7.542239e+01
7.541850e+01
7.540483e+01
7.537945e+01
7.534289e+01
7.529874e+01
7.525315e+01
7.521367e+01
7.518724e+01
7.517801e+01
7.518507e+01
7.520556e+01
7.523697e+01
7.527523e+01
7.531465e+01
7.534891e+01
7.537311e+01
7.538614e+01
7.539065e+01
7.539018e+01
7.538706e+01
7.538297e+01
7.537817e+01
7.537218e+01
7.536481e+01
7.535623e+01
7.534684e+01
7.533721e+01
7.532792e+01
7.531952e+01
7.531250e+01
7.530721e+01
7.530388e+01
7.530262e+01
7.530338e+01
7.530598e+01
7.531014e+01
7.531558e+01
7.532203e+01
7.532918e+01
7.533666e+01
7.534407e+01
7.535099e+01
7.535701e+01
7.536183e+01
7.536533e+01
7.536766e+01
7.536915e+01
7.537026e+01
7.537143e+01
7.537303e+01
7.537524e+01
7.537876e+01
7.537882e+01
7.557876e+01
7.557871e+01
7.555023e+01
7.551682e+01
7.547474e+01
7.541982e+01
7.534794e+01
7.525780e+01
7.514619e+01
7.504390e+01
7.496681e+01
7.491592e+01
7.488644e+01
7.487278e+01
7.487033e+01
7.487591e+01
7.488729e+01
7.490289e+01
7.492138e+01
7.494107e+01
7.495927e+01
7.497261e+01
7.497881e+01
7.497877e+01
7.497629e+01
7.497526e+01
7.497783e+01
7.498417e+01
7.499320e+01
7.500445e+01
7.501822e+01
7.503527e+01
7.505633e+01
7.508181e+01
7.511166e+01
7.514518e+01
7.518121e+01
7.521822e+01
7.525459e+01
7.528882e+01
7.531929e+01
7.534487e+01
7.536518e+01
7.538066e+01
7.539236e+01
7.540130e+01
7.540843e+01
7.541312e+01
7.541365e+01
7.540760e+01
7.539274e+01
7.536727e+01
7.533153e+01
7.528927e+01
7.524624e+01
7.520940e+01
7.518514e+01
7.517761e+01
7.518609e+01
7.520718e+01
7.523825e+01
7.527472e+01
7.531071e+01
7.534125e+01
7.536364e+01
7.537717e+01
7.538329e+01
7.538465e+01
7.538321e+01
7.538017e+01
7.537582e+01
7.537000e+01
7.536271e+01
7.535422e+01
7.534496e+01
7.533551e+01
7.532646e+01
7.531833e+01
7.531158e+01
7.530656e+01
7.530348e+01
7.530243e+01
7.530335e+01
7.530614e+01
7.531049e+01
7.531610e+01
7.532273e+01
7.533002e+01
7.533758e+01
7.534495e+01
7.535172e+01
7.535748e+01
7.536198e+01
7.536516e+01
7.536719e+01
7.536843e+01
7.536935e+01
7.537041e+01
7.537202e+01
7.537446e+01
7.537950e+01
7.537956e+01
7.557873e+01
7.557868e+01
7.555324e+01
7.552258e+01
7.548246e+01
7.542758e+01
7.535194e+01
7.525276e+01
7.511816e+01
7.500711e+01
7.493336e+01
7.488964e+01
7.486692e+01
7.485830e+01
7.485907e+01
7.486652e+01
7.487884e+01
7.489476e+01
7.491351e+01
7.493449e+01
7.495557e+01
7.497290e+01
7.498231e+01
7.498348e+01
7.498096e+01
7.497933e+01
7.498121e+01
7.498721e+01
7.499583e+01
7.500617e+01
7.501854e+01
7.503396e+01
7.505331e+01
7.507711e+01
7.510535e+01
7.513747e+01
7.517237e+01
7.520858e+01
7.524446e+01
7.527854e+01
7.530932e+01
7.533562e+01
7.535687e+01
7.537322e+01
7.538549e+01
7.539457e+01
7.540090e+01
7.540358e+01
7.540159e+01
7.539358e+01
7.537758e+01
7.535218e+01
7.531763e+01
7.527792e+01
7.523824e+01
7.520486e+01
7.518359e+01
7.517853e+01
7.518851e+01
7.520950e+01
7.523870e+01
7.527158e+01
7.530302e+01
7.532963e+01
7.535023e+01
7.536399e+01
7.537207e+01
7.537588e+01
7.537672e+01
7.537536e+01
7.537194e+01
7.536663e+01
7.535966e+01
7.535139e+01
7.534232e+01
7.533310e+01
7.532432e+01
7.531651e+01
7.531011e+01
7.530545e+01
7.530271e+01
7.530199e+01
7.530325e+01
7.530645e+01
7.531113e+01
7.531706e+01
7.532396e+01
7.533142e+01
7.533899e+01
7.534613e+01
7.535242e+01
7.535761e+01
7.536151e+01
7.536416e+01
7.536581e+01
7.536677e+01
7.536748e+01
7.536849e+01
7.537023e+01
7.537302e+01
7.537887e+01
7.537893e+01
7.557936e+01
7.557930e+01
7.555861e+01
7.553249e+01
7.549603e+01
7.544192e+01
7.536014e+01
7.524248e+01
7.506343e+01
7.494385e+01
7.488160e+01
7.485154e+01
7.483948e+01
7.483811e+01
7.484327e+01
7.485336e+01
7.486712e+01
7.488365e+01
7.490260e+01
7.492430e+01
7.494893e+01
7.497228e+01
7.498735e+01
7.499057e+01
7.498791e+01
7.498567e+01
7.498694e+01
7.499209e+01
7.500011e+01
7.500912e+01
7.501922e+01
7.503212e+01
7.504888e+01
7.507020e+01
7.509621e+01
7.512642e+01
7.515982e+01
7.519493e+01
7.523011e+01
7.526382e+01
7.529479e+01
7.532191e+01
7.534438e+01
7.536203e+01
7.537533e+01
7.538495e+01
7.539114e+01
7.539226e+01
7.538808e+01
7.537808e+01
7.536124e+01
7.533659e+01
7.530426e+01
7.526816e+01
7.523282e+01
7.520372e+01
7.518605e+01
7.518369e+01
7.519469e+01
7.521481e+01
7.524127e+01
7.527002e+01
7.529688e+01
7.532002e+01
7.533884e+01
7.535247e+01
7.536143e+01
7.536677e+01
7.536946e+01
7.536978e+01
7.536740e+01
7.536270e+01
7.535608e+01
7.534802e+01
7.533914e+01
7.533020e+01
7.532179e+01
7.531441e+01
7.530848e+01
7.530429e+01
7.530203e+01
7.530179e+01
7.530363e+01
7.530734e+01
7.531247e+01
7.531878e+01
7.532587e+01
7.533328e+01
7.534041e+01
7.534677e+01
7.535226e+01
7.535664e+01
7.535987e+01
7.536212e+01
7.536350e+01
7.536427e+01
7.536492e+01
7.536594e+01
7.536781e+01
7.537091e+01
7.537727e+01
7.537733e+01
7.558106e+01
7.558100e+01
7.556685e+01
7.554753e+01
7.551754e+01
7.546666e+01
7.537670e+01
7.522165e+01
7.496392e+01
7.485094e+01
7.481335e+01
7.480348e+01
7.480571e+01
7.481322e+01
7.482367e+01
7.483711e+01
7.485301e+01
7.487072e+01
7.489022e+01
7.491193e+01
7.493711e+01
7.496708e+01
7.499127e+01
7.500010e+01
7.499729e+01
7.499436e+01
7.499581e+01
7.500068e+01
7.500676e+01
7.501435e+01
7.502098e+01
7.503057e+01
7.504397e+01
7.506216e+01
7.508535e+01
7.511314e+01
7.514462e+01
7.517835e+01
7.521267e+01
7.524588e+01
7.527689e+01
7.530484e+01
7.532872e+01
7.534810e+01
7.536306e+01
7.537377e+01
7.538030e+01
7.537969e+01
7.537306e+01
7.536139e+01
7.534453e+01
7.532174e+01
7.529293e+01
7.526163e+01
7.523159e+01
7.520747e+01
7.519376e+01
7.519385e+01
7.520505e+01
7.522352e+01
7.524665e+01
7.527110e+01
7.529356e+01
7.531344e+01
7.533021e+01
7.534313e+01
7.535242e+01
7.535871e+01
7.536263e+01
7.536411e+01
7.536249e+01
7.535825e+01
7.535195e+01
7.534417e+01
7.533559e+01
7.532709e+01
7.531920e+01
7.531241e+01
7.530709e+01
7.530352e+01
7.530187e+01
7.530232e+01
7.530495e+01
7.530920e+01
7.531474e+01
7.532120e+01
7.532809e+01
7.533484e+01
7.534083e+01
7.534616e+01
7.535063e+01
7.535419e+01
7.535693e+01
7.535902e+01
7.536028e+01
7.536105e+01
7.536173e+01
7.536277e+01
7.536477e+01
7.536811e+01
7.537486e+01
7.537492e+01
7.558416e+01
7.558411e+01
7.557822e+01
7.556837e+01
7.554958e+01
7.550924e+01
7.541608e+01
7.519387e+01
7.478909e+01
7.471841e+01
7.473123e+01
7.475010e+01
7.476928e+01
7.478548e+01
7.480135e+01
7.481852e+01
7.483716e+01
7.485664e+01
7.487716e+01
7.489894e+01
7.492329e+01
7.495205e+01
7.498134e+01
7.500496e+01
7.500719e+01
7.500483e+01
7.500789e+01
7.501414e+01
7.501987e+01
7.502355e+01
7.502561e+01
7.503183e+01
7.504133e+01
7.505607e+01
7.507599e+01
7.510083e+01
7.512983e+01
7.516168e+01
7.519469e+01
7.522698e+01
7.525751e+01
7.528608e+01
7.531155e+01
7.533314e+01
7.535016e+01
7.536176e+01
7.536742e+01
7.536409e+01
7.535505e+01
7.534266e+01
7.532727e+01
7.530804e+01
7.528449e+01
7.525931e+01
7.523546e+01
7.521678e+01
7.520702e+01
7.520887e+01
7.521928e+01
7.523526e+01
7.525458e+01
7.527455e+01
7.529270e+01
7.530924e+01
7.532363e+01
7.533531e+01
7.534434e+01
7.535100e+01
7.535558e+01
7.535777e+01
7.535667e+01
7.535285e+01
7.534699e+01
7.533975e+01
7.533178e+01
7.532402e+01
7.531694e+01
7.531097e+01
7.530645e+01
7.530367e+01
7.530284e+01
7.530423e+01
7.530754e+01
7.531219e+01
7.531779e+01
7.532385e+01
7.532981e+01
7.533513e+01
7.533984e+01
7.534395e+01
7.534744e+01
7.535037e+01
7.535289e+01
7.535488e+01
7.535618e+01
7.535705e+01
7.535782e+01
7.535894e+01
7.536106e+01
7.536458e+01
7.537166e+01
7.537172e+01
7.558872e+01
7.558866e+01
7.559213e+01
7.559427e+01
7.559301e+01
7.557903e+01
7.551679e+01
7.526209e+01
7.447694e+01
7.454114e+01
7.465377e+01
7.470498e+01
7.473489e+01
7.475704e+01
7.477714e+01
7.479762e+01
7.481922e+01
7.484107e+01
7.486215e+01
7.488223e+01
7.490126e+01
7.492741e+01
7.495777e+01
7.498293e+01
7.499848e+01
7.500468e+01
7.501575e+01
7.502700e+01
7.503427e+01
7.503761e+01
7.503862e+01
7.504059e+01
7.504642e+01
7.505763e+01
7.507382e+01
7.509484e+01
7.512030e+01
7.514912e+01
7.517971e+01
7.521014e+01
7.523896e+01
7.526710e+01
7.529354e+01
7.531673e+01
7.533472e+01
7.534553e+01
7.534842e+01
7.534228e+01
7.533252e+01
7.532168e+01
7.530995e+01
7.529620e+01
7.527953e+01
7.526149e+01
7.524436e+01
7.523121e+01
7.522500e+01
7.522770e+01
7.523644e+01
7.524923e+01
7.526429e+01
7.527963e+01
7.529347e+01
7.530648e+01
7.531815e+01
7.532812e+01
7.533633e+01
7.534278e+01
7.534748e+01
7.534993e+01
7.534923e+01
7.534601e+01
7.534096e+01
7.533472e+01
7.532789e+01
7.532133e+01
7.531545e+01
7.531061e+01
7.530715e+01
7.530535e+01
7.530556e+01
7.530783e+01
7.531149e+01
7.531605e+01
7.532104e+01
7.532593e+01
7.533026e+01
7.533401e+01
7.533735e+01
7.534030e+01
7.534296e+01
7.534542e+01
7.534775e+01
7.534965e+01
7.535103e+01
7.535207e+01
7.535303e+01
7.535433e+01
7.535661e+01
7.536027e+01
7.536755e+01
7.536761e+01
7.559432e+01
7.559427e+01
7.560683e+01
7.562149e+01
7.564136e+01
7.566926e+01
7.570305e+01
7.580972e+01
7.514339e+01
7.460325e+01
7.466525e+01
7.468849e+01
7.471414e+01
7.473638e+01
7.475646e+01
7.477631e+01
7.479747e+01
7.481893e+01
7.483884e+01
7.485599e+01
7.487034e+01
7.488448e+01
7.490189e+01
7.492008e+01
7.493707e+01
7.495651e+01
7.498319e+01
7.501263e+01
7.503842e+01
7.505213e+01
7.505787e+01
7.505975e+01
7.506338e+01
7.507102e+01
7.508323e+01
7.509932e+01
7.511974e+01
7.514383e+01
7.517024e+01
7.519718e+01
7.522272e+01
7.524771e+01
7.527226e+01
7.529430e+01
7.531068e+01
7.531886e+01
7.531851e+01
7.531274e+01
7.530583e+01
7.529952e+01
7.529375e+01
7.528720e+01
7.527852e+01
7.526815e+01
7.525771e+01
7.524967e+01
7.524630e+01
7.524890e+01
7.525532e+01
7.526443e+01
7.527497e+01
7.528556e+01
7.529507e+01
7.530432e+01
7.531295e+01
7.532074e+01
7.532751e+01
7.533310e+01
7.533736e+01
7.533972e+01
7.533952e+01
7.533733e+01
7.533373e+01
7.532921e+01
7.532423e+01
7.531949e+01
7.531528e+01
7.531193e+01
7.530977e+01
7.530913e+01
7.531032e+01
7.531298e+01
7.531641e+01
7.532016e+01
7.532379e+01
7.532692e+01
7.532945e+01
7.533165e+01
7.533365e+01
7.533556e+01
7.533745e+01
7.533938e+01
7.534134e+01
7.534309e+01
7.534457e+01
7.534589e+01
7.534722e+01
7.534889e+01
7.535143e+01
7.535524e+01
7.536246e+01
7.536252e+01
7.560024e+01
7.560018e+01
7.561971e+01
7.564385e+01
7.567919e+01
7.573619e+01
7.583262e+01
7.596490e+01
7.599857e+01
0.000000e+00
7.470036e+01
7.470030e+01
7.472380e+01
7.474206e+01
7.475635e+01
7.477164e+01
7.478786e+01
7.480349e+01
7.481569e+01
7.482243e+01
7.482402e+01
7.482137e+01
7.481679e+01
7.481273e+01
7.481669e+01
7.484552e+01
7.489810e+01
7.496164e+01
7.502444e+01
7.506770e+01
7.508830e+01
7.509360e+01
7.509420e+01
7.509765e+01
7.510517e+01
7.511532e+01
7.512927e+01
7.514680e+01
7.516682e+01
7.518769e+01
7.520729e+01
7.522521e+01
7.524456e+01
7.526181e+01
7.527307e+01
7.527777e+01
7.527715e+01
7.527651e+01
7.527711e+01
7.527872e+01
7.528077e+01
7.528228e+01
7.528186e+01
7.527896e+01
7.527463e+01
7.527089e+01
7.526945e+01
7.527110e+01
7.527484e+01
7.528003e+01
7.528592e+01
7.529174e+01
7.529692e+01
7.530218e+01
7.530737e+01
7.531237e+01
7.531698e+01
7.532098e+01
7.532424e+01
7.532637e+01
7.532709e+01
7.532669e+01
7.532543e+01
7.532352e+01
7.532124e+01
7.531897e+01
7.531694e+01
7.531544e+01
7.531477e+01
7.531525e+01
7.531694e+01
7.531925e+01
7.532172e+01
7.532399e+01
7.532575e+01
7.532693e+01
7.532772e+01
7.532837e+01
7.532907e+01
7.532991e+01
7.533093e+01
7.533211e+01
7.533345e+01
7.533497e+01
7.533662e+01
7.533841e+01
7.534038e+01
7.534267e+01
7.534564e+01
7.534961e+01
7.535649e+01
7.535655e+01
7.560573e+01
7.560567e+01
7.562877e+01
7.565703e+01
7.569675e+01
7.575559e+01
7.584048e+01
7.594228e+01
7.603212e+01
7.603217e+01
0.000000e+00
7.475665e+01
7.475659e+01
7.477146e+01
7.478224e+01
7.479162e+01
7.479950e+01
7.480404e+01
7.480335e+01
7.479625e+01
7.478188e+01
7.476013e+01
7.473514e+01
7.471546e+01
7.472678e+01
7.477946e+01
7.485700e+01
7.494463e+01
7.502822e+01
7.509554e+01
7.513502e+01
7.514787e+01
7.514412e+01
7.513966e+01
7.514018e+01
7.514356e+01
7.514976e+01
7.515900e+01
7.517033e+01
7.518211e+01
7.519197e+01
7.520111e+01
7.521060e+01
7.521673e+01
7.521957e+01
7.522224e+01
7.522943e+01
7.523972e+01
7.525128e+01
7.526265e+01
7.527312e+01
7.528221e+01
7.528902e+01
7.529288e+01
7.529396e+01
7.529351e+01
7.529304e+01
7.529334e+01
7.529425e+01
7.529549e+01
7.529676e+01
7.529784e+01
7.529863e+01
7.529961e+01
7.530085e+01
7.530232e+01
7.530394e+01
7.530563e+01
7.530738e+01
7.530944e+01
7.531177e+01
7.531416e+01
7.531636e+01
7.531814e+01
7.531940e+01
7.532025e+01
7.532083e+01
7.532139e+01
7.532221e+01
7.532337e+01
7.532484e+01
7.532618e+01
7.532706e+01
7.532732e+01
7.532705e+01
7.532640e+01
7.532551e+01
7.532463e+01
7.532394e+01
7.532352e+01
7.532339e+01
7.532356e+01
7.532402e+01
7.532526e+01
7.532719e+01
7.532968e+01
7.533259e+01
7.533582e+01
7.533940e+01
7.534355e+01
7.534981e+01
7.534987e+01
7.561036e+01
7.561030e+01
7.563351e+01
7.566106e+01
7.569738e+01
7.574770e+01
7.581352e+01
7.587581e+01
7.590779e+01
7.567401e+01
7.567407e+01
0.000000e+00
7.477932e+01
7.480193e+01
7.480631e+01
7.481053e+01
7.481087e+01
7.480631e+01
7.479604e+01
7.478013e+01
7.475564e+01
7.472236e+01
7.468385e+01
7.466221e+01
7.468941e+01
7.476081e+01
7.485682e+01
7.495861e+01
7.505130e+01
7.512892e+01
7.518524e+01
7.521059e+01
7.521266e+01
7.520098e+01
7.519179e+01
7.518619e+01
7.518345e+01
7.518300e+01
7.518358e+01
7.518375e+01
7.518131e+01
7.517706e+01
7.517120e+01
7.516549e+01
7.516211e+01
7.516766e+01
7.518525e+01
7.520833e+01
7.523195e+01
7.525332e+01
7.527154e+01
7.528675e+01
7.529909e+01
7.530805e+01
7.531334e+01
7.531548e+01
7.531540e+01
7.531423e+01
7.531240e+01
7.530996e+01
7.530697e+01
7.530358e+01
7.530002e+01
7.529644e+01
7.529314e+01
7.529036e+01
7.528830e+01
7.528716e+01
7.528707e+01
7.528954e+01
7.529439e+01
7.530068e+01
7.530740e+01
7.531372e+01
7.531903e+01
7.532330e+01
7.532666e+01
7.532927e+01
7.533121e+01
7.533232e+01
7.533283e+01
7.533265e+01
7.533169e+01
7.533007e+01
7.532801e+01
7.532575e+01
7.532330e+01
7.532093e+01
7.531879e+01
7.531700e+01
7.531560e+01
7.531460e+01
7.531407e+01
7.531498e+01
7.531718e+01
7.532039e+01
7.532427e+01
7.532847e+01
7.533263e+01
7.533681e+01
7.534203e+01
7.534209e+01
7.561407e+01
7.561401e+01
7.563457e+01
7.565811e+01
7.568729e+01
7.572241e+01
7.575674e+01
7.576870e+01
7.571332e+01
7.560148e+01
7.520705e+01
7.491425e+01
7.478149e+01
7.482070e+01
7.482530e+01
7.482519e+01
7.481984e+01
7.480988e+01
7.479476e+01
7.477382e+01
7.474221e+01
7.469990e+01
7.465541e+01
7.464697e+01
7.469131e+01
7.477702e+01
7.488274e+01
7.498908e+01
7.507628e+01
7.514976e+01
7.521493e+01
7.525948e+01
7.527444e+01
7.527072e+01
7.525800e+01
7.524380e+01
7.523193e+01
7.522088e+01
7.520872e+01
7.519410e+01
7.517753e+01
7.515771e+01
7.513666e+01
7.511804e+01
7.510763e+01
7.512106e+01
7.515075e+01
7.518666e+01
7.522157e+01
7.525153e+01
7.527559e+01
7.529517e+01
7.531113e+01
7.532340e+01
7.533148e+01
7.533527e+01
7.533521e+01
7.533276e+01
7.532857e+01
7.532297e+01
7.531627e+01
7.530888e+01
7.530131e+01
7.529338e+01
7.528560e+01
7.527849e+01
7.527258e+01
7.526835e+01
7.526613e+01
7.526928e+01
7.527710e+01
7.528784e+01
7.529959e+01
7.531080e+01
7.532015e+01
7.532765e+01
7.533344e+01
7.533763e+01
7.534017e+01
7.534081e+01
7.534025e+01
7.533862e+01
7.533604e+01
7.533273e+01
7.532905e+01
7.532530e+01
7.532136e+01
7.531749e+01
7.531386e+01
7.531062e+01
7.530787e+01
7.530568e+01
7.530413e+01
7.530469e+01
7.530712e+01
7.531100e+01
7.531577e+01
7.532079e+01
7.532531e+01
7.532923e+01
7.533297e+01
7.533303e+01
7.561703e+01
7.561697e+01
7.563320e+01
7.565082e+01
7.566995e+01
7.568792e+01
7.569557e+01
7.567299e+01
7.558383e+01
7.541951e+01
7.515983e+01
7.462134e+01
7.474216e+01
7.480902e+01
7.482928e+01
7.483066e+01
7.482510e+01
7.481442e+01
7.479790e+01
7.477396e+01
7.473696e+01
7.468959e+01
7.465601e+01
7.466653e+01
7.472492e+01
7.481754e+01
7.492496e+01
7.502396e+01
7.510543e+01
7.517059e+01
7.522372e+01
7.527161e+01
7.530529e+01
7.531706e+01
7.531547e+01
7.530014e+01
7.528032e+01
7.525803e+01
7.523299e+01
7.520626e+01
7.517748e+01
7.514366e+01
7.510871e+01
7.507783e+01
7.506751e+01
7.508963e+01
7.513066e+01
7.517742e+01
7.522114e+01
7.525654e+01
7.528436e+01
7.530646e+01
7.532422e+01
7.533807e+01
7.534766e+01
7.535248e+01
7.535245e+01
7.534917e+01
7.534319e+01
7.533502e+01
7.532515e+01
7.531420e+01
7.530295e+01
7.529095e+01
7.527887e+01
7.526752e+01
7.525775e+01
7.525036e+01
7.524622e+01
7.525035e+01
7.526139e+01
7.527678e+01
7.529370e+01
7.530958e+01
7.532260e+01
7.533282e+01
7.534047e+01
7.534570e+01
7.534847e+01
7.534862e+01
7.534716e+01
7.534437e+01
7.534043e+01
7.533568e+01
7.533051e+01
7.532533e+01
7.531994e+01
7.531457e+01
7.530943e+01
7.530472e+01
7.530062e+01
7.529727e+01
7.529477e+01
7.529498e+01
7.529757e+01
7.530197e+01
7.530741e+01
7.531295e+01
7.531750e+01
7.532081e+01
7.532262e+01
7.532268e+01
7.561957e+01
7.561951e+01
7.563038e+01
7.564121e+01
7.565068e+01
7.565495e+01
7.564569e+01
7.560828e+01
7.552052e+01
7.536446e+01
7.515513e+01
7.487212e+01
7.484183e+01
7.484919e+01
7.485102e+01
7.484608e+01
7.483701e+01
7.482395e+01
7.480611e+01
7.478159e+01
7.474421e+01
7.470672e+01
7.469263e+01
7.471765e+01
7.478112e+01
7.487038e+01
7.496761e+01
7.505482e+01
7.512888e+01
7.518961e+01
7.523724e+01
7.527086e+01
7.529568e+01
7.532258e+01
7.533495e+01
7.532784e+01
7.531014e+01
7.528403e+01
7.525182e+01
7.521722e+01
7.517887e+01
7.513417e+01
7.508858e+01
7.504927e+01
7.504565e+01
7.507690e+01
7.512703e+01
7.518130e+01
7.522938e+01
7.526732e+01
7.529669e+01
7.531952e+01
7.533751e+01
7.535153e+01
7.536148e+01
7.536673e+01
7.536706e+01
7.536350e+01
7.535647e+01
7.534648e+01
7.533412e+01
7.532015e+01
7.530559e+01
7.528986e+01
7.527378e+01
7.525842e+01
7.524498e+01
7.523459e+01
7.522917e+01
7.523452e+01
7.524877e+01
7.526857e+01
7.529026e+01
7.531016e+01
7.532616e+01
7.533838e+01
7.534722e+01
7.535300e+01
7.535581e+01
7.535564e+01
7.535357e+01
7.534996e+01
7.534504e+01
7.533914e+01
7.533267e+01
7.532607e+01
7.531929e+01
7.531244e+01
7.530580e+01
7.529963e+01
7.529422e+01
7.528981e+01
7.528653e+01
7.528638e+01
7.528901e+01
7.529369e+01
7.529948e+01
7.530514e+01
7.530934e+01
7.531168e+01
7.531116e+01
7.531122e+01
7.562160e+01
7.562154e+01
7.562703e+01
7.563158e+01
7.563315e+01
7.562796e+01
7.560957e+01
7.556839e+01
7.549195e+01
7.536785e+01
7.520014e+01
7.501138e+01
7.493435e+01
7.490328e+01
7.488452e+01
7.486835e+01
7.485240e+01
7.483543e+01
7.481635e+01
7.479305e+01
7.476421e+01
7.474322e+01
7.474511e+01
7.477866e+01
7.484102e+01
7.492160e+01
7.500490e+01
7.508068e+01
7.514596e+01
7.520020e+01
7.524391e+01
7.527798e+01
7.530428e+01
7.532468e+01
7.533287e+01
7.533039e+01
7.531720e+01
7.529344e+01
7.526106e+01
7.522430e+01
7.518073e+01
7.512947e+01
7.507726e+01
7.503951e+01
7.504473e+01
7.508363e+01
7.513904e+01
7.519624e+01
7.524450e+01
7.528229e+01
7.531120e+01
7.533330e+01
7.535038e+01
7.536355e+01
7.537299e+01
7.537813e+01
7.537894e+01
7.537564e+01
7.536839e+01
7.535751e+01
7.534353e+01
7.532724e+01
7.530982e+01
7.529080e+01
7.527108e+01
7.525206e+01
7.523531e+01
7.522242e+01
7.521643e+01
7.522321e+01
7.524042e+01
7.526399e+01
7.528956e+01
7.531249e+01
7.533061e+01
7.534407e+01
7.535348e+01
7.535937e+01
7.536208e+01
7.536177e+01
7.535940e+01
7.535533e+01
7.534979e+01
7.534308e+01
7.533557e+01
7.532769e+01
7.531961e+01
7.531134e+01
7.530323e+01
7.529564e+01
7.528898e+01
7.528361e+01
7.527975e+01
7.527924e+01
7.528177e+01
7.528646e+01
7.529221e+01
7.529758e+01
7.530104e+01
7.530211e+01
7.529894e+01
7.529900e+01
7.562331e+01
7.562325e+01
7.562394e+01
7.562321e+01
7.561883e+01
7.560748e+01
7.558439e+01
7.554335e+01
7.547721e+01
7.537856e+01
7.524653e+01
7.509988e+01
7.500914e+01
7.495605e+01
7.492052e+01
7.489315e+01
7.486983e+01
7.484852e+01
7.482796e+01
7.480692e+01
7.478759e+01
7.477986e+01
7.479326e+01
7.483173e+01
7.489118e+01
7.496270e+01
7.503508e+01
7.510168e+01
7.515977e+01
7.520878e+01
7.524924e+01
7.528174e+01
7.530598e+01
7.532116e+01
7.532680e+01
7.532420e+01
7.531294e+01
7.529204e+01
7.526218e+01
7.522718e+01
7.518285e+01
7.513071e+01
7.507892e+01
7.505049e+01
7.506344e+01
7.510644e+01
7.516264e+01
7.521796e+01
7.526371e+01
7.529941e+01
7.532646e+01
7.534684e+01
7.536234e+01
7.537414e+01
7.538260e+01
7.538736e+01
7.538841e+01
7.538562e+01
7.537883e+01
7.536801e+01
7.535340e+01
7.533565e+01
7.531594e+01
7.529412e+01
7.527118e+01
7.524889e+01
7.522931e+01
7.521463e+01
7.520882e+01
7.521714e+01
7.523686e+01
7.526331e+01
7.529158e+01
7.531642e+01
7.533576e+01
7.534977e+01
7.535922e+01
7.536490e+01
7.536740e+01
7.536705e+01
7.536459e+01
7.536033e+01
7.535449e+01
7.534731e+01
7.533908e+01
7.533017e+01
7.532091e+01
7.531132e+01
7.530182e+01
7.529288e+01
7.528503e+01
7.527878e+01
7.527450e+01
7.527365e+01
7.527596e+01
7.528043e+01
7.528581e+01
7.529051e+01
7.529296e+01
7.529253e+01
7.528652e+01
7.528658e+01
7.562476e+01
7.562470e+01
7.562146e+01
7.561662e+01
7.560796e+01
7.559265e+01
7.556707e+01
7.552699e+01
7.546793e+01
7.538558e+01
7.527892e+01
7.515963e+01
7.506661e+01
7.500071e+01
7.495307e+01
7.491632e+01
7.488631e+01
7.486082e+01
7.483871e+01
7.481996e+01
7.480801e+01
7.480964e+01
7.483060e+01
7.487176e+01
7.492850e+01
7.499317e+01
7.505794e+01
7.511780e+01
7.517055e+01
7.521570e+01
7.525350e+01
7.528387e+01
7.530605e+01
7.531966e+01
7.532477e+01
7.532191e+01
7.531083e+01
7.529086e+01
7.526225e+01
7.522790e+01
7.518390e+01
7.513411e+01
7.508895e+01
7.507221e+01
7.509161e+01
7.513601e+01
7.519007e+01
7.524122e+01
7.528350e+01
7.531634e+01
7.534099e+01
7.535931e+01
7.537303e+01
7.538332e+01
7.539069e+01
7.539503e+01
7.539621e+01
7.539400e+01
7.538800e+01
7.537786e+01
7.536345e+01
7.534508e+01
7.532374e+01
7.529964e+01
7.527392e+01
7.524876e+01
7.522683e+01
7.521109e+01
7.520611e+01
7.521599e+01
7.523769e+01
7.526609e+01
7.529585e+01
7.532160e+01
7.534142e+01
7.535548e+01
7.536463e+01
7.536988e+01
7.537203e+01
7.537164e+01
7.536918e+01
7.536489e+01
7.535894e+01
7.535153e+01
7.534287e+01
7.533323e+01
7.532299e+01
7.531224e+01
7.530147e+01
7.529125e+01
7.528228e+01
7.527522e+01
7.527061e+01
7.526948e+01
7.527153e+01
7.527563e+01
7.528043e+01
7.528426e+01
7.528554e+01
7.528353e+01
7.527462e+01
7.527467e+01
7.562595e+01
7.562589e+01
7.561969e+01
7.561187e+01
7.560030e+01
7.558249e+01
7.555557e+01
7.551637e+01
7.546179e+01
7.538922e+01
7.529839e+01
7.519691e+01
7.510708e+01
7.503532e+01
7.497946e+01
7.493542e+01
7.489995e+01
7.487095e+01
7.484758e+01
7.483076e+01
7.482404e+01
7.483221e+01
7.485801e+01
7.490037e+01
7.495464e+01
7.501446e+01
7.507404e+01
7.512932e+01
7.517838e+01
7.522070e+01
7.525633e+01
7.528508e+01
7.530634e+01
7.531985e+01
7.532551e+01
7.532331e+01
7.531279e+01
7.529329e+01
7.526473e+01
7.522857e+01
7.518377e+01
7.513625e+01
7.509978e+01
7.509313e+01
7.511785e+01
7.516273e+01
7.521405e+01
7.526147e+01
7.530041e+01
7.533038e+01
7.535265e+01
7.536903e+01
7.538121e+01
7.539040e+01
7.539724e+01
7.540151e+01
7.540291e+01
7.540130e+01
7.539617e+01
7.538698e+01
7.537323e+01
7.535487e+01
7.533247e+01
7.530655e+01
7.527845e+01
7.525075e+01
7.522682e+01
7.521060e+01
7.520683e+01
7.521816e+01
7.524135e+01
7.527093e+01
7.530128e+01
7.532730e+01
7.534721e+01
7.536111e+01
7.536988e+01
7.537462e+01
7.537633e+01
7.537580e+01
7.537328e+01
7.536895e+01
7.536297e+01
7.535546e+01
7.534656e+01
7.533645e+01
7.532543e+01
7.531374e+01
7.530186e+01
7.529050e+01
7.528049e+01
7.527268e+01
7.526780e+01
7.526648e+01
7.526829e+01
7.527204e+01
7.527624e+01
7.527918e+01
7.527934e+01
7.527583e+01
7.526410e+01
7.526416e+01
7.562681e+01
7.562675e+01
7.561860e+01
7.560885e+01
7.559548e+01
7.557623e+01
7.554864e+01
7.551012e+01
7.545825e+01
7.539126e+01
7.530944e+01
7.521843e+01
7.513216e+01
7.505820e+01
7.499775e+01
7.494905e+01
7.490979e+01
7.487831e+01
7.485418e+01
7.483889e+01
7.483551e+01
7.484734e+01
7.487558e+01
7.491831e+01
7.497092e+01
7.502781e+01
7.508416e+01
7.513653e+01
7.518324e+01
7.522377e+01
7.525803e+01
7.528585e+01
7.530678e+01
7.532058e+01
7.532702e+01
7.532574e+01
7.531608e+01
7.529719e+01
7.526835e+01
7.522979e+01
7.518304e+01
7.513689e+01
7.510751e+01
7.510773e+01
7.513618e+01
7.518151e+01
7.523071e+01
7.527542e+01
7.531200e+01
7.534003e+01
7.536068e+01
7.537570e+01
7.538675e+01
7.539511e+01
7.540156e+01
7.540589e+01
7.540788e+01
7.540717e+01
7.540311e+01
7.539488e+01
7.538191e+01
7.536386e+01
7.534086e+01
7.531352e+01
7.528339e+01
7.525341e+01
7.522769e+01
7.521118e+01
7.520855e+01
7.522105e+01
7.524529e+01
7.527556e+01
7.530609e+01
7.533226e+01
7.535227e+01
7.536601e+01
7.537433e+01
7.537853e+01
7.537977e+01
7.537901e+01
7.537642e+01
7.537208e+01
7.536614e+01
7.535865e+01
7.534969e+01
7.533933e+01
7.532776e+01
7.531533e+01
7.530256e+01
7.529025e+01
7.527934e+01
7.527089e+01
7.526580e+01
7.526436e+01
7.526604e+01
7.526958e+01
7.527334e+01
7.527561e+01
7.527493e+01
7.527023e+01
7.525607e+01
7.525613e+01
7.562727e+01
7.562721e+01
7.561809e+01
7.560742e+01
7.559322e+01
7.557337e+01
7.554560e+01
7.550756e+01
7.545711e+01
7.539283e+01
7.531519e+01
7.522898e+01
7.514471e+01
7.506995e+01
7.500737e+01
7.495632e+01
7.491509e+01
7.488230e+01
7.485783e+01
7.484330e+01
7.484142e+01
7.485475e+01
7.488384e+01
7.492647e+01
7.497816e+01
7.503361e+01
7.508847e+01
7.513953e+01
7.518520e+01
7.522489e+01
7.525845e+01
7.528576e+01
7.530662e+01
7.532078e+01
7.532789e+01
7.532741e+01
7.531860e+01
7.530041e+01
7.527158e+01
7.523127e+01
7.518268e+01
7.513739e+01
7.511199e+01
7.511568e+01
7.514539e+01
7.519007e+01
7.523785e+01
7.528127e+01
7.531690e+01
7.534424e+01
7.536437e+01
7.537893e+01
7.538957e+01
7.539756e+01
7.540367e+01
7.540800e+01
7.541042e+01
7.541041e+01
7.540720e+01
7.539990e+01
7.538776e+01
7.537022e+01
7.534710e+01
7.531883e+01
7.528705e+01
7.525501e+01
7.522764e+01
7.521064e+01
7.520843e+01
7.522155e+01
7.524652e+01
7.527737e+01
7.530802e+01
7.533429e+01
7.535439e+01
7.536818e+01
7.537650e+01
7.538062e+01
7.538175e+01
7.538078e+01
7.537805e+01
7.537373e+01
7.536788e+01
7.536050e+01
7.535160e+01
7.534121e+01
7.532943e+01
7.531662e+01
7.530334e+01
7.529041e+01
7.527893e+01
7.527009e+01
7.526482e+01
7.526329e+01
7.526490e+01
7.526832e+01
7.527181e+01
7.527365e+01
7.527242e+01
7.526689e+01
7.525090e+01
7.525096e+01
0.000000e+00
7.562727e+01
7.561815e+01
7.560748e+01
7.559328e+01
7.557343e+01
7.554565e+01
7.550762e+01
7.545717e+01
7.539288e+01
7.531525e+01
7.522904e+01
7.514476e+01
7.507001e+01
7.500743e+01
7.495638e+01
7.491515e+01
7.488235e+01
7.485789e+01
7.484335e+01
7.484148e+01
7.485480e+01
7.488389e+01
7.492653e+01
7.497822e+01
7.503367e+01
7.508852e+01
7.513959e+01
7.518526e+01
7.522495e+01
7.525851e+01
7.528581e+01
7.530667e+01
7.532084e+01
7.532794e+01
7.532747e+01
7.531866e+01
7.530047e+01
7.527163e+01
7.523132e+01
7.518274e+01
7.513745e+01
7.511205e+01
7.511574e+01
7.514544e+01
7.519013e+01
7.523791e+01
7.528133e+01
7.531696e+01
7.534430e+01
7.536443e+01
7.537899e+01
7.538962e+01
7.539762e+01
7.540373e+01
7.540806e+01
7.541047e+01
7.541047e+01
7.540726e+01
7.539996e+01
7.538782e+01