# vtk DataFile Version 3.0
Scalar Field
ASCII
DATASET RECTILINEAR_GRID
DIMENSIONS 102 22 1
X_COORDINATES 102 double
0.000000 0.100000 0.200000 0.300000 0.400000 0.500000 0.600000 0.700000 0.800000 0.900000 1.000000 1.100000 1.200000 1.300000 1.400000 1.500000 1.600000 1.700000 1.800000 1.900000 2.000000 2.100000 2.200000 2.300000 2.400000 2.500000 2.600000 2.700000 2.800000 2.900000 3.000000 3.100000 3.200000 3.300000 3.400000 3.500000 3.600000 3.700000 3.800000 3.900000 4.000000 4.100000 4.200000 4.300000 4.400000 4.500000 4.600000 4.700000 4.800000 4.900000 5.000000 5.100000 5.200000 5.300000 5.400000 5.500000 5.600000 5.700000 5.800000 5.900000 6.000000 6.100000 6.200000 6.300000 6.400000 6.500000 6.600000 6.700000 6.800000 6.900000 7.000000 7.100000 7.200000 7.300000 7.400000 7.500000 7.600000 7.700000 7.800000 7.900000 8.000000 8.100000 8.200000 8.300000 8.400000 8.500000 8.600000 8.700000 8.800000 8.900000 9.000000 9.100000 9.200000 9.300000 9.400000 9.500000 9.600000 9.700000 9.800000 9.900000 10.000000 10.100000 
Y_COORDINATES 22 double
0.000000 0.100000 0.200000 0.300000 0.400000 0.500000 0.600000 0.700000 0.800000 0.900000 1.000000 1.100000 1.200000 1.300000 1.400000 1.500000 1.600000 1.700000 1.800000 1.900000 2.000000 2.100000 
Z_COORDINATES 1 double
0.0
POINT_DATA 2244
SCALARS Pressure double 1
LOOKUP_TABLE default
0.000000e+00
5.544549e+01
5.541463e+01
5.538001e+01
5.533774e+01
5.528362e+01
5.521335e+01
5.512471e+01
5.501526e+01
5.490428e+01
5.480743e+01
5.473029e+01
5.467248e+01
5.463183e+01
5.460593e+01
5.459233e+01
5.458874e+01
5.459327e+01
5.460444e+01
5.462115e+01
5.464262e+01
5.466828e+01
5.469771e+01
5.473055e+01
5.476644e+01
5.480506e+01
5.484602e+01
5.488878e+01
5.493244e+01
5.497590e+01
5.501798e+01
5.505724e+01
5.509197e+01
5.511602e+01
5.511910e+01
5.509225e+01
5.503470e+01
5.495811e+01
5.488233e+01
5.482649e+01
5.479890e+01
5.479534e+01
5.480909e+01
5.483418e+01
5.486605e+01
5.490120e+01
5.493683e+01
5.497045e+01
5.499976e+01
5.502305e+01
5.503971e+01
5.505038e+01
5.505661e+01
5.506015e+01
5.506235e+01
5.506429e+01
5.506669e+01
5.506916e+01
5.507095e+01
5.507103e+01
5.506819e+01
5.506118e+01
5.504910e+01
5.503166e+01
5.500945e+01
5.498377e+01
5.495648e+01
5.492979e+01
5.490597e+01
5.488706e+01
5.487448e+01
5.486880e+01
5.486959e+01
5.487503e+01
5.488467e+01
5.489799e+01
5.491415e+01
5.493189e+01
5.494948e+01
5.496502e+01
5.497699e+01
5.498474e+01
5.498882e+01
5.499034e+01
5.499046e+01
5.499002e+01
5.498953e+01
5.498920e+01
5.498909e+01
5.498917e+01
5.498939e+01
5.498970e+01
5.499006e+01
5.499043e+01
5.499079e+01
5.499110e+01
5.499133e+01
5.499146e+01
5.499144e+01
5.499121e+01
5.499094e+01
0.000000e+00
5.544549e+01
5.544534e+01
5.541448e+01
5.537986e+01
5.533759e+01
5.528347e+01
5.521320e+01
5.512456e+01
5.501511e+01
5.490413e+01
5.480728e+01
5.473014e+01
5.467233e+01
5.463168e+01
5.460578e+01
5.459218e+01
5.458859e+01
5.459312e+01
5.460429e+01
5.462100e+01
5.464247e+01
5.466813e+01
5.469756e+01
5.473040e+01
5.476629e+01
5.480491e+01
5.484587e+01
5.488863e+01
5.493229e+01
5.497575e+01
5.501783e+01
5.505709e+01
5.509182e+01
5.511587e+01
5.511895e+01
5.509210e+01
5.503455e+01
5.495796e+01
5.488218e+01
5.482634e+01
5.479875e+01
5.479519e+01
5.480894e+01
5.483403e+01
5.486590e+01
5.490105e+01
5.493668e+01
5.497030e+01
5.499961e+01
5.502290e+01
5.503956e+01
5.505023e+01
5.505646e+01
5.506000e+01
5.506220e+01
5.506414e+01
5.506654e+01
5.506901e+01
5.507080e+01
5.507088e+01
5.506804e+01
5.506103e+01
5.504895e+01
5.503151e+01
5.500930e+01
5.498362e+01
5.495633e+01
5.492964e+01
5.490582e+01
5.488691e+01
5.487433e+01
5.486865e+01
5.486944e+01
5.487488e+01
5.488452e+01
5.489783e+01
5.491400e+01
5.493174e+01
5.494933e+01
5.496487e+01
5.497684e+01
5.498459e+01
5.498867e+01
5.499019e+01
5.499031e+01
5.498987e+01
5.498938e+01
5.498905e+01
5.498894e+01
5.498902e+01
5.498924e+01
5.498955e+01
5.498991e+01
5.499028e+01
5.499064e+01
5.499095e+01
5.499118e+01
5.499131e+01
5.499129e+01
5.499106e+01
5.499079e+01
5.499094e+01
5.544392e+01
5.544377e+01
5.541442e+01
5.538105e+01
5.533952e+01
5.528518e+01
5.521302e+01
5.512058e+01
5.500170e+01
5.488673e+01
5.479135e+01
5.471758e+01
5.466282e+01
5.462434e+01
5.459996e+01
5.458746e+01
5.458463e+01
5.458966e+01
5.460113e+01
5.461796e+01
5.463940e+01
5.466491e+01
5.469411e+01
5.472669e+01
5.476232e+01
5.480065e+01
5.484124e+01
5.488361e+01
5.492685e+01
5.496979e+01
5.501127e+01
5.505010e+01
5.508394e+01
5.510682e+01
5.511048e+01
5.508595e+01
5.503092e+01
5.495740e+01
5.488311e+01
5.482540e+01
5.479554e+01
5.479015e+01
5.480258e+01
5.482700e+01
5.485861e+01
5.489371e+01
5.492931e+01
5.496303e+01
5.499272e+01
5.501663e+01
5.503411e+01
5.504565e+01
5.505262e+01
5.505668e+01
5.505925e+01
5.506122e+01
5.506317e+01
5.506495e+01
5.506591e+01
5.506515e+01
5.506172e+01
5.505452e+01
5.504258e+01
5.502549e+01
5.500385e+01
5.497902e+01
5.495278e+01
5.492721e+01
5.490447e+01
5.488646e+01
5.487449e+01
5.486920e+01
5.487073e+01
5.487665e+01
5.488664e+01
5.490010e+01
5.491598e+01
5.493274e+01
5.494856e+01
5.496200e+01
5.497238e+01
5.497949e+01
5.498372e+01
5.498586e+01
5.498680e+01
5.498720e+01
5.498742e+01
5.498767e+01
5.498799e+01
5.498839e+01
5.498884e+01
5.498931e+01
5.498978e+01
5.499023e+01
5.499065e+01
5.499101e+01
5.499130e+01
5.499148e+01
5.499151e+01
5.499131e+01
5.499066e+01
5.499081e+01
5.544140e+01
5.544125e+01
5.541506e+01
5.538452e+01
5.534504e+01
5.529084e+01
5.521512e+01
5.511393e+01
5.497267e+01
5.485077e+01
5.476005e+01
5.469373e+01
5.464500e+01
5.461052e+01
5.458891e+01
5.457849e+01
5.457702e+01
5.458294e+01
5.459492e+01
5.461191e+01
5.463319e+01
5.465830e+01
5.468694e+01
5.471887e+01
5.475384e+01
5.479150e+01
5.483138e+01
5.487298e+01
5.491546e+01
5.495766e+01
5.499826e+01
5.503636e+01
5.507180e+01
5.509818e+01
5.510577e+01
5.508492e+01
5.502939e+01
5.495469e+01
5.487978e+01
5.482084e+01
5.478787e+01
5.478115e+01
5.479198e+01
5.481489e+01
5.484537e+01
5.487972e+01
5.491483e+01
5.494825e+01
5.497819e+01
5.500316e+01
5.502230e+01
5.503570e+01
5.504438e+01
5.504972e+01
5.505304e+01
5.505529e+01
5.505703e+01
5.505814e+01
5.505822e+01
5.505679e+01
5.505293e+01
5.504566e+01
5.503410e+01
5.501774e+01
5.499702e+01
5.497349e+01
5.494876e+01
5.492480e+01
5.490358e+01
5.488684e+01
5.487584e+01
5.487132e+01
5.487374e+01
5.488023e+01
5.489034e+01
5.490336e+01
5.491806e+01
5.493289e+01
5.494632e+01
5.495750e+01
5.496635e+01
5.497274e+01
5.497710e+01
5.498004e+01
5.498201e+01
5.498342e+01
5.498455e+01
5.498553e+01
5.498643e+01
5.498727e+01
5.498806e+01
5.498878e+01
5.498945e+01
5.499005e+01
5.499058e+01
5.499105e+01
5.499144e+01
5.499173e+01
5.499186e+01
5.499173e+01
5.499071e+01
5.499086e+01
5.543837e+01
5.543822e+01
5.541695e+01
5.539109e+01
5.535540e+01
5.530215e+01
5.522057e+01
5.510115e+01
5.491775e+01
5.479174e+01
5.471438e+01
5.466060e+01
5.462036e+01
5.459100e+01
5.457285e+01
5.456532e+01
5.456575e+01
5.457297e+01
5.458574e+01
5.460299e+01
5.462405e+01
5.464854e+01
5.467630e+01
5.470723e+01
5.474118e+01
5.477786e+01
5.481678e+01
5.485735e+01
5.489892e+01
5.494061e+01
5.498114e+01
5.501980e+01
5.505740e+01
5.508968e+01
5.510144e+01
5.508413e+01
5.503266e+01
5.495486e+01
5.487738e+01
5.481647e+01
5.478135e+01
5.477274e+01
5.478261e+01
5.480327e+01
5.483145e+01
5.486393e+01
5.489778e+01
5.493045e+01
5.496007e+01
5.498562e+01
5.500618e+01
5.502158e+01
5.503231e+01
5.503936e+01
5.504382e+01
5.504658e+01
5.504828e+01
5.504894e+01
5.504838e+01
5.504631e+01
5.504215e+01
5.503510e+01
5.502436e+01
5.500939e+01
5.499030e+01
5.496873e+01
5.494616e+01
5.492433e+01
5.490507e+01
5.488997e+01
5.488025e+01
5.487673e+01
5.487991e+01
5.488672e+01
5.489652e+01
5.490849e+01
5.492143e+01
5.493398e+01
5.494497e+01
5.495429e+01
5.496187e+01
5.496770e+01
5.497207e+01
5.497539e+01
5.497796e+01
5.498006e+01
5.498183e+01
5.498339e+01
5.498477e+01
5.498599e+01
5.498708e+01
5.498805e+01
5.498890e+01
5.498965e+01
5.499032e+01
5.499092e+01
5.499144e+01
5.499188e+01
5.499220e+01
5.499229e+01
5.499148e+01
5.499163e+01
5.543541e+01
5.543526e+01
5.542075e+01
5.540182e+01
5.537276e+01
5.532298e+01
5.523369e+01
5.507777e+01
5.482188e+01
5.470757e+01
5.465675e+01
5.462124e+01
5.459133e+01
5.456719e+01
5.455209e+01
5.454797e+01
5.455074e+01
5.455976e+01
5.457369e+01
5.459140e+01
5.461222e+01
5.463589e+01
5.466244e+01
5.469196e+01
5.472448e+01
5.475985e+01
5.479766e+01
5.483721e+01
5.487808e+01
5.492032e+01
5.496314e+01
5.500449e+01
5.504245e+01
5.507487e+01
5.508819e+01
5.506866e+01
5.502372e+01
5.495592e+01
5.488288e+01
5.482263e+01
5.478513e+01
5.477306e+01
5.478108e+01
5.479874e+01
5.482346e+01
5.485274e+01
5.488401e+01
5.491483e+01
5.494307e+01
5.496835e+01
5.498955e+01
5.500612e+01
5.501825e+01
5.502667e+01
5.503220e+01
5.503555e+01
5.503724e+01
5.503770e+01
5.503650e+01
5.503385e+01
5.502959e+01
5.502318e+01
5.501386e+01
5.500099e+01
5.498440e+01
5.496553e+01
5.494573e+01
5.492658e+01
5.490970e+01
5.489656e+01
5.488834e+01
5.488582e+01
5.488930e+01
5.489587e+01
5.490476e+01
5.491514e+01
5.492594e+01
5.493614e+01
5.494495e+01
5.495270e+01
5.495920e+01
5.496450e+01
5.496878e+01
5.497229e+01
5.497521e+01
5.497770e+01
5.497986e+01
5.498175e+01
5.498340e+01
5.498486e+01
5.498614e+01
5.498725e+01
5.498823e+01
5.498909e+01
5.498987e+01
5.499058e+01
5.499125e+01
5.499188e+01
5.499248e+01
5.499297e+01
5.499302e+01
5.499317e+01
5.543299e+01
5.543284e+01
5.542681e+01
5.541750e+01
5.539979e+01
5.536087e+01
5.526911e+01
5.504845e+01
5.465451e+01
5.459402e+01
5.459588e+01
5.458420e+01
5.456459e+01
5.454365e+01
5.452837e+01
5.452668e+01
5.453218e+01
5.454375e+01
5.455953e+01
5.457809e+01
5.459875e+01
5.462142e+01
5.464639e+01
5.467402e+01
5.470460e+01
5.473823e+01
5.477469e+01
5.481328e+01
5.485337e+01
5.489631e+01
5.494333e+01
5.499098e+01
5.503003e+01
5.505671e+01
5.505671e+01
5.502893e+01
5.499072e+01
5.494546e+01
5.489202e+01
5.484175e+01
5.480495e+01
5.478831e+01
5.479112e+01
5.480527e+01
5.482551e+01
5.485034e+01
5.487768e+01
5.490529e+01
5.493097e+01
5.495443e+01
5.497499e+01
5.499175e+01
5.500456e+01
5.501380e+01
5.501995e+01
5.502347e+01
5.502483e+01
5.502453e+01
5.502251e+01
5.501931e+01
5.501521e+01
5.500991e+01
5.500269e+01
5.499275e+01
5.497961e+01
5.496423e+01
5.494784e+01
5.493180e+01
5.491761e+01
5.490659e+01
5.489985e+01
5.489800e+01
5.490107e+01
5.490673e+01
5.491411e+01
5.492248e+01
5.493102e+01
5.493899e+01
5.494601e+01
5.495237e+01
5.495795e+01
5.496274e+01
5.496685e+01
5.497038e+01
5.497345e+01
5.497612e+01
5.497846e+01
5.498051e+01
5.498230e+01
5.498385e+01
5.498521e+01
5.498639e+01
5.498743e+01
5.498835e+01
5.498920e+01
5.499001e+01
5.499082e+01
5.499167e+01
5.499261e+01
5.499365e+01
5.499502e+01
5.499517e+01
5.543135e+01
5.543120e+01
5.543472e+01
5.543747e+01
5.543736e+01
5.542503e+01
5.536478e+01
5.511352e+01
5.435103e+01
5.444436e+01
5.455148e+01
5.456300e+01
5.455182e+01
5.453143e+01
5.451017e+01
5.450300e+01
5.451075e+01
5.452666e+01
5.454562e+01
5.456578e+01
5.458648e+01
5.460795e+01
5.463085e+01
5.465585e+01
5.468361e+01
5.471456e+01
5.474883e+01
5.478596e+01
5.482488e+01
5.486412e+01
5.490207e+01
5.494240e+01
5.498911e+01
5.500831e+01
5.499601e+01
5.497288e+01
5.494927e+01
5.492666e+01
5.489919e+01
5.486657e+01
5.483647e+01
5.481778e+01
5.481444e+01
5.482331e+01
5.483807e+01
5.485749e+01
5.487981e+01
5.490301e+01
5.492503e+01
5.494516e+01
5.496359e+01
5.497924e+01
5.499168e+01
5.500088e+01
5.500693e+01
5.501007e+01
5.501071e+01
5.500948e+01
5.500661e+01
5.500301e+01
5.499935e+01
5.499562e+01
5.499113e+01
5.498487e+01
5.497600e+01
5.496483e+01
5.495233e+01
5.493970e+01
5.492825e+01
5.491925e+01
5.491363e+01
5.491189e+01
5.491393e+01
5.491811e+01
5.492359e+01
5.492981e+01
5.493618e+01
5.494222e+01
5.494772e+01
5.495291e+01
5.495768e+01
5.496200e+01
5.496587e+01
5.496932e+01
5.497237e+01
5.497507e+01
5.497744e+01
5.497950e+01
5.498130e+01
5.498285e+01
5.498420e+01
5.498538e+01
5.498643e+01
5.498738e+01
5.498827e+01
5.498916e+01
5.499010e+01
5.499116e+01
5.499245e+01
5.499410e+01
5.499696e+01
5.499711e+01
5.543028e+01
5.543013e+01
5.544286e+01
5.545811e+01
5.547900e+01
5.550836e+01
5.554382e+01
5.564939e+01
5.500036e+01
5.452211e+01
5.459956e+01
5.456663e+01
5.455459e+01
5.453792e+01
5.450903e+01
5.449477e+01
5.449874e+01
5.451618e+01
5.453999e+01
5.456251e+01
5.458332e+01
5.460320e+01
5.462320e+01
5.464425e+01
5.466714e+01
5.469242e+01
5.471999e+01
5.474899e+01
5.477822e+01
5.480695e+01
5.484019e+01
5.488566e+01
5.491814e+01
5.492758e+01
5.492711e+01
5.492205e+01
5.491655e+01
5.491251e+01
5.490676e+01
5.489323e+01
5.487341e+01
5.485610e+01
5.484782e+01
5.485060e+01
5.485952e+01
5.487294e+01
5.488947e+01
5.490731e+01
5.492465e+01
5.494035e+01
5.495530e+01
5.496851e+01
5.497932e+01
5.498734e+01
5.499238e+01
5.499460e+01
5.499444e+01
5.499255e+01
5.498924e+01
5.498574e+01
5.498291e+01
5.498107e+01
5.497968e+01
5.497760e+01
5.497358e+01
5.496715e+01
5.495884e+01
5.494964e+01
5.494076e+01
5.493338e+01
5.492837e+01
5.492617e+01
5.492677e+01
5.492917e+01
5.493264e+01
5.493678e+01
5.494121e+01
5.494563e+01
5.494985e+01
5.495401e+01
5.495806e+01
5.496190e+01
5.496546e+01
5.496872e+01
5.497164e+01
5.497423e+01
5.497652e+01
5.497850e+01
5.498023e+01
5.498171e+01
5.498300e+01
5.498415e+01
5.498517e+01
5.498612e+01
5.498704e+01
5.498798e+01
5.498902e+01
5.499026e+01
5.499184e+01
5.499399e+01
5.499822e+01
5.499837e+01
5.542924e+01
5.542909e+01
5.544881e+01
5.547338e+01
5.550933e+01
5.556705e+01
5.566345e+01
5.579742e+01
5.582031e+01
0.000000e+00
5.455249e+01
5.455234e+01
5.453476e+01
5.453084e+01
5.451284e+01
5.450155e+01
5.450476e+01
5.452150e+01
5.454681e+01
5.457243e+01
5.459441e+01
5.461336e+01
5.463084e+01
5.464777e+01
5.466492e+01
5.468287e+01
5.470139e+01
5.471986e+01
5.473790e+01
5.475639e+01
5.478019e+01
5.480405e+01
5.482638e+01
5.484763e+01
5.486756e+01
5.488347e+01
5.489607e+01
5.490738e+01
5.491724e+01
5.491963e+01
5.491187e+01
5.489829e+01
5.488770e+01
5.488468e+01
5.488761e+01
5.489478e+01
5.490501e+01
5.491679e+01
5.492859e+01
5.493914e+01
5.494942e+01
5.495878e+01
5.496649e+01
5.497200e+01
5.497513e+01
5.497611e+01
5.497541e+01
5.497355e+01
5.497091e+01
5.496865e+01
5.496766e+01
5.496815e+01
5.496981e+01
5.497170e+01
5.497244e+01
5.497088e+01
5.496678e+01
5.496084e+01
5.495420e+01
5.494799e+01
5.494310e+01
5.494008e+01
5.493911e+01
5.493964e+01
5.494115e+01
5.494338e+01
5.494609e+01
5.494907e+01
5.495216e+01
5.495536e+01
5.495868e+01
5.496199e+01
5.496518e+01
5.496816e+01
5.497088e+01
5.497330e+01
5.497544e+01
5.497732e+01
5.497893e+01
5.498031e+01
5.498150e+01
5.498257e+01
5.498356e+01
5.498449e+01
5.498541e+01
5.498638e+01
5.498751e+01
5.498888e+01
5.499065e+01
5.499312e+01
5.499809e+01
5.499824e+01
5.542766e+01
5.542751e+01
5.545078e+01
5.547922e+01
5.551905e+01
5.557792e+01
5.566197e+01
5.576213e+01
5.584289e+01
5.584304e+01
0.000000e+00
5.454021e+01
5.454006e+01
5.452713e+01
5.451908e+01
5.451679e+01
5.452757e+01
5.454879e+01
5.457473e+01
5.460055e+01
5.462371e+01
5.464350e+01
5.466063e+01
5.467538e+01
5.468820e+01
5.469978e+01
5.470922e+01
5.471544e+01
5.471869e+01
5.471912e+01
5.471954e+01
5.472396e+01
5.474394e+01
5.478248e+01
5.482385e+01
5.485992e+01
5.488856e+01
5.491176e+01
5.493162e+01
5.494529e+01
5.494819e+01
5.494102e+01
5.492994e+01
5.492259e+01
5.491999e+01
5.492105e+01
5.492483e+01
5.493012e+01
5.493568e+01
5.494045e+01
5.494489e+01
5.494892e+01
5.495191e+01
5.495354e+01
5.495393e+01
5.495351e+01
5.495269e+01
5.495190e+01
5.495184e+01
5.495278e+01
5.495484e+01
5.495818e+01
5.496276e+01
5.496799e+01
5.497271e+01
5.497541e+01
5.497525e+01
5.497239e+01
5.496767e+01
5.496231e+01
5.495735e+01
5.495343e+01
5.495091e+01
5.494960e+01
5.494926e+01
5.494972e+01
5.495079e+01
5.495234e+01
5.495424e+01
5.495648e+01
5.495904e+01
5.496179e+01
5.496457e+01
5.496727e+01
5.496978e+01
5.497203e+01
5.497402e+01
5.497577e+01
5.497731e+01
5.497863e+01
5.497973e+01
5.498075e+01
5.498171e+01
5.498266e+01
5.498363e+01
5.498469e+01
5.498591e+01
5.498736e+01
5.498919e+01
5.499165e+01
5.499622e+01
5.499637e+01
5.542530e+01
5.542515e+01
5.544849e+01
5.547598e+01
5.551191e+01
5.556081e+01
5.562484e+01
5.568609e+01
5.571057e+01
5.547847e+01
5.547862e+01
0.000000e+00
5.453132e+01
5.452228e+01
5.451237e+01
5.451922e+01
5.454629e+01
5.458545e+01
5.462226e+01
5.465133e+01
5.467541e+01
5.469569e+01
5.471323e+01
5.472652e+01
5.473524e+01
5.473731e+01
5.473287e+01
5.472411e+01
5.471120e+01
5.468909e+01
5.466271e+01
5.465188e+01
5.468414e+01
5.474020e+01
5.480011e+01
5.485246e+01
5.489280e+01
5.492351e+01
5.494882e+01
5.496930e+01
5.498075e+01
5.498050e+01
5.497195e+01
5.496184e+01
5.495469e+01
5.495022e+01
5.494779e+01
5.494645e+01
5.494523e+01
5.494332e+01
5.494089e+01
5.493806e+01
5.493463e+01
5.493095e+01
5.492772e+01
5.492567e+01
5.492538e+01
5.492797e+01
5.493278e+01
5.493881e+01
5.494534e+01
5.495216e+01
5.495940e+01
5.496702e+01
5.497436e+01
5.498004e+01
5.498292e+01
5.498265e+01
5.497981e+01
5.497545e+01
5.497053e+01
5.496585e+01
5.496194e+01
5.495898e+01
5.495688e+01
5.495558e+01
5.495498e+01
5.495500e+01
5.495560e+01
5.495679e+01
5.495854e+01
5.496073e+01
5.496314e+01
5.496570e+01
5.496822e+01
5.497043e+01
5.497235e+01
5.497406e+01
5.497550e+01
5.497675e+01
5.497787e+01
5.497893e+01
5.497997e+01
5.498103e+01
5.498213e+01
5.498328e+01
5.498455e+01
5.498599e+01
5.498765e+01
5.498969e+01
5.499295e+01
5.499310e+01
5.542226e+01
5.542211e+01
5.544278e+01
5.546593e+01
5.549417e+01
5.552805e+01
5.556063e+01
5.556990e+01
5.550876e+01
5.539278e+01
5.498711e+01
5.466796e+01
5.447196e+01
5.450123e+01
5.450240e+01
5.452122e+01
5.456149e+01
5.461654e+01
5.466210e+01
5.469373e+01
5.471965e+01
5.474302e+01
5.476152e+01
5.477290e+01
5.477561e+01
5.476891e+01
5.475410e+01
5.473478e+01
5.470635e+01
5.466405e+01
5.461668e+01
5.460991e+01
5.465428e+01
5.472409e+01
5.479695e+01
5.485893e+01
5.490539e+01
5.494027e+01
5.496780e+01
5.499085e+01
5.500788e+01
5.501456e+01
5.501062e+01
5.500067e+01
5.499041e+01
5.498141e+01
5.497338e+01
5.496552e+01
5.495710e+01
5.494768e+01
5.493737e+01
5.492655e+01
5.491593e+01
5.490654e+01
5.489947e+01
5.489546e+01
5.489646e+01
5.490391e+01
5.491512e+01
5.492760e+01
5.493966e+01
5.495040e+01
5.496002e+01
5.496898e+01
5.497731e+01
5.498429e+01
5.498879e+01
5.499012e+01
5.498858e+01
5.498511e+01
5.498055e+01
5.497551e+01
5.497083e+01
5.496662e+01
5.496302e+01
5.496011e+01
5.495791e+01
5.495645e+01
5.495572e+01
5.495584e+01
5.495681e+01
5.495865e+01
5.496079e+01
5.496338e+01
5.496590e+01
5.496822e+01
5.497028e+01
5.497210e+01
5.497370e+01
5.497512e+01
5.497641e+01
5.497763e+01
5.497880e+01
5.497997e+01
5.498115e+01
5.498233e+01
5.498353e+01
5.498478e+01
5.498607e+01
5.498743e+01
5.498895e+01
5.498910e+01
5.541885e+01
5.541870e+01
5.543494e+01
5.545212e+01
5.547029e+01
5.548677e+01
5.549230e+01
5.546666e+01
5.537318e+01
5.519982e+01
5.492658e+01
5.434851e+01
5.444239e+01
5.450795e+01
5.452777e+01
5.454977e+01
5.459143e+01
5.464556e+01
5.468679e+01
5.471574e+01
5.474609e+01
5.477720e+01
5.479979e+01
5.480813e+01
5.480501e+01
5.479088e+01
5.476854e+01
5.474145e+01
5.470011e+01
5.464086e+01
5.459115e+01
5.459881e+01
5.465448e+01
5.473253e+01
5.481117e+01
5.487505e+01
5.492344e+01
5.495977e+01
5.498756e+01
5.501005e+01
5.502861e+01
5.504055e+01
5.504263e+01
5.503587e+01
5.502550e+01
5.501356e+01
5.500049e+01
5.498611e+01
5.497032e+01
5.495357e+01
5.493568e+01
5.491708e+01
5.489917e+01
5.488362e+01
5.487196e+01
5.486522e+01
5.486891e+01
5.488228e+01
5.490067e+01
5.492013e+01
5.493763e+01
5.495201e+01
5.496378e+01
5.497353e+01
5.498167e+01
5.498816e+01
5.499241e+01
5.499377e+01
5.499258e+01
5.498986e+01
5.498610e+01
5.498158e+01
5.497665e+01
5.497166e+01
5.496693e+01
5.496274e+01
5.495923e+01
5.495639e+01
5.495429e+01
5.495328e+01
5.495328e+01
5.495479e+01
5.495719e+01
5.496014e+01
5.496321e+01
5.496607e+01
5.496859e+01
5.497076e+01
5.497262e+01
5.497425e+01
5.497571e+01
5.497705e+01
5.497831e+01
5.497951e+01
5.498065e+01
5.498174e+01
5.498277e+01
5.498370e+01
5.498450e+01
5.498506e+01
5.498484e+01
5.498499e+01
5.541552e+01
5.541537e+01
5.542636e+01
5.543673e+01
5.544510e+01
5.544766e+01
5.543600e+01
5.539543e+01
5.530378e+01
5.514164e+01
5.492127e+01
5.461750e+01
5.457122e+01
5.457601e+01
5.458240e+01
5.459588e+01
5.462457e+01
5.466505e+01
5.469958e+01
5.473115e+01
5.476126e+01
5.478770e+01
5.480563e+01
5.481060e+01
5.480503e+01
5.479063e+01
5.476867e+01
5.474106e+01
5.469365e+01
5.462957e+01
5.459705e+01
5.461896e+01
5.468133e+01
5.476056e+01
5.483636e+01
5.489714e+01
5.494391e+01
5.497936e+01
5.500638e+01
5.502741e+01
5.504427e+01
5.505701e+01
5.506291e+01
5.506103e+01
5.505333e+01
5.504085e+01
5.502464e+01
5.500535e+01
5.498370e+01
5.496091e+01
5.493630e+01
5.491055e+01
5.488567e+01
5.486387e+01
5.484712e+01
5.483828e+01
5.484605e+01
5.486575e+01
5.489110e+01
5.491690e+01
5.493857e+01
5.495580e+01
5.496927e+01
5.497963e+01
5.498722e+01
5.499200e+01
5.499383e+01
5.499335e+01
5.499193e+01
5.499001e+01
5.498739e+01
5.498377e+01
5.497920e+01
5.497403e+01
5.496870e+01
5.496368e+01
5.495907e+01
5.495483e+01
5.495103e+01
5.494866e+01
5.494852e+01
5.495046e+01
5.495371e+01
5.495755e+01
5.496139e+01
5.496488e+01
5.496791e+01
5.497040e+01
5.497247e+01
5.497423e+01
5.497576e+01
5.497712e+01
5.497835e+01
5.497948e+01
5.498051e+01
5.498142e+01
5.498219e+01
5.498276e+01
5.498304e+01
5.498286e+01
5.498115e+01
5.498130e+01
5.541245e+01
5.541230e+01
5.541794e+01
5.542198e+01
5.542235e+01
5.541529e+01
5.539435e+01
5.534999e+01
5.526996e+01
5.514184e+01
5.496751e+01
5.476816e+01
5.468359e+01
5.465281e+01
5.464228e+01
5.464520e+01
5.466156e+01
5.468824e+01
5.471571e+01
5.474140e+01
5.476503e+01
5.478418e+01
5.479565e+01
5.479818e+01
5.479251e+01
5.477992e+01
5.476261e+01
5.473790e+01
5.469411e+01
5.464588e+01
5.463278e+01
5.466349e+01
5.472515e+01
5.479847e+01
5.486608e+01
5.492127e+01
5.496438e+01
5.499746e+01
5.502288e+01
5.504264e+01
5.505804e+01
5.506916e+01
5.507536e+01
5.507651e+01
5.507176e+01
5.506092e+01
5.504427e+01
5.502258e+01
5.499708e+01
5.496967e+01
5.493953e+01
5.490760e+01
5.487645e+01
5.484887e+01
5.482730e+01
5.481906e+01
5.483099e+01
5.485642e+01
5.488758e+01
5.491768e+01
5.494199e+01
5.496078e+01
5.497489e+01
5.498511e+01
5.499194e+01
5.499569e+01
5.499665e+01
5.499577e+01
5.499388e+01
5.499118e+01
5.498763e+01
5.498328e+01
5.497845e+01
5.497337e+01
5.496802e+01
5.496264e+01
5.495729e+01
5.495202e+01
5.494683e+01
5.494435e+01
5.494480e+01
5.494758e+01
5.495174e+01
5.495642e+01
5.496100e+01
5.496501e+01
5.496831e+01
5.497097e+01
5.497312e+01
5.497489e+01
5.497638e+01
5.497766e+01
5.497879e+01
5.497977e+01
5.498062e+01
5.498130e+01
5.498178e+01
5.498200e+01
5.498181e+01
5.498103e+01
5.497825e+01
5.497840e+01
5.540980e+01
5.540965e+01
5.541051e+01
5.540925e+01
5.540360e+01
5.539028e+01
5.536456e+01
5.532036e+01
5.525076e+01
5.514880e+01
5.501307e+01
5.486186e+01
5.476890e+01
5.471995e+01
5.469586e+01
5.468852e+01
5.469457e+01
5.471020e+01
5.472945e+01
5.474872e+01
5.476622e+01
5.477964e+01
5.478697e+01
5.478739e+01
5.478133e+01
5.477007e+01
5.475516e+01
5.473273e+01
5.469903e+01
5.467220e+01
5.467489e+01
5.471088e+01
5.476908e+01
5.483435e+01
5.489398e+01
5.494351e+01
5.498274e+01
5.501319e+01
5.503678e+01
5.505511e+01
5.506908e+01
5.507867e+01
5.508436e+01
5.508594e+01
5.508284e+01
5.507400e+01
5.505872e+01
5.503704e+01
5.500995e+01
5.497955e+01
5.494531e+01
5.490844e+01
5.487212e+01
5.483989e+01
5.481519e+01
5.480938e+01
5.482532e+01
5.485511e+01
5.489007e+01
5.492208e+01
5.494748e+01
5.496665e+01
5.498057e+01
5.499018e+01
5.499625e+01
5.499936e+01
5.500000e+01
5.499892e+01
5.499661e+01
5.499321e+01
5.498881e+01
5.498362e+01
5.497803e+01
5.497236e+01
5.496643e+01
5.496041e+01
5.495436e+01
5.494836e+01
5.494330e+01
5.494148e+01
5.494280e+01
5.494647e+01
5.495145e+01
5.495684e+01
5.496189e+01
5.496614e+01
5.496958e+01
5.497229e+01
5.497441e+01
5.497609e+01
5.497745e+01
5.497858e+01
5.497952e+01
5.498029e+01
5.498091e+01
5.498133e+01
5.498153e+01
5.498141e+01
5.498086e+01
5.497968e+01
5.497636e+01
5.497651e+01
5.540770e+01
5.540755e+01
5.540450e+01
5.539911e+01
5.538915e+01
5.537182e+01
5.534359e+01
5.530037e+01
5.523798e+01
5.515265e+01
5.504373e+01
5.492369e+01
5.483270e+01
5.477373e+01
5.473942e+01
5.472352e+01
5.472138e+01
5.472874e+01
5.474104e+01
5.475470e+01
5.476733e+01
5.477675e+01
5.478133e+01
5.478031e+01
5.477386e+01
5.476294e+01
5.474825e+01
5.472815e+01
5.470520e+01
5.469467e+01
5.470897e+01
5.474854e+01
5.480380e+01
5.486280e+01
5.491668e+01
5.496182e+01
5.499789e+01
5.502606e+01
5.504795e+01
5.506492e+01
5.507778e+01
5.508666e+01
5.509183e+01
5.509348e+01
5.509112e+01
5.508367e+01
5.507000e+01
5.504944e+01
5.502225e+01
5.499011e+01
5.495299e+01
5.491240e+01
5.487214e+01
5.483679e+01
5.481154e+01
5.480914e+01
5.482837e+01
5.486077e+01
5.489725e+01
5.492935e+01
5.495459e+01
5.497329e+01
5.498644e+01
5.499518e+01
5.500044e+01
5.500300e+01
5.500342e+01
5.500220e+01
5.499962e+01
5.499581e+01
5.499090e+01
5.498507e+01
5.497865e+01
5.497202e+01
5.496507e+01
5.495801e+01
5.495111e+01
5.494483e+01
5.494053e+01
5.493971e+01
5.494207e+01
5.494665e+01
5.495236e+01
5.495827e+01
5.496356e+01
5.496795e+01
5.497145e+01
5.497414e+01
5.497617e+01
5.497770e+01
5.497886e+01
5.497976e+01
5.498045e+01
5.498096e+01
5.498131e+01
5.498147e+01
5.498138e+01
5.498100e+01
5.498019e+01
5.497882e+01
5.497553e+01
5.497568e+01
5.540619e+01
5.540604e+01
5.540005e+01
5.539168e+01
5.537878e+01
5.535893e+01
5.532936e+01
5.528708e+01
5.522930e+01
5.515402e+01
5.506172e+01
5.496135e+01
5.487611e+01
5.481370e+01
5.477300e+01
5.475039e+01
5.474180e+01
5.474308e+01
5.475014e+01
5.475951e+01
5.476857e+01
5.477519e+01
5.477786e+01
5.477577e+01
5.476888e+01
5.475774e+01
5.474284e+01
5.472516e+01
5.471067e+01
5.471098e+01
5.473337e+01
5.477543e+01
5.482854e+01
5.488331e+01
5.493327e+01
5.497532e+01
5.500908e+01
5.503556e+01
5.505620e+01
5.507224e+01
5.508442e+01
5.509310e+01
5.509848e+01
5.510066e+01
5.509913e+01
5.509285e+01
5.508058e+01
5.506127e+01
5.503452e+01
5.500115e+01
5.496163e+01
5.491787e+01
5.487436e+01
5.483720e+01
5.481393e+01
5.481483e+01
5.483654e+01
5.487021e+01
5.490660e+01
5.493796e+01
5.496244e+01
5.498030e+01
5.499249e+01
5.500023e+01
5.500463e+01
5.500656e+01
5.500670e+01
5.500527e+01
5.500248e+01
5.499845e+01
5.499327e+01
5.498705e+01
5.497996e+01
5.497229e+01
5.496412e+01
5.495582e+01
5.494801e+01
5.494171e+01
5.493832e+01
5.493859e+01
5.494202e+01
5.494748e+01
5.495381e+01
5.496006e+01
5.496556e+01
5.497004e+01
5.497352e+01
5.497611e+01
5.497798e+01
5.497931e+01
5.498025e+01
5.498090e+01
5.498133e+01
5.498160e+01
5.498169e+01
5.498161e+01
5.498129e+01
5.498069e+01
5.497973e+01
5.497833e+01
5.497560e+01
5.497575e+01
5.540523e+01
5.540508e+01
5.539714e+01
5.538685e+01
5.537214e+01
5.535084e+01
5.532061e+01
5.527905e+01
5.522409e+01
5.515459e+01
5.507176e+01
5.498271e+01
5.490236e+01
5.483922e+01
5.479515e+01
5.476838e+01
5.475558e+01
5.475288e+01
5.475642e+01
5.476290e+01
5.476960e+01
5.477441e+01
5.477584e+01
5.477305e+01
5.476576e+01
5.475420e+01
5.473917e+01
5.472369e+01
5.471520e+01
5.472244e+01
5.474924e+01
5.479230e+01
5.484398e+01
5.489628e+01
5.494387e+01
5.498402e+01
5.501633e+01
5.504167e+01
5.506140e+01
5.507675e+01
5.508867e+01
5.509763e+01
5.510369e+01
5.510678e+01
5.510629e+01
5.510121e+01
5.509025e+01
5.507215e+01
5.504604e+01
5.501181e+01
5.497008e+01
5.492316e+01
5.487645e+01
5.483803e+01
5.481752e+01
5.482114e+01
5.484469e+01
5.487908e+01
5.491493e+01
5.494571e+01
5.496946e+01
5.498631e+01
5.499747e+01
5.500427e+01
5.500790e+01
5.500928e+01
5.500912e+01
5.500752e+01
5.500462e+01
5.500054e+01
5.499530e+01
5.498892e+01
5.498140e+01
5.497282e+01
5.496348e+01
5.495397e+01
5.494536e+01
5.493917e+01
5.493655e+01
5.493777e+01
5.494214e+01
5.494839e+01
5.495523e+01
5.496168e+01
5.496727e+01
5.497178e+01
5.497522e+01
5.497773e+01
5.497949e+01
5.498066e+01
5.498141e+01
5.498186e+01
5.498209e+01
5.498215e+01
5.498204e+01
5.498175e+01
5.498126e+01
5.498051e+01
5.497946e+01
5.497809e+01
5.497618e+01
5.497634e+01
5.540478e+01
5.540463e+01
5.539572e+01
5.538450e+01
5.536895e+01
5.534704e+01
5.531662e+01
5.527555e+01
5.522204e+01
5.515532e+01
5.507685e+01
5.499291e+01
5.491510e+01
5.485186e+01
5.480628e+01
5.477751e+01
5.476261e+01
5.475789e+01
5.475964e+01
5.476461e+01
5.477010e+01
5.477400e+01
5.477484e+01
5.477172e+01
5.476423e+01
5.475240e+01
5.473748e+01
5.472355e+01
5.471808e+01
5.472822e+01
5.475654e+01
5.479961e+01
5.485036e+01
5.490144e+01
5.494801e+01
5.498746e+01
5.501930e+01
5.504430e+01
5.506373e+01
5.507883e+01
5.509060e+01
5.509964e+01
5.510617e+01
5.511001e+01
5.511048e+01
5.510651e+01
5.509674e+01
5.507978e+01
5.505447e+01
5.502002e+01
5.497655e+01
5.492670e+01
5.487686e+01
5.483714e+01
5.481792e+01
5.482323e+01
5.484833e+01
5.488332e+01
5.491884e+01
5.494930e+01
5.497269e+01
5.498918e+01
5.499994e+01
5.500637e+01
5.500968e+01
5.501083e+01
5.501040e+01
5.500864e+01
5.500569e+01
5.500162e+01
5.499642e+01
5.499004e+01
5.498236e+01
5.497330e+01
5.496330e+01
5.495314e+01
5.494422e+01
5.493815e+01
5.493595e+01
5.493768e+01
5.494246e+01
5.494898e+01
5.495594e+01
5.496243e+01
5.496805e+01
5.497259e+01
5.497605e+01
5.497855e+01
5.498027e+01
5.498139e+01
5.498206e+01
5.498241e+01
5.498253e+01
5.498247e+01
5.498225e+01
5.498186e+01
5.498127e+01
5.498044e+01
5.497935e+01
5.497798e+01
5.497629e+01
5.497644e+01
0.000000e+00
5.540478e+01
5.539587e+01
5.538465e+01
5.536910e+01
5.534719e+01
5.531677e+01
5.527570e+01
5.522219e+01
5.515547e+01
5.507700e+01
5.499306e+01
5.491525e+01
5.485201e+01
5.480644e+01
5.477766e+01
5.476276e+01
5.475804e+01
5.475979e+01
5.476476e+01
5.477025e+01
5.477415e+01
5.477499e+01
5.477187e+01
5.476438e+01
5.475255e+01
5.473763e+01
5.472370e+01
5.471823e+01
5.472837e+01
5.475669e+01
5.479976e+01
5.485051e+01
5.490159e+01
5.494816e+01
5.498761e+01
5.501945e+01
5.504445e+01
5.506388e+01
5.507898e+01
5.509075e+01
5.509979e+01
5.510632e+01
5.511016e+01
5.511063e+01
5.510666e+01
5.509689e+01
5.507993e+01
5.505462e+01
5.502017e+01
5.497670e+01
5.492685e+01
5.487701e+01
5.483729e+01
5.481807e+01
5.482338e+01
5.484848e+01
5.488347e+01
5.491899e+01
5.494945e+01
5.497284e+01