# vtk DataFile Version 3.0
Scalar Field
ASCII
DATASET RECTILINEAR_GRID
DIMENSIONS 102 22 1
X_COORDINATES 102 double
0.000000 0.100000 0.200000 0.300000 0.400000 0.500000 0.600000 0.700000 0.800000 0.900000 1.000000 1.100000 1.200000 1.300000 1.400000 1.500000 1.600000 1.700000 1.800000 1.900000 2.000000 2.100000 2.200000 2.300000 2.400000 2.500000 2.600000 2.700000 2.800000 2.900000 3.000000 3.100000 3.200000 3.300000 3.400000 3.500000 3.600000 3.700000 3.800000 3.900000 4.000000 4.100000 4.200000 4.300000 4.400000 4.500000 4.600000 4.700000 4.800000 4.900000 5.000000 5.100000 5.200000 5.300000 5.400000 5.500000 5.600000 5.700000 5.800000 5.900000 6.000000 6.100000 6.200000 6.300000 6.400000 6.500000 6.600000 6.700000 6.800000 6.900000 7.000000 7.100000 7.200000 7.300000 7.400000 7.500000 7.600000 7.700000 7.800000 7.900000 8.000000 8.100000 8.200000 8.300000 8.400000 8.500000 8.600000 8.700000 8.800000 8.900000 9.000000 9.100000 9.200000 9.300000 9.400000 9.500000 9.600000 9.700000 9.800000 9.900000 10.000000 10.100000 
Y_COORDINATES 22 double
0.000000 0.100000 0.200000 0.300000 0.400000 0.500000 0.600000 0.700000 0.800000 0.900000 1.000000 1.100000 1.200000 1.300000 1.400000 1.500000 1.600000 1.700000 1.800000 1.900000 2.000000 2.100000 
Z_COORDINATES 1 double
0.0
POINT_DATA 2244
SCALARS Pressure double 1
LOOKUP_TABLE default
0.000000e+00
5.565913e+01
5.563135e+01
5.560011e+01
5.556184e+01
5.551254e+01
5.544810e+01
5.536629e+01
5.526458e+01
5.516029e+01
5.506719e+01
5.498969e+01
5.492695e+01
5.487709e+01
5.483898e+01
5.481232e+01
5.479670e+01
5.479107e+01
5.479397e+01
5.480390e+01
5.481955e+01
5.483994e+01
5.486439e+01
5.489249e+01
5.492395e+01
5.495844e+01
5.499556e+01
5.503475e+01
5.507537e+01
5.511663e+01
5.515760e+01
5.519712e+01
5.523424e+01
5.526850e+01
5.529974e+01
5.532829e+01
5.535089e+01
5.536025e+01
5.534670e+01
5.530255e+01
5.522963e+01
5.514282e+01
5.506477e+01
5.501508e+01
5.499824e+01
5.500613e+01
5.503094e+01
5.506563e+01
5.510442e+01
5.514310e+01
5.517849e+01
5.520812e+01
5.523054e+01
5.524560e+01
5.525447e+01
5.525903e+01
5.526116e+01
5.526218e+01
5.526300e+01
5.526434e+01
5.526586e+01
5.526697e+01
5.526685e+01
5.526459e+01
5.525916e+01
5.524981e+01
5.523617e+01
5.521846e+01
5.519753e+01
5.517461e+01
5.515126e+01
5.512921e+01
5.511014e+01
5.509547e+01
5.508614e+01
5.508246e+01
5.508389e+01
5.508917e+01
5.509800e+01
5.510997e+01
5.512445e+01
5.514037e+01
5.515626e+01
5.517043e+01
5.518148e+01
5.518868e+01
5.519241e+01
5.519366e+01
5.519352e+01
5.519282e+01
5.519207e+01
5.519149e+01
5.519115e+01
5.519100e+01
5.519096e+01
5.519095e+01
5.519089e+01
5.519068e+01
5.519029e+01
5.518967e+01
5.518894e+01
0.000000e+00
5.565913e+01
5.565930e+01
5.563152e+01
5.560028e+01
5.556201e+01
5.551271e+01
5.544827e+01
5.536646e+01
5.526475e+01
5.516046e+01
5.506736e+01
5.498986e+01
5.492712e+01
5.487726e+01
5.483915e+01
5.481248e+01
5.479687e+01
5.479124e+01
5.479414e+01
5.480407e+01
5.481972e+01
5.484010e+01
5.486455e+01
5.489266e+01
5.492411e+01
5.495861e+01
5.499573e+01
5.503492e+01
5.507553e+01
5.511680e+01
5.515777e+01
5.519728e+01
5.523441e+01
5.526867e+01
5.529991e+01
5.532846e+01
5.535106e+01
5.536042e+01
5.534687e+01
5.530271e+01
5.522980e+01
5.514299e+01
5.506494e+01
5.501525e+01
5.499840e+01
5.500630e+01
5.503111e+01
5.506580e+01
5.510459e+01
5.514326e+01
5.517866e+01
5.520829e+01
5.523070e+01
5.524577e+01
5.525464e+01
5.525920e+01
5.526133e+01
5.526235e+01
5.526317e+01
5.526451e+01
5.526603e+01
5.526713e+01
5.526702e+01
5.526475e+01
5.525933e+01
5.524998e+01
5.523633e+01
5.521863e+01
5.519770e+01
5.517478e+01
5.515143e+01
5.512938e+01
5.511031e+01
5.509564e+01
5.508631e+01
5.508262e+01
5.508406e+01
5.508934e+01
5.509816e+01
5.511014e+01
5.512461e+01
5.514054e+01
5.515643e+01
5.517060e+01
5.518164e+01
5.518884e+01
5.519258e+01
5.519383e+01
5.519369e+01
5.519299e+01
5.519223e+01
5.519166e+01
5.519132e+01
5.519117e+01
5.519113e+01
5.519112e+01
5.519106e+01
5.519085e+01
5.519046e+01
5.518984e+01
5.518911e+01
5.518894e+01
5.565760e+01
5.565777e+01
5.563145e+01
5.560143e+01
5.556390e+01
5.551439e+01
5.544810e+01
5.536252e+01
5.525177e+01
5.514366e+01
5.505207e+01
5.497804e+01
5.491850e+01
5.487082e+01
5.483387e+01
5.480778e+01
5.479269e+01
5.478756e+01
5.479089e+01
5.480118e+01
5.481706e+01
5.483752e+01
5.486188e+01
5.488977e+01
5.492094e+01
5.495513e+01
5.499197e+01
5.503094e+01
5.507132e+01
5.511234e+01
5.515312e+01
5.519237e+01
5.522904e+01
5.526256e+01
5.529285e+01
5.531953e+01
5.533889e+01
5.534583e+01
5.533235e+01
5.528978e+01
5.521982e+01
5.513761e+01
5.506299e+01
5.501330e+01
5.499622e+01
5.500273e+01
5.502558e+01
5.505834e+01
5.509583e+01
5.513386e+01
5.516933e+01
5.519956e+01
5.522300e+01
5.523931e+01
5.524941e+01
5.525500e+01
5.525789e+01
5.525944e+01
5.526049e+01
5.526156e+01
5.526258e+01
5.526306e+01
5.526229e+01
5.525950e+01
5.525386e+01
5.524458e+01
5.523120e+01
5.521390e+01
5.519358e+01
5.517144e+01
5.514898e+01
5.512783e+01
5.510959e+01
5.509557e+01
5.508667e+01
5.508330e+01
5.508534e+01
5.509103e+01
5.510020e+01
5.511236e+01
5.512666e+01
5.514178e+01
5.515613e+01
5.516836e+01
5.517779e+01
5.518422e+01
5.518795e+01
5.518968e+01
5.519026e+01
5.519034e+01
5.519028e+01
5.519029e+01
5.519039e+01
5.519058e+01
5.519080e+01
5.519098e+01
5.519107e+01
5.519100e+01
5.519069e+01
5.519007e+01
5.518875e+01
5.518859e+01
5.565506e+01
5.565523e+01
5.563198e+01
5.560472e+01
5.556919e+01
5.551986e+01
5.545013e+01
5.535603e+01
5.522396e+01
5.510940e+01
5.502257e+01
5.495615e+01
5.490287e+01
5.485911e+01
5.482410e+01
5.479886e+01
5.478469e+01
5.478047e+01
5.478462e+01
5.479556e+01
5.481183e+01
5.483235e+01
5.485644e+01
5.488379e+01
5.491425e+01
5.494767e+01
5.498379e+01
5.502213e+01
5.506199e+01
5.510253e+01
5.514285e+01
5.518169e+01
5.521786e+01
5.525051e+01
5.527963e+01
5.530573e+01
5.532507e+01
5.533135e+01
5.531814e+01
5.527773e+01
5.520857e+01
5.512888e+01
5.505704e+01
5.500851e+01
5.499025e+01
5.499618e+01
5.501653e+01
5.504651e+01
5.508160e+01
5.511791e+01
5.515233e+01
5.518265e+01
5.520745e+01
5.522596e+01
5.523847e+01
5.524620e+01
5.525071e+01
5.525330e+01
5.525489e+01
5.525598e+01
5.525660e+01
5.525645e+01
5.525512e+01
5.525199e+01
5.524627e+01
5.523725e+01
5.522443e+01
5.520782e+01
5.518846e+01
5.516750e+01
5.514632e+01
5.512646e+01
5.510939e+01
5.509633e+01
5.508816e+01
5.508542e+01
5.508826e+01
5.509443e+01
5.510373e+01
5.511555e+01
5.512885e+01
5.514227e+01
5.515442e+01
5.516447e+01
5.517237e+01
5.517799e+01
5.518171e+01
5.518411e+01
5.518563e+01
5.518667e+01
5.518750e+01
5.518824e+01
5.518894e+01
5.518959e+01
5.519018e+01
5.519067e+01
5.519102e+01
5.519117e+01
5.519104e+01
5.519048e+01
5.518851e+01
5.518834e+01
5.565194e+01
5.565211e+01
5.563362e+01
5.561090e+01
5.557909e+01
5.553080e+01
5.545558e+01
5.534406e+01
5.517210e+01
5.505394e+01
5.498004e+01
5.492614e+01
5.488176e+01
5.484313e+01
5.481025e+01
5.478562e+01
5.477247e+01
5.476968e+01
5.477510e+01
5.478712e+01
5.480406e+01
5.482473e+01
5.484846e+01
5.487501e+01
5.490439e+01
5.493663e+01
5.497163e+01
5.500902e+01
5.504812e+01
5.508801e+01
5.512768e+01
5.516613e+01
5.520211e+01
5.523469e+01
5.526396e+01
5.529104e+01
5.531178e+01
5.531587e+01
5.530029e+01
5.526256e+01
5.519953e+01
5.512460e+01
5.505631e+01
5.500875e+01
5.498877e+01
5.499371e+01
5.501130e+01
5.503771e+01
5.506934e+01
5.510280e+01
5.513514e+01
5.516431e+01
5.518932e+01
5.520911e+01
5.522369e+01
5.523373e+01
5.524021e+01
5.524420e+01
5.524654e+01
5.524783e+01
5.524830e+01
5.524772e+01
5.524596e+01
5.524259e+01
5.523702e+01
5.522859e+01
5.521681e+01
5.520154e+01
5.518368e+01
5.516442e+01
5.514503e+01
5.512688e+01
5.511133e+01
5.509953e+01
5.509237e+01
5.509051e+01
5.509404e+01
5.510048e+01
5.510952e+01
5.512041e+01
5.513211e+01
5.514341e+01
5.515328e+01
5.516155e+01
5.516821e+01
5.517324e+01
5.517693e+01
5.517968e+01
5.518178e+01
5.518350e+01
5.518497e+01
5.518629e+01
5.518747e+01
5.518853e+01
5.518947e+01
5.519027e+01
5.519090e+01
5.519134e+01
5.519148e+01
5.519117e+01
5.518926e+01
5.518909e+01
5.564874e+01
5.564891e+01
5.563694e+01
5.562095e+01
5.559567e+01
5.555099e+01
5.546880e+01
5.532291e+01
5.508230e+01
5.497539e+01
5.492719e+01
5.489178e+01
5.485858e+01
5.482551e+01
5.479397e+01
5.476869e+01
5.475557e+01
5.475484e+01
5.476221e+01
5.477598e+01
5.479406e+01
5.481509e+01
5.483840e+01
5.486389e+01
5.489177e+01
5.492235e+01
5.495576e+01
5.499182e+01
5.502995e+01
5.506918e+01
5.510824e+01
5.514663e+01
5.518353e+01
5.521830e+01
5.525001e+01
5.527734e+01
5.529704e+01
5.529557e+01
5.527419e+01
5.523818e+01
5.518748e+01
5.512494e+01
5.506529e+01
5.502050e+01
5.499857e+01
5.499973e+01
5.501451e+01
5.503678e+01
5.506410e+01
5.509372e+01
5.512299e+01
5.514966e+01
5.517360e+01
5.519355e+01
5.520901e+01
5.522027e+01
5.522803e+01
5.523309e+01
5.523612e+01
5.523763e+01
5.523806e+01
5.523712e+01
5.523495e+01
5.523149e+01
5.522635e+01
5.521897e+01
5.520880e+01
5.519557e+01
5.517986e+01
5.516289e+01
5.514576e+01
5.512974e+01
5.511605e+01
5.510580e+01
5.509987e+01
5.509889e+01
5.510267e+01
5.510888e+01
5.511707e+01
5.512649e+01
5.513622e+01
5.514531e+01
5.515315e+01
5.515997e+01
5.516561e+01
5.517015e+01
5.517379e+01
5.517674e+01
5.517921e+01
5.518133e+01
5.518320e+01
5.518486e+01
5.518634e+01
5.518767e+01
5.518884e+01
5.518988e+01
5.519077e+01
5.519151e+01
5.519203e+01
5.519220e+01
5.519118e+01
5.519101e+01
5.564590e+01
5.564607e+01
5.564224e+01
5.563553e+01
5.562133e+01
5.558754e+01
5.550385e+01
5.529717e+01
5.492535e+01
5.486970e+01
5.487143e+01
5.486003e+01
5.483940e+01
5.481199e+01
5.478007e+01
5.475116e+01
5.473463e+01
5.473580e+01
5.474615e+01
5.476297e+01
5.478302e+01
5.480487e+01
5.482783e+01
5.485200e+01
5.487794e+01
5.490627e+01
5.493747e+01
5.497168e+01
5.500852e+01
5.504705e+01
5.508562e+01
5.512401e+01
5.516237e+01
5.520181e+01
5.523822e+01
5.526518e+01
5.527749e+01
5.526456e+01
5.523867e+01
5.520778e+01
5.517129e+01
5.512636e+01
5.508053e+01
5.504245e+01
5.502026e+01
5.501703e+01
5.502767e+01
5.504511e+01
5.506744e+01
5.509242e+01
5.511767e+01
5.514101e+01
5.516240e+01
5.518107e+01
5.519621e+01
5.520777e+01
5.521610e+01
5.522166e+01
5.522491e+01
5.522625e+01
5.522616e+01
5.522468e+01
5.522208e+01
5.521866e+01
5.521430e+01
5.520849e+01
5.520059e+01
5.519013e+01
5.517732e+01
5.516323e+01
5.514883e+01
5.513528e+01
5.512370e+01
5.511514e+01
5.511039e+01
5.510991e+01
5.511332e+01
5.511865e+01
5.512543e+01
5.513299e+01
5.514061e+01
5.514765e+01
5.515386e+01
5.515944e+01
5.516428e+01
5.516841e+01
5.517193e+01
5.517497e+01
5.517761e+01
5.517993e+01
5.518199e+01
5.518382e+01
5.518546e+01
5.518692e+01
5.518824e+01
5.518945e+01
5.519057e+01
5.519161e+01
5.519259e+01
5.519345e+01
5.519396e+01
5.519379e+01
5.564361e+01
5.564378e+01
5.564904e+01
5.565386e+01
5.565665e+01
5.564886e+01
5.559661e+01
5.536064e+01
5.463585e+01
5.472819e+01
5.482722e+01
5.483800e+01
5.482842e+01
5.480880e+01
5.477690e+01
5.474173e+01
5.471790e+01
5.471473e+01
5.472798e+01
5.475085e+01
5.477418e+01
5.479776e+01
5.482058e+01
5.484323e+01
5.486665e+01
5.489192e+01
5.491995e+01
5.495126e+01
5.498586e+01
5.502312e+01
5.506166e+01
5.509997e+01
5.513525e+01
5.517022e+01
5.520780e+01
5.523349e+01
5.523466e+01
5.521817e+01
5.519702e+01
5.517633e+01
5.515514e+01
5.512894e+01
5.509893e+01
5.507036e+01
5.505031e+01
5.504328e+01
5.504946e+01
5.506172e+01
5.507865e+01
5.509840e+01
5.511890e+01
5.513819e+01
5.515590e+01
5.517202e+01
5.518564e+01
5.519646e+01
5.520448e+01
5.520984e+01
5.521276e+01
5.521358e+01
5.521277e+01
5.521062e+01
5.520763e+01
5.520443e+01
5.520115e+01
5.519738e+01
5.519235e+01
5.518534e+01
5.517612e+01
5.516545e+01
5.515414e+01
5.514323e+01
5.513378e+01
5.512675e+01
5.512282e+01
5.512225e+01
5.512470e+01
5.512864e+01
5.513366e+01
5.513925e+01
5.514490e+01
5.515022e+01
5.515510e+01
5.515967e+01
5.516385e+01
5.516762e+01
5.517099e+01
5.517398e+01
5.517665e+01
5.517901e+01
5.518112e+01
5.518299e+01
5.518465e+01
5.518616e+01
5.518755e+01
5.518886e+01
5.519016e+01
5.519150e+01
5.519297e+01
5.519464e+01
5.519699e+01
5.519682e+01
5.564168e+01
5.564185e+01
5.565576e+01
5.567234e+01
5.569508e+01
5.572737e+01
5.576849e+01
5.588111e+01
5.525831e+01
5.479674e+01
5.486561e+01
5.483370e+01
5.481497e+01
5.480656e+01
5.478426e+01
5.474737e+01
5.471777e+01
5.470912e+01
5.472125e+01
5.474614e+01
5.477381e+01
5.480067e+01
5.482379e+01
5.484502e+01
5.486541e+01
5.488648e+01
5.490959e+01
5.493565e+01
5.496486e+01
5.499647e+01
5.502872e+01
5.505939e+01
5.508558e+01
5.512325e+01
5.515794e+01
5.517435e+01
5.517227e+01
5.516488e+01
5.515663e+01
5.514937e+01
5.514303e+01
5.513432e+01
5.511989e+01
5.510157e+01
5.508540e+01
5.507662e+01
5.507773e+01
5.508481e+01
5.509615e+01
5.511028e+01
5.512547e+01
5.514006e+01
5.515333e+01
5.516590e+01
5.517693e+01
5.518595e+01
5.519271e+01
5.519708e+01
5.519917e+01
5.519930e+01
5.519794e+01
5.519535e+01
5.519229e+01
5.518958e+01
5.518761e+01
5.518613e+01
5.518437e+01
5.518131e+01
5.517622e+01
5.516933e+01
5.516128e+01
5.515298e+01
5.514544e+01
5.513953e+01
5.513586e+01
5.513465e+01
5.513578e+01
5.513809e+01
5.514128e+01
5.514502e+01
5.514898e+01
5.515291e+01
5.515668e+01
5.516043e+01
5.516403e+01
5.516743e+01
5.517057e+01
5.517342e+01
5.517599e+01
5.517828e+01
5.518032e+01
5.518214e+01
5.518376e+01
5.518524e+01
5.518663e+01
5.518800e+01
5.518942e+01
5.519101e+01
5.519291e+01
5.519536e+01
5.519963e+01
5.519946e+01
5.563961e+01
5.563978e+01
5.566009e+01
5.568519e+01
5.572175e+01
5.578011e+01
5.587714e+01
5.600930e+01
5.602884e+01
0.000000e+00
5.482306e+01
5.482323e+01
5.479884e+01
5.478449e+01
5.476480e+01
5.474195e+01
5.472162e+01
5.471691e+01
5.472956e+01
5.475347e+01
5.478464e+01
5.481389e+01
5.483918e+01
5.486076e+01
5.487892e+01
5.489568e+01
5.491279e+01
5.493143e+01
5.495187e+01
5.497357e+01
5.499505e+01
5.501393e+01
5.503773e+01
5.506203e+01
5.508013e+01
5.509297e+01
5.510563e+01
5.511634e+01
5.512482e+01
5.513189e+01
5.513855e+01
5.514360e+01
5.514258e+01
5.513433e+01
5.512255e+01
5.511336e+01
5.511034e+01
5.511239e+01
5.511815e+01
5.512647e+01
5.513597e+01
5.514533e+01
5.515366e+01
5.516187e+01
5.516928e+01
5.517540e+01
5.517984e+01
5.518245e+01
5.518336e+01
5.518290e+01
5.518145e+01
5.517917e+01
5.517687e+01
5.517543e+01
5.517521e+01
5.517609e+01
5.517747e+01
5.517829e+01
5.517746e+01
5.517449e+01
5.516964e+01
5.516376e+01
5.515777e+01
5.515253e+01
5.514868e+01
5.514654e+01
5.514617e+01
5.514682e+01
5.514830e+01
5.515039e+01
5.515288e+01
5.515560e+01
5.515842e+01
5.516138e+01
5.516441e+01
5.516740e+01
5.517025e+01
5.517289e+01
5.517530e+01
5.517745e+01
5.517938e+01
5.518109e+01
5.518263e+01
5.518402e+01
5.518536e+01
5.518672e+01
5.518821e+01
5.518996e+01
5.519216e+01
5.519516e+01
5.520108e+01
5.520091e+01
5.563696e+01
5.563712e+01
5.566042e+01
5.568867e+01
5.572813e+01
5.578604e+01
5.586909e+01
5.596677e+01
5.604871e+01
5.604855e+01
0.000000e+00
5.478466e+01
5.478482e+01
5.475907e+01
5.473651e+01
5.471855e+01
5.471329e+01
5.472417e+01
5.474849e+01
5.477919e+01
5.481118e+01
5.484193e+01
5.486978e+01
5.489416e+01
5.491257e+01
5.492665e+01
5.493858e+01
5.494962e+01
5.496022e+01
5.497056e+01
5.497865e+01
5.498404e+01
5.498792e+01
5.499220e+01
5.499810e+01
5.501905e+01
5.504932e+01
5.507936e+01
5.510483e+01
5.512513e+01
5.514210e+01
5.515646e+01
5.516543e+01
5.516614e+01
5.515972e+01
5.515089e+01
5.514490e+01
5.514250e+01
5.514299e+01
5.514555e+01
5.514918e+01
5.515290e+01
5.515597e+01
5.515901e+01
5.516172e+01
5.516371e+01
5.516474e+01
5.516487e+01
5.516436e+01
5.516354e+01
5.516262e+01
5.516197e+01
5.516205e+01
5.516306e+01
5.516520e+01
5.516851e+01
5.517264e+01
5.517674e+01
5.517963e+01
5.518026e+01
5.517849e+01
5.517476e+01
5.517001e+01
5.516517e+01
5.516097e+01
5.515784e+01
5.515595e+01
5.515500e+01
5.515488e+01
5.515543e+01
5.515652e+01
5.515803e+01
5.515987e+01
5.516205e+01
5.516450e+01
5.516706e+01
5.516962e+01
5.517206e+01
5.517430e+01
5.517631e+01
5.517811e+01
5.517973e+01
5.518120e+01
5.518253e+01
5.518379e+01
5.518514e+01
5.518665e+01
5.518848e+01
5.519085e+01
5.519413e+01
5.520066e+01
5.520049e+01
5.563355e+01
5.563372e+01
5.565660e+01
5.568330e+01
5.571828e+01
5.576647e+01
5.582844e+01
5.588511e+01
5.591042e+01
5.565790e+01
5.565773e+01
0.000000e+00
5.475320e+01
5.472191e+01
5.469912e+01
5.468128e+01
5.468627e+01
5.471629e+01
5.476351e+01
5.481296e+01
5.485491e+01
5.489002e+01
5.492137e+01
5.494928e+01
5.496902e+01
5.498277e+01
5.499114e+01
5.499508e+01
5.499431e+01
5.498819e+01
5.497964e+01
5.496477e+01
5.494499e+01
5.492643e+01
5.492811e+01
5.496255e+01
5.501050e+01
5.505795e+01
5.509791e+01
5.512846e+01
5.515228e+01
5.517212e+01
5.518748e+01
5.519524e+01
5.519424e+01
5.518746e+01
5.517954e+01
5.517356e+01
5.516938e+01
5.516653e+01
5.516433e+01
5.516213e+01
5.515943e+01
5.515654e+01
5.515341e+01
5.514997e+01
5.514645e+01
5.514332e+01
5.514108e+01
5.514010e+01
5.514109e+01
5.514407e+01
5.514828e+01
5.515316e+01
5.515849e+01
5.516429e+01
5.517059e+01
5.517697e+01
5.518239e+01
5.518574e+01
5.518643e+01
5.518465e+01
5.518116e+01
5.517680e+01
5.517232e+01
5.516826e+01
5.516503e+01
5.516259e+01
5.516090e+01
5.515990e+01
5.515954e+01
5.515975e+01
5.516053e+01
5.516189e+01
5.516374e+01
5.516591e+01
5.516829e+01
5.517072e+01
5.517294e+01
5.517487e+01
5.517663e+01
5.517818e+01
5.517955e+01
5.518082e+01
5.518208e+01
5.518344e+01
5.518499e+01
5.518686e+01
5.518921e+01
5.519233e+01
5.519788e+01
5.519772e+01
5.562957e+01
5.562974e+01
5.564955e+01
5.567170e+01
5.569860e+01
5.573022e+01
5.575968e+01
5.576507e+01
5.569958e+01
5.557399e+01
5.515116e+01
5.482680e+01
5.465173e+01
5.469697e+01
5.467702e+01
5.466522e+01
5.467820e+01
5.471869e+01
5.477949e+01
5.484300e+01
5.489314e+01
5.493417e+01
5.497276e+01
5.500801e+01
5.503470e+01
5.504579e+01
5.504766e+01
5.504088e+01
5.502651e+01
5.500678e+01
5.498478e+01
5.495039e+01
5.490832e+01
5.487237e+01
5.488291e+01
5.493070e+01
5.499304e+01
5.505345e+01
5.510256e+01
5.513932e+01
5.516731e+01
5.518977e+01
5.520813e+01
5.522061e+01
5.522466e+01
5.522093e+01
5.521301e+01
5.520458e+01
5.519660e+01
5.518894e+01
5.518114e+01
5.517282e+01
5.516381e+01
5.515425e+01
5.514444e+01
5.513488e+01
5.512634e+01
5.511963e+01
5.511542e+01
5.511425e+01
5.511851e+01
5.512652e+01
5.513627e+01
5.514623e+01
5.515551e+01
5.516387e+01
5.517170e+01
5.517910e+01
5.518559e+01
5.519028e+01
5.519236e+01
5.519180e+01
5.518925e+01
5.518542e+01
5.518089e+01
5.517640e+01
5.517225e+01
5.516859e+01
5.516551e+01
5.516307e+01
5.516132e+01
5.516026e+01
5.515995e+01
5.516048e+01
5.516190e+01
5.516378e+01
5.516614e+01
5.516858e+01
5.517089e+01
5.517297e+01
5.517482e+01
5.517645e+01
5.517793e+01
5.517930e+01
5.518064e+01
5.518205e+01
5.518360e+01
5.518535e+01
5.518739e+01
5.518986e+01
5.519341e+01
5.519324e+01
5.562546e+01
5.562563e+01
5.564075e+01
5.565639e+01
5.567261e+01
5.568653e+01
5.568878e+01
5.565902e+01
5.555940e+01
5.537829e+01
5.509441e+01
5.450277e+01
5.460683e+01
5.467426e+01
5.468295e+01
5.468096e+01
5.470033e+01
5.474404e+01
5.480548e+01
5.487091e+01
5.491951e+01
5.496379e+01
5.500912e+01
5.505128e+01
5.508317e+01
5.509384e+01
5.508907e+01
5.507346e+01
5.504971e+01
5.502093e+01
5.498741e+01
5.493790e+01
5.487899e+01
5.484483e+01
5.486675e+01
5.492542e+01
5.499671e+01
5.506373e+01
5.511592e+01
5.515528e+01
5.518499e+01
5.520809e+01
5.522685e+01
5.524137e+01
5.524942e+01
5.524955e+01
5.524317e+01
5.523415e+01
5.522353e+01
5.521168e+01
5.519856e+01
5.518425e+01
5.516919e+01
5.515327e+01
5.513689e+01
5.512110e+01
5.510714e+01
5.509621e+01
5.508906e+01
5.508856e+01
5.509700e+01
5.511093e+01
5.512696e+01
5.514254e+01
5.515570e+01
5.516657e+01
5.517559e+01
5.518316e+01
5.518934e+01
5.519372e+01
5.519563e+01
5.519505e+01
5.519299e+01
5.518983e+01
5.518592e+01
5.518150e+01
5.517689e+01
5.517236e+01
5.516821e+01
5.516460e+01
5.516163e+01
5.515927e+01
5.515779e+01
5.515730e+01
5.515828e+01
5.516028e+01
5.516297e+01
5.516592e+01
5.516874e+01
5.517127e+01
5.517344e+01
5.517530e+01
5.517693e+01
5.517839e+01
5.517977e+01
5.518112e+01
5.518251e+01
5.518395e+01
5.518545e+01
5.518697e+01
5.518828e+01
5.518811e+01
5.562150e+01
5.562167e+01
5.563120e+01
5.563977e+01
5.564599e+01
5.564592e+01
5.563105e+01
5.558650e+01
5.548941e+01
5.532003e+01
5.509125e+01
5.477920e+01
5.473256e+01
5.473523e+01
5.473251e+01
5.472958e+01
5.474573e+01
5.478229e+01
5.483432e+01
5.488657e+01
5.493358e+01
5.497962e+01
5.502492e+01
5.506357e+01
5.508986e+01
5.509904e+01
5.509410e+01
5.507941e+01
5.505573e+01
5.502533e+01
5.498571e+01
5.492703e+01
5.486365e+01
5.484562e+01
5.487926e+01
5.494429e+01
5.501823e+01
5.508388e+01
5.513511e+01
5.517396e+01
5.520329e+01
5.522577e+01
5.524353e+01
5.525760e+01
5.526717e+01
5.527016e+01
5.526688e+01
5.525894e+01
5.524726e+01
5.523256e+01
5.521531e+01
5.519608e+01
5.517585e+01
5.515420e+01
5.513169e+01
5.510983e+01
5.509038e+01
5.507492e+01
5.506451e+01
5.506585e+01
5.507903e+01
5.509910e+01
5.512134e+01
5.514166e+01
5.515810e+01
5.517108e+01
5.518115e+01
5.518868e+01
5.519372e+01
5.519613e+01
5.519597e+01
5.519466e+01
5.519278e+01
5.519042e+01
5.518733e+01
5.518344e+01
5.517891e+01
5.517401e+01
5.516919e+01
5.516473e+01
5.516053e+01
5.515666e+01
5.515367e+01
5.515280e+01
5.515404e+01
5.515677e+01
5.516028e+01
5.516398e+01
5.516743e+01
5.517046e+01
5.517295e+01
5.517498e+01
5.517667e+01
5.517812e+01
5.517941e+01
5.518059e+01
5.518169e+01
5.518270e+01
5.518353e+01
5.518404e+01
5.518330e+01
5.518313e+01
5.561787e+01
5.561803e+01
5.562206e+01
5.562416e+01
5.562230e+01
5.561263e+01
5.558861e+01
5.554054e+01
5.545579e+01
5.532141e+01
5.513993e+01
5.493367e+01
5.484543e+01
5.481068e+01
5.479297e+01
5.478575e+01
5.479576e+01
5.482332e+01
5.486381e+01
5.490722e+01
5.494921e+01
5.498994e+01
5.502721e+01
5.505692e+01
5.507612e+01
5.508317e+01
5.507997e+01
5.506745e+01
5.504689e+01
5.502147e+01
5.498370e+01
5.492730e+01
5.487901e+01
5.487622e+01
5.491614e+01
5.498029e+01
5.504971e+01
5.510945e+01
5.515682e+01
5.519311e+01
5.522066e+01
5.524177e+01
5.525823e+01
5.527100e+01
5.527986e+01
5.528384e+01
5.528306e+01
5.527718e+01
5.526627e+01
5.525072e+01
5.523114e+01
5.520845e+01
5.518408e+01
5.515756e+01
5.512958e+01
5.510213e+01
5.507743e+01
5.505767e+01
5.504466e+01
5.504891e+01
5.506686e+01
5.509237e+01
5.511975e+01
5.514337e+01
5.516196e+01
5.517607e+01
5.518642e+01
5.519352e+01
5.519770e+01
5.519922e+01
5.519853e+01
5.519679e+01
5.519429e+01
5.519108e+01
5.518716e+01
5.518275e+01
5.517817e+01
5.517323e+01
5.516818e+01
5.516313e+01
5.515808e+01
5.515294e+01
5.514961e+01
5.514913e+01
5.515108e+01
5.515463e+01
5.515895e+01
5.516336e+01
5.516738e+01
5.517069e+01
5.517332e+01
5.517540e+01
5.517705e+01
5.517838e+01
5.517947e+01
5.518039e+01
5.518112e+01
5.518163e+01
5.518180e+01
5.518141e+01
5.517903e+01
5.517887e+01
5.561481e+01
5.561498e+01
5.561413e+01
5.561085e+01
5.560294e+01
5.558704e+01
5.555834e+01
5.551062e+01
5.543674e+01
5.532938e+01
5.518723e+01
5.502960e+01
5.493178e+01
5.487832e+01
5.484883e+01
5.483579e+01
5.483961e+01
5.485888e+01
5.488942e+01
5.492445e+01
5.495997e+01
5.499425e+01
5.502453e+01
5.504808e+01
5.506277e+01
5.506798e+01
5.506444e+01
5.505311e+01
5.503573e+01
5.501364e+01
5.498023e+01
5.493599e+01
5.490884e+01
5.491824e+01
5.496035e+01
5.501994e+01
5.508153e+01
5.513477e+01
5.517757e+01
5.521070e+01
5.523603e+01
5.525548e+01
5.527051e+01
5.528186e+01
5.528943e+01
5.529346e+01
5.529360e+01
5.528940e+01
5.528014e+01
5.526545e+01
5.524551e+01
5.522110e+01
5.519381e+01
5.516348e+01
5.513091e+01
5.509855e+01
5.506920e+01
5.504569e+01
5.503287e+01
5.503992e+01
5.506184e+01
5.509138e+01
5.512204e+01
5.514737e+01
5.516693e+01
5.518132e+01
5.519138e+01
5.519790e+01
5.520146e+01
5.520257e+01
5.520173e+01
5.519970e+01
5.519666e+01
5.519269e+01
5.518794e+01
5.518270e+01
5.517742e+01
5.517188e+01
5.516621e+01
5.516049e+01
5.515480e+01
5.514936e+01
5.514664e+01
5.514695e+01
5.514973e+01
5.515407e+01
5.515907e+01
5.516404e+01
5.516830e+01
5.517175e+01
5.517442e+01
5.517645e+01
5.517797e+01
5.517909e+01
5.517992e+01
5.518050e+01
5.518082e+01
5.518083e+01
5.518041e+01
5.517932e+01
5.517591e+01
5.517574e+01
5.561243e+01
5.561260e+01
5.560778e+01
5.560034e+01
5.558810e+01
5.556820e+01
5.553703e+01
5.549039e+01
5.542392e+01
5.533364e+01
5.521887e+01
5.509286e+01
5.499672e+01
5.493324e+01
5.489476e+01
5.487603e+01
5.487435e+01
5.488700e+01
5.490997e+01
5.493819e+01
5.496796e+01
5.499677e+01
5.502203e+01
5.504148e+01
5.505357e+01
5.505763e+01
5.505389e+01
5.504312e+01
5.502680e+01
5.500522e+01
5.497612e+01
5.494606e+01
5.493555e+01
5.495430e+01
5.499749e+01
5.505269e+01
5.510792e+01
5.515606e+01
5.519509e+01
5.522550e+01
5.524881e+01
5.526667e+01
5.528036e+01
5.529058e+01
5.529751e+01
5.530120e+01
5.530171e+01
5.529853e+01
5.529075e+01
5.527752e+01
5.525842e+01
5.523370e+01
5.520464e+01
5.517150e+01
5.513525e+01
5.509883e+01
5.506580e+01
5.504014e+01
5.502916e+01
5.503890e+01
5.506370e+01
5.509564e+01
5.512735e+01
5.515320e+01
5.517283e+01
5.518688e+01
5.519634e+01
5.520216e+01
5.520515e+01
5.520594e+01
5.520502e+01
5.520280e+01
5.519943e+01
5.519501e+01
5.518968e+01
5.518370e+01
5.517744e+01
5.517091e+01
5.516422e+01
5.515759e+01
5.515139e+01
5.514645e+01
5.514460e+01
5.514587e+01
5.514955e+01
5.515464e+01
5.516021e+01
5.516546e+01
5.516988e+01
5.517340e+01
5.517606e+01
5.517799e+01
5.517933e+01
5.518020e+01
5.518072e+01
5.518092e+01
5.518082e+01
5.518036e+01
5.517944e+01
5.517786e+01
5.517407e+01
5.517390e+01
5.561074e+01
5.561091e+01
5.560312e+01
5.559266e+01
5.557747e+01
5.555506e+01
5.552257e+01
5.547689e+01
5.541511e+01
5.533507e+01
5.523728e+01
5.513126e+01
5.504095e+01
5.497436e+01
5.493062e+01
5.490697e+01
5.490050e+01
5.490792e+01
5.492534e+01
5.494850e+01
5.497384e+01
5.499860e+01
5.502037e+01
5.503715e+01
5.504755e+01
5.505084e+01
5.504694e+01
5.503632e+01
5.501997e+01
5.499830e+01
5.497317e+01
5.495405e+01
5.495481e+01
5.498024e+01
5.502429e+01
5.507635e+01
5.512730e+01
5.517186e+01
5.520815e+01
5.523650e+01
5.525827e+01
5.527494e+01
5.528774e+01
5.529738e+01
5.530408e+01
5.530794e+01
5.530900e+01
5.530675e+01
5.530024e+01
5.528843e+01
5.527050e+01
5.524617e+01
5.521603e+01
5.518068e+01
5.514136e+01
5.510145e+01
5.506558e+01
5.503943e+01
5.503104e+01
5.504322e+01
5.506990e+01
5.510285e+01
5.513441e+01
5.516004e+01
5.517925e+01
5.519271e+01
5.520143e+01
5.520648e+01
5.520883e+01
5.520923e+01
5.520816e+01
5.520575e+01
5.520217e+01
5.519749e+01
5.519181e+01
5.518526e+01
5.517807e+01
5.517040e+01
5.516249e+01
5.515485e+01
5.514831e+01
5.514404e+01
5.514314e+01
5.514542e+01
5.514999e+01
5.515576e+01
5.516175e+01
5.516721e+01
5.517176e+01
5.517528e+01
5.517786e+01
5.517963e+01
5.518075e+01
5.518136e+01
5.518156e+01
5.518141e+01
5.518093e+01
5.518008e+01
5.517877e+01
5.517689e+01
5.517330e+01
5.517313e+01
5.560968e+01
5.560985e+01
5.560009e+01
5.558770e+01
5.557069e+01
5.554683e+01
5.551368e+01
5.546873e+01
5.540978e+01
5.533561e+01
5.524748e+01
5.515296e+01
5.506767e+01
5.500064e+01
5.495426e+01
5.492750e+01
5.491782e+01
5.492179e+01
5.493560e+01
5.495539e+01
5.497773e+01
5.499983e+01
5.501939e+01
5.503450e+01
5.504385e+01
5.504665e+01
5.504264e+01
5.503197e+01
5.501518e+01
5.499351e+01
5.497172e+01
5.496018e+01
5.496815e+01
5.499718e+01
5.504122e+01
5.509128e+01
5.513969e+01
5.518207e+01
5.521667e+01
5.524372e+01
5.526444e+01
5.528024e+01
5.529237e+01
5.530173e+01
5.530867e+01
5.531319e+01
5.531514e+01
5.531391e+01
5.530858e+01
5.529804e+01
5.528128e+01
5.525759e+01
5.522689e+01
5.518971e+01
5.514760e+01
5.510442e+01
5.506612e+01
5.504030e+01
5.503430e+01
5.504851e+01
5.507647e+01
5.510977e+01
5.514103e+01
5.516642e+01
5.518518e+01
5.519788e+01
5.520578e+01
5.521009e+01
5.521184e+01
5.521183e+01
5.521056e+01
5.520800e+01
5.520431e+01
5.519955e+01
5.519372e+01
5.518682e+01
5.517889e+01
5.517016e+01
5.516107e+01
5.515250e+01
5.514573e+01
5.514207e+01
5.514200e+01
5.514517e+01
5.515056e+01
5.515691e+01
5.516317e+01
5.516875e+01
5.517333e+01
5.517684e+01
5.517935e+01
5.518101e+01
5.518196e+01
5.518235e+01
5.518231e+01
5.518190e+01
5.518113e+01
5.517998e+01
5.517839e+01
5.517630e+01
5.517315e+01
5.517298e+01
5.560919e+01
5.560935e+01
5.559863e+01
5.558530e+01
5.556746e+01
5.554299e+01
5.550965e+01
5.546519e+01
5.540772e+01
5.533635e+01
5.525264e+01
5.516332e+01
5.508062e+01
5.501365e+01
5.496611e+01
5.493783e+01
5.492651e+01
5.492874e+01
5.494076e+01
5.495882e+01
5.497962e+01
5.500037e+01
5.501878e+01
5.503307e+01
5.504192e+01
5.504453e+01
5.504052e+01
5.502984e+01
5.501274e+01
5.499135e+01
5.497186e+01
5.496397e+01
5.497481e+01
5.500488e+01
5.504848e+01
5.509738e+01
5.514459e+01
5.518607e+01
5.522009e+01
5.524676e+01
5.526717e+01
5.528269e+01
5.529458e+01
5.530377e+01
5.531077e+01
5.531573e+01
5.531839e+01
5.531809e+01
5.531383e+01
5.530442e+01
5.528871e+01
5.526578e+01
5.523505e+01
5.519661e+01
5.515214e+01
5.510598e+01
5.506543e+01
5.503956e+01
5.503476e+01
5.505029e+01
5.507940e+01
5.511303e+01
5.514417e+01
5.516941e+01
5.518794e+01
5.520039e+01
5.520800e+01
5.521203e+01
5.521355e+01
5.521333e+01
5.521182e+01
5.520914e+01
5.520541e+01
5.520065e+01
5.519480e+01
5.518779e+01
5.517951e+01
5.517018e+01
5.516046e+01
5.515148e+01
5.514472e+01
5.514136e+01
5.514175e+01
5.514534e+01
5.515102e+01
5.515753e+01
5.516385e+01
5.516945e+01
5.517405e+01
5.517757e+01
5.518008e+01
5.518170e+01
5.518260e+01
5.518291e+01
5.518275e+01
5.518220e+01
5.518128e+01
5.517997e+01
5.517822e+01
5.517595e+01
5.517258e+01
5.517242e+01
0.000000e+00
5.560919e+01
5.559846e+01
5.558514e+01
5.556730e+01
5.554282e+01
5.550948e+01
5.546502e+01
5.540755e+01
5.533618e+01
5.525248e+01
5.516315e+01
5.508045e+01
5.501348e+01
5.496594e+01
5.493766e+01
5.492634e+01
5.492857e+01
5.494059e+01
5.495865e+01
5.497945e+01
5.500020e+01
5.501862e+01
5.503290e+01
5.504176e+01
5.504436e+01
5.504035e+01
5.502967e+01
5.501257e+01
5.499118e+01
5.497169e+01
5.496380e+01
5.497464e+01
5.500471e+01
5.504831e+01
5.509722e+01
5.514442e+01
5.518591e+01
5.521992e+01
5.524659e+01
5.526700e+01
5.528252e+01
5.529441e+01
5.530361e+01
5.531060e+01
5.531556e+01
5.531823e+01
5.531793e+01
5.531367e+01
5.530425e+01
5.528854e+01
5.526561e+01
5.523489e+01
5.519644e+01
5.515197e+01
5.510581e+01
5.506526e+01
5.503939e+01
5.503459e+01
5.505013e+01
5.507923e+01