# vtk DataFile Version 3.0
Scalar Field
ASCII
DATASET RECTILINEAR_GRID
DIMENSIONS 102 22 1
X_COORDINATES 102 double
0.000000 0.100000 0.200000 0.300000 0.400000 0.500000 0.600000 0.700000 0.800000 0.900000 1.000000 1.100000 1.200000 1.300000 1.400000 1.500000 1.600000 1.700000 1.800000 1.900000 2.000000 2.100000 2.200000 2.300000 2.400000 2.500000 2.600000 2.700000 2.800000 2.900000 3.000000 3.100000 3.200000 3.300000 3.400000 3.500000 3.600000 3.700000 3.800000 3.900000 4.000000 4.100000 4.200000 4.300000 4.400000 4.500000 4.600000 4.700000 4.800000 4.900000 5.000000 5.100000 5.200000 5.300000 5.400000 5.500000 5.600000 5.700000 5.800000 5.900000 6.000000 6.100000 6.200000 6.300000 6.400000 6.500000 6.600000 6.700000 6.800000 6.900000 7.000000 7.100000 7.200000 7.300000 7.400000 7.500000 7.600000 7.700000 7.800000 7.900000 8.000000 8.100000 8.200000 8.300000 8.400000 8.500000 8.600000 8.700000 8.800000 8.900000 9.000000 9.100000 9.200000 9.300000 9.400000 9.500000 9.600000 9.700000 9.800000 9.900000 10.000000 10.100000 
Y_COORDINATES 22 double
0.000000 0.100000 0.200000 0.300000 0.400000 0.500000 0.600000 0.700000 0.800000 0.900000 1.000000 1.100000 1.200000 1.300000 1.400000 1.500000 1.600000 1.700000 1.800000 1.900000 2.000000 2.100000 
Z_COORDINATES 1 double
0.0
POINT_DATA 2244
SCALARS Pressure double 1
LOOKUP_TABLE default
0.000000e+00
7.183933e+01
7.181102e+01
7.177806e+01
7.173714e+01
7.168470e+01
7.161744e+01
7.153441e+01
7.143608e+01
7.134185e+01
7.126644e+01
7.121380e+01
7.118140e+01
7.116469e+01
7.115934e+01
7.116183e+01
7.116925e+01
7.117886e+01
7.118765e+01
7.119275e+01
7.119286e+01
7.118947e+01
7.118623e+01
7.118658e+01
7.119203e+01
7.120210e+01
7.121557e+01
7.123156e+01
7.124983e+01
7.127065e+01
7.129456e+01
7.132200e+01
7.135309e+01
7.138745e+01
7.142422e+01
7.146213e+01
7.149972e+01
7.153547e+01
7.156783e+01
7.159554e+01
7.161800e+01
7.163551e+01
7.164907e+01
7.165986e+01
7.166952e+01
7.167799e+01
7.168352e+01
7.168321e+01
7.167347e+01
7.165116e+01
7.161523e+01
7.156818e+01
7.151589e+01
7.146678e+01
7.142962e+01
7.141070e+01
7.141130e+01
7.142730e+01
7.145633e+01
7.149448e+01
7.153613e+01
7.157460e+01
7.160402e+01
7.162170e+01
7.162945e+01
7.163117e+01
7.163028e+01
7.162875e+01
7.162733e+01
7.162677e+01
7.162669e+01
7.162657e+01
7.162590e+01
7.162414e+01
7.162076e+01
7.161534e+01
7.160763e+01
7.159764e+01
7.158565e+01
7.157212e+01
7.155766e+01
7.154300e+01
7.152894e+01
7.151629e+01
7.150584e+01
7.149818e+01
7.149371e+01
7.149251e+01
7.149416e+01
7.149811e+01
7.150420e+01
7.151221e+01
7.152177e+01
7.153224e+01
7.154268e+01
7.155186e+01
7.155842e+01
7.156114e+01
7.155922e+01
7.155202e+01
7.153205e+01
0.000000e+00
7.183933e+01
7.183953e+01
7.181121e+01
7.177825e+01
7.173733e+01
7.168489e+01
7.161763e+01
7.153461e+01
7.143627e+01
7.134204e+01
7.126664e+01
7.121399e+01
7.118159e+01
7.116489e+01
7.115954e+01
7.116202e+01
7.116944e+01
7.117905e+01
7.118784e+01
7.119294e+01
7.119305e+01
7.118966e+01
7.118642e+01
7.118678e+01
7.119222e+01
7.120229e+01
7.121576e+01
7.123175e+01
7.125002e+01
7.127085e+01
7.129475e+01
7.132219e+01
7.135328e+01
7.138764e+01
7.142441e+01
7.146232e+01
7.149991e+01
7.153566e+01
7.156802e+01
7.159573e+01
7.161819e+01
7.163570e+01
7.164927e+01
7.166005e+01
7.166971e+01
7.167818e+01
7.168371e+01
7.168341e+01
7.167366e+01
7.165135e+01
7.161542e+01
7.156837e+01
7.151609e+01
7.146697e+01
7.142981e+01
7.141089e+01
7.141149e+01
7.142749e+01
7.145652e+01
7.149467e+01
7.153632e+01
7.157479e+01
7.160421e+01
7.162189e+01
7.162965e+01
7.163137e+01
7.163047e+01
7.162895e+01
7.162753e+01
7.162696e+01
7.162688e+01
7.162677e+01
7.162610e+01
7.162433e+01
7.162095e+01
7.161553e+01
7.160782e+01
7.159784e+01
7.158585e+01
7.157232e+01
7.155785e+01
7.154319e+01
7.152913e+01
7.151649e+01
7.150603e+01
7.149837e+01
7.149390e+01
7.149270e+01
7.149436e+01
7.149830e+01
7.150439e+01
7.151240e+01
7.152196e+01
7.153243e+01
7.154287e+01
7.155205e+01
7.155861e+01
7.156134e+01
7.155941e+01
7.155221e+01
7.153224e+01
7.153205e+01
7.183913e+01
7.183932e+01
7.181245e+01
7.178069e+01
7.174051e+01
7.168785e+01
7.161870e+01
7.153176e+01
7.142405e+01
7.132520e+01
7.125044e+01
7.120065e+01
7.117127e+01
7.115695e+01
7.115326e+01
7.115691e+01
7.116531e+01
7.117608e+01
7.118637e+01
7.119302e+01
7.119412e+01
7.119086e+01
7.118719e+01
7.118708e+01
7.119252e+01
7.120288e+01
7.121652e+01
7.123239e+01
7.125024e+01
7.127042e+01
7.129355e+01
7.132020e+01
7.135058e+01
7.138434e+01
7.142063e+01
7.145820e+01
7.149554e+01
7.153119e+01
7.156367e+01
7.159162e+01
7.161437e+01
7.163210e+01
7.164570e+01
7.165634e+01
7.166503e+01
7.167167e+01
7.167478e+01
7.167192e+01
7.166046e+01
7.163768e+01
7.160226e+01
7.155697e+01
7.150744e+01
7.146143e+01
7.142692e+01
7.140984e+01
7.141225e+01
7.142893e+01
7.145762e+01
7.149403e+01
7.153222e+01
7.156636e+01
7.159302e+01
7.161056e+01
7.161984e+01
7.162365e+01
7.162468e+01
7.162463e+01
7.162433e+01
7.162419e+01
7.162417e+01
7.162393e+01
7.162303e+01
7.162105e+01
7.161756e+01
7.161218e+01
7.160463e+01
7.159487e+01
7.158317e+01
7.157002e+01
7.155601e+01
7.154184e+01
7.152829e+01
7.151614e+01
7.150610e+01
7.149875e+01
7.149446e+01
7.149344e+01
7.149548e+01
7.149973e+01
7.150613e+01
7.151443e+01
7.152413e+01
7.153442e+01
7.154419e+01
7.155225e+01
7.155775e+01
7.156002e+01
7.155867e+01
7.155345e+01
7.154121e+01
7.154102e+01
7.183928e+01
7.183947e+01
7.181559e+01
7.178655e+01
7.174831e+01
7.169572e+01
7.162289e+01
7.152702e+01
7.139677e+01
7.128919e+01
7.121744e+01
7.117441e+01
7.115140e+01
7.114186e+01
7.114136e+01
7.114705e+01
7.115712e+01
7.116996e+01
7.118321e+01
7.119323e+01
7.119649e+01
7.119342e+01
7.118893e+01
7.118797e+01
7.119329e+01
7.120432e+01
7.121834e+01
7.123397e+01
7.125096e+01
7.126980e+01
7.129134e+01
7.131631e+01
7.134502e+01
7.137729e+01
7.141236e+01
7.144901e+01
7.148574e+01
7.152109e+01
7.155367e+01
7.158212e+01
7.160565e+01
7.162417e+01
7.163833e+01
7.164911e+01
7.165718e+01
7.166188e+01
7.166223e+01
7.165690e+01
7.164372e+01
7.162056e+01
7.158623e+01
7.154345e+01
7.149761e+01
7.145562e+01
7.142466e+01
7.141025e+01
7.141467e+01
7.143143e+01
7.145825e+01
7.149090e+01
7.152409e+01
7.155327e+01
7.157693e+01
7.159395e+01
7.160505e+01
7.161158e+01
7.161516e+01
7.161707e+01
7.161816e+01
7.161886e+01
7.161919e+01
7.161896e+01
7.161800e+01
7.161601e+01
7.161260e+01
7.160742e+01
7.160021e+01
7.159088e+01
7.157965e+01
7.156709e+01
7.155376e+01
7.154034e+01
7.152754e+01
7.151609e+01
7.150666e+01
7.149980e+01
7.149592e+01
7.149534e+01
7.149791e+01
7.150258e+01
7.150925e+01
7.151758e+01
7.152693e+01
7.153641e+01
7.154497e+01
7.155170e+01
7.155631e+01
7.155846e+01
7.155807e+01
7.155543e+01
7.155061e+01
7.155041e+01
7.184012e+01
7.184031e+01
7.182109e+01
7.179653e+01
7.176194e+01
7.171018e+01
7.163142e+01
7.151747e+01
7.134374e+01
7.122753e+01
7.116664e+01
7.113654e+01
7.112348e+01
7.112082e+01
7.112480e+01
7.113323e+01
7.114534e+01
7.116070e+01
7.117791e+01
7.119320e+01
7.120042e+01
7.119749e+01
7.119148e+01
7.118924e+01
7.119423e+01
7.120647e+01
7.122136e+01
7.123670e+01
7.125240e+01
7.126914e+01
7.128823e+01
7.131067e+01
7.133699e+01
7.136716e+01
7.140052e+01
7.143589e+01
7.147175e+01
7.150658e+01
7.153906e+01
7.156805e+01
7.159260e+01
7.161232e+01
7.162752e+01
7.163888e+01
7.164689e+01
7.165008e+01
7.164795e+01
7.164007e+01
7.162542e+01
7.160255e+01
7.157046e+01
7.153149e+01
7.149055e+01
7.145362e+01
7.142698e+01
7.141563e+01
7.142158e+01
7.143775e+01
7.146187e+01
7.149014e+01
7.151828e+01
7.154281e+01
7.156348e+01
7.157946e+01
7.159090e+01
7.159872e+01
7.160400e+01
7.160755e+01
7.160986e+01
7.161130e+01
7.161214e+01
7.161217e+01
7.161132e+01
7.160944e+01
7.160626e+01
7.160149e+01
7.159489e+01
7.158634e+01
7.157593e+01
7.156430e+01
7.155198e+01
7.153960e+01
7.152782e+01
7.151732e+01
7.150872e+01
7.150256e+01
7.149931e+01
7.149943e+01
7.150253e+01
7.150752e+01
7.151422e+01
7.152216e+01
7.153068e+01
7.153892e+01
7.154605e+01
7.155172e+01
7.155584e+01
7.155826e+01
7.155913e+01
7.155890e+01
7.155904e+01
7.155884e+01
7.184204e+01
7.184223e+01
7.182943e+01
7.181156e+01
7.178340e+01
7.173498e+01
7.164847e+01
7.149824e+01
7.124751e+01
7.113718e+01
7.109984e+01
7.108898e+01
7.108926e+01
7.109553e+01
7.110492e+01
7.111682e+01
7.113107e+01
7.114801e+01
7.116855e+01
7.119066e+01
7.120520e+01
7.120371e+01
7.119514e+01
7.119107e+01
7.119615e+01
7.120918e+01
7.122635e+01
7.124141e+01
7.125550e+01
7.126935e+01
7.128517e+01
7.130428e+01
7.132747e+01
7.135489e+01
7.138602e+01
7.141974e+01
7.145453e+01
7.148871e+01
7.152091e+01
7.155041e+01
7.157613e+01
7.159747e+01
7.161438e+01
7.162699e+01
7.163527e+01
7.163694e+01
7.163199e+01
7.162178e+01
7.160646e+01
7.158506e+01
7.155655e+01
7.152277e+01
7.148791e+01
7.145693e+01
7.143516e+01
7.142692e+01
7.143359e+01
7.144846e+01
7.146936e+01
7.149313e+01
7.151644e+01
7.153667e+01
7.155426e+01
7.156857e+01
7.157955e+01
7.158772e+01
7.159369e+01
7.159795e+01
7.160087e+01
7.160273e+01
7.160379e+01
7.160398e+01
7.160321e+01
7.160149e+01
7.159869e+01
7.159458e+01
7.158890e+01
7.158150e+01
7.157236e+01
7.156203e+01
7.155105e+01
7.154001e+01
7.152953e+01
7.152022e+01
7.151268e+01
7.150746e+01
7.150506e+01
7.150592e+01
7.150926e+01
7.151421e+01
7.152047e+01
7.152755e+01
7.153484e+01
7.154165e+01
7.154748e+01
7.155242e+01
7.155632e+01
7.155922e+01
7.156135e+01
7.156310e+01
7.156600e+01
7.156580e+01
7.184533e+01
7.184552e+01
7.184080e+01
7.183224e+01
7.181516e+01
7.177733e+01
7.168819e+01
7.147303e+01
7.107840e+01
7.100851e+01
7.101975e+01
7.103651e+01
7.105282e+01
7.106795e+01
7.108284e+01
7.109885e+01
7.111585e+01
7.113452e+01
7.115503e+01
7.117835e+01
7.120177e+01
7.121074e+01
7.120037e+01
7.119419e+01
7.119991e+01
7.121586e+01
7.123468e+01
7.125002e+01
7.126274e+01
7.127295e+01
7.128486e+01
7.129999e+01
7.131942e+01
7.134345e+01
7.137173e+01
7.140325e+01
7.143650e+01
7.146967e+01
7.150107e+01
7.153081e+01
7.155786e+01
7.158133e+01
7.160048e+01
7.161431e+01
7.162194e+01
7.162079e+01
7.161278e+01
7.160109e+01
7.158660e+01
7.156842e+01
7.154524e+01
7.151822e+01
7.149052e+01
7.146613e+01
7.144942e+01
7.144393e+01
7.145037e+01
7.146320e+01
7.148049e+01
7.149971e+01
7.151833e+01
7.153448e+01
7.154886e+01
7.156101e+01
7.157082e+01
7.157853e+01
7.158444e+01
7.158878e+01
7.159177e+01
7.159360e+01
7.159449e+01
7.159459e+01
7.159377e+01
7.159222e+01
7.158993e+01
7.158673e+01
7.158234e+01
7.157650e+01
7.156911e+01
7.156052e+01
7.155126e+01
7.154186e+01
7.153291e+01
7.152500e+01
7.151870e+01
7.151454e+01
7.151296e+01
7.151420e+01
7.151732e+01
7.152171e+01
7.152706e+01
7.153292e+01
7.153880e+01
7.154425e+01
7.154917e+01
7.155360e+01
7.155751e+01
7.156099e+01
7.156423e+01
7.156747e+01
7.157169e+01
7.157150e+01
7.184999e+01
7.185018e+01
7.185459e+01
7.185774e+01
7.185789e+01
7.184613e+01
7.178796e+01
7.154201e+01
7.077535e+01
7.083568e+01
7.094357e+01
7.099179e+01
7.101881e+01
7.103946e+01
7.105861e+01
7.107840e+01
7.109869e+01
7.111868e+01
7.113727e+01
7.115988e+01
7.118401e+01
7.119993e+01
7.119918e+01
7.119444e+01
7.120267e+01
7.122319e+01
7.124601e+01
7.126430e+01
7.127671e+01
7.128397e+01
7.129209e+01
7.130303e+01
7.131834e+01
7.133820e+01
7.136261e+01
7.139080e+01
7.142140e+01
7.145256e+01
7.148221e+01
7.151105e+01
7.153875e+01
7.156378e+01
7.158414e+01
7.159751e+01
7.160266e+01
7.159791e+01
7.158841e+01
7.157763e+01
7.156628e+01
7.155336e+01
7.153719e+01
7.151811e+01
7.149821e+01
7.148062e+01
7.146878e+01
7.146544e+01
7.147087e+01
7.148106e+01
7.149442e+01
7.150906e+01
7.152311e+01
7.153530e+01
7.154635e+01
7.155599e+01
7.156412e+01
7.157078e+01
7.157603e+01
7.157992e+01
7.158252e+01
7.158399e+01
7.158450e+01
7.158428e+01
7.158331e+01
7.158192e+01
7.158023e+01
7.157813e+01
7.157533e+01
7.157147e+01
7.156627e+01
7.155986e+01
7.155267e+01
7.154517e+01
7.153790e+01
7.153146e+01
7.152638e+01
7.152312e+01
7.152201e+01
7.152308e+01
7.152554e+01
7.152898e+01
7.153314e+01
7.153768e+01
7.154228e+01
7.154666e+01
7.155094e+01
7.155510e+01
7.155916e+01
7.156322e+01
7.156739e+01
7.157177e+01
7.157685e+01
7.157666e+01
7.185564e+01
7.185583e+01
7.186904e+01
7.188435e+01
7.190509e+01
7.193433e+01
7.197059e+01
7.208056e+01
7.142776e+01
7.089296e+01
7.095062e+01
7.097268e+01
7.099628e+01
7.101599e+01
7.103418e+01
7.105348e+01
7.107386e+01
7.109232e+01
7.111154e+01
7.112882e+01
7.114259e+01
7.115136e+01
7.115539e+01
7.116345e+01
7.118559e+01
7.121744e+01
7.124980e+01
7.127633e+01
7.129360e+01
7.130270e+01
7.130948e+01
7.131717e+01
7.132868e+01
7.134363e+01
7.136285e+01
7.138609e+01
7.141223e+01
7.143961e+01
7.146623e+01
7.149133e+01
7.151656e+01
7.154020e+01
7.155909e+01
7.156965e+01
7.157133e+01
7.156603e+01
7.155898e+01
7.155248e+01
7.154684e+01
7.154098e+01
7.153305e+01
7.152248e+01
7.151040e+01
7.149923e+01
7.149167e+01
7.148979e+01
7.149368e+01
7.150085e+01
7.151016e+01
7.152024e+01
7.152985e+01
7.153817e+01
7.154582e+01
7.155272e+01
7.155877e+01
7.156389e+01
7.156799e+01
7.157099e+01
7.157289e+01
7.157380e+01
7.157388e+01
7.157335e+01
7.157228e+01
7.157110e+01
7.157006e+01
7.156917e+01
7.156815e+01
7.156655e+01
7.156389e+01
7.156003e+01
7.155519e+01
7.154973e+01
7.154418e+01
7.153908e+01
7.153495e+01
7.153220e+01
7.153105e+01
7.153154e+01
7.153308e+01
7.153541e+01
7.153836e+01
7.154172e+01
7.154529e+01
7.154892e+01
7.155274e+01
7.155675e+01
7.156097e+01
7.156549e+01
7.157040e+01
7.157575e+01
7.158209e+01
7.158190e+01
7.186153e+01
7.186173e+01
7.188159e+01
7.190600e+01
7.194162e+01
7.199891e+01
7.209556e+01
7.222726e+01
7.225698e+01
0.000000e+00
7.098360e+01
7.098380e+01
7.100466e+01
7.101842e+01
7.102969e+01
7.104287e+01
7.105628e+01
7.106683e+01
7.107307e+01
7.107556e+01
7.107192e+01
7.106392e+01
7.105715e+01
7.106876e+01
7.110659e+01
7.116565e+01
7.122981e+01
7.128136e+01
7.131578e+01
7.133195e+01
7.133847e+01
7.134371e+01
7.135147e+01
7.136106e+01
7.137389e+01
7.139045e+01
7.140999e+01
7.143102e+01
7.145158e+01
7.146912e+01
7.148847e+01
7.150719e+01
7.152052e+01
7.152652e+01
7.152650e+01
7.152603e+01
7.152681e+01
7.152859e+01
7.153088e+01
7.153297e+01
7.153345e+01
7.153114e+01
7.152625e+01
7.152066e+01
7.151649e+01
7.151536e+01
7.151743e+01
7.152148e+01
7.152677e+01
7.153244e+01
7.153777e+01
7.154232e+01
7.154654e+01
7.155051e+01
7.155412e+01
7.155724e+01
7.155972e+01
7.156146e+01
7.156246e+01
7.156280e+01
7.156261e+01
7.156201e+01
7.156114e+01
7.156041e+01
7.156020e+01
7.156058e+01
7.156135e+01
7.156204e+01
7.156206e+01
7.156093e+01
7.155856e+01
7.155518e+01
7.155123e+01
7.154724e+01
7.154373e+01
7.154107e+01
7.153954e+01
7.153924e+01
7.153976e+01
7.154100e+01
7.154285e+01
7.154519e+01
7.154791e+01
7.155093e+01
7.155435e+01
7.155818e+01
7.156246e+01
7.156727e+01
7.157275e+01
7.157902e+01
7.158727e+01
7.158707e+01
7.186698e+01
7.186717e+01
7.189033e+01
7.191851e+01
7.195810e+01
7.201651e+01
7.210102e+01
7.220230e+01
7.228709e+01
7.228690e+01
0.000000e+00
7.102635e+01
7.102654e+01
7.103837e+01
7.104540e+01
7.104953e+01
7.105080e+01
7.104737e+01
7.103786e+01
7.102102e+01
7.099685e+01
7.096982e+01
7.095482e+01
7.097882e+01
7.103948e+01
7.112545e+01
7.121571e+01
7.129585e+01
7.135275e+01
7.138054e+01
7.138660e+01
7.138674e+01
7.138821e+01
7.139163e+01
7.139696e+01
7.140526e+01
7.141597e+01
7.142771e+01
7.143831e+01
7.144643e+01
7.145598e+01
7.146267e+01
7.146588e+01
7.146789e+01
7.147446e+01
7.148510e+01
7.149746e+01
7.150963e+01
7.152073e+01
7.153051e+01
7.153827e+01
7.154312e+01
7.154462e+01
7.154358e+01
7.154183e+01
7.154082e+01
7.154104e+01
7.154208e+01
7.154358e+01
7.154511e+01
7.154637e+01
7.154724e+01
7.154798e+01
7.154876e+01
7.154951e+01
7.155012e+01
7.155052e+01
7.155067e+01
7.155063e+01
7.155047e+01
7.155030e+01
7.155011e+01
7.155009e+01
7.155053e+01
7.155161e+01
7.155343e+01
7.155589e+01
7.155862e+01
7.156103e+01
7.156244e+01
7.156244e+01
7.156101e+01
7.155850e+01
7.155540e+01
7.155227e+01
7.154953e+01
7.154748e+01
7.154627e+01
7.154576e+01
7.154593e+01
7.154672e+01
7.154808e+01
7.154996e+01
7.155235e+01
7.155533e+01
7.155891e+01
7.156314e+01
7.156811e+01
7.157399e+01
7.158109e+01
7.159156e+01
7.159137e+01
7.187158e+01
7.187177e+01
7.189481e+01
7.192199e+01
7.195795e+01
7.200805e+01
7.207303e+01
7.213275e+01
7.216410e+01
7.192737e+01
7.192718e+01
0.000000e+00
7.104132e+01
7.105649e+01
7.105714e+01
7.105419e+01
7.104629e+01
7.103315e+01
7.101370e+01
7.098486e+01
7.094843e+01
7.091187e+01
7.090514e+01
7.094620e+01
7.102649e+01
7.112878e+01
7.123332e+01
7.132626e+01
7.140033e+01
7.144134e+01
7.145617e+01
7.145140e+01
7.144353e+01
7.143820e+01
7.143480e+01
7.143353e+01
7.143352e+01
7.143355e+01
7.143142e+01
7.142656e+01
7.141990e+01
7.141276e+01
7.140712e+01
7.140960e+01
7.142618e+01
7.144995e+01
7.147506e+01
7.149798e+01
7.151743e+01
7.153350e+01
7.154678e+01
7.155695e+01
7.156336e+01
7.156613e+01
7.156638e+01
7.156527e+01
7.156379e+01
7.156212e+01
7.156020e+01
7.155795e+01
7.155538e+01
7.155259e+01
7.154977e+01
7.154703e+01
7.154442e+01
7.154198e+01
7.153979e+01
7.153797e+01
7.153667e+01
7.153600e+01
7.153607e+01
7.153720e+01
7.153918e+01
7.154177e+01
7.154487e+01
7.154848e+01
7.155255e+01
7.155690e+01
7.156109e+01
7.156437e+01
7.156621e+01
7.156640e+01
7.156516e+01
7.156289e+01
7.156007e+01
7.155719e+01
7.155458e+01
7.155252e+01
7.155102e+01
7.155011e+01
7.154980e+01
7.155011e+01
7.155106e+01
7.155273e+01
7.155520e+01
7.155847e+01
7.156261e+01
7.156771e+01
7.157396e+01
7.158179e+01
7.159470e+01
7.159451e+01
7.187529e+01
7.187548e+01
7.189570e+01
7.191883e+01
7.194740e+01
7.198150e+01
7.201438e+01
7.202425e+01
7.196808e+01
7.185496e+01
7.145517e+01
7.116033e+01
7.103247e+01
7.107317e+01
7.107053e+01
7.106044e+01
7.104609e+01
7.102766e+01
7.100199e+01
7.096569e+01
7.092073e+01
7.088687e+01
7.089705e+01
7.095525e+01
7.104848e+01
7.115760e+01
7.126423e+01
7.135446e+01
7.143315e+01
7.149116e+01
7.151836e+01
7.152276e+01
7.151549e+01
7.150153e+01
7.148909e+01
7.147737e+01
7.146472e+01
7.144955e+01
7.143274e+01
7.141227e+01
7.138943e+01
7.136800e+01
7.135261e+01
7.136049e+01
7.138865e+01
7.142557e+01
7.146253e+01
7.149485e+01
7.152051e+01
7.154115e+01
7.155807e+01
7.157160e+01
7.158127e+01
7.158670e+01
7.158833e+01
7.158704e+01
7.158425e+01
7.158043e+01
7.157575e+01
7.157034e+01
7.156441e+01
7.155817e+01
7.155182e+01
7.154540e+01
7.153913e+01
7.153326e+01
7.152809e+01
7.152394e+01
7.152108e+01
7.151966e+01
7.152026e+01
7.152349e+01
7.152846e+01
7.153428e+01
7.154032e+01
7.154623e+01
7.155191e+01
7.155739e+01
7.156248e+01
7.156668e+01
7.156944e+01
7.157046e+01
7.156995e+01
7.156820e+01
7.156559e+01
7.156264e+01
7.155975e+01
7.155706e+01
7.155473e+01
7.155286e+01
7.155152e+01
7.155082e+01
7.155082e+01
7.155172e+01
7.155369e+01
7.155665e+01
7.156069e+01
7.156589e+01
7.157236e+01
7.158060e+01
7.159485e+01
7.159465e+01
7.187840e+01
7.187859e+01
7.189428e+01
7.191117e+01
7.192944e+01
7.194627e+01
7.195245e+01
7.192809e+01
7.183715e+01
7.167112e+01
7.140851e+01
7.086587e+01
7.099215e+01
7.105424e+01
7.106663e+01
7.106093e+01
7.104794e+01
7.102890e+01
7.099996e+01
7.095800e+01
7.091509e+01
7.089751e+01
7.092495e+01
7.099484e+01
7.109279e+01
7.120149e+01
7.129775e+01
7.137740e+01
7.144290e+01
7.150079e+01
7.154633e+01
7.156598e+01
7.157222e+01
7.156064e+01
7.154143e+01
7.151888e+01
7.149344e+01
7.146559e+01
7.143736e+01
7.140280e+01
7.136532e+01
7.133008e+01
7.131106e+01
7.132745e+01
7.136694e+01
7.141501e+01
7.146126e+01
7.149937e+01
7.152906e+01
7.155239e+01
7.157112e+01
7.158619e+01
7.159755e+01
7.160465e+01
7.160734e+01
7.160613e+01
7.160258e+01
7.159721e+01
7.159038e+01
7.158236e+01
7.157347e+01
7.156405e+01
7.155439e+01
7.154437e+01
7.153439e+01
7.152493e+01
7.151652e+01
7.150970e+01
7.150488e+01
7.150226e+01
7.150375e+01
7.150966e+01
7.151836e+01
7.152822e+01
7.153796e+01
7.154650e+01
7.155382e+01
7.156010e+01
7.156539e+01
7.156950e+01
7.157203e+01
7.157258e+01
7.157203e+01
7.157053e+01
7.156830e+01
7.156560e+01
7.156264e+01
7.155960e+01
7.155667e+01
7.155403e+01
7.155183e+01
7.155010e+01
7.154900e+01
7.154886e+01
7.155024e+01
7.155307e+01
7.155724e+01
7.156261e+01
7.156915e+01
7.157720e+01
7.159007e+01
7.158988e+01
7.188096e+01
7.188116e+01
7.189135e+01
7.190135e+01
7.190986e+01
7.191299e+01
7.190235e+01
7.186334e+01
7.177369e+01
7.161530e+01
7.140326e+01
7.111740e+01
7.108740e+01
7.109133e+01
7.108803e+01
7.107737e+01
7.106150e+01
7.104030e+01
7.101122e+01
7.097318e+01
7.094409e+01
7.094372e+01
7.098150e+01
7.105299e+01
7.114586e+01
7.124150e+01
7.132666e+01
7.139901e+01
7.145803e+01
7.150237e+01
7.153260e+01
7.156225e+01
7.158582e+01
7.158445e+01
7.156967e+01
7.154570e+01
7.151430e+01
7.147887e+01
7.144187e+01
7.139667e+01
7.134832e+01
7.130374e+01
7.128926e+01
7.131454e+01
7.136321e+01
7.141886e+01
7.146996e+01
7.151050e+01
7.154179e+01
7.156593e+01
7.158491e+01
7.160005e+01
7.161172e+01
7.161954e+01
7.162295e+01
7.162230e+01
7.161864e+01
7.161246e+01
7.160420e+01
7.159420e+01
7.158285e+01
7.157061e+01
7.155792e+01
7.154450e+01
7.153089e+01
7.151780e+01
7.150599e+01
7.149624e+01
7.148917e+01
7.148511e+01
7.148798e+01
7.149696e+01
7.150970e+01
7.152386e+01
7.153718e+01
7.154833e+01
7.155732e+01
7.156434e+01
7.156948e+01
7.157268e+01
7.157383e+01
7.157331e+01
7.157208e+01
7.157038e+01
7.156836e+01
7.156600e+01
7.156329e+01
7.156025e+01
7.155705e+01
7.155395e+01
7.155090e+01
7.154801e+01
7.154538e+01
7.154459e+01
7.154584e+01
7.154885e+01
7.155324e+01
7.155867e+01
7.156479e+01
7.157147e+01
7.158076e+01
7.158057e+01
7.188306e+01
7.188325e+01
7.188799e+01
7.189164e+01
7.189221e+01
7.188590e+01
7.186622e+01
7.182355e+01
7.174530e+01
7.161885e+01
7.144844e+01
7.125694e+01
7.117826e+01
7.114420e+01
7.112140e+01
7.110068e+01
7.107966e+01
7.105693e+01
7.103038e+01
7.100318e+01
7.098953e+01
7.100157e+01
7.104377e+01
7.111102e+01
7.119321e+01
7.127473e+01
7.134864e+01
7.141232e+01
7.146514e+01
7.150733e+01
7.154008e+01
7.156649e+01
7.158082e+01
7.158194e+01
7.157253e+01
7.155209e+01
7.152198e+01
7.148572e+01
7.144494e+01
7.139401e+01
7.133962e+01
7.129299e+01
7.128887e+01
7.132239e+01
7.137654e+01
7.143515e+01
7.148618e+01
7.152636e+01
7.155709e+01
7.158049e+01
7.159855e+01
7.161275e+01
7.162373e+01
7.163138e+01
7.163505e+01
7.163518e+01
7.163202e+01
7.162588e+01
7.161708e+01
7.160593e+01
7.159282e+01
7.157827e+01
7.156293e+01
7.154640e+01
7.152937e+01
7.151273e+01
7.149749e+01
7.148472e+01
7.147532e+01
7.147028e+01
7.147476e+01
7.148678e+01
7.150330e+01
7.152135e+01
7.153760e+01
7.155076e+01
7.156090e+01
7.156830e+01
7.157322e+01
7.157589e+01
7.157650e+01
7.157553e+01
7.157382e+01
7.157154e+01
7.156879e+01
7.156572e+01
7.156256e+01
7.155927e+01
7.155578e+01
7.155218e+01
7.154847e+01
7.154462e+01
7.154148e+01
7.154063e+01
7.154201e+01
7.154515e+01
7.154949e+01
7.155456e+01
7.155941e+01
7.156396e+01
7.156856e+01
7.156837e+01
7.188485e+01
7.188505e+01
7.188494e+01
7.188327e+01
7.187789e+01
7.186543e+01
7.184109e+01
7.179861e+01
7.173073e+01
7.162987e+01
7.149515e+01
7.134563e+01
7.125241e+01
7.119635e+01
7.115741e+01
7.112647e+01
7.109967e+01
7.107508e+01
7.105177e+01
7.103446e+01
7.103238e+01
7.105271e+01
7.109656e+01
7.115868e+01
7.123024e+01
7.130108e+01
7.136598e+01
7.142267e+01
7.147063e+01
7.151021e+01
7.154100e+01
7.156224e+01
7.157250e+01
7.157301e+01
7.156487e+01
7.154728e+01
7.152034e+01
7.148688e+01
7.144620e+01
7.139535e+01
7.134157e+01
7.130438e+01
7.130905e+01
7.134720e+01
7.140208e+01
7.145884e+01
7.150677e+01
7.154453e+01
7.157324e+01
7.159486e+01
7.161132e+01
7.162406e+01
7.163383e+01
7.164070e+01
7.164438e+01
7.164499e+01
7.164259e+01
7.163714e+01
7.162867e+01
7.161731e+01
7.160334e+01
7.158720e+01
7.156967e+01
7.155048e+01
7.153033e+01
7.151033e+01
7.149177e+01
7.147609e+01
7.146454e+01
7.145946e+01
7.146552e+01
7.148019e+01
7.149979e+01
7.152077e+01
7.153904e+01
7.155352e+01
7.156431e+01
7.157182e+01
7.157654e+01
7.157892e+01
7.157938e+01
7.157828e+01
7.157631e+01
7.157358e+01
7.157021e+01
7.156637e+01
7.156236e+01
7.155834e+01
7.155412e+01
7.154979e+01
7.154538e+01
7.154103e+01
7.153805e+01
7.153746e+01
7.153905e+01
7.154221e+01
7.154628e+01
7.155036e+01
7.155360e+01
7.155570e+01
7.155554e+01
7.155535e+01
7.188640e+01
7.188659e+01
7.188253e+01
7.187673e+01
7.186706e+01
7.185064e+01
7.182383e+01
7.178231e+01
7.172153e+01
7.163704e+01
7.152774e+01
7.140547e+01
7.130954e+01
7.124059e+01
7.118984e+01
7.115025e+01
7.111809e+01
7.109162e+01
7.107112e+01
7.106076e+01
7.106643e+01
7.109186e+01
7.113609e+01
7.119384e+01
7.125783e+01
7.132105e+01
7.137935e+01
7.143089e+01
7.147513e+01
7.151188e+01
7.154013e+01
7.155910e+01
7.156849e+01
7.156895e+01
7.156092e+01
7.154407e+01
7.151845e+01
7.148615e+01
7.144565e+01
7.139734e+01
7.135011e+01
7.132572e+01
7.133805e+01
7.137829e+01
7.143120e+01
7.148348e+01
7.152759e+01
7.156226e+01
7.158846e+01
7.160798e+01
7.162264e+01
7.163381e+01
7.164228e+01
7.164827e+01
7.165176e+01
7.165268e+01
7.165099e+01
7.164644e+01
7.163881e+01
7.162797e+01
7.161396e+01
7.159706e+01
7.157792e+01
7.155659e+01
7.153374e+01
7.151067e+01
7.148904e+01
7.147075e+01
7.145768e+01
7.145323e+01
7.146081e+01
7.147754e+01
7.149926e+01
7.152201e+01
7.154141e+01
7.155661e+01
7.156768e+01
7.157514e+01
7.157964e+01
7.158179e+01
7.158214e+01
7.158106e+01
7.157897e+01
7.157599e+01
7.157220e+01
7.156777e+01
7.156293e+01
7.155795e+01
7.155271e+01
7.154740e+01
7.154228e+01
7.153779e+01
7.153521e+01
7.153503e+01
7.153688e+01
7.154000e+01
7.154358e+01
7.154653e+01
7.154808e+01
7.154777e+01
7.154329e+01
7.154310e+01
7.188768e+01
7.188787e+01
7.188083e+01
7.187204e+01
7.185945e+01
7.184054e+01
7.181238e+01
7.177174e+01
7.171542e+01
7.164071e+01
7.154726e+01
7.144275e+01
7.134980e+01
7.127488e+01
7.121608e+01
7.116973e+01
7.113314e+01
7.110517e+01
7.108680e+01
7.108126e+01
7.109206e+01
7.112043e+01
7.116419e+01
7.121839e+01
7.127714e+01
7.133515e+01
7.138895e+01
7.143683e+01
7.147820e+01
7.151263e+01
7.153932e+01
7.155763e+01
7.156734e+01
7.156856e+01
7.156122e+01
7.154491e+01
7.151948e+01
7.148613e+01
7.144433e+01
7.139770e+01
7.135832e+01
7.134525e+01
7.136409e+01
7.140552e+01
7.145600e+01
7.150437e+01
7.154498e+01
7.157672e+01
7.160054e+01
7.161813e+01
7.163122e+01
7.164118e+01
7.164884e+01
7.165453e+01
7.165787e+01
7.165907e+01
7.165798e+01
7.165432e+01
7.164763e+01
7.163761e+01
7.162406e+01
7.160703e+01
7.158690e+01
7.156396e+01
7.153887e+01
7.151310e+01
7.148868e+01
7.146814e+01
7.145425e+01
7.145083e+01
7.145979e+01
7.147801e+01
7.150100e+01
7.152449e+01
7.154443e+01
7.155996e+01
7.157111e+01
7.157845e+01
7.158274e+01
7.158464e+01
7.158481e+01
7.158371e+01
7.158155e+01
7.157841e+01
7.157436e+01
7.156949e+01
7.156394e+01
7.155796e+01
7.155161e+01
7.154525e+01
7.153946e+01
7.153505e+01
7.153292e+01
7.153321e+01
7.153535e+01
7.153845e+01
7.154150e+01
7.154345e+01
7.154352e+01
7.154110e+01
7.153282e+01
7.153263e+01
7.188860e+01
7.188880e+01
7.187980e+01
7.186908e+01
7.185469e+01
7.183433e+01
7.180550e+01
7.176553e+01
7.171190e+01
7.164276e+01
7.155831e+01
7.146423e+01
7.137471e+01
7.129752e+01
7.123422e+01
7.118357e+01
7.114405e+01
7.111517e+01
7.109818e+01
7.109541e+01
7.110890e+01
7.113861e+01
7.118180e+01
7.123375e+01
7.128928e+01
7.134401e+01
7.139493e+01
7.144051e+01
7.148003e+01
7.151301e+01
7.153887e+01
7.155707e+01
7.156734e+01
7.156945e+01
7.156302e+01
7.154741e+01
7.152201e+01
7.148688e+01
7.144294e+01
7.139704e+01
7.136408e+01
7.135862e+01
7.138197e+01
7.142441e+01
7.147299e+01
7.151858e+01
7.155677e+01
7.158656e+01
7.160879e+01
7.162506e+01
7.163704e+01
7.164608e+01
7.165313e+01
7.165861e+01
7.166219e+01
7.166395e+01
7.166362e+01
7.166075e+01
7.165491e+01
7.164567e+01
7.163271e+01
7.161589e+01
7.159530e+01
7.157123e+01
7.154439e+01
7.151634e+01
7.148946e+01
7.146698e+01
7.145272e+01
7.145036e+01
7.146045e+01
7.147973e+01
7.150344e+01
7.152714e+01
7.154740e+01
7.156316e+01
7.157440e+01
7.158166e+01
7.158568e+01
7.158731e+01
7.158722e+01
7.158597e+01
7.158372e+01
7.158046e+01
7.157625e+01
7.157110e+01
7.156502e+01
7.155812e+01
7.155073e+01
7.154341e+01
7.153707e+01
7.153281e+01
7.153108e+01
7.153183e+01
7.153434e+01
7.153750e+01
7.154012e+01
7.154126e+01
7.154009e+01
7.153583e+01
7.152410e+01
7.152390e+01
7.188911e+01
7.188930e+01
7.187933e+01
7.186769e+01
7.185247e+01
7.183151e+01
7.180249e+01
7.176300e+01
7.171080e+01
7.164436e+01
7.156408e+01
7.147477e+01
7.138717e+01
7.130914e+01
7.124372e+01
7.119091e+01
7.114988e+01
7.112055e+01
7.110416e+01
7.110256e+01
7.111709e+01
7.114716e+01
7.118987e+01
7.124064e+01
7.129462e+01
7.134782e+01
7.139743e+01
7.144192e+01
7.148054e+01
7.151278e+01
7.153823e+01
7.155653e+01
7.156731e+01
7.157016e+01
7.156454e+01
7.154967e+01
7.152450e+01
7.148805e+01
7.144236e+01
7.139695e+01
7.136783e+01
7.136615e+01
7.139110e+01
7.143306e+01
7.148028e+01
7.152451e+01
7.156169e+01
7.159077e+01
7.161248e+01
7.162832e+01
7.163990e+01
7.164858e+01
7.165531e+01
7.166054e+01
7.166429e+01
7.166646e+01
7.166672e+01
7.166456e+01
7.165944e+01
7.165088e+01
7.163849e+01
7.162201e+01
7.160134e+01
7.157663e+01
7.154857e+01
7.151875e+01
7.148984e+01
7.146576e+01
7.145112e+01
7.144925e+01
7.146004e+01
7.148012e+01
7.150447e+01
7.152832e+01
7.154875e+01
7.156462e+01
7.157590e+01
7.158314e+01
7.158715e+01
7.158875e+01
7.158863e+01
7.158728e+01
7.158490e+01
7.158155e+01
7.157727e+01
7.157200e+01
7.156568e+01
7.155829e+01
7.155038e+01
7.154265e+01
7.153618e+01
7.153199e+01
7.153048e+01
7.153144e+01
7.153403e+01
7.153706e+01
7.153932e+01
7.153996e+01
7.153806e+01
7.153266e+01
7.151843e+01
7.151824e+01
0.000000e+00
7.188911e+01
7.187914e+01
7.186750e+01
7.185227e+01
7.183132e+01
7.180230e+01
7.176281e+01
7.171061e+01
7.164417e+01
7.156388e+01
7.147458e+01
7.138698e+01
7.130894e+01
7.124353e+01
7.119071e+01
7.114968e+01
7.112036e+01
7.110397e+01
7.110237e+01
7.111690e+01
7.114697e+01
7.118968e+01
7.124045e+01
7.129443e+01
7.134763e+01
7.139723e+01
7.144173e+01
7.148034e+01
7.151259e+01
7.153804e+01
7.155634e+01
7.156712e+01
7.156997e+01
7.156435e+01
7.154948e+01
7.152431e+01
7.148786e+01
7.144216e+01
7.139675e+01
7.136764e+01
7.136595e+01
7.139091e+01
7.143287e+01
7.148009e+01
7.152432e+01
7.156150e+01
7.159057e+01
7.161229e+01
7.162813e+01
7.163970e+01
7.164838e+01
7.165512e+01
7.166035e+01
7.166409e+01
7.166627e+01
7.166653e+01
7.166437e+01
7.165925e+01
7.165069e+01
7.163830e+01