# vtk DataFile Version 3.0
Scalar Field
ASCII
DATASET RECTILINEAR_GRID
DIMENSIONS 102 22 1
X_COORDINATES 102 double
0.000000 0.100000 0.200000 0.300000 0.400000 0.500000 0.600000 0.700000 0.800000 0.900000 1.000000 1.100000 1.200000 1.300000 1.400000 1.500000 1.600000 1.700000 1.800000 1.900000 2.000000 2.100000 2.200000 2.300000 2.400000 2.500000 2.600000 2.700000 2.800000 2.900000 3.000000 3.100000 3.200000 3.300000 3.400000 3.500000 3.600000 3.700000 3.800000 3.900000 4.000000 4.100000 4.200000 4.300000 4.400000 4.500000 4.600000 4.700000 4.800000 4.900000 5.000000 5.100000 5.200000 5.300000 5.400000 5.500000 5.600000 5.700000 5.800000 5.900000 6.000000 6.100000 6.200000 6.300000 6.400000 6.500000 6.600000 6.700000 6.800000 6.900000 7.000000 7.100000 7.200000 7.300000 7.400000 7.500000 7.600000 7.700000 7.800000 7.900000 8.000000 8.100000 8.200000 8.300000 8.400000 8.500000 8.600000 8.700000 8.800000 8.900000 9.000000 9.100000 9.200000 9.300000 9.400000 9.500000 9.600000 9.700000 9.800000 9.900000 10.000000 10.100000 
Y_COORDINATES 22 double
0.000000 0.100000 0.200000 0.300000 0.400000 0.500000 0.600000 0.700000 0.800000 0.900000 1.000000 1.100000 1.200000 1.300000 1.400000 1.500000 1.600000 1.700000 1.800000 1.900000 2.000000 2.100000 
Z_COORDINATES 1 double
0.0
POINT_DATA 2244
SCALARS Pressure double 1
LOOKUP_TABLE default
0.000000e+00
6.146926e+01
6.143683e+01
6.140027e+01
6.135559e+01
6.129860e+01
6.122514e+01
6.113327e+01
6.102138e+01
6.091008e+01
6.081597e+01
6.074466e+01
6.069512e+01
6.066384e+01
6.064692e+01
6.064107e+01
6.064379e+01
6.065332e+01
6.066841e+01
6.068818e+01
6.071198e+01
6.073941e+01
6.077018e+01
6.080418e+01
6.084131e+01
6.088131e+01
6.092350e+01
6.096670e+01
6.100904e+01
6.104770e+01
6.107770e+01
6.109083e+01
6.107961e+01
6.104387e+01
6.099266e+01
6.093999e+01
6.089883e+01
6.087547e+01
6.086927e+01
6.087714e+01
6.089581e+01
6.092235e+01
6.095413e+01
6.098867e+01
6.102349e+01
6.105627e+01
6.108481e+01
6.110762e+01
6.112427e+01
6.113540e+01
6.114236e+01
6.114648e+01
6.114886e+01
6.115078e+01
6.115157e+01
6.115017e+01
6.114535e+01
6.113599e+01
6.112140e+01
6.110161e+01
6.107754e+01
6.105089e+01
6.102398e+01
6.099940e+01
6.097968e+01
6.096681e+01
6.096186e+01
6.096478e+01
6.097458e+01
6.099076e+01
6.101226e+01
6.103717e+01
6.106248e+01
6.108449e+01
6.110014e+01
6.110836e+01
6.111075e+01
6.110983e+01
6.110760e+01
6.110511e+01
6.110304e+01
6.110133e+01
6.109954e+01
6.109729e+01
6.109425e+01
6.109014e+01
6.108478e+01
6.107812e+01
6.107025e+01
6.106138e+01
6.105177e+01
6.104176e+01
6.103171e+01
6.102205e+01
6.101320e+01
6.100557e+01
6.099950e+01
6.099524e+01
6.099286e+01
6.099225e+01
6.099466e+01
0.000000e+00
6.146926e+01
6.146890e+01
6.143647e+01
6.139991e+01
6.135523e+01
6.129824e+01
6.122477e+01
6.113291e+01
6.102102e+01
6.090972e+01
6.081561e+01
6.074430e+01
6.069476e+01
6.066348e+01
6.064656e+01
6.064071e+01
6.064343e+01
6.065296e+01
6.066805e+01
6.068781e+01
6.071162e+01
6.073904e+01
6.076982e+01
6.080382e+01
6.084095e+01
6.088095e+01
6.092313e+01
6.096634e+01
6.100868e+01
6.104734e+01
6.107734e+01
6.109047e+01
6.107925e+01
6.104351e+01
6.099230e+01
6.093962e+01
6.089847e+01
6.087511e+01
6.086891e+01
6.087678e+01
6.089545e+01
6.092198e+01
6.095377e+01
6.098830e+01
6.102313e+01
6.105590e+01
6.108445e+01
6.110726e+01
6.112390e+01
6.113504e+01
6.114199e+01
6.114612e+01
6.114850e+01
6.115042e+01
6.115121e+01
6.114981e+01
6.114499e+01
6.113562e+01
6.112104e+01
6.110125e+01
6.107718e+01
6.105053e+01
6.102361e+01
6.099903e+01
6.097932e+01
6.096644e+01
6.096150e+01
6.096442e+01
6.097422e+01
6.099039e+01
6.101190e+01
6.103681e+01
6.106211e+01
6.108412e+01
6.109978e+01
6.110800e+01
6.111039e+01
6.110946e+01
6.110724e+01
6.110474e+01
6.110268e+01
6.110096e+01
6.109917e+01
6.109693e+01
6.109388e+01
6.108977e+01
6.108441e+01
6.107776e+01
6.106989e+01
6.106102e+01
6.105141e+01
6.104139e+01
6.103135e+01
6.102169e+01
6.101283e+01
6.100520e+01
6.099914e+01
6.099488e+01
6.099250e+01
6.099189e+01
6.099430e+01
6.099466e+01
6.146795e+01
6.146759e+01
6.143668e+01
6.140138e+01
6.135744e+01
6.130021e+01
6.122481e+01
6.112908e+01
6.100749e+01
6.089195e+01
6.079915e+01
6.073118e+01
6.068486e+01
6.065610e+01
6.064098e+01
6.063629e+01
6.063970e+01
6.064962e+01
6.066489e+01
6.068467e+01
6.070838e+01
6.073563e+01
6.076614e+01
6.079977e+01
6.083641e+01
6.087585e+01
6.091748e+01
6.096033e+01
6.100294e+01
6.104288e+01
6.107467e+01
6.109031e+01
6.108197e+01
6.104806e+01
6.099735e+01
6.094296e+01
6.089795e+01
6.087169e+01
6.086401e+01
6.087130e+01
6.088981e+01
6.091631e+01
6.094805e+01
6.098251e+01
6.101722e+01
6.105007e+01
6.107896e+01
6.110236e+01
6.111975e+01
6.113163e+01
6.113918e+01
6.114371e+01
6.114617e+01
6.114754e+01
6.114744e+01
6.114502e+01
6.113926e+01
6.112925e+01
6.111444e+01
6.109488e+01
6.107142e+01
6.104569e+01
6.101986e+01
6.099642e+01
6.097775e+01
6.096573e+01
6.096159e+01
6.096538e+01
6.097589e+01
6.099266e+01
6.101434e+01
6.103845e+01
6.106157e+01
6.108048e+01
6.109367e+01
6.110102e+01
6.110376e+01
6.110379e+01
6.110267e+01
6.110124e+01
6.109989e+01
6.109854e+01
6.109690e+01
6.109469e+01
6.109166e+01
6.108759e+01
6.108232e+01
6.107581e+01
6.106810e+01
6.105941e+01
6.105002e+01
6.104027e+01
6.103050e+01
6.102113e+01
6.101255e+01
6.100516e+01
6.099927e+01
6.099509e+01
6.099271e+01
6.099209e+01
6.099471e+01
6.099507e+01
6.146599e+01
6.146563e+01
6.143790e+01
6.140546e+01
6.136355e+01
6.130642e+01
6.122729e+01
6.112258e+01
6.097781e+01
6.085466e+01
6.076624e+01
6.070574e+01
6.066595e+01
6.064207e+01
6.063042e+01
6.062786e+01
6.063253e+01
6.064312e+01
6.065864e+01
6.067837e+01
6.070180e+01
6.072859e+01
6.075852e+01
6.079142e+01
6.082714e+01
6.086550e+01
6.090609e+01
6.094823e+01
6.099099e+01
6.103356e+01
6.107144e+01
6.109463e+01
6.109189e+01
6.105805e+01
6.100471e+01
6.094653e+01
6.089674e+01
6.086553e+01
6.085549e+01
6.086152e+01
6.087931e+01
6.090532e+01
6.093659e+01
6.097051e+01
6.100480e+01
6.103750e+01
6.106684e+01
6.109136e+01
6.111032e+01
6.112387e+01
6.113284e+01
6.113835e+01
6.114134e+01
6.114243e+01
6.114145e+01
6.113788e+01
6.113110e+01
6.112054e+01
6.110568e+01
6.108645e+01
6.106381e+01
6.103930e+01
6.101497e+01
6.099309e+01
6.097589e+01
6.096523e+01
6.096255e+01
6.096758e+01
6.097891e+01
6.099582e+01
6.101656e+01
6.103830e+01
6.105782e+01
6.107317e+01
6.108405e+01
6.109055e+01
6.109386e+01
6.109523e+01
6.109553e+01
6.109535e+01
6.109493e+01
6.109417e+01
6.109289e+01
6.109094e+01
6.108812e+01
6.108426e+01
6.107923e+01
6.107298e+01
6.106555e+01
6.105715e+01
6.104811e+01
6.103875e+01
6.102940e+01
6.102044e+01
6.101225e+01
6.100518e+01
6.099952e+01
6.099548e+01
6.099313e+01
6.099245e+01
6.099420e+01
6.099456e+01
6.146384e+01
6.146348e+01
6.144071e+01
6.141297e+01
6.137485e+01
6.131855e+01
6.123325e+01
6.110969e+01
6.092095e+01
6.079238e+01
6.071719e+01
6.066991e+01
6.063949e+01
6.062225e+01
6.061540e+01
6.061571e+01
6.062208e+01
6.063358e+01
6.064945e+01
6.066908e+01
6.069205e+01
6.071814e+01
6.074719e+01
6.077905e+01
6.081355e+01
6.085049e+01
6.088983e+01
6.093146e+01
6.097503e+01
6.101999e+01
6.106626e+01
6.110101e+01
6.110796e+01
6.107650e+01
6.101619e+01
6.095011e+01
6.089451e+01
6.085811e+01
6.084493e+01
6.084955e+01
6.086594e+01
6.089080e+01
6.092118e+01
6.095448e+01
6.098836e+01
6.102082e+01
6.105035e+01
6.107587e+01
6.109654e+01
6.111209e+01
6.112292e+01
6.112984e+01
6.113373e+01
6.113510e+01
6.113352e+01
6.112908e+01
6.112156e+01
6.111059e+01
6.109586e+01
6.107734e+01
6.105594e+01
6.103318e+01
6.101085e+01
6.099102e+01
6.097576e+01
6.096693e+01
6.096623e+01
6.097254e+01
6.098442e+01
6.100077e+01
6.101955e+01
6.103802e+01
6.105362e+01
6.106593e+01
6.107485e+01
6.108066e+01
6.108422e+01
6.108637e+01
6.108765e+01
6.108836e+01
6.108866e+01
6.108848e+01
6.108759e+01
6.108593e+01
6.108340e+01
6.107988e+01
6.107526e+01
6.106947e+01
6.106256e+01
6.105466e+01
6.104617e+01
6.103738e+01
6.102862e+01
6.102023e+01
6.101256e+01
6.100592e+01
6.100058e+01
6.099673e+01
6.099444e+01
6.099368e+01
6.099392e+01
6.099428e+01
6.146205e+01
6.146168e+01
6.144576e+01
6.142503e+01
6.139356e+01
6.134054e+01
6.124692e+01
6.108530e+01
6.082042e+01
6.070271e+01
6.065421e+01
6.062582e+01
6.060700e+01
6.059743e+01
6.059630e+01
6.060001e+01
6.060843e+01
6.062114e+01
6.063748e+01
6.065697e+01
6.067933e+01
6.070443e+01
6.073227e+01
6.076282e+01
6.079596e+01
6.083141e+01
6.086962e+01
6.091150e+01
6.095746e+01
6.100583e+01
6.105331e+01
6.109742e+01
6.111627e+01
6.109256e+01
6.103128e+01
6.095685e+01
6.089506e+01
6.085442e+01
6.083732e+01
6.084105e+01
6.085543e+01
6.087807e+01
6.090650e+01
6.093833e+01
6.097123e+01
6.100308e+01
6.103240e+01
6.105866e+01
6.108070e+01
6.109794e+01
6.111049e+01
6.111891e+01
6.112399e+01
6.112614e+01
6.112425e+01
6.111899e+01
6.111077e+01
6.109966e+01
6.108551e+01
6.106829e+01
6.104882e+01
6.102844e+01
6.100871e+01
6.099148e+01
6.097865e+01
6.097209e+01
6.097358e+01
6.098078e+01
6.099254e+01
6.100746e+01
6.102347e+01
6.103830e+01
6.105026e+01
6.105998e+01
6.106719e+01
6.107227e+01
6.107583e+01
6.107833e+01
6.108006e+01
6.108117e+01
6.108174e+01
6.108186e+01
6.108122e+01
6.107983e+01
6.107765e+01
6.107460e+01
6.107056e+01
6.106547e+01
6.105932e+01
6.105219e+01
6.104447e+01
6.103646e+01
6.102846e+01
6.102080e+01
6.101379e+01
6.100771e+01
6.100280e+01
6.099925e+01
6.099712e+01
6.099630e+01
6.099540e+01
6.099576e+01
6.146110e+01
6.146074e+01
6.145343e+01
6.144248e+01
6.142246e+01
6.138018e+01
6.128325e+01
6.105378e+01
6.064496e+01
6.057982e+01
6.058488e+01
6.058122e+01
6.057372e+01
6.057004e+01
6.057407e+01
6.058133e+01
6.059207e+01
6.060634e+01
6.062338e+01
6.064276e+01
6.066433e+01
6.068815e+01
6.071440e+01
6.074329e+01
6.077483e+01
6.080881e+01
6.084548e+01
6.088715e+01
6.093621e+01
6.099072e+01
6.104170e+01
6.107959e+01
6.109321e+01
6.107024e+01
6.102513e+01
6.096382e+01
6.090715e+01
6.086528e+01
6.084403e+01
6.084297e+01
6.085503e+01
6.087421e+01
6.089909e+01
6.092781e+01
6.095830e+01
6.098841e+01
6.101628e+01
6.104225e+01
6.106493e+01
6.108341e+01
6.109741e+01
6.110714e+01
6.111303e+01
6.111550e+01
6.111291e+01
6.110679e+01
6.109821e+01
6.108759e+01
6.107486e+01
6.105984e+01
6.104319e+01
6.102597e+01
6.100951e+01
6.099542e+01
6.098549e+01
6.098156e+01
6.098467e+01
6.099210e+01
6.100286e+01
6.101548e+01
6.102817e+01
6.103924e+01
6.104821e+01
6.105552e+01
6.106114e+01
6.106540e+01
6.106863e+01
6.107106e+01
6.107279e+01
6.107389e+01
6.107444e+01
6.107451e+01
6.107396e+01
6.107276e+01
6.107095e+01
6.106846e+01
6.106520e+01
6.106105e+01
6.105594e+01
6.104989e+01
6.104321e+01
6.103621e+01
6.102917e+01
6.102239e+01
6.101616e+01
6.101075e+01
6.100637e+01
6.100316e+01
6.100112e+01
6.100001e+01
6.099863e+01
6.099899e+01
6.146122e+01
6.146086e+01
6.146331e+01
6.146470e+01
6.146262e+01
6.144719e+01
6.138160e+01
6.111955e+01
6.033062e+01
6.041912e+01
6.053223e+01
6.055270e+01
6.055176e+01
6.054800e+01
6.055014e+01
6.056122e+01
6.057439e+01
6.059088e+01
6.060900e+01
6.062832e+01
6.064885e+01
6.067087e+01
6.069484e+01
6.072127e+01
6.075041e+01
6.078194e+01
6.081509e+01
6.084954e+01
6.088635e+01
6.092644e+01
6.098850e+01
6.102920e+01
6.102429e+01
6.100398e+01
6.098146e+01
6.095676e+01
6.092512e+01
6.089238e+01
6.086924e+01
6.086171e+01
6.086831e+01
6.088280e+01
6.090255e+01
6.092647e+01
6.095280e+01
6.097951e+01
6.100454e+01
6.102842e+01
6.105026e+01
6.106883e+01
6.108341e+01
6.109369e+01
6.109965e+01
6.110151e+01
6.109802e+01
6.109154e+01
6.108353e+01
6.107451e+01
6.106433e+01
6.105260e+01
6.103971e+01
6.102641e+01
6.101380e+01
6.100329e+01
6.099652e+01
6.099507e+01
6.099886e+01
6.100569e+01
6.101457e+01
6.102425e+01
6.103339e+01
6.104097e+01
6.104722e+01
6.105233e+01
6.105645e+01
6.105975e+01
6.106238e+01
6.106439e+01
6.106577e+01
6.106657e+01
6.106684e+01
6.106667e+01
6.106604e+01
6.106495e+01
6.106350e+01
6.106165e+01
6.105931e+01
6.105632e+01
6.105253e+01
6.104788e+01
6.104253e+01
6.103677e+01
6.103086e+01
6.102507e+01
6.101968e+01
6.101494e+01
6.101101e+01
6.100797e+01
6.100571e+01
6.100395e+01
6.100212e+01
6.100248e+01
6.146214e+01
6.146178e+01
6.147374e+01
6.148806e+01
6.150761e+01
6.153489e+01
6.156662e+01
6.166761e+01
6.099948e+01
6.049969e+01
6.057954e+01
6.055985e+01
6.055294e+01
6.054291e+01
6.054035e+01
6.054709e+01
6.056256e+01
6.058261e+01
6.060189e+01
6.062072e+01
6.063941e+01
6.065828e+01
6.067779e+01
6.069846e+01
6.072041e+01
6.074339e+01
6.076708e+01
6.079190e+01
6.081817e+01
6.086340e+01
6.090846e+01
6.093293e+01
6.094290e+01
6.094521e+01
6.094588e+01
6.094733e+01
6.094349e+01
6.092805e+01
6.090827e+01
6.089578e+01
6.089517e+01
6.090324e+01
6.091661e+01
6.093439e+01
6.095508e+01
6.097682e+01
6.099764e+01
6.101757e+01
6.103670e+01
6.105362e+01
6.106715e+01
6.107648e+01
6.108143e+01
6.108201e+01
6.107831e+01
6.107284e+01
6.106696e+01
6.106100e+01
6.105464e+01
6.104727e+01
6.103897e+01
6.103015e+01
6.102173e+01
6.101497e+01
6.101120e+01
6.101151e+01
6.101508e+01
6.102045e+01
6.102678e+01
6.103318e+01
6.103884e+01
6.104331e+01
6.104703e+01
6.105013e+01
6.105275e+01
6.105494e+01
6.105672e+01
6.105803e+01
6.105884e+01
6.105916e+01
6.105904e+01
6.105857e+01
6.105779e+01
6.105676e+01
6.105564e+01
6.105445e+01
6.105312e+01
6.105144e+01
6.104920e+01
6.104619e+01
6.104244e+01
6.103813e+01
6.103346e+01
6.102869e+01
6.102409e+01
6.101986e+01
6.101616e+01
6.101298e+01
6.101022e+01
6.100765e+01
6.100486e+01
6.100522e+01
6.146326e+01
6.146290e+01
6.148220e+01
6.150633e+01
6.154176e+01
6.159890e+01
6.169486e+01
6.182914e+01
6.185653e+01
0.000000e+00
6.055409e+01
6.055373e+01
6.054659e+01
6.055169e+01
6.054736e+01
6.055139e+01
6.056646e+01
6.058801e+01
6.060913e+01
6.062772e+01
6.064475e+01
6.066056e+01
6.067550e+01
6.069006e+01
6.070403e+01
6.071764e+01
6.073112e+01
6.074272e+01
6.075826e+01
6.078291e+01
6.081434e+01
6.084823e+01
6.088047e+01
6.090639e+01
6.092710e+01
6.094569e+01
6.096143e+01
6.096382e+01
6.095350e+01
6.093944e+01
6.093188e+01
6.093313e+01
6.093944e+01
6.095021e+01
6.096411e+01
6.097953e+01
6.099472e+01
6.100895e+01
6.102327e+01
6.103619e+01
6.104635e+01
6.105283e+01
6.105585e+01
6.105556e+01
6.105345e+01
6.105118e+01
6.104943e+01
6.104814e+01
6.104678e+01
6.104463e+01
6.104137e+01
6.103725e+01
6.103302e+01
6.102974e+01
6.102840e+01
6.102950e+01
6.103205e+01
6.103533e+01
6.103878e+01
6.104189e+01
6.104434e+01
6.104606e+01
6.104744e+01
6.104860e+01
6.104964e+01
6.105054e+01
6.105123e+01
6.105164e+01
6.105174e+01
6.105152e+01
6.105103e+01
6.105034e+01
6.104948e+01
6.104859e+01
6.104782e+01
6.104730e+01
6.104698e+01
6.104667e+01
6.104607e+01
6.104487e+01
6.104288e+01
6.104013e+01
6.103676e+01
6.103297e+01
6.102903e+01
6.102515e+01
6.102145e+01
6.101797e+01
6.101463e+01
6.101127e+01
6.100713e+01
6.100749e+01
6.146390e+01
6.146354e+01
6.148672e+01
6.151521e+01
6.155520e+01
6.161457e+01
6.169947e+01
6.180145e+01
6.188319e+01
6.188355e+01
0.000000e+00
6.057279e+01
6.057243e+01
6.057096e+01
6.057388e+01
6.057992e+01
6.059599e+01
6.061756e+01
6.063804e+01
6.065635e+01
6.067280e+01
6.068717e+01
6.069927e+01
6.070888e+01
6.071479e+01
6.071620e+01
6.071382e+01
6.070862e+01
6.070317e+01
6.070610e+01
6.073288e+01
6.078375e+01
6.083829e+01
6.088577e+01
6.092325e+01
6.095349e+01
6.097960e+01
6.099576e+01
6.099693e+01
6.098667e+01
6.097500e+01
6.096955e+01
6.096884e+01
6.097222e+01
6.097859e+01
6.098657e+01
6.099459e+01
6.100141e+01
6.100859e+01
6.101478e+01
6.101892e+01
6.102067e+01
6.102107e+01
6.102190e+01
6.102452e+01
6.102852e+01
6.103313e+01
6.103778e+01
6.104198e+01
6.104516e+01
6.104697e+01
6.104737e+01
6.104691e+01
6.104646e+01
6.104665e+01
6.104757e+01
6.104870e+01
6.104967e+01
6.105024e+01
6.105029e+01
6.104985e+01
6.104907e+01
6.104822e+01
6.104743e+01
6.104674e+01
6.104610e+01
6.104548e+01
6.104482e+01
6.104411e+01
6.104336e+01
6.104260e+01
6.104188e+01
6.104122e+01
6.104075e+01
6.104063e+01
6.104093e+01
6.104164e+01
6.104260e+01
6.104354e+01
6.104405e+01
6.104380e+01
6.104259e+01
6.104046e+01
6.103759e+01
6.103421e+01
6.103057e+01
6.102682e+01
6.102301e+01
6.101914e+01
6.101509e+01
6.100983e+01
6.101019e+01
6.146374e+01
6.146338e+01
6.148692e+01
6.151483e+01
6.155144e+01
6.160104e+01
6.166669e+01
6.173081e+01
6.175640e+01
6.153439e+01
6.153475e+01
0.000000e+00
6.058505e+01
6.059695e+01
6.059521e+01
6.060968e+01
6.063733e+01
6.066639e+01
6.068801e+01
6.070414e+01
6.071816e+01
6.072892e+01
6.073504e+01
6.073596e+01
6.073103e+01
6.072093e+01
6.070680e+01
6.068190e+01
6.065094e+01
6.063941e+01
6.067855e+01
6.074621e+01
6.081892e+01
6.088286e+01
6.093194e+01
6.096916e+01
6.099981e+01
6.102400e+01
6.103549e+01
6.103237e+01
6.102062e+01
6.100993e+01
6.100292e+01
6.099915e+01
6.099770e+01
6.099730e+01
6.099658e+01
6.099452e+01
6.099200e+01
6.098836e+01
6.098414e+01
6.098084e+01
6.098026e+01
6.098583e+01
6.099589e+01
6.100801e+01
6.102019e+01
6.103132e+01
6.104088e+01
6.104879e+01
6.105496e+01
6.105931e+01
6.106207e+01
6.106369e+01
6.106443e+01
6.106445e+01
6.106384e+01
6.106254e+01
6.106058e+01
6.105808e+01
6.105523e+01
6.105225e+01
6.104926e+01
6.104640e+01
6.104373e+01
6.104129e+01
6.103910e+01
6.103718e+01
6.103555e+01
6.103424e+01
6.103328e+01
6.103274e+01
6.103281e+01
6.103339e+01
6.103442e+01
6.103588e+01
6.103774e+01
6.103989e+01
6.104208e+01
6.104397e+01
6.104508e+01
6.104514e+01
6.104409e+01
6.104204e+01
6.103919e+01
6.103577e+01
6.103198e+01
6.102790e+01
6.102358e+01
6.101898e+01
6.101307e+01
6.101343e+01
6.146278e+01
6.146242e+01
6.148353e+01
6.150742e+01
6.153658e+01
6.157204e+01
6.160681e+01
6.161897e+01
6.156150e+01
6.145172e+01
6.105838e+01
6.074882e+01
6.056300e+01
6.059090e+01
6.059989e+01
6.062679e+01
6.066803e+01
6.070378e+01
6.072585e+01
6.073935e+01
6.075236e+01
6.076159e+01
6.076404e+01
6.075877e+01
6.074625e+01
6.072815e+01
6.070179e+01
6.065938e+01
6.060963e+01
6.060588e+01
6.065714e+01
6.073728e+01
6.082159e+01
6.089326e+01
6.094745e+01
6.098842e+01
6.102080e+01
6.104791e+01
6.106702e+01
6.107237e+01
6.106517e+01
6.105223e+01
6.104038e+01
6.103034e+01
6.102127e+01
6.101192e+01
6.100126e+01
6.098895e+01
6.097543e+01
6.096167e+01
6.094949e+01
6.094072e+01
6.094060e+01
6.095234e+01
6.097112e+01
6.099218e+01
6.101224e+01
6.102941e+01
6.104353e+01
6.105517e+01
6.106456e+01
6.107170e+01
6.107660e+01
6.107934e+01
6.107998e+01
6.107912e+01
6.107707e+01
6.107399e+01
6.107006e+01
6.106551e+01
6.106061e+01
6.105563e+01
6.105061e+01
6.104566e+01
6.104091e+01
6.103647e+01
6.103247e+01
6.102904e+01
6.102626e+01
6.102423e+01
6.102298e+01
6.102283e+01
6.102410e+01
6.102639e+01
6.102929e+01
6.103249e+01
6.103578e+01
6.103908e+01
6.104219e+01
6.104486e+01
6.104671e+01
6.104743e+01
6.104696e+01
6.104540e+01
6.104291e+01
6.103966e+01
6.103596e+01
6.103190e+01
6.102748e+01
6.102267e+01
6.101661e+01
6.101697e+01
6.146128e+01
6.146092e+01
6.147776e+01
6.149587e+01
6.151540e+01
6.153370e+01
6.154163e+01
6.151911e+01
6.143009e+01
6.126323e+01
6.099936e+01
6.043855e+01
6.053438e+01
6.060196e+01
6.062946e+01
6.065834e+01
6.069556e+01
6.072475e+01
6.074288e+01
6.076030e+01
6.077670e+01
6.078619e+01
6.078534e+01
6.077491e+01
6.075682e+01
6.073297e+01
6.069567e+01
6.063846e+01
6.059282e+01
6.060483e+01
6.066691e+01
6.075344e+01
6.084133e+01
6.091261e+01
6.096722e+01
6.100870e+01
6.104066e+01
6.106674e+01
6.108855e+01
6.110172e+01
6.110218e+01
6.109225e+01
6.107893e+01
6.106378e+01
6.104697e+01
6.102821e+01
6.100792e+01
6.098596e+01
6.096210e+01
6.093855e+01
6.091821e+01
6.090365e+01
6.090652e+01
6.092560e+01
6.095338e+01
6.098304e+01
6.101017e+01
6.103207e+01
6.104959e+01
6.106370e+01
6.107504e+01
6.108377e+01
6.108980e+01
6.109304e+01
6.109345e+01
6.109194e+01
6.108886e+01
6.108447e+01
6.107903e+01
6.107283e+01
6.106616e+01
6.105932e+01
6.105237e+01
6.104535e+01
6.103846e+01
6.103191e+01
6.102594e+01
6.102078e+01
6.101665e+01
6.101367e+01
6.101188e+01
6.101229e+01
6.101516e+01
6.101970e+01
6.102511e+01
6.103071e+01
6.103580e+01
6.104025e+01
6.104401e+01
6.104695e+01
6.104882e+01
6.104929e+01
6.104860e+01
6.104712e+01
6.104490e+01
6.104208e+01
6.103879e+01
6.103506e+01
6.103088e+01
6.102624e+01
6.102020e+01
6.102056e+01
6.145960e+01
6.145923e+01
6.147100e+01
6.148251e+01
6.149239e+01
6.149686e+01
6.148763e+01
6.145013e+01
6.136256e+01
6.120607e+01
6.099326e+01
6.069942e+01
6.065748e+01
6.066556e+01
6.067662e+01
6.069304e+01
6.071653e+01
6.073859e+01
6.075659e+01
6.077377e+01
6.078548e+01
6.078911e+01
6.078457e+01
6.077304e+01
6.075552e+01
6.073254e+01
6.068977e+01
6.063400e+01
6.060900e+01
6.063552e+01
6.070268e+01
6.078800e+01
6.087004e+01
6.093666e+01
6.098858e+01
6.102845e+01
6.105911e+01
6.108286e+01
6.110169e+01
6.111602e+01
6.112157e+01
6.111892e+01
6.110842e+01
6.109144e+01
6.106940e+01
6.104359e+01
6.101594e+01
6.098572e+01
6.095283e+01
6.092052e+01
6.089256e+01
6.087482e+01
6.088244e+01
6.090905e+01
6.094496e+01
6.098188e+01
6.101378e+01
6.103889e+01
6.105844e+01
6.107375e+01
6.108580e+01
6.109501e+01
6.110136e+01
6.110467e+01
6.110498e+01
6.110315e+01
6.109947e+01
6.109425e+01
6.108776e+01
6.108028e+01
6.107212e+01
6.106358e+01
6.105483e+01
6.104581e+01
6.103679e+01
6.102807e+01
6.102000e+01
6.101296e+01
6.100728e+01
6.100316e+01
6.100067e+01
6.100186e+01
6.100652e+01
6.101356e+01
6.102178e+01
6.102994e+01
6.103697e+01
6.104269e+01
6.104703e+01
6.104993e+01
6.105130e+01
6.105107e+01
6.104979e+01
6.104793e+01
6.104569e+01
6.104322e+01
6.104056e+01
6.103754e+01
6.103407e+01
6.102997e+01
6.102325e+01
6.102361e+01
6.145801e+01
6.145765e+01
6.146415e+01
6.146942e+01
6.147135e+01
6.146623e+01
6.144767e+01
6.140623e+01
6.132981e+01
6.120631e+01
6.103777e+01
6.084512e+01
6.076457e+01
6.073660e+01
6.072814e+01
6.073083e+01
6.074148e+01
6.075480e+01
6.076711e+01
6.077715e+01
6.078274e+01
6.078255e+01
6.077663e+01
6.076624e+01
6.075283e+01
6.073158e+01
6.069386e+01
6.065707e+01
6.065140e+01
6.068638e+01
6.075163e+01
6.082919e+01
6.090136e+01
6.096125e+01
6.100881e+01
6.104585e+01
6.107461e+01
6.109705e+01
6.111437e+01
6.112627e+01
6.113326e+01
6.113349e+01
6.112605e+01
6.111033e+01
6.108684e+01
6.105732e+01
6.102477e+01
6.098816e+01
6.094808e+01
6.090875e+01
6.087490e+01
6.085844e+01
6.087131e+01
6.090458e+01
6.094669e+01
6.098837e+01
6.102268e+01
6.104922e+01
6.106936e+01
6.108468e+01
6.109641e+01
6.110521e+01
6.111123e+01
6.111431e+01
6.111467e+01
6.111280e+01
6.110895e+01
6.110337e+01
6.109630e+01
6.108799e+01
6.107869e+01
6.106871e+01
6.105834e+01
6.104746e+01
6.103637e+01
6.102548e+01
6.101526e+01
6.100623e+01
6.099888e+01
6.099357e+01
6.099047e+01
6.099254e+01
6.099900e+01
6.100841e+01
6.101922e+01
6.102959e+01
6.103826e+01
6.104501e+01
6.104982e+01
6.105278e+01
6.105402e+01
6.105370e+01
6.105220e+01
6.105016e+01
6.104776e+01
6.104517e+01
6.104259e+01
6.103999e+01
6.103714e+01
6.103394e+01
6.102886e+01
6.102923e+01
6.145657e+01
6.145621e+01
6.145798e+01
6.145800e+01
6.145394e+01
6.144255e+01
6.141916e+01
6.137772e+01
6.131142e+01
6.121338e+01
6.108225e+01
6.093582e+01
6.084633e+01
6.079927e+01
6.077540e+01
6.076577e+01
6.076548e+01
6.077002e+01
6.077558e+01
6.077980e+01
6.078097e+01
6.077810e+01
6.077125e+01
6.076153e+01
6.074872e+01
6.072985e+01
6.070344e+01
6.068624e+01
6.069565e+01
6.073577e+01
6.079724e+01
6.086602e+01
6.092956e+01
6.098320e+01
6.102644e+01
6.106057e+01
6.108740e+01
6.110843e+01
6.112425e+01
6.113481e+01
6.114046e+01
6.114095e+01
6.113509e+01
6.112126e+01
6.109876e+01
6.106853e+01
6.103364e+01
6.099293e+01
6.094800e+01
6.090416e+01
6.086777e+01
6.085553e+01
6.087374e+01
6.091198e+01
6.095773e+01
6.100103e+01
6.103570e+01
6.106204e+01
6.108154e+01
6.109591e+01
6.110656e+01
6.111436e+01
6.111962e+01
6.112230e+01
6.112264e+01
6.112089e+01
6.111718e+01
6.111168e+01
6.110451e+01
6.109585e+01
6.108588e+01
6.107484e+01
6.106308e+01
6.105056e+01
6.103757e+01
6.102459e+01
6.101222e+01
6.100116e+01
6.099210e+01
6.098564e+01
6.098232e+01
6.098526e+01
6.099331e+01
6.100469e+01
6.101752e+01
6.102955e+01
6.103943e+01
6.104694e+01
6.105213e+01
6.105524e+01
6.105657e+01
6.105642e+01
6.105506e+01
6.105310e+01
6.105070e+01
6.104808e+01
6.104545e+01
6.104307e+01
6.104076e+01
6.103859e+01
6.103655e+01
6.103691e+01
6.145544e+01
6.145507e+01
6.145296e+01
6.144887e+01
6.144050e+01
6.142509e+01
6.139914e+01
6.135860e+01
6.129931e+01
6.121750e+01
6.111243e+01
6.099600e+01
6.090757e+01
6.084968e+01
6.081462e+01
6.079525e+01
6.078630e+01
6.078349e+01
6.078325e+01
6.078296e+01
6.078085e+01
6.077596e+01
6.076816e+01
6.075807e+01
6.074530e+01
6.072924e+01
6.071345e+01
6.071059e+01
6.073057e+01
6.077402e+01
6.083241e+01
6.089466e+01
6.095210e+01
6.100097e+01
6.104074e+01
6.107241e+01
6.109750e+01
6.111721e+01
6.113195e+01
6.114171e+01
6.114681e+01
6.114718e+01
6.114186e+01
6.112929e+01
6.110813e+01
6.107837e+01
6.104232e+01
6.099914e+01
6.095142e+01
6.090564e+01
6.087052e+01
6.086406e+01
6.088690e+01
6.092806e+01
6.097491e+01
6.101740e+01
6.105099e+01
6.107602e+01
6.109410e+01
6.110694e+01
6.111608e+01
6.112254e+01
6.112682e+01
6.112901e+01
6.112922e+01
6.112759e+01
6.112417e+01
6.111899e+01
6.111208e+01
6.110350e+01
6.109331e+01
6.108168e+01
6.106889e+01
6.105506e+01
6.104041e+01
6.102550e+01
6.101107e+01
6.099801e+01
6.098729e+01
6.097983e+01
6.097672e+01
6.098048e+01
6.098979e+01
6.100260e+01
6.101678e+01
6.102985e+01
6.104055e+01
6.104860e+01
6.105410e+01
6.105738e+01
6.105884e+01
6.105888e+01
6.105784e+01
6.105609e+01
6.105386e+01
6.105136e+01
6.104881e+01
6.104655e+01
6.104469e+01
6.104348e+01
6.104445e+01
6.104482e+01
6.145463e+01
6.145426e+01
6.144922e+01
6.144216e+01
6.143086e+01
6.141292e+01
6.138560e+01
6.134593e+01
6.129113e+01
6.121913e+01
6.113024e+01
6.103283e+01
6.094948e+01
6.088743e+01
6.084512e+01
6.081838e+01
6.080283e+01
6.079444e+01
6.078975e+01
6.078606e+01
6.078153e+01
6.077508e+01
6.076635e+01
6.075552e+01
6.074275e+01
6.072953e+01
6.072159e+01
6.072838e+01
6.075572e+01
6.080126e+01
6.085730e+01
6.091513e+01
6.096841e+01
6.101397e+01
6.105127e+01
6.108118e+01
6.110500e+01
6.112372e+01
6.113789e+01
6.114760e+01
6.115305e+01
6.115400e+01
6.114949e+01
6.113801e+01
6.111800e+01
6.108869e+01
6.105127e+01
6.100575e+01
6.095583e+01
6.090962e+01
6.087871e+01
6.087772e+01
6.090423e+01
6.094690e+01
6.099327e+01
6.103415e+01
6.106616e+01
6.108945e+01
6.110555e+01
6.111651e+01
6.112402e+01
6.112924e+01
6.113277e+01
6.113460e+01
6.113467e+01
6.113313e+01
6.112999e+01
6.112520e+01
6.111871e+01
6.111043e+01
6.110036e+01
6.108855e+01
6.107515e+01
6.106036e+01
6.104438e+01
6.102782e+01
6.101152e+01
6.099657e+01
6.098430e+01
6.097607e+01
6.097342e+01
6.097793e+01
6.098820e+01
6.100197e+01
6.101688e+01
6.103053e+01
6.104171e+01
6.105014e+01
6.105591e+01
6.105937e+01
6.106095e+01
6.106114e+01
6.106032e+01
6.105882e+01
6.105681e+01
6.105447e+01
6.105205e+01
6.104988e+01
6.104831e+01
6.104785e+01
6.105125e+01
6.105162e+01
6.145413e+01
6.145377e+01
6.144679e+01
6.143780e+01
6.142469e+01
6.140529e+01
6.137729e+01
6.133830e+01
6.128624e+01
6.121989e+01
6.114022e+01
6.105378e+01
6.097494e+01
6.091171e+01
6.086551e+01
6.083421e+01
6.081433e+01
6.080219e+01
6.079446e+01
6.078848e+01
6.078233e+01
6.077478e+01
6.076528e+01
6.075379e+01
6.074111e+01
6.073033e+01
6.072788e+01
6.074075e+01
6.077192e+01
6.081826e+01
6.087279e+01
6.092801e+01
6.097878e+01
6.102228e+01
6.105800e+01
6.108671e+01
6.110960e+01
6.112772e+01
6.114183e+01
6.115202e+01
6.115830e+01
6.116026e+01
6.115691e+01
6.114671e+01
6.112790e+01
6.109909e+01
6.106014e+01
6.101184e+01
6.095923e+01
6.091268e+01
6.088616e+01
6.088940e+01
6.091861e+01
6.096216e+01
6.100780e+01
6.104731e+01
6.107776e+01
6.109943e+01
6.111397e+01
6.112347e+01
6.112969e+01
6.113389e+01
6.113681e+01
6.113836e+01
6.113848e+01
6.113721e+01
6.113447e+01
6.113012e+01
6.112402e+01
6.111609e+01
6.110626e+01
6.109450e+01
6.108084e+01
6.106545e+01
6.104853e+01
6.103068e+01
6.101281e+01
6.099621e+01
6.098256e+01
6.097376e+01
6.097163e+01
6.097679e+01
6.098776e+01
6.100215e+01
6.101743e+01
6.103138e+01
6.104287e+01
6.105158e+01
6.105760e+01
6.106124e+01
6.106297e+01
6.106324e+01
6.106249e+01
6.106115e+01
6.105930e+01
6.105709e+01
6.105474e+01
6.105255e+01
6.105104e+01
6.105098e+01
6.105610e+01
6.105646e+01
6.145390e+01
6.145354e+01
6.144560e+01
6.143568e+01
6.142173e+01
6.140172e+01
6.137351e+01
6.133499e+01
6.128435e+01
6.122071e+01
6.114529e+01
6.106384e+01
6.098738e+01
6.092384e+01
6.087588e+01
6.084236e+01
6.082032e+01
6.080626e+01
6.079696e+01
6.078980e+01
6.078281e+01
6.077471e+01
6.076477e+01
6.075295e+01
6.074050e+01
6.073127e+01
6.073146e+01
6.074685e+01
6.077932e+01
6.082562e+01
6.087921e+01
6.093318e+01
6.098285e+01
6.102557e+01
6.106075e+01
6.108906e+01
6.111161e+01
6.112949e+01
6.114347e+01
6.115393e+01
6.116087e+01
6.116377e+01
6.116156e+01
6.115264e+01
6.113511e+01
6.110711e+01
6.106727e+01
6.101626e+01
6.096036e+01
6.091277e+01
6.088852e+01
6.089442e+01
6.092531e+01
6.096924e+01
6.101425e+01
6.105307e+01
6.108296e+01
6.110411e+01
6.111815e+01
6.112710e+01
6.113276e+01
6.113646e+01
6.113890e+01
6.114021e+01
6.114040e+01
6.113937e+01
6.113696e+01
6.113297e+01
6.112724e+01
6.111964e+01
6.111006e+01
6.109845e+01
6.108478e+01
6.106910e+01
6.105163e+01
6.103291e+01
6.101384e+01
6.099592e+01
6.098117e+01
6.097192e+01
6.096999e+01
6.097560e+01
6.098719e+01
6.100211e+01
6.101763e+01
6.103172e+01
6.104335e+01
6.105218e+01
6.105829e+01
6.106205e+01
6.106389e+01
6.106430e+01
6.106370e+01
6.106242e+01
6.106063e+01
6.105849e+01
6.105621e+01
6.105406e+01
6.105259e+01
6.105278e+01
6.105870e+01
6.105907e+01
0.000000e+00
6.145390e+01
6.144596e+01
6.143604e+01
6.142209e+01
6.140208e+01
6.137387e+01
6.133535e+01
6.128471e+01
6.122107e+01
6.114565e+01
6.106420e+01
6.098774e+01
6.092420e+01
6.087624e+01
6.084273e+01
6.082068e+01
6.080663e+01
6.079733e+01
6.079016e+01
6.078317e+01
6.077507e+01
6.076514e+01
6.075331e+01
6.074087e+01
6.073163e+01
6.073182e+01
6.074722e+01
6.077968e+01
6.082598e+01
6.087957e+01
6.093354e+01
6.098321e+01
6.102593e+01
6.106111e+01
6.108942e+01
6.111198e+01
6.112985e+01
6.114384e+01
6.115429e+01
6.116123e+01
6.116413e+01
6.116192e+01
6.115300e+01
6.113548e+01
6.110747e+01
6.106764e+01
6.101662e+01
6.096072e+01
6.091313e+01
6.088888e+01
6.089478e+01
6.092567e+01
6.096961e+01
6.101461e+01
6.105344e+01
6.108332e+01
6.110448e+01
6.111852e+01
6.112746e+01
6.113313e+01