# vtk DataFile Version 3.0
Scalar Field
ASCII
DATASET RECTILINEAR_GRID
DIMENSIONS 102 22 1
X_COORDINATES 102 double
0.000000 0.100000 0.200000 0.300000 0.400000 0.500000 0.600000 0.700000 0.800000 0.900000 1.000000 1.100000 1.200000 1.300000 1.400000 1.500000 1.600000 1.700000 1.800000 1.900000 2.000000 2.100000 2.200000 2.300000 2.400000 2.500000 2.600000 2.700000 2.800000 2.900000 3.000000 3.100000 3.200000 3.300000 3.400000 3.500000 3.600000 3.700000 3.800000 3.900000 4.000000 4.100000 4.200000 4.300000 4.400000 4.500000 4.600000 4.700000 4.800000 4.900000 5.000000 5.100000 5.200000 5.300000 5.400000 5.500000 5.600000 5.700000 5.800000 5.900000 6.000000 6.100000 6.200000 6.300000 6.400000 6.500000 6.600000 6.700000 6.800000 6.900000 7.000000 7.100000 7.200000 7.300000 7.400000 7.500000 7.600000 7.700000 7.800000 7.900000 8.000000 8.100000 8.200000 8.300000 8.400000 8.500000 8.600000 8.700000 8.800000 8.900000 9.000000 9.100000 9.200000 9.300000 9.400000 9.500000 9.600000 9.700000 9.800000 9.900000 10.000000 10.100000 
Y_COORDINATES 22 double
0.000000 0.100000 0.200000 0.300000 0.400000 0.500000 0.600000 0.700000 0.800000 0.900000 1.000000 1.100000 1.200000 1.300000 1.400000 1.500000 1.600000 1.700000 1.800000 1.900000 2.000000 2.100000 
Z_COORDINATES 1 double
0.0
POINT_DATA 2244
SCALARS Pressure double 1
LOOKUP_TABLE default
0.000000e+00
2.163719e+01
2.160189e+01
2.156149e+01
2.151234e+01
2.145046e+01
2.137223e+01
2.127711e+01
2.116640e+01
2.106612e+01
2.099621e+01
2.096188e+01
2.095945e+01
2.098190e+01
2.102126e+01
2.106924e+01
2.111819e+01
2.116249e+01
2.119928e+01
2.122805e+01
2.124974e+01
2.126583e+01
2.127775e+01
2.128669e+01
2.129352e+01
2.129888e+01
2.130319e+01
2.130674e+01
2.130975e+01
2.131235e+01
2.131464e+01
2.131672e+01
2.131862e+01
2.132040e+01
2.132208e+01
2.132369e+01
2.132525e+01
2.132676e+01
2.132822e+01
2.132966e+01
2.133106e+01
2.133242e+01
2.133376e+01
2.133506e+01
2.133632e+01
2.133756e+01
2.133876e+01
2.133992e+01
2.134105e+01
2.134215e+01
2.134321e+01
2.134424e+01
2.134523e+01
2.134619e+01
2.134712e+01
2.134802e+01
2.134888e+01
2.134972e+01
2.135052e+01
2.135129e+01
2.135203e+01
2.135275e+01
2.135343e+01
2.135409e+01
2.135472e+01
2.135533e+01
2.135591e+01
2.135646e+01
2.135699e+01
2.135749e+01
2.135797e+01
2.135842e+01
2.135885e+01
2.135926e+01
2.135964e+01
2.136000e+01
2.136033e+01
2.136064e+01
2.136093e+01
2.136120e+01
2.136144e+01
2.136166e+01
2.136186e+01
2.136203e+01
2.136218e+01
2.136231e+01
2.136242e+01
2.136250e+01
2.136256e+01
2.136260e+01
2.136262e+01
2.136261e+01
2.136258e+01
2.136253e+01
2.136245e+01
2.136234e+01
2.136220e+01
2.136203e+01
2.136180e+01
2.136149e+01
2.136123e+01
0.000000e+00
2.163719e+01
2.163731e+01
2.160201e+01
2.156161e+01
2.151246e+01
2.145058e+01
2.137235e+01
2.127723e+01
2.116652e+01
2.106623e+01
2.099633e+01
2.096200e+01
2.095957e+01
2.098202e+01
2.102138e+01
2.106936e+01
2.111831e+01
2.116261e+01
2.119940e+01
2.122817e+01
2.124986e+01
2.126595e+01
2.127787e+01
2.128681e+01
2.129364e+01
2.129900e+01
2.130331e+01
2.130686e+01
2.130987e+01
2.131246e+01
2.131476e+01
2.131683e+01
2.131874e+01
2.132052e+01
2.132220e+01
2.132381e+01
2.132537e+01
2.132687e+01
2.132834e+01
2.132977e+01
2.133117e+01
2.133254e+01
2.133387e+01
2.133517e+01
2.133644e+01
2.133768e+01
2.133887e+01
2.134004e+01
2.134117e+01
2.134227e+01
2.134333e+01
2.134436e+01
2.134535e+01
2.134631e+01
2.134724e+01
2.134813e+01
2.134900e+01
2.134983e+01
2.135063e+01
2.135141e+01
2.135215e+01
2.135286e+01
2.135355e+01
2.135421e+01
2.135484e+01
2.135545e+01
2.135602e+01
2.135658e+01
2.135711e+01
2.135761e+01
2.135809e+01
2.135854e+01
2.135897e+01
2.135937e+01
2.135976e+01
2.136011e+01
2.136045e+01
2.136076e+01
2.136105e+01
2.136131e+01
2.136156e+01
2.136177e+01
2.136197e+01
2.136215e+01
2.136230e+01
2.136243e+01
2.136253e+01
2.136262e+01
2.136268e+01
2.136272e+01
2.136274e+01
2.136273e+01
2.136270e+01
2.136264e+01
2.136256e+01
2.136246e+01
2.136232e+01
2.136214e+01
2.136192e+01
2.136160e+01
2.136134e+01
2.136123e+01
2.163617e+01
2.163629e+01
2.160245e+01
2.156317e+01
2.151451e+01
2.145200e+01
2.137129e+01
2.127176e+01
2.115026e+01
2.104510e+01
2.097679e+01
2.094661e+01
2.094829e+01
2.097363e+01
2.101468e+01
2.106381e+01
2.111397e+01
2.115966e+01
2.119784e+01
2.122770e+01
2.125006e+01
2.126645e+01
2.127843e+01
2.128730e+01
2.129402e+01
2.129926e+01
2.130346e+01
2.130694e+01
2.130988e+01
2.131243e+01
2.131469e+01
2.131675e+01
2.131864e+01
2.132042e+01
2.132210e+01
2.132372e+01
2.132528e+01
2.132680e+01
2.132828e+01
2.132972e+01
2.133113e+01
2.133250e+01
2.133384e+01
2.133514e+01
2.133641e+01
2.133765e+01
2.133885e+01
2.134002e+01
2.134115e+01
2.134224e+01
2.134330e+01
2.134433e+01
2.134532e+01
2.134628e+01
2.134721e+01
2.134810e+01
2.134896e+01
2.134980e+01
2.135060e+01
2.135137e+01
2.135211e+01
2.135282e+01
2.135351e+01
2.135417e+01
2.135480e+01
2.135540e+01
2.135598e+01
2.135653e+01
2.135706e+01
2.135756e+01
2.135804e+01
2.135849e+01
2.135892e+01
2.135933e+01
2.135971e+01
2.136006e+01
2.136040e+01
2.136071e+01
2.136100e+01
2.136126e+01
2.136151e+01
2.136172e+01
2.136192e+01
2.136210e+01
2.136225e+01
2.136238e+01
2.136248e+01
2.136257e+01
2.136263e+01
2.136267e+01
2.136269e+01
2.136268e+01
2.136265e+01
2.136259e+01
2.136252e+01
2.136241e+01
2.136228e+01
2.136211e+01
2.136191e+01
2.136167e+01
2.136142e+01
2.136131e+01
2.163502e+01
2.163514e+01
2.160437e+01
2.156772e+01
2.152064e+01
2.145745e+01
2.137189e+01
2.126215e+01
2.111432e+01
2.099937e+01
2.093580e+01
2.091525e+01
2.092541e+01
2.095627e+01
2.100043e+01
2.105160e+01
2.110397e+01
2.115246e+01
2.119358e+01
2.122591e+01
2.124993e+01
2.126716e+01
2.127938e+01
2.128817e+01
2.129470e+01
2.129973e+01
2.130375e+01
2.130707e+01
2.130990e+01
2.131237e+01
2.131459e+01
2.131661e+01
2.131850e+01
2.132027e+01
2.132197e+01
2.132360e+01
2.132518e+01
2.132672e+01
2.132821e+01
2.132967e+01
2.133109e+01
2.133248e+01
2.133382e+01
2.133514e+01
2.133641e+01
2.133765e+01
2.133886e+01
2.134002e+01
2.134115e+01
2.134225e+01
2.134331e+01
2.134433e+01
2.134532e+01
2.134628e+01
2.134720e+01
2.134809e+01
2.134895e+01
2.134978e+01
2.135058e+01
2.135135e+01
2.135209e+01
2.135280e+01
2.135348e+01
2.135414e+01
2.135477e+01
2.135537e+01
2.135595e+01
2.135650e+01
2.135702e+01
2.135752e+01
2.135800e+01
2.135845e+01
2.135888e+01
2.135928e+01
2.135966e+01
2.136002e+01
2.136035e+01
2.136067e+01
2.136095e+01
2.136122e+01
2.136146e+01
2.136168e+01
2.136188e+01
2.136205e+01
2.136220e+01
2.136233e+01
2.136244e+01
2.136252e+01
2.136258e+01
2.136262e+01
2.136264e+01
2.136263e+01
2.136260e+01
2.136255e+01
2.136247e+01
2.136237e+01
2.136224e+01
2.136209e+01
2.136191e+01
2.136171e+01
2.136148e+01
2.136136e+01
2.163425e+01
2.163437e+01
2.160845e+01
2.157624e+01
2.153236e+01
2.146887e+01
2.137525e+01
2.124417e+01
2.104475e+01
2.091926e+01
2.086996e+01
2.086778e+01
2.089143e+01
2.093067e+01
2.097953e+01
2.103360e+01
2.108879e+01
2.114103e+01
2.118643e+01
2.122267e+01
2.124939e+01
2.126800e+01
2.128065e+01
2.128937e+01
2.129562e+01
2.130035e+01
2.130411e+01
2.130723e+01
2.130991e+01
2.131229e+01
2.131444e+01
2.131643e+01
2.131830e+01
2.132009e+01
2.132180e+01
2.132346e+01
2.132507e+01
2.132663e+01
2.132816e+01
2.132964e+01
2.133108e+01
2.133248e+01
2.133385e+01
2.133517e+01
2.133645e+01
2.133770e+01
2.133890e+01
2.134007e+01
2.134120e+01
2.134229e+01
2.134335e+01
2.134437e+01
2.134535e+01
2.134630e+01
2.134722e+01
2.134811e+01
2.134896e+01
2.134979e+01
2.135058e+01
2.135134e+01
2.135208e+01
2.135279e+01
2.135347e+01
2.135412e+01
2.135475e+01
2.135535e+01
2.135592e+01
2.135647e+01
2.135699e+01
2.135749e+01
2.135797e+01
2.135842e+01
2.135884e+01
2.135925e+01
2.135963e+01
2.135998e+01
2.136032e+01
2.136063e+01
2.136091e+01
2.136118e+01
2.136142e+01
2.136164e+01
2.136183e+01
2.136201e+01
2.136216e+01
2.136229e+01
2.136239e+01
2.136248e+01
2.136254e+01
2.136258e+01
2.136260e+01
2.136259e+01
2.136256e+01
2.136251e+01
2.136244e+01
2.136234e+01
2.136222e+01
2.136207e+01
2.136191e+01
2.136173e+01
2.136151e+01
2.136139e+01
2.163447e+01
2.163459e+01
2.161550e+01
2.159011e+01
2.155227e+01
2.149062e+01
2.138561e+01
2.120996e+01
2.091799e+01
2.079792e+01
2.078112e+01
2.080610e+01
2.084698e+01
2.089683e+01
2.095220e+01
2.101042e+01
2.106883e+01
2.112545e+01
2.117634e+01
2.121778e+01
2.124828e+01
2.126890e+01
2.128221e+01
2.129084e+01
2.129674e+01
2.130109e+01
2.130452e+01
2.130740e+01
2.130990e+01
2.131216e+01
2.131425e+01
2.131622e+01
2.131809e+01
2.131990e+01
2.132164e+01
2.132334e+01
2.132499e+01
2.132659e+01
2.132815e+01
2.132966e+01
2.133112e+01
2.133254e+01
2.133392e+01
2.133525e+01
2.133654e+01
2.133779e+01
2.133899e+01
2.134016e+01
2.134128e+01
2.134237e+01
2.134342e+01
2.134443e+01
2.134541e+01
2.134636e+01
2.134727e+01
2.134815e+01
2.134899e+01
2.134981e+01
2.135060e+01
2.135136e+01
2.135209e+01
2.135279e+01
2.135347e+01
2.135411e+01
2.135474e+01
2.135533e+01
2.135590e+01
2.135645e+01
2.135697e+01
2.135747e+01
2.135794e+01
2.135839e+01
2.135881e+01
2.135922e+01
2.135959e+01
2.135995e+01
2.136028e+01
2.136059e+01
2.136088e+01
2.136114e+01
2.136138e+01
2.136160e+01
2.136179e+01
2.136197e+01
2.136212e+01
2.136225e+01
2.136235e+01
2.136244e+01
2.136250e+01
2.136254e+01
2.136256e+01
2.136255e+01
2.136253e+01
2.136248e+01
2.136240e+01
2.136231e+01
2.136219e+01
2.136206e+01
2.136191e+01
2.136174e+01
2.136153e+01
2.136141e+01
2.163626e+01
2.163638e+01
2.162608e+01
2.161053e+01
2.158382e+01
2.153153e+01
2.141911e+01
2.116271e+01
2.069953e+01
2.062188e+01
2.066633e+01
2.072978e+01
2.079247e+01
2.085528e+01
2.091904e+01
2.098322e+01
2.104578e+01
2.110734e+01
2.116460e+01
2.121220e+01
2.124715e+01
2.127011e+01
2.128411e+01
2.129258e+01
2.129802e+01
2.130191e+01
2.130497e+01
2.130756e+01
2.130989e+01
2.131204e+01
2.131407e+01
2.131602e+01
2.131791e+01
2.131975e+01
2.132154e+01
2.132329e+01
2.132498e+01
2.132662e+01
2.132821e+01
2.132975e+01
2.133124e+01
2.133268e+01
2.133407e+01
2.133540e+01
2.133669e+01
2.133794e+01
2.133914e+01
2.134030e+01
2.134141e+01
2.134249e+01
2.134353e+01
2.134453e+01
2.134550e+01
2.134644e+01
2.134734e+01
2.134821e+01
2.134905e+01
2.134986e+01
2.135064e+01
2.135139e+01
2.135211e+01
2.135281e+01
2.135348e+01
2.135412e+01
2.135474e+01
2.135533e+01
2.135590e+01
2.135644e+01
2.135696e+01
2.135745e+01
2.135792e+01
2.135837e+01
2.135879e+01
2.135919e+01
2.135957e+01
2.135992e+01
2.136025e+01
2.136056e+01
2.136084e+01
2.136111e+01
2.136135e+01
2.136156e+01
2.136176e+01
2.136193e+01
2.136208e+01
2.136221e+01
2.136232e+01
2.136240e+01
2.136246e+01
2.136250e+01
2.136252e+01
2.136252e+01
2.136249e+01
2.136244e+01
2.136237e+01
2.136228e+01
2.136217e+01
2.136205e+01
2.136190e+01
2.136175e+01
2.136154e+01
2.136142e+01
2.163988e+01
2.164000e+01
2.163993e+01
2.163723e+01
2.162892e+01
2.160341e+01
2.152027e+01
2.122558e+01
2.033180e+01
2.038477e+01
2.053566e+01
2.064489e+01
2.073246e+01
2.080960e+01
2.088309e+01
2.095511e+01
2.102365e+01
2.109058e+01
2.115517e+01
2.120920e+01
2.124805e+01
2.127253e+01
2.128663e+01
2.129465e+01
2.129950e+01
2.130284e+01
2.130550e+01
2.130780e+01
2.130992e+01
2.131197e+01
2.131396e+01
2.131593e+01
2.131785e+01
2.131974e+01
2.132159e+01
2.132338e+01
2.132511e+01
2.132679e+01
2.132841e+01
2.132997e+01
2.133147e+01
2.133291e+01
2.133430e+01
2.133563e+01
2.133692e+01
2.133815e+01
2.133934e+01
2.134048e+01
2.134159e+01
2.134265e+01
2.134368e+01
2.134467e+01
2.134562e+01
2.134654e+01
2.134743e+01
2.134829e+01
2.134912e+01
2.134992e+01
2.135069e+01
2.135143e+01
2.135215e+01
2.135284e+01
2.135350e+01
2.135414e+01
2.135475e+01
2.135533e+01
2.135590e+01
2.135644e+01
2.135695e+01
2.135744e+01
2.135791e+01
2.135835e+01
2.135877e+01
2.135917e+01
2.135954e+01
2.135990e+01
2.136023e+01
2.136053e+01
2.136082e+01
2.136108e+01
2.136132e+01
2.136153e+01
2.136173e+01
2.136190e+01
2.136205e+01
2.136218e+01
2.136229e+01
2.136237e+01
2.136243e+01
2.136247e+01
2.136249e+01
2.136249e+01
2.136246e+01
2.136241e+01
2.136235e+01
2.136226e+01
2.136215e+01
2.136203e+01
2.136189e+01
2.136175e+01
2.136154e+01
2.136143e+01
2.164507e+01
2.164519e+01
2.165538e+01
2.166667e+01
2.168158e+01
2.170118e+01
2.171817e+01
2.180317e+01
2.106737e+01
2.042828e+01
2.047202e+01
2.059504e+01
2.069948e+01
2.078375e+01
2.086162e+01
2.093831e+01
2.101194e+01
2.108157e+01
2.115311e+01
2.121364e+01
2.125532e+01
2.127939e+01
2.129166e+01
2.129797e+01
2.130151e+01
2.130391e+01
2.130600e+01
2.130802e+01
2.131004e+01
2.131206e+01
2.131409e+01
2.131609e+01
2.131807e+01
2.132001e+01
2.132189e+01
2.132371e+01
2.132547e+01
2.132716e+01
2.132879e+01
2.133034e+01
2.133184e+01
2.133327e+01
2.133464e+01
2.133596e+01
2.133722e+01
2.133844e+01
2.133960e+01
2.134073e+01
2.134181e+01
2.134286e+01
2.134386e+01
2.134483e+01
2.134577e+01
2.134668e+01
2.134755e+01
2.134840e+01
2.134921e+01
2.135000e+01
2.135076e+01
2.135149e+01
2.135220e+01
2.135288e+01
2.135353e+01
2.135416e+01
2.135477e+01
2.135535e+01
2.135591e+01
2.135644e+01
2.135695e+01
2.135744e+01
2.135790e+01
2.135834e+01
2.135876e+01
2.135915e+01
2.135953e+01
2.135988e+01
2.136020e+01
2.136051e+01
2.136079e+01
2.136105e+01
2.136129e+01
2.136151e+01
2.136170e+01
2.136187e+01
2.136202e+01
2.136215e+01
2.136226e+01
2.136234e+01
2.136240e+01
2.136244e+01
2.136246e+01
2.136246e+01
2.136243e+01
2.136239e+01
2.136232e+01
2.136224e+01
2.136214e+01
2.136202e+01
2.136188e+01
2.136174e+01
2.136154e+01
2.136142e+01
2.165107e+01
2.165119e+01
2.166968e+01
2.169222e+01
2.172540e+01
2.177961e+01
2.187267e+01
2.200722e+01
2.204437e+01
0.000000e+00
2.062582e+01
2.062594e+01
2.070517e+01
2.079142e+01
2.086733e+01
2.094086e+01
2.101353e+01
2.108024e+01
2.115405e+01
2.121709e+01
2.125901e+01
2.128286e+01
2.129410e+01
2.129915e+01
2.130213e+01
2.130445e+01
2.130656e+01
2.130862e+01
2.131067e+01
2.131273e+01
2.131477e+01
2.131680e+01
2.131878e+01
2.132072e+01
2.132259e+01
2.132440e+01
2.132613e+01
2.132780e+01
2.132939e+01
2.133091e+01
2.133237e+01
2.133377e+01
2.133510e+01
2.133638e+01
2.133761e+01
2.133880e+01
2.133993e+01
2.134103e+01
2.134208e+01
2.134310e+01
2.134408e+01
2.134503e+01
2.134595e+01
2.134683e+01
2.134769e+01
2.134852e+01
2.134932e+01
2.135009e+01
2.135084e+01
2.135156e+01
2.135225e+01
2.135292e+01
2.135357e+01
2.135419e+01
2.135479e+01
2.135537e+01
2.135592e+01
2.135645e+01
2.135695e+01
2.135744e+01
2.135790e+01
2.135833e+01
2.135875e+01
2.135914e+01
2.135951e+01
2.135986e+01
2.136019e+01
2.136049e+01
2.136077e+01
2.136103e+01
2.136127e+01
2.136148e+01
2.136168e+01
2.136185e+01
2.136200e+01
2.136212e+01
2.136223e+01
2.136231e+01
2.136237e+01
2.136241e+01
2.136243e+01
2.136243e+01
2.136241e+01
2.136236e+01
2.136230e+01
2.136222e+01
2.136212e+01
2.136200e+01
2.136187e+01
2.136173e+01
2.136153e+01
2.136141e+01
2.165699e+01
2.165711e+01
2.168046e+01
2.170875e+01
2.174860e+01
2.180819e+01
2.189472e+01
2.200076e+01
2.208177e+01
2.208165e+01
0.000000e+00
2.077096e+01
2.077108e+01
2.082699e+01
2.088823e+01
2.095438e+01
2.101901e+01
2.108163e+01
2.115057e+01
2.120851e+01
2.124820e+01
2.127180e+01
2.128636e+01
2.129551e+01
2.130117e+01
2.130497e+01
2.130783e+01
2.131021e+01
2.131236e+01
2.131439e+01
2.131637e+01
2.131830e+01
2.132018e+01
2.132202e+01
2.132379e+01
2.132550e+01
2.132714e+01
2.132872e+01
2.133024e+01
2.133169e+01
2.133307e+01
2.133441e+01
2.133568e+01
2.133691e+01
2.133809e+01
2.133923e+01
2.134032e+01
2.134138e+01
2.134240e+01
2.134338e+01
2.134434e+01
2.134526e+01
2.134615e+01
2.134701e+01
2.134785e+01
2.134866e+01
2.134944e+01
2.135020e+01
2.135093e+01
2.135164e+01
2.135232e+01
2.135298e+01
2.135362e+01
2.135423e+01
2.135482e+01
2.135539e+01
2.135594e+01
2.135646e+01
2.135696e+01
2.135744e+01
2.135790e+01
2.135833e+01
2.135874e+01
2.135913e+01
2.135950e+01
2.135985e+01
2.136017e+01
2.136047e+01
2.136075e+01
2.136101e+01
2.136125e+01
2.136146e+01
2.136165e+01
2.136182e+01
2.136197e+01
2.136210e+01
2.136220e+01
2.136229e+01
2.136235e+01
2.136239e+01
2.136241e+01
2.136241e+01
2.136238e+01
2.136234e+01
2.136228e+01
2.136220e+01
2.136210e+01
2.136198e+01
2.136185e+01
2.136171e+01
2.136152e+01
2.136140e+01
2.166224e+01
2.166236e+01
2.168694e+01
2.171584e+01
2.175400e+01
2.180567e+01
2.187428e+01
2.194683e+01
2.197291e+01
2.179055e+01
2.179044e+01
0.000000e+00
2.083785e+01
2.090486e+01
2.093364e+01
2.098164e+01
2.102951e+01
2.107624e+01
2.112283e+01
2.116973e+01
2.121304e+01
2.124913e+01
2.127455e+01
2.129060e+01
2.130009e+01
2.130605e+01
2.131003e+01
2.131291e+01
2.131517e+01
2.131712e+01
2.131891e+01
2.132062e+01
2.132228e+01
2.132390e+01
2.132548e+01
2.132701e+01
2.132849e+01
2.132993e+01
2.133131e+01
2.133265e+01
2.133394e+01
2.133518e+01
2.133638e+01
2.133753e+01
2.133865e+01
2.133972e+01
2.134077e+01
2.134177e+01
2.134275e+01
2.134370e+01
2.134461e+01
2.134550e+01
2.134637e+01
2.134720e+01
2.134802e+01
2.134881e+01
2.134957e+01
2.135031e+01
2.135103e+01
2.135172e+01
2.135239e+01
2.135304e+01
2.135367e+01
2.135428e+01
2.135486e+01
2.135542e+01
2.135596e+01
2.135648e+01
2.135698e+01
2.135745e+01
2.135790e+01
2.135833e+01
2.135874e+01
2.135913e+01
2.135949e+01
2.135984e+01
2.136016e+01
2.136046e+01
2.136074e+01
2.136099e+01
2.136123e+01
2.136144e+01
2.136163e+01
2.136180e+01
2.136195e+01
2.136208e+01
2.136218e+01
2.136227e+01
2.136233e+01
2.136237e+01
2.136239e+01
2.136239e+01
2.136236e+01
2.136232e+01
2.136226e+01
2.136218e+01
2.136208e+01
2.136196e+01
2.136184e+01
2.136170e+01
2.136150e+01
2.136138e+01
2.166659e+01
2.166671e+01
2.168959e+01
2.171541e+01
2.174681e+01
2.178594e+01
2.182698e+01
2.184728e+01
2.180142e+01
2.171266e+01
2.136249e+01
2.107985e+01
2.092232e+01
2.095433e+01
2.097570e+01
2.100579e+01
2.104018e+01
2.106334e+01
2.109508e+01
2.113949e+01
2.119116e+01
2.123556e+01
2.126637e+01
2.128538e+01
2.129784e+01
2.130624e+01
2.131188e+01
2.131569e+01
2.131835e+01
2.132034e+01
2.132198e+01
2.132345e+01
2.132483e+01
2.132618e+01
2.132750e+01
2.132880e+01
2.133008e+01
2.133133e+01
2.133256e+01
2.133375e+01
2.133492e+01
2.133605e+01
2.133715e+01
2.133822e+01
2.133926e+01
2.134026e+01
2.134125e+01
2.134220e+01
2.134313e+01
2.134403e+01
2.134491e+01
2.134577e+01
2.134660e+01
2.134741e+01
2.134820e+01
2.134896e+01
2.134971e+01
2.135043e+01
2.135113e+01
2.135181e+01
2.135247e+01
2.135311e+01
2.135373e+01
2.135432e+01
2.135490e+01
2.135545e+01
2.135599e+01
2.135650e+01
2.135699e+01
2.135746e+01
2.135791e+01
2.135834e+01
2.135874e+01
2.135913e+01
2.135949e+01
2.135983e+01
2.136015e+01
2.136045e+01
2.136073e+01
2.136098e+01
2.136122e+01
2.136143e+01
2.136162e+01
2.136179e+01
2.136193e+01
2.136206e+01
2.136216e+01
2.136225e+01
2.136231e+01
2.136235e+01
2.136237e+01
2.136237e+01
2.136234e+01
2.136230e+01
2.136224e+01
2.136216e+01
2.136206e+01
2.136194e+01
2.136181e+01
2.136167e+01
2.136148e+01
2.136136e+01
2.167013e+01
2.167025e+01
2.168941e+01
2.170997e+01
2.173299e+01
2.175607e+01
2.177061e+01
2.175707e+01
2.168291e+01
2.153786e+01
2.130463e+01
2.079745e+01
2.089055e+01
2.095688e+01
2.098730e+01
2.100627e+01
2.103478e+01
2.105160e+01
2.108200e+01
2.113060e+01
2.118576e+01
2.123108e+01
2.126141e+01
2.128175e+01
2.129582e+01
2.130576e+01
2.131273e+01
2.131752e+01
2.132078e+01
2.132306e+01
2.132475e+01
2.132613e+01
2.132734e+01
2.132848e+01
2.132958e+01
2.133067e+01
2.133175e+01
2.133282e+01
2.133388e+01
2.133492e+01
2.133595e+01
2.133697e+01
2.133796e+01
2.133894e+01
2.133989e+01
2.134083e+01
2.134174e+01
2.134264e+01
2.134352e+01
2.134437e+01
2.134521e+01
2.134603e+01
2.134683e+01
2.134761e+01
2.134838e+01
2.134912e+01
2.134984e+01
2.135055e+01
2.135124e+01
2.135190e+01
2.135255e+01
2.135318e+01
2.135378e+01
2.135437e+01
2.135494e+01
2.135549e+01
2.135601e+01
2.135652e+01
2.135701e+01
2.135747e+01
2.135792e+01
2.135834e+01
2.135874e+01
2.135913e+01
2.135949e+01
2.135983e+01
2.136014e+01
2.136044e+01
2.136072e+01
2.136097e+01
2.136120e+01
2.136141e+01
2.136160e+01
2.136177e+01
2.136192e+01
2.136204e+01
2.136215e+01
2.136223e+01
2.136229e+01
2.136233e+01
2.136235e+01
2.136235e+01
2.136232e+01
2.136228e+01
2.136222e+01
2.136214e+01
2.136204e+01
2.136192e+01
2.136179e+01
2.136165e+01
2.136145e+01
2.136134e+01
2.167305e+01
2.167317e+01
2.168760e+01
2.170223e+01
2.171610e+01
2.172565e+01
2.172294e+01
2.169412e+01
2.161961e+01
2.148270e+01
2.129486e+01
2.103109e+01
2.099795e+01
2.100867e+01
2.101993e+01
2.102844e+01
2.104395e+01
2.106205e+01
2.109420e+01
2.114115e+01
2.119268e+01
2.123323e+01
2.126305e+01
2.128397e+01
2.129821e+01
2.130782e+01
2.131440e+01
2.131902e+01
2.132234e+01
2.132480e+01
2.132666e+01
2.132813e+01
2.132936e+01
2.133044e+01
2.133144e+01
2.133239e+01
2.133332e+01
2.133425e+01
2.133516e+01
2.133607e+01
2.133698e+01
2.133788e+01
2.133877e+01
2.133965e+01
2.134053e+01
2.134139e+01
2.134224e+01
2.134308e+01
2.134390e+01
2.134471e+01
2.134551e+01
2.134629e+01
2.134706e+01
2.134782e+01
2.134855e+01
2.134927e+01
2.134998e+01
2.135067e+01
2.135134e+01
2.135199e+01
2.135262e+01
2.135324e+01
2.135384e+01
2.135442e+01
2.135498e+01
2.135552e+01
2.135604e+01
2.135654e+01
2.135702e+01
2.135749e+01
2.135793e+01
2.135835e+01
2.135875e+01
2.135913e+01
2.135948e+01
2.135982e+01
2.136014e+01
2.136043e+01
2.136071e+01
2.136096e+01
2.136119e+01
2.136140e+01
2.136159e+01
2.136176e+01
2.136191e+01
2.136203e+01
2.136213e+01
2.136222e+01
2.136228e+01
2.136232e+01
2.136234e+01
2.136233e+01
2.136231e+01
2.136226e+01
2.136220e+01
2.136212e+01
2.136201e+01
2.136189e+01
2.136176e+01
2.136162e+01
2.136142e+01
2.136131e+01
2.167554e+01
2.167566e+01
2.168518e+01
2.169388e+01
2.170002e+01
2.170003e+01
2.168773e+01
2.165418e+01
2.158848e+01
2.148043e+01
2.133187e+01
2.116034e+01
2.109128e+01
2.106894e+01
2.106202e+01
2.106060e+01
2.106834e+01
2.108553e+01
2.111680e+01
2.115977e+01
2.120337e+01
2.123944e+01
2.126684e+01
2.128644e+01
2.129994e+01
2.130916e+01
2.131557e+01
2.132017e+01
2.132356e+01
2.132612e+01
2.132810e+01
2.132966e+01
2.133093e+01
2.133202e+01
2.133298e+01
2.133386e+01
2.133470e+01
2.133552e+01
2.133633e+01
2.133713e+01
2.133793e+01
2.133873e+01
2.133953e+01
2.134033e+01
2.134113e+01
2.134192e+01
2.134271e+01
2.134349e+01
2.134427e+01
2.134504e+01
2.134579e+01
2.134654e+01
2.134728e+01
2.134801e+01
2.134872e+01
2.134942e+01
2.135011e+01
2.135078e+01
2.135143e+01
2.135207e+01
2.135270e+01
2.135330e+01
2.135389e+01
2.135446e+01
2.135502e+01
2.135555e+01
2.135607e+01
2.135656e+01
2.135704e+01
2.135750e+01
2.135794e+01
2.135835e+01
2.135875e+01
2.135913e+01
2.135948e+01
2.135982e+01
2.136013e+01
2.136043e+01
2.136070e+01
2.136095e+01
2.136118e+01
2.136139e+01
2.136158e+01
2.136175e+01
2.136190e+01
2.136202e+01
2.136212e+01
2.136220e+01
2.136227e+01
2.136230e+01
2.136232e+01
2.136232e+01
2.136229e+01
2.136225e+01
2.136218e+01
2.136210e+01
2.136199e+01
2.136187e+01
2.136173e+01
2.136158e+01
2.136138e+01
2.136127e+01
2.167771e+01
2.167783e+01
2.168275e+01
2.168635e+01
2.168661e+01
2.168035e+01
2.166301e+01
2.162880e+01
2.157148e+01
2.148535e+01
2.136960e+01
2.123968e+01
2.116160e+01
2.112118e+01
2.110053e+01
2.109132e+01
2.109423e+01
2.111032e+01
2.113982e+01
2.117795e+01
2.121572e+01
2.124755e+01
2.127185e+01
2.128932e+01
2.130151e+01
2.131006e+01
2.131623e+01
2.132080e+01
2.132429e+01
2.132697e+01
2.132908e+01
2.133074e+01
2.133209e+01
2.133322e+01
2.133418e+01
2.133504e+01
2.133584e+01
2.133659e+01
2.133732e+01
2.133805e+01
2.133877e+01
2.133949e+01
2.134021e+01
2.134094e+01
2.134167e+01
2.134240e+01
2.134313e+01
2.134387e+01
2.134460e+01
2.134532e+01
2.134605e+01
2.134677e+01
2.134748e+01
2.134818e+01
2.134887e+01
2.134955e+01
2.135022e+01
2.135088e+01
2.135152e+01
2.135215e+01
2.135276e+01
2.135336e+01
2.135394e+01
2.135450e+01
2.135505e+01
2.135558e+01
2.135609e+01
2.135658e+01
2.135706e+01
2.135751e+01
2.135794e+01
2.135836e+01
2.135875e+01
2.135913e+01
2.135948e+01
2.135982e+01
2.136013e+01
2.136042e+01
2.136070e+01
2.136095e+01
2.136118e+01
2.136139e+01
2.136157e+01
2.136174e+01
2.136189e+01
2.136201e+01
2.136211e+01
2.136219e+01
2.136226e+01
2.136229e+01
2.136231e+01
2.136231e+01
2.136228e+01
2.136224e+01
2.136217e+01
2.136208e+01
2.136197e+01
2.136184e+01
2.136170e+01
2.136154e+01
2.136134e+01
2.136122e+01
2.167949e+01
2.167961e+01
2.168071e+01
2.168031e+01
2.167635e+01
2.166611e+01
2.164611e+01
2.161241e+01
2.156105e+01
2.148883e+01
2.139548e+01
2.129119e+01
2.121247e+01
2.116161e+01
2.113117e+01
2.111602e+01
2.111618e+01
2.113168e+01
2.115958e+01
2.119335e+01
2.122635e+01
2.125427e+01
2.127574e+01
2.129133e+01
2.130250e+01
2.131059e+01
2.131660e+01
2.132118e+01
2.132474e+01
2.132752e+01
2.132973e+01
2.133149e+01
2.133292e+01
2.133409e+01
2.133508e+01
2.133594e+01
2.133672e+01
2.133744e+01
2.133812e+01
2.133879e+01
2.133945e+01
2.134011e+01
2.134077e+01
2.134144e+01
2.134212e+01
2.134280e+01
2.134349e+01
2.134418e+01
2.134488e+01
2.134557e+01
2.134626e+01
2.134695e+01
2.134764e+01
2.134832e+01
2.134900e+01
2.134966e+01
2.135031e+01
2.135096e+01
2.135159e+01
2.135221e+01
2.135281e+01
2.135340e+01
2.135398e+01
2.135454e+01
2.135508e+01
2.135560e+01
2.135611e+01
2.135660e+01
2.135707e+01
2.135752e+01
2.135795e+01
2.135837e+01
2.135876e+01
2.135913e+01
2.135949e+01
2.135982e+01
2.136013e+01
2.136042e+01
2.136069e+01
2.136094e+01
2.136117e+01
2.136138e+01
2.136157e+01
2.136173e+01
2.136188e+01
2.136200e+01
2.136211e+01
2.136219e+01
2.136225e+01
2.136229e+01
2.136230e+01
2.136230e+01
2.136227e+01
2.136222e+01
2.136215e+01
2.136206e+01
2.136195e+01
2.136181e+01
2.136166e+01
2.136149e+01
2.136128e+01
2.136117e+01
2.168090e+01
2.168102e+01
2.167923e+01
2.167592e+01
2.166911e+01
2.165641e+01
2.163505e+01
2.160206e+01
2.155466e+01
2.149089e+01
2.141120e+01
2.132276e+01
2.124688e+01
2.119068e+01
2.115363e+01
2.113477e+01
2.113399e+01
2.114905e+01
2.117489e+01
2.120517e+01
2.123444e+01
2.125920e+01
2.127839e+01
2.129261e+01
2.130306e+01
2.131084e+01
2.131677e+01
2.132136e+01
2.132498e+01
2.132784e+01
2.133013e+01
2.133197e+01
2.133345e+01
2.133467e+01
2.133570e+01
2.133657e+01
2.133734e+01
2.133805e+01
2.133871e+01
2.133934e+01
2.133996e+01
2.134058e+01
2.134120e+01
2.134183e+01
2.134247e+01
2.134311e+01
2.134377e+01
2.134443e+01
2.134509e+01
2.134576e+01
2.134643e+01
2.134710e+01
2.134777e+01
2.134843e+01
2.134909e+01
2.134975e+01
2.135039e+01
2.135102e+01
2.135165e+01
2.135226e+01
2.135286e+01
2.135344e+01
2.135401e+01
2.135456e+01
2.135510e+01
2.135562e+01
2.135613e+01
2.135661e+01
2.135708e+01
2.135753e+01
2.135796e+01
2.135837e+01
2.135876e+01
2.135913e+01
2.135949e+01
2.135982e+01
2.136013e+01
2.136042e+01
2.136069e+01
2.136094e+01
2.136117e+01
2.136138e+01
2.136156e+01
2.136173e+01
2.136187e+01
2.136200e+01
2.136210e+01
2.136218e+01
2.136224e+01
2.136228e+01
2.136230e+01
2.136229e+01
2.136226e+01
2.136221e+01
2.136214e+01
2.136205e+01
2.136193e+01
2.136178e+01
2.136161e+01
2.136143e+01
2.136121e+01
2.136110e+01
2.168188e+01
2.168200e+01
2.167830e+01
2.167311e+01
2.166456e+01
2.165048e+01
2.162849e+01
2.159617e+01
2.155129e+01
2.149247e+01
2.142049e+01
2.134096e+01
2.126756e+01
2.120882e+01
2.116833e+01
2.114776e+01
2.114649e+01
2.116092e+01
2.118517e+01
2.121306e+01
2.123973e+01
2.126227e+01
2.127994e+01
2.129328e+01
2.130330e+01
2.131091e+01
2.131679e+01
2.132140e+01
2.132506e+01
2.132798e+01
2.133033e+01
2.133222e+01
2.133376e+01
2.133502e+01
2.133607e+01
2.133696e+01
2.133774e+01
2.133844e+01
2.133908e+01
2.133970e+01
2.134030e+01
2.134089e+01
2.134149e+01
2.134209e+01
2.134270e+01
2.134332e+01
2.134395e+01
2.134459e+01
2.134524e+01
2.134589e+01
2.134655e+01
2.134720e+01
2.134786e+01
2.134851e+01
2.134916e+01
2.134980e+01
2.135044e+01
2.135107e+01
2.135168e+01
2.135229e+01
2.135288e+01
2.135346e+01
2.135403e+01
2.135458e+01
2.135512e+01
2.135563e+01
2.135614e+01
2.135662e+01
2.135709e+01
2.135753e+01
2.135796e+01
2.135837e+01
2.135876e+01
2.135914e+01
2.135949e+01
2.135982e+01
2.136013e+01
2.136042e+01
2.136069e+01
2.136094e+01
2.136117e+01
2.136137e+01
2.136156e+01
2.136173e+01
2.136187e+01
2.136199e+01
2.136210e+01
2.136218e+01
2.136224e+01
2.136227e+01
2.136229e+01
2.136229e+01
2.136226e+01
2.136221e+01
2.136213e+01
2.136204e+01
2.136191e+01
2.136175e+01
2.136156e+01
2.136134e+01
2.136112e+01
2.136101e+01
2.168239e+01
2.168251e+01
2.167786e+01
2.167176e+01
2.166241e+01
2.164776e+01
2.162564e+01
2.159383e+01
2.155034e+01
2.149400e+01
2.142560e+01
2.134998e+01
2.127770e+01
2.121774e+01
2.117581e+01
2.115452e+01
2.115287e+01
2.116675e+01
2.119005e+01
2.121669e+01
2.124205e+01
2.126352e+01
2.128047e+01
2.129343e+01
2.130327e+01
2.131082e+01
2.131670e+01
2.132134e+01
2.132503e+01
2.132799e+01
2.133037e+01
2.133230e+01
2.133386e+01
2.133515e+01
2.133622e+01
2.133712e+01
2.133791e+01
2.133861e+01
2.133925e+01
2.133986e+01
2.134046e+01
2.134104e+01
2.134162e+01
2.134222e+01
2.134282e+01
2.134342e+01
2.134404e+01
2.134467e+01
2.134531e+01
2.134595e+01
2.134660e+01
2.134725e+01
2.134790e+01
2.134855e+01
2.134919e+01
2.134983e+01
2.135047e+01
2.135109e+01
2.135170e+01
2.135231e+01
2.135290e+01
2.135348e+01
2.135404e+01
2.135459e+01
2.135512e+01
2.135564e+01
2.135614e+01
2.135662e+01
2.135709e+01
2.135754e+01
2.135797e+01
2.135838e+01
2.135877e+01
2.135914e+01
2.135949e+01
2.135982e+01
2.136013e+01
2.136042e+01
2.136069e+01
2.136094e+01
2.136117e+01
2.136137e+01
2.136156e+01
2.136172e+01
2.136187e+01
2.136199e+01
2.136209e+01
2.136218e+01
2.136223e+01
2.136227e+01
2.136229e+01
2.136228e+01
2.136226e+01
2.136220e+01
2.136213e+01
2.136203e+01
2.136190e+01
2.136174e+01
2.136152e+01
2.136123e+01
2.136101e+01
2.136089e+01
0.000000e+00
2.168239e+01
2.167774e+01
2.167164e+01
2.166229e+01
2.164765e+01
2.162552e+01
2.159371e+01
2.155022e+01
2.149389e+01
2.142548e+01
2.134986e+01
2.127758e+01
2.121762e+01
2.117569e+01
2.115440e+01
2.115275e+01
2.116664e+01
2.118993e+01
2.121657e+01
2.124193e+01
2.126340e+01
2.128035e+01
2.129331e+01
2.130315e+01
2.131071e+01
2.131658e+01
2.132122e+01
2.132491e+01
2.132787e+01
2.133025e+01
2.133218e+01
2.133375e+01
2.133503e+01
2.133610e+01
2.133700e+01
2.133779e+01
2.133849e+01
2.133914e+01
2.133975e+01
2.134034e+01
2.134092e+01
2.134151e+01
2.134210e+01
2.134270e+01
2.134331e+01
2.134393e+01
2.134456e+01
2.134519e+01
2.134584e+01
2.134648e+01
2.134713e+01
2.134778e+01
2.134843e+01
2.134908e+01
2.134972e+01
2.135035e+01
2.135097e+01
2.135159e+01
2.135219e+01
2.135278e+01