# vtk DataFile Version 3.0
Scalar Field
ASCII
DATASET RECTILINEAR_GRID
DIMENSIONS 102 22 1
X_COORDINATES 102 double
0.000000 0.100000 0.200000 0.300000 0.400000 0.500000 0.600000 0.700000 0.800000 0.900000 1.000000 1.100000 1.200000 1.300000 1.400000 1.500000 1.600000 1.700000 1.800000 1.900000 2.000000 2.100000 2.200000 2.300000 2.400000 2.500000 2.600000 2.700000 2.800000 2.900000 3.000000 3.100000 3.200000 3.300000 3.400000 3.500000 3.600000 3.700000 3.800000 3.900000 4.000000 4.100000 4.200000 4.300000 4.400000 4.500000 4.600000 4.700000 4.800000 4.900000 5.000000 5.100000 5.200000 5.300000 5.400000 5.500000 5.600000 5.700000 5.800000 5.900000 6.000000 6.100000 6.200000 6.300000 6.400000 6.500000 6.600000 6.700000 6.800000 6.900000 7.000000 7.100000 7.200000 7.300000 7.400000 7.500000 7.600000 7.700000 7.800000 7.900000 8.000000 8.100000 8.200000 8.300000 8.400000 8.500000 8.600000 8.700000 8.800000 8.900000 9.000000 9.100000 9.200000 9.300000 9.400000 9.500000 9.600000 9.700000 9.800000 9.900000 10.000000 10.100000 
Y_COORDINATES 22 double
0.000000 0.100000 0.200000 0.300000 0.400000 0.500000 0.600000 0.700000 0.800000 0.900000 1.000000 1.100000 1.200000 1.300000 1.400000 1.500000 1.600000 1.700000 1.800000 1.900000 2.000000 2.100000 
Z_COORDINATES 1 double
0.0
POINT_DATA 2244
SCALARS Pressure double 1
LOOKUP_TABLE default
0.000000e+00
4.140683e+01
4.137275e+01
4.133345e+01
4.128543e+01
4.122468e+01
4.114771e+01
4.105427e+01
4.094672e+01
4.085134e+01
4.078845e+01
4.076345e+01
4.077140e+01
4.080237e+01
4.084535e+01
4.089092e+01
4.093289e+01
4.096834e+01
4.099671e+01
4.101875e+01
4.103566e+01
4.104862e+01
4.105866e+01
4.106657e+01
4.107292e+01
4.107815e+01
4.108254e+01
4.108633e+01
4.108967e+01
4.109267e+01
4.109544e+01
4.109802e+01
4.110046e+01
4.110279e+01
4.110505e+01
4.110724e+01
4.110937e+01
4.111144e+01
4.111347e+01
4.111545e+01
4.111739e+01
4.111928e+01
4.112112e+01
4.112291e+01
4.112466e+01
4.112636e+01
4.112802e+01
4.112962e+01
4.113119e+01
4.113270e+01
4.113417e+01
4.113560e+01
4.113698e+01
4.113832e+01
4.113961e+01
4.114087e+01
4.114209e+01
4.114326e+01
4.114440e+01
4.114549e+01
4.114655e+01
4.114758e+01
4.114856e+01
4.114951e+01
4.115042e+01
4.115130e+01
4.115215e+01
4.115295e+01
4.115373e+01
4.115447e+01
4.115518e+01
4.115585e+01
4.115649e+01
4.115710e+01
4.115768e+01
4.115822e+01
4.115873e+01
4.115921e+01
4.115965e+01
4.116007e+01
4.116045e+01
4.116080e+01
4.116112e+01
4.116140e+01
4.116166e+01
4.116188e+01
4.116207e+01
4.116223e+01
4.116236e+01
4.116245e+01
4.116251e+01
4.116254e+01
4.116254e+01
4.116251e+01
4.116244e+01
4.116233e+01
4.116218e+01
4.116199e+01
4.116174e+01
4.116139e+01
4.116106e+01
0.000000e+00
4.140683e+01
4.140733e+01
4.137325e+01
4.133396e+01
4.128594e+01
4.122519e+01
4.114822e+01
4.105477e+01
4.094722e+01
4.085185e+01
4.078896e+01
4.076395e+01
4.077190e+01
4.080288e+01
4.084586e+01
4.089142e+01
4.093339e+01
4.096885e+01
4.099722e+01
4.101926e+01
4.103616e+01
4.104912e+01
4.105917e+01
4.106707e+01
4.107343e+01
4.107865e+01
4.108304e+01
4.108683e+01
4.109017e+01
4.109318e+01
4.109594e+01
4.109852e+01
4.110096e+01
4.110330e+01
4.110555e+01
4.110774e+01
4.110987e+01
4.111195e+01
4.111398e+01
4.111596e+01
4.111789e+01
4.111978e+01
4.112162e+01
4.112342e+01
4.112517e+01
4.112687e+01
4.112852e+01
4.113013e+01
4.113169e+01
4.113320e+01
4.113467e+01
4.113610e+01
4.113748e+01
4.113882e+01
4.114012e+01
4.114137e+01
4.114259e+01
4.114376e+01
4.114490e+01
4.114600e+01
4.114706e+01
4.114808e+01
4.114906e+01
4.115001e+01
4.115093e+01
4.115181e+01
4.115265e+01
4.115346e+01
4.115423e+01
4.115497e+01
4.115568e+01
4.115636e+01
4.115700e+01
4.115760e+01
4.115818e+01
4.115872e+01
4.115923e+01
4.115971e+01
4.116016e+01
4.116057e+01
4.116095e+01
4.116130e+01
4.116162e+01
4.116191e+01
4.116216e+01
4.116238e+01
4.116257e+01
4.116273e+01
4.116286e+01
4.116295e+01
4.116302e+01
4.116305e+01
4.116305e+01
4.116301e+01
4.116294e+01
4.116283e+01
4.116269e+01
4.116250e+01
4.116224e+01
4.116190e+01
4.116156e+01
4.116106e+01
4.140577e+01
4.140627e+01
4.137365e+01
4.133546e+01
4.128792e+01
4.122658e+01
4.114726e+01
4.104963e+01
4.093205e+01
4.083241e+01
4.077082e+01
4.074899e+01
4.075995e+01
4.079330e+01
4.083844e+01
4.088617e+01
4.093021e+01
4.096738e+01
4.099690e+01
4.101957e+01
4.103673e+01
4.104972e+01
4.105967e+01
4.106744e+01
4.107367e+01
4.107878e+01
4.108309e+01
4.108681e+01
4.109010e+01
4.109308e+01
4.109583e+01
4.109840e+01
4.110085e+01
4.110319e+01
4.110545e+01
4.110765e+01
4.110979e+01
4.111188e+01
4.111391e+01
4.111590e+01
4.111784e+01
4.111973e+01
4.112158e+01
4.112337e+01
4.112512e+01
4.112682e+01
4.112848e+01
4.113008e+01
4.113164e+01
4.113316e+01
4.113463e+01
4.113605e+01
4.113743e+01
4.113877e+01
4.114006e+01
4.114132e+01
4.114253e+01
4.114371e+01
4.114484e+01
4.114594e+01
4.114699e+01
4.114802e+01
4.114900e+01
4.114995e+01
4.115086e+01
4.115174e+01
4.115258e+01
4.115339e+01
4.115416e+01
4.115490e+01
4.115561e+01
4.115629e+01
4.115693e+01
4.115753e+01
4.115811e+01
4.115865e+01
4.115916e+01
4.115964e+01
4.116008e+01
4.116050e+01
4.116088e+01
4.116123e+01
4.116155e+01
4.116183e+01
4.116209e+01
4.116231e+01
4.116250e+01
4.116266e+01
4.116279e+01
4.116288e+01
4.116295e+01
4.116298e+01
4.116297e+01
4.116294e+01
4.116287e+01
4.116277e+01
4.116262e+01
4.116244e+01
4.116221e+01
4.116194e+01
4.116161e+01
4.116111e+01
4.140460e+01
4.140511e+01
4.137555e+01
4.133997e+01
4.129403e+01
4.123214e+01
4.114827e+01
4.104095e+01
4.089818e+01
4.078933e+01
4.073208e+01
4.071831e+01
4.073578e+01
4.077361e+01
4.082254e+01
4.087428e+01
4.092248e+01
4.096334e+01
4.099557e+01
4.101984e+01
4.103769e+01
4.105081e+01
4.106062e+01
4.106816e+01
4.107415e+01
4.107905e+01
4.108320e+01
4.108681e+01
4.109002e+01
4.109295e+01
4.109567e+01
4.109824e+01
4.110069e+01
4.110305e+01
4.110533e+01
4.110755e+01
4.110971e+01
4.111182e+01
4.111387e+01
4.111587e+01
4.111782e+01
4.111972e+01
4.112157e+01
4.112337e+01
4.112512e+01
4.112682e+01
4.112847e+01
4.113008e+01
4.113163e+01
4.113315e+01
4.113461e+01
4.113603e+01
4.113741e+01
4.113874e+01
4.114003e+01
4.114128e+01
4.114249e+01
4.114366e+01
4.114480e+01
4.114589e+01
4.114695e+01
4.114796e+01
4.114895e+01
4.114989e+01
4.115080e+01
4.115168e+01
4.115252e+01
4.115333e+01
4.115410e+01
4.115484e+01
4.115555e+01
4.115622e+01
4.115686e+01
4.115747e+01
4.115804e+01
4.115859e+01
4.115910e+01
4.115957e+01
4.116002e+01
4.116043e+01
4.116081e+01
4.116116e+01
4.116148e+01
4.116177e+01
4.116202e+01
4.116224e+01
4.116243e+01
4.116259e+01
4.116272e+01
4.116281e+01
4.116288e+01
4.116291e+01
4.116291e+01
4.116287e+01
4.116281e+01
4.116271e+01
4.116257e+01
4.116240e+01
4.116219e+01
4.116195e+01
4.116164e+01
4.116114e+01
4.140388e+01
4.140439e+01
4.137969e+01
4.134853e+01
4.130582e+01
4.124383e+01
4.115241e+01
4.102489e+01
4.083175e+01
4.071206e+01
4.066816e+01
4.067114e+01
4.070027e+01
4.074514e+01
4.079906e+01
4.085590e+01
4.090982e+01
4.095624e+01
4.099294e+01
4.101994e+01
4.103902e+01
4.105239e+01
4.106199e+01
4.106918e+01
4.107482e+01
4.107943e+01
4.108335e+01
4.108679e+01
4.108991e+01
4.109278e+01
4.109548e+01
4.109805e+01
4.110052e+01
4.110290e+01
4.110522e+01
4.110746e+01
4.110965e+01
4.111178e+01
4.111386e+01
4.111588e+01
4.111784e+01
4.111975e+01
4.112161e+01
4.112341e+01
4.112516e+01
4.112686e+01
4.112851e+01
4.113011e+01
4.113166e+01
4.113317e+01
4.113463e+01
4.113604e+01
4.113741e+01
4.113874e+01
4.114003e+01
4.114127e+01
4.114248e+01
4.114364e+01
4.114477e+01
4.114586e+01
4.114691e+01
4.114793e+01
4.114891e+01
4.114985e+01
4.115076e+01
4.115163e+01
4.115247e+01
4.115328e+01
4.115405e+01
4.115479e+01
4.115549e+01
4.115616e+01
4.115680e+01
4.115741e+01
4.115798e+01
4.115853e+01
4.115903e+01
4.115951e+01
4.115996e+01
4.116037e+01
4.116075e+01
4.116110e+01
4.116142e+01
4.116170e+01
4.116196e+01
4.116218e+01
4.116237e+01
4.116253e+01
4.116266e+01
4.116275e+01
4.116282e+01
4.116285e+01
4.116285e+01
4.116281e+01
4.116275e+01
4.116265e+01
4.116252e+01
4.116236e+01
4.116217e+01
4.116195e+01
4.116166e+01
4.116115e+01
4.140428e+01
4.140478e+01
4.138689e+01
4.136253e+01
4.132589e+01
4.126594e+01
4.116378e+01
4.099334e+01
4.070837e+01
4.059204e+01
4.058096e+01
4.060945e+01
4.065500e+01
4.070971e+01
4.076954e+01
4.083132e+01
4.089163e+01
4.094545e+01
4.098853e+01
4.101969e+01
4.104067e+01
4.105446e+01
4.106378e+01
4.107047e+01
4.107564e+01
4.107987e+01
4.108351e+01
4.108677e+01
4.108977e+01
4.109259e+01
4.109528e+01
4.109786e+01
4.110036e+01
4.110278e+01
4.110514e+01
4.110742e+01
4.110965e+01
4.111181e+01
4.111391e+01
4.111594e+01
4.111792e+01
4.111984e+01
4.112170e+01
4.112350e+01
4.112525e+01
4.112694e+01
4.112859e+01
4.113018e+01
4.113172e+01
4.113322e+01
4.113467e+01
4.113608e+01
4.113744e+01
4.113876e+01
4.114004e+01
4.114128e+01
4.114248e+01
4.114364e+01
4.114476e+01
4.114584e+01
4.114689e+01
4.114790e+01
4.114888e+01
4.114982e+01
4.115072e+01
4.115160e+01
4.115243e+01
4.115324e+01
4.115401e+01
4.115474e+01
4.115544e+01
4.115611e+01
4.115675e+01
4.115736e+01
4.115793e+01
4.115847e+01
4.115898e+01
4.115946e+01
4.115990e+01
4.116031e+01
4.116069e+01
4.116104e+01
4.116136e+01
4.116164e+01
4.116190e+01
4.116212e+01
4.116231e+01
4.116247e+01
4.116260e+01
4.116269e+01
4.116276e+01
4.116279e+01
4.116279e+01
4.116276e+01
4.116270e+01
4.116260e+01
4.116248e+01
4.116233e+01
4.116215e+01
4.116195e+01
4.116165e+01
4.116115e+01
4.140639e+01
4.140690e+01
4.139774e+01
4.138314e+01
4.135760e+01
4.130707e+01
4.119795e+01
4.094850e+01
4.049359e+01
4.041599e+01
4.046545e+01
4.053089e+01
4.059883e+01
4.066729e+01
4.073569e+01
4.080279e+01
4.086952e+01
4.093157e+01
4.098260e+01
4.101926e+01
4.104278e+01
4.105707e+01
4.106597e+01
4.107202e+01
4.107659e+01
4.108037e+01
4.108370e+01
4.108677e+01
4.108966e+01
4.109244e+01
4.109512e+01
4.109773e+01
4.110027e+01
4.110274e+01
4.110514e+01
4.110747e+01
4.110973e+01
4.111192e+01
4.111404e+01
4.111609e+01
4.111808e+01
4.111999e+01
4.112185e+01
4.112365e+01
4.112539e+01
4.112708e+01
4.112871e+01
4.113029e+01
4.113183e+01
4.113331e+01
4.113475e+01
4.113615e+01
4.113750e+01
4.113881e+01
4.114008e+01
4.114131e+01
4.114250e+01
4.114365e+01
4.114477e+01
4.114584e+01
4.114689e+01
4.114789e+01
4.114886e+01
4.114980e+01
4.115070e+01
4.115157e+01
4.115240e+01
4.115320e+01
4.115397e+01
4.115470e+01
4.115540e+01
4.115607e+01
4.115671e+01
4.115731e+01
4.115788e+01
4.115842e+01
4.115893e+01
4.115940e+01
4.115985e+01
4.116026e+01
4.116064e+01
4.116099e+01
4.116130e+01
4.116159e+01
4.116184e+01
4.116207e+01
4.116226e+01
4.116241e+01
4.116254e+01
4.116264e+01
4.116270e+01
4.116274e+01
4.116274e+01
4.116271e+01
4.116265e+01
4.116256e+01
4.116244e+01
4.116229e+01
4.116212e+01
4.116193e+01
4.116165e+01
4.116114e+01
4.141049e+01
4.141100e+01
4.141195e+01
4.141007e+01
4.140270e+01
4.137860e+01
4.129834e+01
4.101161e+01
4.013128e+01
4.017470e+01
4.032507e+01
4.043879e+01
4.053475e+01
4.062065e+01
4.070084e+01
4.077569e+01
4.084872e+01
4.091931e+01
4.097816e+01
4.102002e+01
4.104585e+01
4.106040e+01
4.106866e+01
4.107385e+01
4.107770e+01
4.108097e+01
4.108396e+01
4.108683e+01
4.108963e+01
4.109239e+01
4.109510e+01
4.109776e+01
4.110035e+01
4.110287e+01
4.110531e+01
4.110768e+01
4.110996e+01
4.111217e+01
4.111429e+01
4.111635e+01
4.111833e+01
4.112024e+01
4.112209e+01
4.112387e+01
4.112560e+01
4.112727e+01
4.112889e+01
4.113045e+01
4.113197e+01
4.113344e+01
4.113486e+01
4.113624e+01
4.113758e+01
4.113888e+01
4.114014e+01
4.114136e+01
4.114254e+01
4.114368e+01
4.114479e+01
4.114586e+01
4.114689e+01
4.114789e+01
4.114885e+01
4.114979e+01
4.115068e+01
4.115155e+01
4.115238e+01
4.115317e+01
4.115394e+01
4.115467e+01
4.115537e+01
4.115603e+01
4.115667e+01
4.115727e+01
4.115784e+01
4.115838e+01
4.115888e+01
4.115936e+01
4.115980e+01
4.116021e+01
4.116059e+01
4.116094e+01
4.116126e+01
4.116154e+01
4.116179e+01
4.116202e+01
4.116221e+01
4.116236e+01
4.116249e+01
4.116259e+01
4.116265e+01
4.116269e+01
4.116269e+01
4.116266e+01
4.116261e+01
4.116252e+01
4.116240e+01
4.116226e+01
4.116210e+01
4.116191e+01
4.116163e+01
4.116113e+01
4.141631e+01
4.141681e+01
4.142786e+01
4.143974e+01
4.145521e+01
4.147537e+01
4.149311e+01
4.157930e+01
4.085479e+01
4.020374e+01
4.023378e+01
4.037340e+01
4.049239e+01
4.059008e+01
4.067839e+01
4.076085e+01
4.083768e+01
4.091762e+01
4.098516e+01
4.103020e+01
4.105462e+01
4.106635e+01
4.107231e+01
4.107599e+01
4.107885e+01
4.108157e+01
4.108430e+01
4.108707e+01
4.108986e+01
4.109264e+01
4.109539e+01
4.109809e+01
4.110071e+01
4.110326e+01
4.110572e+01
4.110810e+01
4.111038e+01
4.111258e+01
4.111469e+01
4.111673e+01
4.111869e+01
4.112058e+01
4.112241e+01
4.112417e+01
4.112587e+01
4.112752e+01
4.112911e+01
4.113065e+01
4.113215e+01
4.113360e+01
4.113500e+01
4.113637e+01
4.113769e+01
4.113897e+01
4.114021e+01
4.114142e+01
4.114259e+01
4.114372e+01
4.114482e+01
4.114588e+01
4.114691e+01
4.114790e+01
4.114886e+01
4.114978e+01
4.115067e+01
4.115153e+01
4.115236e+01
4.115315e+01
4.115391e+01
4.115464e+01
4.115534e+01
4.115600e+01
4.115663e+01
4.115723e+01
4.115780e+01
4.115834e+01
4.115884e+01
4.115932e+01
4.115976e+01
4.116017e+01
4.116055e+01
4.116089e+01
4.116121e+01
4.116149e+01
4.116175e+01
4.116197e+01
4.116216e+01
4.116232e+01
4.116245e+01
4.116254e+01
4.116261e+01
4.116264e+01
4.116265e+01
4.116262e+01
4.116256e+01
4.116248e+01
4.116237e+01
4.116223e+01
4.116207e+01
4.116189e+01
4.116161e+01
4.116110e+01
4.142306e+01
4.142356e+01
4.144272e+01
4.146560e+01
4.149897e+01
4.155305e+01
4.164541e+01
4.177697e+01
4.181443e+01
0.000000e+00
4.040538e+01
4.040588e+01
4.050143e+01
4.059638e+01
4.068057e+01
4.076181e+01
4.083652e+01
4.091957e+01
4.099168e+01
4.103746e+01
4.106101e+01
4.107064e+01
4.107475e+01
4.107745e+01
4.107993e+01
4.108249e+01
4.108515e+01
4.108790e+01
4.109068e+01
4.109346e+01
4.109621e+01
4.109890e+01
4.110150e+01
4.110402e+01
4.110645e+01
4.110879e+01
4.111104e+01
4.111319e+01
4.111527e+01
4.111726e+01
4.111918e+01
4.112103e+01
4.112282e+01
4.112454e+01
4.112621e+01
4.112782e+01
4.112938e+01
4.113090e+01
4.113237e+01
4.113379e+01
4.113517e+01
4.113651e+01
4.113782e+01
4.113908e+01
4.114031e+01
4.114150e+01
4.114266e+01
4.114378e+01
4.114486e+01
4.114591e+01
4.114693e+01
4.114792e+01
4.114887e+01
4.114979e+01
4.115067e+01
4.115153e+01
4.115235e+01
4.115314e+01
4.115389e+01
4.115462e+01
4.115531e+01
4.115597e+01
4.115660e+01
4.115720e+01
4.115777e+01
4.115830e+01
4.115881e+01
4.115928e+01
4.115972e+01
4.116013e+01
4.116051e+01
4.116085e+01
4.116117e+01
4.116145e+01
4.116171e+01
4.116193e+01
4.116212e+01
4.116228e+01
4.116240e+01
4.116250e+01
4.116257e+01
4.116260e+01
4.116261e+01
4.116258e+01
4.116253e+01
4.116244e+01
4.116233e+01
4.116220e+01
4.116204e+01
4.116186e+01
4.116158e+01
4.116108e+01
4.142987e+01
4.143037e+01
4.145419e+01
4.148261e+01
4.152240e+01
4.158163e+01
4.166704e+01
4.177142e+01
4.185290e+01
4.185240e+01
0.000000e+00
4.055051e+01
4.055102e+01
4.062351e+01
4.069636e+01
4.076860e+01
4.083689e+01
4.091735e+01
4.098590e+01
4.102988e+01
4.105366e+01
4.106678e+01
4.107402e+01
4.107836e+01
4.108158e+01
4.108441e+01
4.108712e+01
4.108981e+01
4.109248e+01
4.109515e+01
4.109777e+01
4.110033e+01
4.110282e+01
4.110523e+01
4.110756e+01
4.110979e+01
4.111195e+01
4.111402e+01
4.111602e+01
4.111794e+01
4.111979e+01
4.112158e+01
4.112331e+01
4.112499e+01
4.112661e+01
4.112818e+01
4.112970e+01
4.113118e+01
4.113261e+01
4.113401e+01
4.113537e+01
4.113668e+01
4.113796e+01
4.113921e+01
4.114042e+01
4.114159e+01
4.114273e+01
4.114384e+01
4.114492e+01
4.114596e+01
4.114697e+01
4.114794e+01
4.114889e+01
4.114980e+01
4.115068e+01
4.115153e+01
4.115234e+01
4.115313e+01
4.115388e+01
4.115460e+01
4.115529e+01
4.115595e+01
4.115658e+01
4.115718e+01
4.115774e+01
4.115827e+01
4.115878e+01
4.115925e+01
4.115969e+01
4.116010e+01
4.116047e+01
4.116082e+01
4.116113e+01
4.116142e+01
4.116167e+01
4.116189e+01
4.116208e+01
4.116224e+01
4.116237e+01
4.116246e+01
4.116253e+01
4.116256e+01
4.116257e+01
4.116254e+01
4.116249e+01
4.116241e+01
4.116230e+01
4.116217e+01
4.116201e+01
4.116183e+01
4.116156e+01
4.116105e+01
4.143613e+01
4.143664e+01
4.146151e+01
4.149035e+01
4.152822e+01
4.157940e+01
4.164757e+01
4.171790e+01
4.174530e+01
4.155965e+01
4.155915e+01
0.000000e+00
4.062061e+01
4.069121e+01
4.072911e+01
4.077874e+01
4.083097e+01
4.088521e+01
4.094132e+01
4.099271e+01
4.103299e+01
4.105850e+01
4.107240e+01
4.107991e+01
4.108448e+01
4.108775e+01
4.109047e+01
4.109297e+01
4.109538e+01
4.109776e+01
4.110010e+01
4.110241e+01
4.110467e+01
4.110687e+01
4.110902e+01
4.111109e+01
4.111310e+01
4.111505e+01
4.111693e+01
4.111875e+01
4.112052e+01
4.112223e+01
4.112389e+01
4.112549e+01
4.112706e+01
4.112858e+01
4.113005e+01
4.113149e+01
4.113289e+01
4.113425e+01
4.113558e+01
4.113687e+01
4.113812e+01
4.113935e+01
4.114054e+01
4.114170e+01
4.114282e+01
4.114391e+01
4.114498e+01
4.114601e+01
4.114700e+01
4.114797e+01
4.114891e+01
4.114981e+01
4.115069e+01
4.115153e+01
4.115234e+01
4.115312e+01
4.115387e+01
4.115459e+01
4.115528e+01
4.115593e+01
4.115656e+01
4.115715e+01
4.115772e+01
4.115825e+01
4.115875e+01
4.115922e+01
4.115966e+01
4.116006e+01
4.116044e+01
4.116079e+01
4.116110e+01
4.116138e+01
4.116163e+01
4.116186e+01
4.116205e+01
4.116220e+01
4.116233e+01
4.116243e+01
4.116249e+01
4.116253e+01
4.116253e+01
4.116251e+01
4.116246e+01
4.116238e+01
4.116227e+01
4.116213e+01
4.116198e+01
4.116180e+01
4.116153e+01
4.116102e+01
4.144164e+01
4.144214e+01
4.146512e+01
4.149071e+01
4.152196e+01
4.156070e+01
4.160059e+01
4.162014e+01
4.157443e+01
4.148436e+01
4.113445e+01
4.085328e+01
4.070478e+01
4.074035e+01
4.075699e+01
4.078789e+01
4.081753e+01
4.085489e+01
4.091067e+01
4.097161e+01
4.102067e+01
4.105118e+01
4.106925e+01
4.108027e+01
4.108707e+01
4.109142e+01
4.109446e+01
4.109686e+01
4.109899e+01
4.110101e+01
4.110299e+01
4.110496e+01
4.110691e+01
4.110884e+01
4.111074e+01
4.111261e+01
4.111444e+01
4.111623e+01
4.111797e+01
4.111967e+01
4.112133e+01
4.112294e+01
4.112452e+01
4.112605e+01
4.112755e+01
4.112901e+01
4.113043e+01
4.113183e+01
4.113318e+01
4.113451e+01
4.113580e+01
4.113706e+01
4.113829e+01
4.113949e+01
4.114066e+01
4.114180e+01
4.114291e+01
4.114399e+01
4.114504e+01
4.114606e+01
4.114705e+01
4.114801e+01
4.114894e+01
4.114983e+01
4.115070e+01
4.115154e+01
4.115234e+01
4.115312e+01
4.115387e+01
4.115458e+01
4.115527e+01
4.115592e+01
4.115654e+01
4.115713e+01
4.115770e+01
4.115823e+01
4.115873e+01
4.115919e+01
4.115963e+01
4.116004e+01
4.116041e+01
4.116076e+01
4.116107e+01
4.116135e+01
4.116160e+01
4.116183e+01
4.116201e+01
4.116217e+01
4.116230e+01
4.116240e+01
4.116246e+01
4.116250e+01
4.116250e+01
4.116248e+01
4.116243e+01
4.116234e+01
4.116224e+01
4.116210e+01
4.116194e+01
4.116177e+01
4.116149e+01
4.116099e+01
4.144644e+01
4.144694e+01
4.146603e+01
4.148635e+01
4.150897e+01
4.153141e+01
4.154513e+01
4.153120e+01
4.145696e+01
4.131234e+01
4.107957e+01
4.057312e+01
4.067022e+01
4.072878e+01
4.075739e+01
4.078555e+01
4.080736e+01
4.084670e+01
4.090574e+01
4.096880e+01
4.101482e+01
4.104497e+01
4.106525e+01
4.107902e+01
4.108810e+01
4.109393e+01
4.109771e+01
4.110035e+01
4.110242e+01
4.110422e+01
4.110592e+01
4.110759e+01
4.110926e+01
4.111092e+01
4.111258e+01
4.111423e+01
4.111587e+01
4.111748e+01
4.111907e+01
4.112064e+01
4.112218e+01
4.112369e+01
4.112518e+01
4.112663e+01
4.112806e+01
4.112946e+01
4.113083e+01
4.113217e+01
4.113348e+01
4.113477e+01
4.113603e+01
4.113726e+01
4.113847e+01
4.113964e+01
4.114079e+01
4.114191e+01
4.114301e+01
4.114407e+01
4.114511e+01
4.114612e+01
4.114709e+01
4.114804e+01
4.114896e+01
4.114986e+01
4.115072e+01
4.115155e+01
4.115235e+01
4.115312e+01
4.115386e+01
4.115458e+01
4.115526e+01
4.115591e+01
4.115653e+01
4.115712e+01
4.115768e+01
4.115821e+01
4.115871e+01
4.115917e+01
4.115961e+01
4.116001e+01
4.116039e+01
4.116073e+01
4.116105e+01
4.116133e+01
4.116158e+01
4.116180e+01
4.116199e+01
4.116215e+01
4.116227e+01
4.116237e+01
4.116244e+01
4.116247e+01
4.116248e+01
4.116245e+01
4.116240e+01
4.116231e+01
4.116220e+01
4.116207e+01
4.116191e+01
4.116173e+01
4.116146e+01
4.116095e+01
4.145069e+01
4.145120e+01
4.146542e+01
4.147959e+01
4.149290e+01
4.150183e+01
4.149850e+01
4.146941e+01
4.139514e+01
4.125909e+01
4.107214e+01
4.080888e+01
4.077668e+01
4.078393e+01
4.079258e+01
4.080650e+01
4.082770e+01
4.086665e+01
4.092200e+01
4.097721e+01
4.101916e+01
4.104877e+01
4.106856e+01
4.108142e+01
4.108985e+01
4.109556e+01
4.109958e+01
4.110254e+01
4.110482e+01
4.110671e+01
4.110837e+01
4.110992e+01
4.111141e+01
4.111288e+01
4.111435e+01
4.111581e+01
4.111727e+01
4.111873e+01
4.112018e+01
4.112161e+01
4.112304e+01
4.112444e+01
4.112584e+01
4.112721e+01
4.112856e+01
4.112990e+01
4.113121e+01
4.113251e+01
4.113378e+01
4.113503e+01
4.113625e+01
4.113746e+01
4.113864e+01
4.113979e+01
4.114092e+01
4.114202e+01
4.114310e+01
4.114415e+01
4.114517e+01
4.114617e+01
4.114714e+01
4.114808e+01
4.114899e+01
4.114988e+01
4.115073e+01
4.115156e+01
4.115236e+01
4.115313e+01
4.115386e+01
4.115457e+01
4.115525e+01
4.115590e+01
4.115652e+01
4.115711e+01
4.115766e+01
4.115819e+01
4.115869e+01
4.115915e+01
4.115959e+01
4.115999e+01
4.116037e+01
4.116071e+01
4.116102e+01
4.116131e+01
4.116156e+01
4.116178e+01
4.116196e+01
4.116212e+01
4.116225e+01
4.116235e+01
4.116241e+01
4.116245e+01
4.116245e+01
4.116242e+01
4.116237e+01
4.116228e+01
4.116217e+01
4.116203e+01
4.116187e+01
4.116169e+01
4.116142e+01
4.116091e+01
4.145458e+01
4.145508e+01
4.146415e+01
4.147223e+01
4.147774e+01
4.147711e+01
4.146425e+01
4.143040e+01
4.136490e+01
4.125764e+01
4.111044e+01
4.093983e+01
4.087153e+01
4.084816e+01
4.083964e+01
4.084330e+01
4.086115e+01
4.089656e+01
4.094437e+01
4.099005e+01
4.102667e+01
4.105320e+01
4.107123e+01
4.108316e+01
4.109121e+01
4.109687e+01
4.110101e+01
4.110414e+01
4.110660e+01
4.110859e+01
4.111029e+01
4.111182e+01
4.111323e+01
4.111459e+01
4.111593e+01
4.111725e+01
4.111857e+01
4.111989e+01
4.112121e+01
4.112253e+01
4.112385e+01
4.112516e+01
4.112646e+01
4.112776e+01
4.112905e+01
4.113032e+01
4.113158e+01
4.113283e+01
4.113406e+01
4.113527e+01
4.113647e+01
4.113764e+01
4.113880e+01
4.113993e+01
4.114104e+01
4.114212e+01
4.114319e+01
4.114422e+01
4.114524e+01
4.114622e+01
4.114718e+01
4.114812e+01
4.114902e+01
4.114990e+01
4.115075e+01
4.115157e+01
4.115237e+01
4.115313e+01
4.115387e+01
4.115457e+01
4.115525e+01
4.115589e+01
4.115651e+01
4.115710e+01
4.115765e+01
4.115818e+01
4.115867e+01
4.115914e+01
4.115957e+01
4.115998e+01
4.116035e+01
4.116069e+01
4.116101e+01
4.116129e+01
4.116154e+01
4.116176e+01
4.116194e+01
4.116210e+01
4.116223e+01
4.116233e+01
4.116239e+01
4.116242e+01
4.116243e+01
4.116240e+01
4.116234e+01
4.116226e+01
4.116214e+01
4.116200e+01
4.116183e+01
4.116165e+01
4.116137e+01
4.116087e+01
4.145799e+01
4.145849e+01
4.146280e+01
4.146568e+01
4.146525e+01
4.145831e+01
4.144033e+01
4.140565e+01
4.134820e+01
4.126243e+01
4.114772e+01
4.101894e+01
4.094203e+01
4.090213e+01
4.088212e+01
4.087917e+01
4.089409e+01
4.092578e+01
4.096598e+01
4.100418e+01
4.103508e+01
4.105770e+01
4.107341e+01
4.108427e+01
4.109197e+01
4.109762e+01
4.110190e+01
4.110521e+01
4.110783e+01
4.110995e+01
4.111173e+01
4.111328e+01
4.111468e+01
4.111599e+01
4.111725e+01
4.111848e+01
4.111969e+01
4.112091e+01
4.112213e+01
4.112335e+01
4.112457e+01
4.112580e+01
4.112703e+01
4.112826e+01
4.112948e+01
4.113070e+01
4.113192e+01
4.113312e+01
4.113431e+01
4.113549e+01
4.113666e+01
4.113781e+01
4.113894e+01
4.114005e+01
4.114114e+01
4.114222e+01
4.114326e+01
4.114429e+01
4.114529e+01
4.114627e+01
4.114722e+01
4.114815e+01
4.114905e+01
4.114992e+01
4.115077e+01
4.115158e+01
4.115237e+01
4.115314e+01
4.115387e+01
4.115457e+01
4.115524e+01
4.115589e+01
4.115650e+01
4.115709e+01
4.115764e+01
4.115817e+01
4.115866e+01
4.115913e+01
4.115956e+01
4.115996e+01
4.116034e+01
4.116068e+01
4.116099e+01
4.116127e+01
4.116152e+01
4.116174e+01
4.116193e+01
4.116209e+01
4.116221e+01
4.116231e+01
4.116237e+01
4.116241e+01
4.116241e+01
4.116238e+01
4.116232e+01
4.116223e+01
4.116211e+01
4.116196e+01
4.116179e+01
4.116160e+01
4.116132e+01
4.116081e+01
4.146088e+01
4.146138e+01
4.146175e+01
4.146053e+01
4.145582e+01
4.144483e+01
4.142408e+01
4.138965e+01
4.133770e+01
4.126518e+01
4.117215e+01
4.106887e+01
4.099158e+01
4.094202e+01
4.091493e+01
4.090899e+01
4.092280e+01
4.095028e+01
4.098355e+01
4.101536e+01
4.104143e+01
4.106089e+01
4.107487e+01
4.108497e+01
4.109243e+01
4.109808e+01
4.110246e+01
4.110590e+01
4.110865e+01
4.111089e+01
4.111276e+01
4.111436e+01
4.111578e+01
4.111707e+01
4.111828e+01
4.111945e+01
4.112060e+01
4.112174e+01
4.112288e+01
4.112403e+01
4.112518e+01
4.112634e+01
4.112751e+01
4.112868e+01
4.112986e+01
4.113103e+01
4.113220e+01
4.113337e+01
4.113453e+01
4.113568e+01
4.113682e+01
4.113795e+01
4.113906e+01
4.114016e+01
4.114123e+01
4.114229e+01
4.114333e+01
4.114435e+01
4.114534e+01
4.114631e+01
4.114726e+01
4.114818e+01
4.114907e+01
4.114994e+01
4.115078e+01
4.115160e+01
4.115238e+01
4.115314e+01
4.115387e+01
4.115457e+01
4.115524e+01
4.115589e+01
4.115650e+01
4.115708e+01
4.115764e+01
4.115816e+01
4.115865e+01
4.115912e+01
4.115955e+01
4.115995e+01
4.116033e+01
4.116067e+01
4.116098e+01
4.116126e+01
4.116151e+01
4.116173e+01
4.116192e+01
4.116207e+01
4.116220e+01
4.116229e+01
4.116236e+01
4.116239e+01
4.116239e+01
4.116236e+01
4.116230e+01
4.116221e+01
4.116209e+01
4.116193e+01
4.116175e+01
4.116154e+01
4.116126e+01
4.116075e+01
4.146320e+01
4.146370e+01
4.146108e+01
4.145690e+01
4.144929e+01
4.143576e+01
4.141351e+01
4.137955e+01
4.133110e+01
4.126635e+01
4.118614e+01
4.109809e+01
4.102366e+01
4.097058e+01
4.094083e+01
4.093376e+01
4.094530e+01
4.096856e+01
4.099657e+01
4.102346e+01
4.104584e+01
4.106301e+01
4.107581e+01
4.108539e+01
4.109268e+01
4.109833e+01
4.110278e+01
4.110632e+01
4.110917e+01
4.111151e+01
4.111345e+01
4.111510e+01
4.111654e+01
4.111784e+01
4.111904e+01
4.112018e+01
4.112128e+01
4.112237e+01
4.112346e+01
4.112455e+01
4.112565e+01
4.112676e+01
4.112788e+01
4.112901e+01
4.113015e+01
4.113128e+01
4.113242e+01
4.113356e+01
4.113470e+01
4.113583e+01
4.113695e+01
4.113806e+01
4.113916e+01
4.114024e+01
4.114131e+01
4.114235e+01
4.114338e+01
4.114439e+01
4.114538e+01
4.114634e+01
4.114728e+01
4.114820e+01
4.114909e+01
4.114995e+01
4.115079e+01
4.115160e+01
4.115239e+01
4.115314e+01
4.115387e+01
4.115457e+01
4.115524e+01
4.115588e+01
4.115650e+01
4.115708e+01
4.115763e+01
4.115815e+01
4.115865e+01
4.115911e+01
4.115954e+01
4.115995e+01
4.116032e+01
4.116066e+01
4.116097e+01
4.116125e+01
4.116150e+01
4.116172e+01
4.116191e+01
4.116206e+01
4.116219e+01
4.116228e+01
4.116235e+01
4.116238e+01
4.116238e+01
4.116235e+01
4.116229e+01
4.116219e+01
4.116206e+01
4.116190e+01
4.116170e+01
4.116147e+01
4.116118e+01
4.116068e+01
4.146483e+01
4.146534e+01
4.146074e+01
4.145464e+01
4.144526e+01
4.143031e+01
4.140734e+01
4.137384e+01
4.132755e+01
4.126719e+01
4.119386e+01
4.111386e+01
4.104195e+01
4.098841e+01
4.095817e+01
4.095038e+01
4.096012e+01
4.098047e+01
4.100498e+01
4.102858e+01
4.104853e+01
4.106425e+01
4.107631e+01
4.108558e+01
4.109276e+01
4.109842e+01
4.110291e+01
4.110652e+01
4.110945e+01
4.111185e+01
4.111385e+01
4.111554e+01
4.111701e+01
4.111831e+01
4.111951e+01
4.112064e+01
4.112172e+01
4.112279e+01
4.112384e+01
4.112490e+01
4.112597e+01
4.112705e+01
4.112813e+01
4.112923e+01
4.113034e+01
4.113146e+01
4.113258e+01
4.113370e+01
4.113481e+01
4.113593e+01
4.113704e+01
4.113813e+01
4.113922e+01
4.114030e+01
4.114135e+01
4.114240e+01
4.114342e+01
4.114442e+01
4.114540e+01
4.114636e+01
4.114730e+01
4.114821e+01
4.114910e+01
4.114996e+01
4.115080e+01
4.115161e+01
4.115239e+01
4.115315e+01
4.115387e+01
4.115457e+01
4.115524e+01
4.115588e+01
4.115649e+01
4.115708e+01
4.115763e+01
4.115815e+01
4.115864e+01
4.115911e+01
4.115954e+01
4.115994e+01
4.116031e+01
4.116065e+01
4.116096e+01
4.116124e+01
4.116149e+01
4.116171e+01
4.116190e+01
4.116206e+01
4.116218e+01
4.116228e+01
4.116234e+01
4.116237e+01
4.116237e+01
4.116234e+01
4.116228e+01
4.116218e+01
4.116204e+01
4.116187e+01
4.116165e+01
4.116139e+01
4.116109e+01
4.116058e+01
4.146569e+01
4.146619e+01
4.146061e+01
4.145360e+01
4.144341e+01
4.142789e+01
4.140475e+01
4.137168e+01
4.132660e+01
4.126835e+01
4.119795e+01
4.112120e+01
4.105054e+01
4.099723e+01
4.096693e+01
4.095863e+01
4.096729e+01
4.098609e+01
4.100882e+01
4.103081e+01
4.104961e+01
4.106466e+01
4.107641e+01
4.108555e+01
4.109270e+01
4.109837e+01
4.110290e+01
4.110656e+01
4.110953e+01
4.111197e+01
4.111400e+01
4.111572e+01
4.111721e+01
4.111853e+01
4.111973e+01
4.112085e+01
4.112193e+01
4.112298e+01
4.112403e+01
4.112507e+01
4.112612e+01
4.112718e+01
4.112826e+01
4.112934e+01
4.113044e+01
4.113154e+01
4.113265e+01
4.113376e+01
4.113487e+01
4.113598e+01
4.113708e+01
4.113817e+01
4.113925e+01
4.114032e+01
4.114138e+01
4.114242e+01
4.114344e+01
4.114444e+01
4.114542e+01
4.114637e+01
4.114731e+01
4.114822e+01
4.114911e+01
4.114997e+01
4.115080e+01
4.115161e+01
4.115239e+01
4.115315e+01
4.115387e+01
4.115457e+01
4.115524e+01
4.115588e+01
4.115649e+01
4.115707e+01
4.115763e+01
4.115815e+01
4.115864e+01
4.115910e+01
4.115953e+01
4.115994e+01
4.116031e+01
4.116065e+01
4.116096e+01
4.116124e+01
4.116149e+01
4.116171e+01
4.116190e+01
4.116205e+01
4.116218e+01
4.116227e+01
4.116234e+01
4.116237e+01
4.116237e+01
4.116234e+01
4.116227e+01
4.116217e+01
4.116203e+01
4.116185e+01
4.116160e+01
4.116126e+01
4.116097e+01
4.116046e+01
0.000000e+00
4.146569e+01
4.146011e+01
4.145309e+01
4.144291e+01
4.142739e+01
4.140425e+01
4.137117e+01
4.132609e+01
4.126784e+01
4.119745e+01
4.112070e+01
4.105004e+01
4.099673e+01
4.096642e+01
4.095813e+01
4.096679e+01
4.098559e+01
4.100832e+01
4.103031e+01
4.104910e+01
4.106416e+01
4.107591e+01
4.108504e+01
4.109220e+01
4.109787e+01
4.110240e+01
4.110605e+01
4.110902e+01
4.111147e+01
4.111350e+01
4.111522e+01
4.111670e+01
4.111802e+01
4.111923e+01
4.112035e+01
4.112143e+01
4.112248e+01
4.112352e+01
4.112457e+01
4.112562e+01
4.112668e+01
4.112775e+01
4.112884e+01
4.112993e+01
4.113104e+01
4.113215e+01
4.113326e+01
4.113437e+01
4.113547e+01
4.113658e+01
4.113767e+01
4.113875e+01
4.113982e+01
4.114087e+01
4.114191e+01
4.114293e+01
4.114393e+01
4.114491e+01
4.114587e+01
4.114681e+01