# vtk DataFile Version 3.0
Scalar Field
ASCII
DATASET RECTILINEAR_GRID
DIMENSIONS 102 22 1
X_COORDINATES 102 double
0.000000 0.100000 0.200000 0.300000 0.400000 0.500000 0.600000 0.700000 0.800000 0.900000 1.000000 1.100000 1.200000 1.300000 1.400000 1.500000 1.600000 1.700000 1.800000 1.900000 2.000000 2.100000 2.200000 2.300000 2.400000 2.500000 2.600000 2.700000 2.800000 2.900000 3.000000 3.100000 3.200000 3.300000 3.400000 3.500000 3.600000 3.700000 3.800000 3.900000 4.000000 4.100000 4.200000 4.300000 4.400000 4.500000 4.600000 4.700000 4.800000 4.900000 5.000000 5.100000 5.200000 5.300000 5.400000 5.500000 5.600000 5.700000 5.800000 5.900000 6.000000 6.100000 6.200000 6.300000 6.400000 6.500000 6.600000 6.700000 6.800000 6.900000 7.000000 7.100000 7.200000 7.300000 7.400000 7.500000 7.600000 7.700000 7.800000 7.900000 8.000000 8.100000 8.200000 8.300000 8.400000 8.500000 8.600000 8.700000 8.800000 8.900000 9.000000 9.100000 9.200000 9.300000 9.400000 9.500000 9.600000 9.700000 9.800000 9.900000 10.000000 10.100000 
Y_COORDINATES 22 double
0.000000 0.100000 0.200000 0.300000 0.400000 0.500000 0.600000 0.700000 0.800000 0.900000 1.000000 1.100000 1.200000 1.300000 1.400000 1.500000 1.600000 1.700000 1.800000 1.900000 2.000000 2.100000 
Z_COORDINATES 1 double
0.0
POINT_DATA 2244
SCALARS Pressure double 1
LOOKUP_TABLE default
0.000000e+00
2.716421e+01
2.713080e+01
2.709289e+01
2.704651e+01
2.698760e+01
2.691221e+01
2.681891e+01
2.670706e+01
2.659850e+01
2.651044e+01
2.644810e+01
2.640928e+01
2.638911e+01
2.638301e+01
2.638744e+01
2.639993e+01
2.641875e+01
2.644266e+01
2.647080e+01
2.650256e+01
2.653756e+01
2.657544e+01
2.661558e+01
2.665668e+01
2.669622e+01
2.673004e+01
2.675113e+01
2.675149e+01
2.672868e+01
2.668998e+01
2.664801e+01
2.661389e+01
2.659298e+01
2.658505e+01
2.658728e+01
2.659694e+01
2.661192e+01
2.663064e+01
2.665182e+01
2.667437e+01
2.669720e+01
2.671928e+01
2.673963e+01
2.675746e+01
2.677235e+01
2.678423e+01
2.679335e+01
2.680014e+01
2.680507e+01
2.680859e+01
2.681109e+01
2.681286e+01
2.681411e+01
2.681500e+01
2.681562e+01
2.681606e+01
2.681637e+01
2.681656e+01
2.681669e+01
2.681675e+01
2.681677e+01
2.681675e+01
2.681670e+01
2.681663e+01
2.681654e+01
2.681644e+01
2.681633e+01
2.681622e+01
2.681610e+01
2.681598e+01
2.681586e+01
2.681575e+01
2.681564e+01
2.681553e+01
2.681543e+01
2.681533e+01
2.681525e+01
2.681516e+01
2.681509e+01
2.681501e+01
2.681495e+01
2.681488e+01
2.681483e+01
2.681477e+01
2.681473e+01
2.681468e+01
2.681464e+01
2.681460e+01
2.681457e+01
2.681455e+01
2.681453e+01
2.681451e+01
2.681451e+01
2.681451e+01
2.681452e+01
2.681453e+01
2.681455e+01
2.681456e+01
2.681454e+01
2.681471e+01
0.000000e+00
2.716421e+01
2.716383e+01
2.713042e+01
2.709250e+01
2.704613e+01
2.698722e+01
2.691183e+01
2.681853e+01
2.670668e+01
2.659812e+01
2.651005e+01
2.644772e+01
2.640890e+01
2.638873e+01
2.638263e+01
2.638706e+01
2.639955e+01
2.641837e+01
2.644228e+01
2.647041e+01
2.650217e+01
2.653718e+01
2.657506e+01
2.661519e+01
2.665630e+01
2.669584e+01
2.672966e+01
2.675074e+01
2.675111e+01
2.672830e+01
2.668959e+01
2.664762e+01
2.661351e+01
2.659259e+01
2.658467e+01
2.658690e+01
2.659656e+01
2.661154e+01
2.663025e+01
2.665144e+01
2.667398e+01
2.669681e+01
2.671890e+01
2.673924e+01
2.675707e+01
2.677196e+01
2.678385e+01
2.679297e+01
2.679975e+01
2.680468e+01
2.680821e+01
2.681071e+01
2.681248e+01
2.681373e+01
2.681461e+01
2.681524e+01
2.681568e+01
2.681598e+01
2.681618e+01
2.681630e+01
2.681636e+01
2.681638e+01
2.681636e+01
2.681631e+01
2.681624e+01
2.681616e+01
2.681606e+01
2.681595e+01
2.681583e+01
2.681572e+01
2.681560e+01
2.681548e+01
2.681536e+01
2.681525e+01
2.681514e+01
2.681504e+01
2.681495e+01
2.681486e+01
2.681478e+01
2.681470e+01
2.681463e+01
2.681456e+01
2.681450e+01
2.681444e+01
2.681439e+01
2.681434e+01
2.681429e+01
2.681425e+01
2.681422e+01
2.681419e+01
2.681416e+01
2.681414e+01
2.681413e+01
2.681412e+01
2.681412e+01
2.681413e+01
2.681414e+01
2.681416e+01
2.681418e+01
2.681415e+01
2.681433e+01
2.681471e+01
2.716319e+01
2.716281e+01
2.713091e+01
2.709425e+01
2.704859e+01
2.698939e+01
2.691198e+01
2.681469e+01
2.669287e+01
2.657978e+01
2.649291e+01
2.643403e+01
2.639872e+01
2.638125e+01
2.637692e+01
2.638240e+01
2.639548e+01
2.641460e+01
2.643863e+01
2.646672e+01
2.649828e+01
2.653293e+01
2.657034e+01
2.660999e+01
2.665098e+01
2.669151e+01
2.672761e+01
2.675175e+01
2.675513e+01
2.673385e+01
2.669482e+01
2.665072e+01
2.661348e+01
2.659031e+01
2.658162e+01
2.658382e+01
2.659376e+01
2.660905e+01
2.662800e+01
2.664932e+01
2.667189e+01
2.669468e+01
2.671676e+01
2.673716e+01
2.675514e+01
2.677023e+01
2.678235e+01
2.679171e+01
2.679873e+01
2.680386e+01
2.680756e+01
2.681021e+01
2.681210e+01
2.681345e+01
2.681441e+01
2.681510e+01
2.681558e+01
2.681592e+01
2.681614e+01
2.681627e+01
2.681634e+01
2.681636e+01
2.681634e+01
2.681629e+01
2.681622e+01
2.681613e+01
2.681603e+01
2.681592e+01
2.681580e+01
2.681569e+01
2.681557e+01
2.681545e+01
2.681534e+01
2.681523e+01
2.681512e+01
2.681502e+01
2.681493e+01
2.681484e+01
2.681476e+01
2.681469e+01
2.681461e+01
2.681455e+01
2.681449e+01
2.681443e+01
2.681438e+01
2.681433e+01
2.681429e+01
2.681425e+01
2.681421e+01
2.681418e+01
2.681416e+01
2.681414e+01
2.681412e+01
2.681411e+01
2.681411e+01
2.681412e+01
2.681414e+01
2.681417e+01
2.681420e+01
2.681425e+01
2.681444e+01
2.681483e+01
2.716184e+01
2.716146e+01
2.713274e+01
2.709891e+01
2.705523e+01
2.699599e+01
2.691463e+01
2.680803e+01
2.666220e+01
2.654071e+01
2.645805e+01
2.640705e+01
2.637908e+01
2.636705e+01
2.636604e+01
2.637343e+01
2.638753e+01
2.640712e+01
2.643125e+01
2.645920e+01
2.649037e+01
2.652437e+01
2.656088e+01
2.659959e+01
2.664010e+01
2.668179e+01
2.672315e+01
2.675554e+01
2.676622e+01
2.674620e+01
2.670412e+01
2.665562e+01
2.661366e+01
2.658653e+01
2.657638e+01
2.657836e+01
2.658863e+01
2.660436e+01
2.662362e+01
2.664509e+01
2.666764e+01
2.669029e+01
2.671219e+01
2.673258e+01
2.675076e+01
2.676626e+01
2.677889e+01
2.678879e+01
2.679632e+01
2.680191e+01
2.680601e+01
2.680899e+01
2.681115e+01
2.681272e+01
2.681386e+01
2.681469e+01
2.681527e+01
2.681568e+01
2.681596e+01
2.681613e+01
2.681622e+01
2.681625e+01
2.681623e+01
2.681619e+01
2.681611e+01
2.681602e+01
2.681592e+01
2.681581e+01
2.681570e+01
2.681558e+01
2.681547e+01
2.681536e+01
2.681525e+01
2.681515e+01
2.681505e+01
2.681496e+01
2.681488e+01
2.681479e+01
2.681472e+01
2.681465e+01
2.681458e+01
2.681452e+01
2.681447e+01
2.681442e+01
2.681437e+01
2.681432e+01
2.681428e+01
2.681424e+01
2.681421e+01
2.681418e+01
2.681415e+01
2.681413e+01
2.681412e+01
2.681411e+01
2.681411e+01
2.681412e+01
2.681414e+01
2.681417e+01
2.681423e+01
2.681430e+01
2.681451e+01
2.681490e+01
2.716063e+01
2.716025e+01
2.713648e+01
2.710734e+01
2.706736e+01
2.700874e+01
2.692077e+01
2.679465e+01
2.660283e+01
2.647423e+01
2.640478e+01
2.636832e+01
2.635157e+01
2.634726e+01
2.635069e+01
2.636056e+01
2.637596e+01
2.639613e+01
2.642036e+01
2.644805e+01
2.647870e+01
2.651186e+01
2.654724e+01
2.658485e+01
2.662493e+01
2.666807e+01
2.671508e+01
2.676048e+01
2.678440e+01
2.676835e+01
2.671906e+01
2.666197e+01
2.661359e+01
2.658176e+01
2.656917e+01
2.657114e+01
2.658185e+01
2.659809e+01
2.661774e+01
2.663940e+01
2.666201e+01
2.668461e+01
2.670632e+01
2.672662e+01
2.674497e+01
2.676086e+01
2.677404e+01
2.678457e+01
2.679274e+01
2.679895e+01
2.680360e+01
2.680706e+01
2.680961e+01
2.681150e+01
2.681288e+01
2.681389e+01
2.681462e+01
2.681513e+01
2.681548e+01
2.681570e+01
2.681583e+01
2.681590e+01
2.681591e+01
2.681588e+01
2.681583e+01
2.681576e+01
2.681567e+01
2.681558e+01
2.681548e+01
2.681539e+01
2.681529e+01
2.681520e+01
2.681510e+01
2.681502e+01
2.681493e+01
2.681486e+01
2.681478e+01
2.681471e+01
2.681465e+01
2.681459e+01
2.681454e+01
2.681449e+01
2.681444e+01
2.681440e+01
2.681436e+01
2.681432e+01
2.681428e+01
2.681425e+01
2.681422e+01
2.681419e+01
2.681416e+01
2.681414e+01
2.681413e+01
2.681412e+01
2.681411e+01
2.681412e+01
2.681414e+01
2.681418e+01
2.681424e+01
2.681433e+01
2.681454e+01
2.681493e+01
2.716010e+01
2.715972e+01
2.714281e+01
2.712067e+01
2.708725e+01
2.703163e+01
2.693459e+01
2.676872e+01
2.649659e+01
2.637754e+01
2.633509e+01
2.631947e+01
2.631741e+01
2.632268e+01
2.633128e+01
2.634400e+01
2.636092e+01
2.638175e+01
2.640606e+01
2.643343e+01
2.646348e+01
2.649579e+01
2.653004e+01
2.656669e+01
2.660673e+01
2.665172e+01
2.670230e+01
2.675747e+01
2.680208e+01
2.679741e+01
2.674189e+01
2.667184e+01
2.661462e+01
2.657820e+01
2.656284e+01
2.656462e+01
2.657616e+01
2.659280e+01
2.661257e+01
2.663420e+01
2.665672e+01
2.667917e+01
2.670063e+01
2.672067e+01
2.673911e+01
2.675535e+01
2.676904e+01
2.678016e+01
2.678893e+01
2.679571e+01
2.680088e+01
2.680477e+01
2.680769e+01
2.680987e+01
2.681148e+01
2.681267e+01
2.681353e+01
2.681416e+01
2.681460e+01
2.681490e+01
2.681510e+01
2.681523e+01
2.681530e+01
2.681533e+01
2.681533e+01
2.681531e+01
2.681527e+01
2.681522e+01
2.681517e+01
2.681510e+01
2.681504e+01
2.681497e+01
2.681490e+01
2.681484e+01
2.681478e+01
2.681472e+01
2.681467e+01
2.681462e+01
2.681458e+01
2.681453e+01
2.681450e+01
2.681446e+01
2.681442e+01
2.681439e+01
2.681436e+01
2.681432e+01
2.681429e+01
2.681426e+01
2.681423e+01
2.681421e+01
2.681418e+01
2.681416e+01
2.681414e+01
2.681413e+01
2.681412e+01
2.681413e+01
2.681415e+01
2.681418e+01
2.681424e+01
2.681433e+01
2.681454e+01
2.681492e+01
2.716072e+01
2.716034e+01
2.715211e+01
2.713982e+01
2.711785e+01
2.707269e+01
2.697132e+01
2.673422e+01
2.631150e+01
2.624214e+01
2.625394e+01
2.626629e+01
2.628029e+01
2.629528e+01
2.630880e+01
2.632440e+01
2.634294e+01
2.636449e+01
2.638887e+01
2.641583e+01
2.644517e+01
2.647664e+01
2.650984e+01
2.654527e+01
2.658459e+01
2.663101e+01
2.668598e+01
2.674608e+01
2.679672e+01
2.680269e+01
2.675780e+01
2.668445e+01
2.662386e+01
2.658409e+01
2.656567e+01
2.656522e+01
2.657634e+01
2.659307e+01
2.661222e+01
2.663303e+01
2.665476e+01
2.667650e+01
2.669729e+01
2.671652e+01
2.673457e+01
2.675077e+01
2.676465e+01
2.677609e+01
2.678525e+01
2.679244e+01
2.679798e+01
2.680220e+01
2.680540e+01
2.680780e+01
2.680960e+01
2.681094e+01
2.681194e+01
2.681269e+01
2.681324e+01
2.681366e+01
2.681398e+01
2.681422e+01
2.681441e+01
2.681455e+01
2.681465e+01
2.681472e+01
2.681476e+01
2.681478e+01
2.681477e+01
2.681476e+01
2.681473e+01
2.681471e+01
2.681468e+01
2.681465e+01
2.681462e+01
2.681459e+01
2.681457e+01
2.681454e+01
2.681452e+01
2.681450e+01
2.681448e+01
2.681445e+01
2.681443e+01
2.681441e+01
2.681438e+01
2.681436e+01
2.681433e+01
2.681430e+01
2.681428e+01
2.681425e+01
2.681422e+01
2.681420e+01
2.681417e+01
2.681416e+01
2.681415e+01
2.681414e+01
2.681415e+01
2.681418e+01
2.681423e+01
2.681432e+01
2.681450e+01
2.681489e+01
2.716269e+01
2.716231e+01
2.716399e+01
2.716422e+01
2.716040e+01
2.714220e+01
2.707175e+01
2.679932e+01
2.598393e+01
2.606504e+01
2.618504e+01
2.622499e+01
2.624773e+01
2.626917e+01
2.628532e+01
2.630328e+01
2.632337e+01
2.634561e+01
2.636990e+01
2.639611e+01
2.642430e+01
2.645451e+01
2.648633e+01
2.651887e+01
2.655147e+01
2.658646e+01
2.662703e+01
2.669609e+01
2.675339e+01
2.675388e+01
2.672536e+01
2.668290e+01
2.663886e+01
2.660540e+01
2.658578e+01
2.658082e+01
2.658790e+01
2.660266e+01
2.662001e+01
2.663883e+01
2.665865e+01
2.667868e+01
2.669798e+01
2.671562e+01
2.673240e+01
2.674780e+01
2.676127e+01
2.677258e+01
2.678179e+01
2.678911e+01
2.679483e+01
2.679924e+01
2.680261e+01
2.680517e+01
2.680711e+01
2.680859e+01
2.680974e+01
2.681064e+01
2.681137e+01
2.681196e+01
2.681246e+01
2.681289e+01
2.681328e+01
2.681358e+01
2.681381e+01
2.681400e+01
2.681414e+01
2.681425e+01
2.681433e+01
2.681439e+01
2.681443e+01
2.681447e+01
2.681449e+01
2.681451e+01
2.681452e+01
2.681453e+01
2.681453e+01
2.681453e+01
2.681453e+01
2.681453e+01
2.681452e+01
2.681451e+01
2.681450e+01
2.681448e+01
2.681446e+01
2.681444e+01
2.681441e+01
2.681438e+01
2.681435e+01
2.681432e+01
2.681429e+01
2.681426e+01
2.681423e+01
2.681420e+01
2.681418e+01
2.681417e+01
2.681416e+01
2.681418e+01
2.681422e+01
2.681428e+01
2.681444e+01
2.681483e+01
2.716572e+01
2.716534e+01
2.717673e+01
2.719022e+01
2.720855e+01
2.723393e+01
2.726240e+01
2.735983e+01
2.667226e+01
2.614299e+01
2.622018e+01
2.622493e+01
2.623663e+01
2.625430e+01
2.626986e+01
2.628975e+01
2.631068e+01
2.633254e+01
2.635522e+01
2.637830e+01
2.640167e+01
2.642539e+01
2.644933e+01
2.647322e+01
2.649699e+01
2.652305e+01
2.656480e+01
2.661434e+01
2.665030e+01
2.666213e+01
2.666361e+01
2.666119e+01
2.665134e+01
2.663557e+01
2.662049e+01
2.661210e+01
2.661285e+01
2.662208e+01
2.663625e+01
2.665186e+01
2.666863e+01
2.668585e+01
2.670263e+01
2.671808e+01
2.673260e+01
2.674636e+01
2.675871e+01
2.676933e+01
2.677817e+01
2.678534e+01
2.679105e+01
2.679553e+01
2.679902e+01
2.680172e+01
2.680381e+01
2.680547e+01
2.680682e+01
2.680792e+01
2.680888e+01
2.680974e+01
2.681048e+01
2.681112e+01
2.681170e+01
2.681222e+01
2.681267e+01
2.681307e+01
2.681341e+01
2.681369e+01
2.681392e+01
2.681410e+01
2.681424e+01
2.681436e+01
2.681444e+01
2.681451e+01
2.681456e+01
2.681460e+01
2.681463e+01
2.681465e+01
2.681466e+01
2.681466e+01
2.681466e+01
2.681466e+01
2.681464e+01
2.681463e+01
2.681460e+01
2.681458e+01
2.681455e+01
2.681451e+01
2.681448e+01
2.681444e+01
2.681439e+01
2.681435e+01
2.681431e+01
2.681427e+01
2.681423e+01
2.681420e+01
2.681418e+01
2.681418e+01
2.681419e+01
2.681423e+01
2.681436e+01
2.681474e+01
2.716910e+01
2.716872e+01
2.718771e+01
2.721144e+01
2.724634e+01
2.730288e+01
2.739846e+01
2.753287e+01
2.756457e+01
0.000000e+00
2.623595e+01
2.623556e+01
2.624340e+01
2.626183e+01
2.627314e+01
2.629174e+01
2.631401e+01
2.633548e+01
2.635597e+01
2.637503e+01
2.639263e+01
2.640902e+01
2.642435e+01
2.643800e+01
2.644799e+01
2.645953e+01
2.647751e+01
2.650754e+01
2.654656e+01
2.658439e+01
2.661752e+01
2.664587e+01
2.666624e+01
2.667168e+01
2.666506e+01
2.665521e+01
2.664981e+01
2.665156e+01
2.666018e+01
2.667132e+01
2.668390e+01
2.669725e+01
2.671053e+01
2.672296e+01
2.673449e+01
2.674583e+01
2.675636e+01
2.676572e+01
2.677379e+01
2.678056e+01
2.678612e+01
2.679061e+01
2.679423e+01
2.679712e+01
2.679935e+01
2.680121e+01
2.680281e+01
2.680411e+01
2.680534e+01
2.680650e+01
2.680761e+01
2.680868e+01
2.680968e+01
2.681060e+01
2.681142e+01
2.681214e+01
2.681275e+01
2.681327e+01
2.681369e+01
2.681402e+01
2.681428e+01
2.681448e+01
2.681463e+01
2.681475e+01
2.681483e+01
2.681488e+01
2.681492e+01
2.681494e+01
2.681495e+01
2.681495e+01
2.681494e+01
2.681492e+01
2.681489e+01
2.681487e+01
2.681483e+01
2.681479e+01
2.681475e+01
2.681470e+01
2.681465e+01
2.681459e+01
2.681453e+01
2.681448e+01
2.681442e+01
2.681436e+01
2.681430e+01
2.681425e+01
2.681421e+01
2.681418e+01
2.681416e+01
2.681417e+01
2.681424e+01
2.681463e+01
2.717209e+01
2.717170e+01
2.719484e+01
2.722332e+01
2.726339e+01
2.732307e+01
2.740873e+01
2.751222e+01
2.759550e+01
2.759589e+01
0.000000e+00
2.629185e+01
2.629147e+01
2.629906e+01
2.630992e+01
2.632463e+01
2.634493e+01
2.636573e+01
2.638464e+01
2.640054e+01
2.641282e+01
2.642079e+01
2.642318e+01
2.642035e+01
2.641248e+01
2.640245e+01
2.639716e+01
2.641912e+01
2.647317e+01
2.653674e+01
2.659599e+01
2.664536e+01
2.668467e+01
2.670695e+01
2.671192e+01
2.670509e+01
2.669505e+01
2.668985e+01
2.669115e+01
2.669638e+01
2.670366e+01
2.671210e+01
2.672091e+01
2.672941e+01
2.673734e+01
2.674553e+01
2.675351e+01
2.676102e+01
2.676790e+01
2.677405e+01
2.677933e+01
2.678381e+01
2.678763e+01
2.679092e+01
2.679356e+01
2.679593e+01
2.679799e+01
2.679988e+01
2.680170e+01
2.680344e+01
2.680509e+01
2.680664e+01
2.680807e+01
2.680936e+01
2.681051e+01
2.681152e+01
2.681239e+01
2.681310e+01
2.681369e+01
2.681416e+01
2.681453e+01
2.681481e+01
2.681502e+01
2.681517e+01
2.681527e+01
2.681533e+01
2.681537e+01
2.681538e+01
2.681537e+01
2.681535e+01
2.681532e+01
2.681529e+01
2.681524e+01
2.681519e+01
2.681513e+01
2.681507e+01
2.681500e+01
2.681494e+01
2.681486e+01
2.681479e+01
2.681471e+01
2.681463e+01
2.681455e+01
2.681447e+01
2.681439e+01
2.681431e+01
2.681424e+01
2.681418e+01
2.681413e+01
2.681410e+01
2.681411e+01
2.681450e+01
2.717424e+01
2.717386e+01
2.719760e+01
2.722584e+01
2.726299e+01
2.731329e+01
2.738023e+01
2.744667e+01
2.747359e+01
2.725872e+01
2.725910e+01
0.000000e+00
2.632036e+01
2.634848e+01
2.635202e+01
2.637276e+01
2.639600e+01
2.641454e+01
2.642801e+01
2.643658e+01
2.643948e+01
2.643668e+01
2.642754e+01
2.641374e+01
2.638880e+01
2.635594e+01
2.633215e+01
2.636154e+01
2.643177e+01
2.651651e+01
2.659547e+01
2.665674e+01
2.670367e+01
2.673695e+01
2.675271e+01
2.675217e+01
2.674283e+01
2.673276e+01
2.672723e+01
2.672585e+01
2.672706e+01
2.672972e+01
2.673311e+01
2.673676e+01
2.674048e+01
2.674474e+01
2.674939e+01
2.675436e+01
2.675960e+01
2.676505e+01
2.677068e+01
2.677585e+01
2.678042e+01
2.678438e+01
2.678783e+01
2.679098e+01
2.679390e+01
2.679659e+01
2.679909e+01
2.680140e+01
2.680351e+01
2.680544e+01
2.680719e+01
2.680874e+01
2.681011e+01
2.681129e+01
2.681230e+01
2.681314e+01
2.681385e+01
2.681441e+01
2.681487e+01
2.681521e+01
2.681547e+01
2.681566e+01
2.681578e+01
2.681585e+01
2.681589e+01
2.681589e+01
2.681587e+01
2.681583e+01
2.681578e+01
2.681572e+01
2.681565e+01
2.681557e+01
2.681548e+01
2.681540e+01
2.681531e+01
2.681521e+01
2.681511e+01
2.681501e+01
2.681491e+01
2.681481e+01
2.681470e+01
2.681459e+01
2.681449e+01
2.681438e+01
2.681428e+01
2.681419e+01
2.681410e+01
2.681402e+01
2.681396e+01
2.681435e+01
2.717551e+01
2.717513e+01
2.719663e+01
2.722112e+01
2.725106e+01
2.728781e+01
2.732445e+01
2.733909e+01
2.728487e+01
2.718003e+01
2.679720e+01
2.649752e+01
2.632746e+01
2.635743e+01
2.637229e+01
2.640434e+01
2.643382e+01
2.644904e+01
2.645894e+01
2.646396e+01
2.646210e+01
2.645240e+01
2.643550e+01
2.641140e+01
2.637162e+01
2.632082e+01
2.629843e+01
2.633876e+01
2.642199e+01
2.652053e+01
2.660841e+01
2.667407e+01
2.672237e+01
2.675812e+01
2.678067e+01
2.678669e+01
2.678026e+01
2.677055e+01
2.676258e+01
2.675656e+01
2.675203e+01
2.674845e+01
2.674578e+01
2.674402e+01
2.674306e+01
2.674292e+01
2.674385e+01
2.674617e+01
2.674999e+01
2.675512e+01
2.676111e+01
2.676715e+01
2.677298e+01
2.677839e+01
2.678321e+01
2.678748e+01
2.679127e+01
2.679468e+01
2.679776e+01
2.680051e+01
2.680295e+01
2.680511e+01
2.680702e+01
2.680870e+01
2.681015e+01
2.681140e+01
2.681247e+01
2.681337e+01
2.681412e+01
2.681473e+01
2.681523e+01
2.681561e+01
2.681590e+01
2.681612e+01
2.681626e+01
2.681635e+01
2.681639e+01
2.681639e+01
2.681636e+01
2.681631e+01
2.681624e+01
2.681616e+01
2.681606e+01
2.681596e+01
2.681585e+01
2.681574e+01
2.681562e+01
2.681550e+01
2.681538e+01
2.681525e+01
2.681512e+01
2.681499e+01
2.681486e+01
2.681473e+01
2.681459e+01
2.681446e+01
2.681432e+01
2.681419e+01
2.681406e+01
2.681393e+01
2.681380e+01
2.681419e+01
2.717607e+01
2.717569e+01
2.719308e+01
2.721195e+01
2.723262e+01
2.725246e+01
2.726245e+01
2.724265e+01
2.715745e+01
2.699638e+01
2.674092e+01
2.619708e+01
2.629672e+01
2.636733e+01
2.639879e+01
2.643053e+01
2.645364e+01
2.646691e+01
2.647826e+01
2.648369e+01
2.647923e+01
2.646488e+01
2.644247e+01
2.640974e+01
2.635724e+01
2.630236e+01
2.629599e+01
2.634810e+01
2.643832e+01
2.654046e+01
2.662587e+01
2.669050e+01
2.673730e+01
2.677019e+01
2.679186e+01
2.680069e+01
2.679762e+01
2.679175e+01
2.678665e+01
2.677986e+01
2.677148e+01
2.676289e+01
2.675534e+01
2.674928e+01
2.674423e+01
2.674002e+01
2.673722e+01
2.673668e+01
2.673862e+01
2.674384e+01
2.675135e+01
2.675967e+01
2.676758e+01
2.677457e+01
2.678067e+01
2.678584e+01
2.679028e+01
2.679414e+01
2.679753e+01
2.680049e+01
2.680308e+01
2.680535e+01
2.680733e+01
2.680905e+01
2.681053e+01
2.681179e+01
2.681287e+01
2.681377e+01
2.681452e+01
2.681513e+01
2.681562e+01
2.681601e+01
2.681631e+01
2.681653e+01
2.681668e+01
2.681677e+01
2.681681e+01
2.681681e+01
2.681678e+01
2.681673e+01
2.681665e+01
2.681655e+01
2.681644e+01
2.681632e+01
2.681620e+01
2.681606e+01
2.681593e+01
2.681578e+01
2.681564e+01
2.681549e+01
2.681534e+01
2.681518e+01
2.681502e+01
2.681486e+01
2.681470e+01
2.681453e+01
2.681436e+01
2.681419e+01
2.681402e+01
2.681384e+01
2.681363e+01
2.681402e+01
2.717621e+01
2.717582e+01
2.718825e+01
2.720072e+01
2.721188e+01
2.721802e+01
2.721091e+01
2.717613e+01
2.709214e+01
2.694064e+01
2.673476e+01
2.645063e+01
2.641349e+01
2.642482e+01
2.643824e+01
2.645511e+01
2.646931e+01
2.648163e+01
2.648843e+01
2.648771e+01
2.647931e+01
2.646421e+01
2.644326e+01
2.640963e+01
2.635587e+01
2.631687e+01
2.632645e+01
2.638481e+01
2.647334e+01
2.656682e+01
2.664392e+01
2.670324e+01
2.674635e+01
2.677506e+01
2.679015e+01
2.679366e+01
2.679294e+01
2.679425e+01
2.679426e+01
2.678903e+01
2.678024e+01
2.677016e+01
2.676045e+01
2.675198e+01
2.674372e+01
2.673593e+01
2.672912e+01
2.672548e+01
2.672767e+01
2.673518e+01
2.674523e+01
2.675567e+01
2.676531e+01
2.677339e+01
2.678012e+01
2.678576e+01
2.679052e+01
2.679458e+01
2.679807e+01
2.680109e+01
2.680371e+01
2.680597e+01
2.680792e+01
2.680961e+01
2.681105e+01
2.681227e+01
2.681331e+01
2.681419e+01
2.681491e+01
2.681551e+01
2.681599e+01
2.681637e+01
2.681666e+01
2.681688e+01
2.681702e+01
2.681712e+01
2.681716e+01
2.681717e+01
2.681714e+01
2.681708e+01
2.681699e+01
2.681689e+01
2.681677e+01
2.681664e+01
2.681650e+01
2.681635e+01
2.681620e+01
2.681604e+01
2.681587e+01
2.681570e+01
2.681553e+01
2.681535e+01
2.681517e+01
2.681499e+01
2.681480e+01
2.681460e+01
2.681440e+01
2.681419e+01
2.681397e+01
2.681375e+01
2.681346e+01
2.681385e+01
2.717624e+01
2.717585e+01
2.718311e+01
2.718941e+01
2.719270e+01
2.718930e+01
2.717286e+01
2.713405e+01
2.706086e+01
2.694145e+01
2.677818e+01
2.659185e+01
2.651531e+01
2.648979e+01
2.648210e+01
2.648310e+01
2.648666e+01
2.649046e+01
2.649021e+01
2.648510e+01
2.647547e+01
2.646245e+01
2.644356e+01
2.641324e+01
2.637398e+01
2.635551e+01
2.637620e+01
2.643396e+01
2.651351e+01
2.659309e+01
2.666009e+01
2.671233e+01
2.675013e+01
2.677460e+01
2.678769e+01
2.679279e+01
2.679461e+01
2.679517e+01
2.679306e+01
2.678752e+01
2.677950e+01
2.677036e+01
2.676143e+01
2.675218e+01
2.674215e+01
2.673181e+01
2.672184e+01
2.671848e+01
2.672274e+01
2.673219e+01
2.674391e+01
2.675565e+01
2.676575e+01
2.677417e+01
2.678113e+01
2.678688e+01
2.679167e+01
2.679570e+01
2.679912e+01
2.680205e+01
2.680457e+01
2.680674e+01
2.680860e+01
2.681020e+01
2.681156e+01
2.681272e+01
2.681371e+01
2.681453e+01
2.681522e+01
2.681579e+01
2.681625e+01
2.681662e+01
2.681691e+01
2.681713e+01
2.681728e+01
2.681738e+01
2.681743e+01
2.681744e+01
2.681741e+01
2.681735e+01
2.681727e+01
2.681716e+01
2.681704e+01
2.681690e+01
2.681675e+01
2.681660e+01
2.681643e+01
2.681626e+01
2.681608e+01
2.681589e+01
2.681570e+01
2.681551e+01
2.681530e+01
2.681510e+01
2.681488e+01
2.681466e+01
2.681442e+01
2.681418e+01
2.681392e+01
2.681365e+01
2.681330e+01
2.681368e+01
2.717617e+01
2.717578e+01
2.717835e+01
2.717945e+01
2.717678e+01
2.716712e+01
2.714584e+01
2.710695e+01
2.704365e+01
2.694913e+01
2.682213e+01
2.668015e+01
2.659385e+01
2.654828e+01
2.652393e+01
2.651140e+01
2.650457e+01
2.649997e+01
2.649397e+01
2.648543e+01
2.647451e+01
2.646095e+01
2.644345e+01
2.641950e+01
2.639702e+01
2.639485e+01
2.642321e+01
2.647838e+01
2.654777e+01
2.661551e+01
2.667346e+01
2.671910e+01
2.675231e+01
2.677421e+01
2.678691e+01
2.679318e+01
2.679574e+01
2.679553e+01
2.679227e+01
2.678614e+01
2.677801e+01
2.676917e+01
2.676004e+01
2.675002e+01
2.673900e+01
2.672734e+01
2.671830e+01
2.671713e+01
2.672321e+01
2.673388e+01
2.674637e+01
2.675800e+01
2.676802e+01
2.677634e+01
2.678316e+01
2.678873e+01
2.679332e+01
2.679714e+01
2.680035e+01
2.680308e+01
2.680542e+01
2.680744e+01
2.680917e+01
2.681067e+01
2.681195e+01
2.681305e+01
2.681398e+01
2.681477e+01
2.681543e+01
2.681598e+01
2.681643e+01
2.681679e+01
2.681708e+01
2.681729e+01
2.681745e+01
2.681755e+01
2.681761e+01
2.681762e+01
2.681760e+01
2.681754e+01
2.681746e+01
2.681736e+01
2.681724e+01
2.681710e+01
2.681695e+01
2.681679e+01
2.681661e+01
2.681643e+01
2.681624e+01
2.681604e+01
2.681584e+01
2.681563e+01
2.681541e+01
2.681518e+01
2.681495e+01
2.681470e+01
2.681444e+01
2.681416e+01
2.681387e+01
2.681356e+01
2.681314e+01
2.681353e+01
2.717611e+01
2.717573e+01
2.717443e+01
2.717145e+01
2.716449e+01
2.715083e+01
2.712698e+01
2.708891e+01
2.703247e+01
2.695388e+01
2.685228e+01
2.673912e+01
2.665294e+01
2.659579e+01
2.655963e+01
2.653667e+01
2.652132e+01
2.650976e+01
2.649899e+01
2.648742e+01
2.647461e+01
2.646020e+01
2.644376e+01
2.642624e+01
2.641638e+01
2.642563e+01
2.645899e+01
2.651172e+01
2.657330e+01
2.663267e+01
2.668370e+01
2.672417e+01
2.675398e+01
2.677424e+01
2.678686e+01
2.679388e+01
2.679691e+01
2.679660e+01
2.679308e+01
2.678672e+01
2.677826e+01
2.676870e+01
2.675833e+01
2.674692e+01
2.673484e+01
2.672347e+01
2.671722e+01
2.671864e+01
2.672643e+01
2.673786e+01
2.675014e+01
2.676140e+01
2.677103e+01
2.677899e+01
2.678545e+01
2.679070e+01
2.679499e+01
2.679854e+01
2.680150e+01
2.680401e+01
2.680616e+01
2.680801e+01
2.680961e+01
2.681099e+01
2.681219e+01
2.681322e+01
2.681411e+01
2.681487e+01
2.681551e+01
2.681605e+01
2.681649e+01
2.681686e+01
2.681714e+01
2.681737e+01
2.681753e+01
2.681764e+01
2.681771e+01
2.681773e+01
2.681771e+01
2.681767e+01
2.681759e+01
2.681750e+01
2.681738e+01
2.681724e+01
2.681709e+01
2.681692e+01
2.681674e+01
2.681656e+01
2.681636e+01
2.681615e+01
2.681594e+01
2.681572e+01
2.681549e+01
2.681525e+01
2.681499e+01
2.681473e+01
2.681444e+01
2.681414e+01
2.681381e+01
2.681346e+01
2.681300e+01
2.681338e+01
2.717611e+01
2.717573e+01
2.717152e+01
2.716557e+01
2.715570e+01
2.713951e+01
2.711427e+01
2.707704e+01
2.702500e+01
2.695602e+01
2.687022e+01
2.677544e+01
2.669371e+01
2.663180e+01
2.658779e+01
2.655710e+01
2.653521e+01
2.651843e+01
2.650386e+01
2.648971e+01
2.647513e+01
2.645986e+01
2.644448e+01
2.643219e+01
2.643074e+01
2.644763e+01
2.648412e+01
2.653477e+01
2.659094e+01
2.664470e+01
2.669102e+01
2.672791e+01
2.675537e+01
2.677456e+01
2.678710e+01
2.679458e+01
2.679801e+01
2.679791e+01
2.679453e+01
2.678821e+01
2.677944e+01
2.676884e+01
2.675674e+01
2.674352e+01
2.673056e+01
2.672059e+01
2.671723e+01
2.672106e+01
2.673023e+01
2.674199e+01
2.675393e+01
2.676470e+01
2.677384e+01
2.678134e+01
2.678743e+01
2.679235e+01
2.679636e+01
2.679966e+01
2.680242e+01
2.680474e+01
2.680672e+01
2.680843e+01
2.680990e+01
2.681119e+01
2.681231e+01
2.681329e+01
2.681413e+01
2.681486e+01
2.681549e+01
2.681602e+01
2.681647e+01
2.681683e+01
2.681713e+01
2.681736e+01
2.681754e+01
2.681766e+01
2.681773e+01
2.681777e+01
2.681776e+01
2.681773e+01
2.681766e+01
2.681757e+01
2.681745e+01
2.681732e+01
2.681717e+01
2.681700e+01
2.681682e+01
2.681663e+01
2.681643e+01
2.681623e+01
2.681601e+01
2.681578e+01
2.681554e+01
2.681529e+01
2.681502e+01
2.681474e+01
2.681443e+01
2.681411e+01
2.681375e+01
2.681337e+01
2.681287e+01
2.681326e+01
2.717615e+01
2.717577e+01
2.716962e+01
2.716177e+01
2.715008e+01
2.713243e+01
2.710651e+01
2.706993e+01
2.702057e+01
2.695712e+01
2.688032e+01
2.679621e+01
2.671864e+01
2.665517e+01
2.660689e+01
2.657140e+01
2.654519e+01
2.652486e+01
2.650763e+01
2.649157e+01
2.647565e+01
2.645976e+01
2.644539e+01
2.643696e+01
2.644092e+01
2.646202e+01
2.649980e+01
2.654892e+01
2.660181e+01
2.665206e+01
2.669538e+01
2.673005e+01
2.675615e+01
2.677473e+01
2.678724e+01
2.679503e+01
2.679879e+01
2.679901e+01
2.679593e+01
2.678977e+01
2.678075e+01
2.676912e+01
2.675531e+01
2.674048e+01
2.672712e+01
2.671878e+01
2.671765e+01
2.672336e+01
2.673347e+01
2.674525e+01
2.675684e+01
2.676718e+01
2.677591e+01
2.678306e+01
2.678885e+01
2.679353e+01
2.679733e+01
2.680046e+01
2.680306e+01
2.680524e+01
2.680710e+01
2.680870e+01
2.681009e+01
2.681130e+01
2.681236e+01
2.681329e+01
2.681410e+01
2.681481e+01
2.681542e+01
2.681595e+01
2.681640e+01
2.681677e+01
2.681707e+01
2.681731e+01
2.681750e+01
2.681763e+01
2.681771e+01
2.681776e+01
2.681776e+01
2.681773e+01
2.681767e+01
2.681759e+01
2.681748e+01
2.681735e+01
2.681720e+01
2.681704e+01
2.681686e+01
2.681667e+01
2.681647e+01
2.681626e+01
2.681604e+01
2.681580e+01
2.681556e+01
2.681530e+01
2.681503e+01
2.681473e+01
2.681442e+01
2.681407e+01
2.681368e+01
2.681326e+01
2.681277e+01
2.681316e+01
2.717619e+01
2.717580e+01
2.716870e+01
2.715992e+01
2.714740e+01
2.712913e+01
2.710299e+01
2.706687e+01
2.701891e+01
2.695812e+01
2.688548e+01
2.680624e+01
2.673091e+01
2.666696e+01
2.661674e+01
2.657891e+01
2.655050e+01
2.652836e+01
2.650974e+01
2.649266e+01
2.647602e+01
2.645986e+01
2.644623e+01
2.643978e+01
2.644612e+01
2.646880e+01
2.650680e+01
2.655495e+01
2.660622e+01
2.665487e+01
2.669689e+01
2.673063e+01
2.675619e+01
2.677458e+01
2.678712e+01
2.679500e+01
2.679896e+01
2.679942e+01
2.679662e+01
2.679069e+01
2.678163e+01
2.676938e+01
2.675454e+01
2.673890e+01
2.672573e+01
2.671844e+01
2.671849e+01
2.672493e+01
2.673526e+01
2.674688e+01
2.675826e+01
2.676837e+01
2.677690e+01
2.678388e+01
2.678953e+01
2.679409e+01
2.679779e+01
2.680083e+01
2.680336e+01
2.680548e+01
2.680729e+01
2.680884e+01
2.681019e+01
2.681137e+01
2.681240e+01
2.681330e+01
2.681410e+01
2.681479e+01
2.681539e+01
2.681591e+01
2.681635e+01
2.681672e+01
2.681703e+01
2.681727e+01
2.681746e+01
2.681760e+01
2.681769e+01
2.681773e+01
2.681774e+01
2.681772e+01
2.681766e+01
2.681758e+01
2.681747e+01
2.681735e+01
2.681720e+01
2.681704e+01
2.681686e+01
2.681667e+01
2.681647e+01
2.681626e+01
2.681604e+01
2.681581e+01
2.681556e+01
2.681530e+01
2.681502e+01
2.681472e+01
2.681440e+01
2.681404e+01
2.681363e+01
2.681314e+01
2.681266e+01
2.681305e+01
0.000000e+00
2.717619e+01
2.716908e+01
2.716030e+01
2.714778e+01
2.712951e+01
2.710337e+01
2.706725e+01
2.701929e+01
2.695851e+01
2.688587e+01
2.680662e+01
2.673129e+01
2.666735e+01
2.661713e+01
2.657929e+01
2.655089e+01
2.652874e+01
2.651012e+01
2.649304e+01
2.647640e+01
2.646024e+01
2.644662e+01
2.644016e+01
2.644650e+01
2.646918e+01
2.650719e+01
2.655534e+01
2.660661e+01
2.665525e+01
2.669727e+01
2.673101e+01
2.675657e+01
2.677496e+01
2.678751e+01
2.679539e+01
2.679934e+01
2.679980e+01
2.679700e+01
2.679107e+01
2.678201e+01
2.676977e+01
2.675492e+01
2.673928e+01
2.672611e+01
2.671882e+01
2.671888e+01
2.672531e+01
2.673564e+01
2.674726e+01
2.675864e+01
2.676876e+01
2.677728e+01
2.678426e+01
2.678991e+01
2.679447e+01
2.679818e+01
2.680122e+01
2.680374e+01
2.680587e+01
2.680767e+01