# vtk DataFile Version 3.0
Scalar Field
ASCII
DATASET RECTILINEAR_GRID
DIMENSIONS 102 22 1
X_COORDINATES 102 double
0.000000 0.100000 0.200000 0.300000 0.400000 0.500000 0.600000 0.700000 0.800000 0.900000 1.000000 1.100000 1.200000 1.300000 1.400000 1.500000 1.600000 1.700000 1.800000 1.900000 2.000000 2.100000 2.200000 2.300000 2.400000 2.500000 2.600000 2.700000 2.800000 2.900000 3.000000 3.100000 3.200000 3.300000 3.400000 3.500000 3.600000 3.700000 3.800000 3.900000 4.000000 4.100000 4.200000 4.300000 4.400000 4.500000 4.600000 4.700000 4.800000 4.900000 5.000000 5.100000 5.200000 5.300000 5.400000 5.500000 5.600000 5.700000 5.800000 5.900000 6.000000 6.100000 6.200000 6.300000 6.400000 6.500000 6.600000 6.700000 6.800000 6.900000 7.000000 7.100000 7.200000 7.300000 7.400000 7.500000 7.600000 7.700000 7.800000 7.900000 8.000000 8.100000 8.200000 8.300000 8.400000 8.500000 8.600000 8.700000 8.800000 8.900000 9.000000 9.100000 9.200000 9.300000 9.400000 9.500000 9.600000 9.700000 9.800000 9.900000 10.000000 10.100000 
Y_COORDINATES 22 double
0.000000 0.100000 0.200000 0.300000 0.400000 0.500000 0.600000 0.700000 0.800000 0.900000 1.000000 1.100000 1.200000 1.300000 1.400000 1.500000 1.600000 1.700000 1.800000 1.900000 2.000000 2.100000 
Z_COORDINATES 1 double
0.0
POINT_DATA 2244
SCALARS Pressure double 1
LOOKUP_TABLE default
0.000000e+00
6.716292e+01
6.713512e+01
6.710268e+01
6.706238e+01
6.701067e+01
6.694432e+01
6.686240e+01
6.676541e+01
6.667256e+01
6.659837e+01
6.654669e+01
6.651503e+01
6.649884e+01
6.649376e+01
6.649613e+01
6.650277e+01
6.651053e+01
6.651611e+01
6.651698e+01
6.651302e+01
6.650708e+01
6.650323e+01
6.650442e+01
6.651125e+01
6.652273e+01
6.653774e+01
6.655558e+01
6.657615e+01
6.659971e+01
6.662660e+01
6.665697e+01
6.669057e+01
6.672670e+01
6.676426e+01
6.680193e+01
6.683828e+01
6.687184e+01
6.690112e+01
6.692530e+01
6.694449e+01
6.695978e+01
6.697262e+01
6.698482e+01
6.699633e+01
6.700514e+01
6.700811e+01
6.700129e+01
6.698105e+01
6.694563e+01
6.689733e+01
6.684192e+01
6.678769e+01
6.674340e+01
6.671547e+01
6.670578e+01
6.670960e+01
6.672298e+01
6.674313e+01
6.676736e+01
6.679301e+01
6.681757e+01
6.683896e+01
6.685597e+01
6.686848e+01
6.687716e+01
6.688299e+01
6.688690e+01
6.688961e+01
6.689159e+01
6.689314e+01
6.689444e+01
6.689556e+01
6.689655e+01
6.689743e+01
6.689822e+01
6.689892e+01
6.689953e+01
6.690007e+01
6.690053e+01
6.690093e+01
6.690127e+01
6.690156e+01
6.690180e+01
6.690200e+01
6.690216e+01
6.690230e+01
6.690243e+01
6.690254e+01
6.690264e+01
6.690275e+01
6.690286e+01
6.690299e+01
6.690314e+01
6.690332e+01
6.690353e+01
6.690377e+01
6.690403e+01
6.690428e+01
6.690448e+01
6.690476e+01
0.000000e+00
6.716292e+01
6.716321e+01
6.713541e+01
6.710298e+01
6.706267e+01
6.701096e+01
6.694461e+01
6.686269e+01
6.676571e+01
6.667285e+01
6.659866e+01
6.654698e+01
6.651532e+01
6.649913e+01
6.649405e+01
6.649642e+01
6.650307e+01
6.651082e+01
6.651640e+01
6.651727e+01
6.651332e+01
6.650737e+01
6.650352e+01
6.650471e+01
6.651154e+01
6.652303e+01
6.653803e+01
6.655587e+01
6.657645e+01
6.660000e+01
6.662689e+01
6.665726e+01
6.669086e+01
6.672699e+01
6.676455e+01
6.680222e+01
6.683857e+01
6.687213e+01
6.690141e+01
6.692559e+01
6.694478e+01
6.696008e+01
6.697291e+01
6.698511e+01
6.699662e+01
6.700544e+01
6.700840e+01
6.700158e+01
6.698134e+01
6.694592e+01
6.689762e+01
6.684221e+01
6.678798e+01
6.674369e+01
6.671577e+01
6.670607e+01
6.670989e+01
6.672328e+01
6.674342e+01
6.676765e+01
6.679330e+01
6.681786e+01
6.683926e+01
6.685626e+01
6.686877e+01
6.687746e+01
6.688328e+01
6.688719e+01
6.688990e+01
6.689188e+01
6.689344e+01
6.689473e+01
6.689585e+01
6.689684e+01
6.689772e+01
6.689851e+01
6.689921e+01
6.689982e+01
6.690036e+01
6.690083e+01
6.690123e+01
6.690156e+01
6.690185e+01
6.690209e+01
6.690229e+01
6.690246e+01
6.690260e+01
6.690272e+01
6.690283e+01
6.690293e+01
6.690304e+01
6.690315e+01
6.690328e+01
6.690344e+01
6.690362e+01
6.690383e+01
6.690406e+01
6.690432e+01
6.690457e+01
6.690477e+01
6.690505e+01
6.690476e+01
6.716274e+01
6.716303e+01
6.713667e+01
6.710543e+01
6.706585e+01
6.701392e+01
6.694568e+01
6.685984e+01
6.675352e+01
6.665604e+01
6.658243e+01
6.653355e+01
6.650486e+01
6.649104e+01
6.648767e+01
6.649133e+01
6.649921e+01
6.650846e+01
6.651576e+01
6.651807e+01
6.651468e+01
6.650847e+01
6.650398e+01
6.650477e+01
6.651177e+01
6.652346e+01
6.653848e+01
6.655608e+01
6.657614e+01
6.659902e+01
6.662516e+01
6.665482e+01
6.668779e+01
6.672340e+01
6.676055e+01
6.679788e+01
6.683396e+01
6.686747e+01
6.689681e+01
6.692108e+01
6.694028e+01
6.695538e+01
6.696786e+01
6.697905e+01
6.698877e+01
6.699525e+01
6.699624e+01
6.698842e+01
6.696822e+01
6.693348e+01
6.688694e+01
6.683427e+01
6.678316e+01
6.674157e+01
6.671529e+01
6.670643e+01
6.671137e+01
6.672490e+01
6.674445e+01
6.676738e+01
6.679113e+01
6.681363e+01
6.683359e+01
6.685017e+01
6.686305e+01
6.687253e+01
6.687927e+01
6.688407e+01
6.688754e+01
6.689014e+01
6.689217e+01
6.689382e+01
6.689520e+01
6.689639e+01
6.689741e+01
6.689830e+01
6.689907e+01
6.689974e+01
6.690031e+01
6.690080e+01
6.690121e+01
6.690156e+01
6.690184e+01
6.690208e+01
6.690228e+01
6.690244e+01
6.690257e+01
6.690269e+01
6.690279e+01
6.690289e+01
6.690299e+01
6.690310e+01
6.690323e+01
6.690337e+01
6.690355e+01
6.690376e+01
6.690401e+01
6.690429e+01
6.690458e+01
6.690487e+01
6.690520e+01
6.690490e+01
6.716293e+01
6.716322e+01
6.713983e+01
6.711129e+01
6.707365e+01
6.702178e+01
6.694986e+01
6.685509e+01
6.672633e+01
6.662010e+01
6.654940e+01
6.650715e+01
6.648473e+01
6.647564e+01
6.647550e+01
6.648144e+01
6.649151e+01
6.650357e+01
6.651446e+01
6.651996e+01
6.651769e+01
6.651088e+01
6.650517e+01
6.650510e+01
6.651242e+01
6.652459e+01
6.653968e+01
6.655676e+01
6.657576e+01
6.659723e+01
6.662179e+01
6.664981e+01
6.668125e+01
6.671554e+01
6.675162e+01
6.678814e+01
6.682365e+01
6.685689e+01
6.688634e+01
6.691101e+01
6.693064e+01
6.694593e+01
6.695826e+01
6.696887e+01
6.697706e+01
6.698178e+01
6.698097e+01
6.697204e+01
6.695213e+01
6.691904e+01
6.687480e+01
6.682563e+01
6.677836e+01
6.674013e+01
6.671610e+01
6.670820e+01
6.671426e+01
6.672755e+01
6.674582e+01
6.676675e+01
6.678820e+01
6.680842e+01
6.682653e+01
6.684218e+01
6.685499e+01
6.686510e+01
6.687293e+01
6.687888e+01
6.688342e+01
6.688693e+01
6.688971e+01
6.689196e+01
6.689381e+01
6.689536e+01
6.689667e+01
6.689777e+01
6.689871e+01
6.689949e+01
6.690014e+01
6.690069e+01
6.690114e+01
6.690150e+01
6.690180e+01
6.690204e+01
6.690223e+01
6.690238e+01
6.690251e+01
6.690261e+01
6.690271e+01
6.690280e+01
6.690289e+01
6.690299e+01
6.690310e+01
6.690325e+01
6.690342e+01
6.690363e+01
6.690389e+01
6.690420e+01
6.690456e+01
6.690495e+01
6.690540e+01
6.690511e+01
6.716382e+01
6.716411e+01
6.714535e+01
6.712126e+01
6.708724e+01
6.703621e+01
6.695838e+01
6.684560e+01
6.667360e+01
6.655869e+01
6.649863e+01
6.646910e+01
6.645647e+01
6.645415e+01
6.645849e+01
6.646744e+01
6.648023e+01
6.649590e+01
6.651204e+01
6.652293e+01
6.652281e+01
6.651470e+01
6.650694e+01
6.650558e+01
6.651304e+01
6.652638e+01
6.654175e+01
6.655812e+01
6.657550e+01
6.659479e+01
6.661694e+01
6.664259e+01
6.667185e+01
6.670428e+01
6.673889e+01
6.677429e+01
6.680900e+01
6.684166e+01
6.687112e+01
6.689630e+01
6.691667e+01
6.693261e+01
6.694520e+01
6.695552e+01
6.696331e+01
6.696616e+01
6.696328e+01
6.695333e+01
6.693435e+01
6.690452e+01
6.686442e+01
6.682033e+01
6.677809e+01
6.674385e+01
6.672222e+01
6.671496e+01
6.672097e+01
6.673369e+01
6.675031e+01
6.676901e+01
6.678807e+01
6.680604e+01
6.682215e+01
6.683658e+01
6.684890e+01
6.685905e+01
6.686725e+01
6.687380e+01
6.687905e+01
6.688328e+01
6.688673e+01
6.688958e+01
6.689194e+01
6.689390e+01
6.689554e+01
6.689691e+01
6.689804e+01
6.689897e+01
6.689973e+01
6.690035e+01
6.690084e+01
6.690124e+01
6.690156e+01
6.690181e+01
6.690201e+01
6.690217e+01
6.690230e+01
6.690240e+01
6.690249e+01
6.690258e+01
6.690267e+01
6.690277e+01
6.690288e+01
6.690302e+01
6.690320e+01
6.690342e+01
6.690370e+01
6.690404e+01
6.690446e+01
6.690497e+01
6.690568e+01
6.690539e+01
6.716578e+01
6.716607e+01
6.715369e+01
6.713625e+01
6.710865e+01
6.706095e+01
6.697544e+01
6.682662e+01
6.657801e+01
6.646875e+01
6.643192e+01
6.642136e+01
6.642188e+01
6.642832e+01
6.643817e+01
6.645050e+01
6.646562e+01
6.648417e+01
6.650622e+01
6.652514e+01
6.653087e+01
6.652078e+01
6.650959e+01
6.650652e+01
6.651393e+01
6.652927e+01
6.654546e+01
6.656114e+01
6.657636e+01
6.659271e+01
6.661168e+01
6.663420e+01
6.666062e+01
6.669063e+01
6.672334e+01
6.675736e+01
6.679111e+01
6.682303e+01
6.685234e+01
6.687801e+01
6.689941e+01
6.691670e+01
6.693038e+01
6.694058e+01
6.694730e+01
6.694782e+01
6.694281e+01
6.693242e+01
6.691549e+01
6.689040e+01
6.685648e+01
6.681917e+01
6.678321e+01
6.675371e+01
6.673468e+01
6.672780e+01
6.673237e+01
6.674392e+01
6.675852e+01
6.677479e+01
6.679136e+01
6.680706e+01
6.682111e+01
6.683401e+01
6.684538e+01
6.685510e+01
6.686324e+01
6.687000e+01
6.687561e+01
6.688027e+01
6.688415e+01
6.688740e+01
6.689013e+01
6.689240e+01
6.689429e+01
6.689585e+01
6.689713e+01
6.689818e+01
6.689903e+01
6.689971e+01
6.690026e+01
6.690070e+01
6.690105e+01
6.690134e+01
6.690156e+01
6.690175e+01
6.690190e+01
6.690203e+01
6.690214e+01
6.690224e+01
6.690234e+01
6.690245e+01
6.690257e+01
6.690271e+01
6.690289e+01
6.690312e+01
6.690341e+01
6.690380e+01
6.690429e+01
6.690494e+01
6.690597e+01
6.690568e+01
6.716909e+01
6.716938e+01
6.716503e+01
6.715685e+01
6.714028e+01
6.710316e+01
6.701513e+01
6.680184e+01
6.641010e+01
6.634078e+01
6.635200e+01
6.636869e+01
6.638502e+01
6.640038e+01
6.641575e+01
6.643224e+01
6.645005e+01
6.646969e+01
6.649205e+01
6.651656e+01
6.653702e+01
6.652967e+01
6.651450e+01
6.650910e+01
6.651786e+01
6.653514e+01
6.655278e+01
6.656828e+01
6.658111e+01
6.659377e+01
6.660888e+01
6.662767e+01
6.665061e+01
6.667758e+01
6.670781e+01
6.673998e+01
6.677239e+01
6.680319e+01
6.683202e+01
6.685829e+01
6.688116e+01
6.690020e+01
6.691478e+01
6.692406e+01
6.692788e+01
6.692533e+01
6.691837e+01
6.690856e+01
6.689524e+01
6.687654e+01
6.685101e+01
6.682195e+01
6.679327e+01
6.676904e+01
6.675268e+01
6.674587e+01
6.674837e+01
6.675787e+01
6.677001e+01
6.678359e+01
6.679751e+01
6.681082e+01
6.682286e+01
6.683398e+01
6.684409e+01
6.685304e+01
6.686079e+01
6.686744e+01
6.687313e+01
6.687796e+01
6.688207e+01
6.688554e+01
6.688846e+01
6.689091e+01
6.689294e+01
6.689462e+01
6.689599e+01
6.689711e+01
6.689803e+01
6.689877e+01
6.689937e+01
6.689986e+01
6.690027e+01
6.690060e+01
6.690089e+01
6.690113e+01
6.690133e+01
6.690151e+01
6.690167e+01
6.690180e+01
6.690193e+01
6.690205e+01
6.690219e+01
6.690234e+01
6.690252e+01
6.690276e+01
6.690306e+01
6.690347e+01
6.690403e+01
6.690479e+01
6.690619e+01
6.690590e+01
6.717376e+01
6.717405e+01
6.717875e+01
6.718221e+01
6.718277e+01
6.717165e+01
6.711457e+01
6.687048e+01
6.610848e+01
6.616880e+01
6.627574e+01
6.632342e+01
6.635035e+01
6.637128e+01
6.639098e+01
6.641141e+01
6.643225e+01
6.645195e+01
6.647272e+01
6.649792e+01
6.652100e+01
6.652824e+01
6.651683e+01
6.651104e+01
6.652316e+01
6.654399e+01
6.656544e+01
6.658257e+01
6.659350e+01
6.660260e+01
6.661379e+01
6.662853e+01
6.664731e+01
6.667029e+01
6.669700e+01
6.672624e+01
6.675635e+01
6.678523e+01
6.681248e+01
6.683862e+01
6.686240e+01
6.688210e+01
6.689592e+01
6.690273e+01
6.690303e+01
6.689749e+01
6.688987e+01
6.688222e+01
6.687408e+01
6.686335e+01
6.684766e+01
6.682799e+01
6.680714e+01
6.678836e+01
6.677463e+01
6.676775e+01
6.676805e+01
6.677458e+01
6.678393e+01
6.679460e+01
6.680571e+01
6.681651e+01
6.682649e+01
6.683572e+01
6.684442e+01
6.685239e+01
6.685954e+01
6.686587e+01
6.687142e+01
6.687623e+01
6.688037e+01
6.688389e+01
6.688686e+01
6.688936e+01
6.689143e+01
6.689314e+01
6.689455e+01
6.689572e+01
6.689668e+01
6.689748e+01
6.689815e+01
6.689871e+01
6.689920e+01
6.689962e+01
6.690001e+01
6.690034e+01
6.690062e+01
6.690086e+01
6.690108e+01
6.690127e+01
6.690144e+01
6.690160e+01
6.690176e+01
6.690194e+01
6.690214e+01
6.690238e+01
6.690269e+01
6.690310e+01
6.690368e+01
6.690450e+01
6.690619e+01
6.690590e+01
6.717938e+01
6.717967e+01
6.719309e+01
6.720860e+01
6.722962e+01
6.725930e+01
6.729643e+01
6.740766e+01
6.675778e+01
6.622418e+01
6.628015e+01
6.630290e+01
6.632627e+01
6.634609e+01
6.636451e+01
6.638449e+01
6.640557e+01
6.642295e+01
6.644381e+01
6.646097e+01
6.647385e+01
6.647937e+01
6.648082e+01
6.649143e+01
6.651627e+01
6.654508e+01
6.657566e+01
6.659907e+01
6.661278e+01
6.662187e+01
6.662987e+01
6.664104e+01
6.665519e+01
6.667310e+01
6.669481e+01
6.671947e+01
6.674561e+01
6.677130e+01
6.679483e+01
6.681806e+01
6.683966e+01
6.685742e+01
6.686880e+01
6.687280e+01
6.687092e+01
6.686512e+01
6.685931e+01
6.685560e+01
6.685370e+01
6.685161e+01
6.684642e+01
6.683666e+01
6.682370e+01
6.681018e+01
6.679891e+01
6.679191e+01
6.679008e+01
6.679329e+01
6.679951e+01
6.680704e+01
6.681519e+01
6.682341e+01
6.683127e+01
6.683862e+01
6.684581e+01
6.685268e+01
6.685907e+01
6.686491e+01
6.687014e+01
6.687475e+01
6.687876e+01
6.688219e+01
6.688511e+01
6.688756e+01
6.688960e+01
6.689131e+01
6.689273e+01
6.689393e+01
6.689494e+01
6.689581e+01
6.689657e+01
6.689723e+01
6.689782e+01
6.689834e+01
6.689882e+01
6.689926e+01
6.689967e+01
6.690003e+01
6.690036e+01
6.690066e+01
6.690092e+01
6.690116e+01
6.690138e+01
6.690160e+01
6.690182e+01
6.690206e+01
6.690236e+01
6.690274e+01
6.690328e+01
6.690407e+01
6.690578e+01
6.690549e+01
6.718524e+01
6.718553e+01
6.720551e+01
6.723000e+01
6.726572e+01
6.732312e+01
6.741989e+01
6.755147e+01
6.757937e+01
0.000000e+00
6.631360e+01
6.631389e+01
6.633400e+01
6.634718e+01
6.635791e+01
6.637069e+01
6.638324e+01
6.639166e+01
6.639725e+01
6.639742e+01
6.639128e+01
6.638169e+01
6.638127e+01
6.640542e+01
6.645571e+01
6.651947e+01
6.657534e+01
6.661888e+01
6.664176e+01
6.665208e+01
6.665835e+01
6.666555e+01
6.667525e+01
6.668717e+01
6.670242e+01
6.672062e+01
6.674049e+01
6.676018e+01
6.677739e+01
6.679401e+01
6.681071e+01
6.682386e+01
6.683117e+01
6.683334e+01
6.683179e+01
6.683023e+01
6.683061e+01
6.683322e+01
6.683798e+01
6.684366e+01
6.684773e+01
6.684740e+01
6.684198e+01
6.683330e+01
6.682425e+01
6.681709e+01
6.681324e+01
6.681320e+01
6.681606e+01
6.682031e+01
6.682544e+01
6.683100e+01
6.683665e+01
6.684220e+01
6.684778e+01
6.685341e+01
6.685889e+01
6.686407e+01
6.686884e+01
6.687312e+01
6.687689e+01
6.688015e+01
6.688294e+01
6.688531e+01
6.688730e+01
6.688895e+01
6.689036e+01
6.689159e+01
6.689265e+01
6.689357e+01
6.689443e+01
6.689524e+01
6.689601e+01
6.689675e+01
6.689744e+01
6.689809e+01
6.689869e+01
6.689923e+01
6.689972e+01
6.690015e+01
6.690053e+01
6.690085e+01
6.690113e+01
6.690138e+01
6.690162e+01
6.690185e+01
6.690210e+01
6.690242e+01
6.690284e+01
6.690348e+01
6.690485e+01
6.690456e+01
6.719063e+01
6.719092e+01
6.721411e+01
6.724227e+01
6.728180e+01
6.734010e+01
6.742453e+01
6.752574e+01
6.760786e+01
6.760757e+01
0.000000e+00
6.635373e+01
6.635402e+01
6.636455e+01
6.636978e+01
6.637215e+01
6.637110e+01
6.636464e+01
6.635151e+01
6.633034e+01
6.630267e+01
6.627716e+01
6.628047e+01
6.632456e+01
6.640194e+01
6.649498e+01
6.658323e+01
6.665144e+01
6.668952e+01
6.670194e+01
6.670379e+01
6.670505e+01
6.670878e+01
6.671359e+01
6.672101e+01
6.673086e+01
6.674201e+01
6.675267e+01
6.676056e+01
6.676892e+01
6.677611e+01
6.678007e+01
6.678182e+01
6.678353e+01
6.678866e+01
6.679687e+01
6.680669e+01
6.681728e+01
6.682864e+01
6.684052e+01
6.685151e+01
6.685874e+01
6.686021e+01
6.685641e+01
6.684947e+01
6.684222e+01
6.683666e+01
6.683365e+01
6.683308e+01
6.683405e+01
6.683614e+01
6.683898e+01
6.684230e+01
6.684590e+01
6.684977e+01
6.685400e+01
6.685841e+01
6.686280e+01
6.686701e+01
6.687090e+01
6.687441e+01
6.687748e+01
6.688013e+01
6.688245e+01
6.688447e+01
6.688614e+01
6.688761e+01
6.688893e+01
6.689014e+01
6.689129e+01
6.689241e+01
6.689349e+01
6.689452e+01
6.689549e+01
6.689640e+01
6.689725e+01
6.689802e+01
6.689871e+01
6.689932e+01
6.689986e+01
6.690031e+01
6.690070e+01
6.690102e+01
6.690128e+01
6.690150e+01
6.690170e+01
6.690188e+01
6.690209e+01
6.690235e+01
6.690272e+01
6.690346e+01
6.690317e+01
6.719518e+01
6.719548e+01
6.721847e+01
6.724553e+01
6.728140e+01
6.733138e+01
6.739602e+01
6.745481e+01
6.748540e+01
6.724711e+01
6.724682e+01
0.000000e+00
6.636537e+01
6.637729e+01
6.637724e+01
6.637221e+01
6.636162e+01
6.634541e+01
6.632082e+01
6.628662e+01
6.624645e+01
6.621939e+01
6.623770e+01
6.630209e+01
6.639895e+01
6.650821e+01
6.661098e+01
6.669651e+01
6.674843e+01
6.677106e+01
6.677128e+01
6.676349e+01
6.675863e+01
6.675512e+01
6.675352e+01
6.675337e+01
6.675360e+01
6.675260e+01
6.674876e+01
6.674337e+01
6.673688e+01
6.673116e+01
6.672827e+01
6.673284e+01
6.674812e+01
6.676852e+01
6.678959e+01
6.680884e+01
6.682609e+01
6.684213e+01
6.685708e+01
6.686912e+01
6.687587e+01
6.687649e+01
6.687235e+01
6.686590e+01
6.685927e+01
6.685378e+01
6.685008e+01
6.684791e+01
6.684696e+01
6.684698e+01
6.684776e+01
6.684915e+01
6.685115e+01
6.685378e+01
6.685694e+01
6.686047e+01
6.686415e+01
6.686780e+01
6.687132e+01
6.687445e+01
6.687708e+01
6.687945e+01
6.688149e+01
6.688330e+01
6.688499e+01
6.688661e+01
6.688815e+01
6.688963e+01
6.689105e+01
6.689239e+01
6.689366e+01
6.689483e+01
6.689590e+01
6.689688e+01
6.689776e+01
6.689853e+01
6.689921e+01
6.689978e+01
6.690027e+01
6.690067e+01
6.690099e+01
6.690123e+01
6.690142e+01
6.690155e+01
6.690165e+01
6.690171e+01
6.690176e+01
6.690182e+01
6.690182e+01
6.690153e+01
6.719885e+01
6.719915e+01
6.721927e+01
6.724226e+01
6.727061e+01
6.730436e+01
6.733673e+01
6.734581e+01
6.728913e+01
6.717534e+01
6.677381e+01
6.647846e+01
6.635284e+01
6.639398e+01
6.638922e+01
6.637620e+01
6.635906e+01
6.633708e+01
6.630563e+01
6.626367e+01
6.621738e+01
6.620340e+01
6.623961e+01
6.632002e+01
6.642715e+01
6.654062e+01
6.664185e+01
6.672841e+01
6.679567e+01
6.683178e+01
6.684182e+01
6.683814e+01
6.682599e+01
6.681335e+01
6.680178e+01
6.678994e+01
6.677627e+01
6.676060e+01
6.674290e+01
6.672270e+01
6.670261e+01
6.668635e+01
6.667747e+01
6.668872e+01
6.671555e+01
6.674849e+01
6.678064e+01
6.680756e+01
6.682929e+01
6.684754e+01
6.686359e+01
6.687729e+01
6.688690e+01
6.689077e+01
6.688922e+01
6.688425e+01
6.687779e+01
6.687104e+01
6.686526e+01
6.686049e+01
6.685673e+01
6.685397e+01
6.685217e+01
6.685127e+01
6.685125e+01
6.685220e+01
6.685416e+01
6.685701e+01
6.686047e+01
6.686400e+01
6.686757e+01
6.687082e+01
6.687375e+01
6.687642e+01
6.687887e+01
6.688113e+01
6.688323e+01
6.688520e+01
6.688707e+01
6.688883e+01
6.689048e+01
6.689203e+01
6.689345e+01
6.689474e+01
6.689590e+01
6.689694e+01
6.689785e+01
6.689864e+01
6.689932e+01
6.689989e+01
6.690036e+01
6.690074e+01
6.690102e+01
6.690123e+01
6.690135e+01
6.690140e+01
6.690138e+01
6.690129e+01
6.690112e+01
6.690084e+01
6.690019e+01
6.689990e+01
6.720198e+01
6.720227e+01
6.721781e+01
6.723446e+01
6.725244e+01
6.726889e+01
6.727456e+01
6.724956e+01
6.715796e+01
6.699127e+01
6.672770e+01
6.618369e+01
6.631229e+01
6.637298e+01
6.638330e+01
6.637571e+01
6.636060e+01
6.633696e+01
6.630180e+01
6.625546e+01
6.622029e+01
6.622495e+01
6.627630e+01
6.636494e+01
6.647406e+01
6.658035e+01
6.666955e+01
6.674203e+01
6.680378e+01
6.685542e+01
6.688186e+01
6.689103e+01
6.688518e+01
6.686758e+01
6.684645e+01
6.682293e+01
6.679699e+01
6.677031e+01
6.674052e+01
6.670722e+01
6.667465e+01
6.664739e+01
6.663747e+01
6.665732e+01
6.669519e+01
6.673892e+01
6.677923e+01
6.681113e+01
6.683597e+01
6.685541e+01
6.687088e+01
6.688328e+01
6.689236e+01
6.689701e+01
6.689723e+01
6.689438e+01
6.688914e+01
6.688291e+01
6.687616e+01
6.686958e+01
6.686366e+01
6.685866e+01
6.685475e+01
6.685175e+01
6.684973e+01
6.684894e+01
6.684969e+01
6.685184e+01
6.685519e+01
6.685920e+01
6.686345e+01
6.686750e+01
6.687119e+01
6.687449e+01
6.687744e+01
6.688011e+01
6.688257e+01
6.688483e+01
6.688690e+01
6.688882e+01
6.689059e+01
6.689222e+01
6.689369e+01
6.689501e+01
6.689619e+01
6.689723e+01
6.689814e+01
6.689892e+01
6.689958e+01
6.690012e+01
6.690055e+01
6.690088e+01
6.690111e+01
6.690125e+01
6.690129e+01
6.690124e+01
6.690110e+01
6.690084e+01
6.690046e+01
6.689989e+01
6.689872e+01
6.689842e+01
6.720454e+01
6.720483e+01
6.721483e+01
6.722456e+01
6.723276e+01
6.723551e+01
6.722442e+01
6.718487e+01
6.709461e+01
6.693553e+01
6.672271e+01
6.643612e+01
6.640650e+01
6.640958e+01
6.640503e+01
6.639282e+01
6.637485e+01
6.635011e+01
6.631509e+01
6.627803e+01
6.626111e+01
6.627998e+01
6.633694e+01
6.642246e+01
6.652237e+01
6.661449e+01
6.669409e+01
6.675956e+01
6.680988e+01
6.684371e+01
6.687312e+01
6.690065e+01
6.690585e+01
6.689447e+01
6.687391e+01
6.684591e+01
6.681293e+01
6.677880e+01
6.673975e+01
6.669646e+01
6.665425e+01
6.661896e+01
6.661422e+01
6.664246e+01
6.668893e+01
6.673992e+01
6.678368e+01
6.681786e+01
6.684402e+01
6.686380e+01
6.687841e+01
6.688834e+01
6.689372e+01
6.689526e+01
6.689536e+01
6.689484e+01
6.689262e+01
6.688808e+01
6.688171e+01
6.687455e+01
6.686750e+01
6.686106e+01
6.685549e+01
6.685052e+01
6.684642e+01
6.684345e+01
6.684319e+01
6.684561e+01
6.685004e+01
6.685534e+01
6.686072e+01
6.686570e+01
6.687015e+01
6.687399e+01
6.687732e+01
6.688027e+01
6.688289e+01
6.688526e+01
6.688741e+01
6.688937e+01
6.689115e+01
6.689276e+01
6.689421e+01
6.689551e+01
6.689666e+01
6.689766e+01
6.689853e+01
6.689926e+01
6.689987e+01
6.690036e+01
6.690074e+01
6.690101e+01
6.690118e+01
6.690125e+01
6.690121e+01
6.690107e+01
6.690080e+01
6.690040e+01
6.689983e+01
6.689902e+01
6.689746e+01
6.689716e+01
6.720663e+01
6.720693e+01
6.721145e+01
6.721481e+01
6.721508e+01
6.720841e+01
6.718832e+01
6.714518e+01
6.706640e+01
6.693930e+01
6.676819e+01
6.657605e+01
6.649714e+01
6.646244e+01
6.643876e+01
6.641694e+01
6.639450e+01
6.636963e+01
6.634034e+01
6.631787e+01
6.631571e+01
6.634315e+01
6.639975e+01
6.647724e+01
6.656196e+01
6.664108e+01
6.671036e+01
6.676827e+01
6.681477e+01
6.685081e+01
6.687933e+01
6.689776e+01
6.690210e+01
6.689624e+01
6.687993e+01
6.685387e+01
6.682043e+01
6.678407e+01
6.674014e+01
6.669093e+01
6.664257e+01
6.660679e+01
6.661020e+01
6.664521e+01
6.669631e+01
6.674920e+01
6.679266e+01
6.682651e+01
6.685208e+01
6.687085e+01
6.688400e+01
6.689234e+01
6.689662e+01
6.689791e+01
6.689764e+01
6.689595e+01
6.689257e+01
6.688753e+01
6.688133e+01
6.687460e+01
6.686790e+01
6.686109e+01
6.685440e+01
6.684794e+01
6.684172e+01
6.683773e+01
6.683790e+01
6.684151e+01
6.684720e+01
6.685369e+01
6.686008e+01
6.686578e+01
6.687063e+01
6.687473e+01
6.687823e+01
6.688126e+01
6.688391e+01
6.688627e+01
6.688838e+01
6.689027e+01
6.689198e+01
6.689352e+01
6.689489e+01
6.689611e+01
6.689718e+01
6.689811e+01
6.689891e+01
6.689958e+01
6.690012e+01
6.690056e+01
6.690088e+01
6.690109e+01
6.690119e+01
6.690119e+01
6.690108e+01
6.690085e+01
6.690049e+01
6.689996e+01
6.689925e+01
6.689827e+01
6.689644e+01
6.689615e+01
6.720844e+01
6.720873e+01
6.720840e+01
6.720645e+01
6.720075e+01
6.718795e+01
6.716323e+01
6.712032e+01
6.705196e+01
6.695051e+01
6.681513e+01
6.666494e+01
6.657126e+01
6.651465e+01
6.647506e+01
6.644347e+01
6.641601e+01
6.639075e+01
6.636822e+01
6.635676e+01
6.636493e+01
6.639732e+01
6.645162e+01
6.652043e+01
6.659328e+01
6.666207e+01
6.672311e+01
6.677510e+01
6.681815e+01
6.685229e+01
6.687684e+01
6.689046e+01
6.689386e+01
6.688886e+01
6.687509e+01
6.685203e+01
6.682095e+01
6.678592e+01
6.674135e+01
6.669129e+01
6.664271e+01
6.661467e+01
6.662459e+01
6.666264e+01
6.671378e+01
6.676357e+01
6.680449e+01
6.683630e+01
6.686007e+01
6.687721e+01
6.688892e+01
6.689622e+01
6.689999e+01
6.690110e+01
6.690027e+01
6.689764e+01
6.689328e+01
6.688745e+01
6.688071e+01
6.687378e+01
6.686659e+01
6.685919e+01
6.685170e+01
6.684428e+01
6.683720e+01
6.683402e+01
6.683536e+01
6.684018e+01
6.684695e+01
6.685436e+01
6.686128e+01
6.686723e+01
6.687224e+01
6.687640e+01
6.687989e+01
6.688285e+01
6.688541e+01
6.688763e+01
6.688961e+01
6.689136e+01
6.689293e+01
6.689433e+01
6.689558e+01
6.689668e+01
6.689765e+01
6.689849e+01
6.689920e+01
6.689980e+01
6.690028e+01
6.690066e+01
6.690092e+01
6.690108e+01
6.690114e+01
6.690108e+01
6.690091e+01
6.690061e+01
6.690016e+01
6.689955e+01
6.689873e+01
6.689765e+01
6.689571e+01
6.689541e+01
6.721001e+01
6.721030e+01
6.720600e+01
6.719992e+01
6.718995e+01
6.717320e+01
6.714602e+01
6.710408e+01
6.704283e+01
6.695778e+01
6.684782e+01
6.672488e+01
6.662836e+01
6.655885e+01
6.650765e+01
6.646779e+01
6.643570e+01
6.641002e+01
6.639238e+01
6.638837e+01
6.640312e+01
6.643814e+01
6.649004e+01
6.655216e+01
6.661679e+01
6.667810e+01
6.673311e+01
6.678070e+01
6.682061e+01
6.685216e+01
6.687432e+01
6.688687e+01
6.689036e+01
6.688560e+01
6.687248e+01
6.685066e+01
6.682089e+01
6.678555e+01
6.674159e+01
6.669345e+01
6.665028e+01
6.663244e+01
6.664767e+01
6.668625e+01
6.673445e+01
6.677974e+01
6.681717e+01
6.684621e+01
6.686775e+01
6.688306e+01
6.689341e+01
6.689987e+01
6.690327e+01
6.690420e+01
6.690306e+01
6.690001e+01
6.689519e+01
6.688888e+01
6.688151e+01
6.687368e+01
6.686545e+01
6.685691e+01
6.684832e+01
6.684018e+01
6.683380e+01
6.683201e+01
6.683478e+01
6.684081e+01
6.684848e+01
6.685641e+01
6.686352e+01
6.686956e+01
6.687456e+01
6.687864e+01
6.688199e+01
6.688477e+01
6.688712e+01
6.688913e+01
6.689090e+01
6.689245e+01
6.689384e+01
6.689507e+01
6.689617e+01
6.689714e+01
6.689800e+01
6.689874e+01
6.689937e+01
6.689990e+01
6.690033e+01
6.690065e+01
6.690087e+01
6.690099e+01
6.690101e+01
6.690091e+01
6.690069e+01
6.690034e+01
6.689984e+01
6.689917e+01
6.689830e+01
6.689718e+01
6.689523e+01
6.689494e+01
6.721131e+01
6.721160e+01
6.720433e+01
6.719525e+01
6.718236e+01
6.716312e+01
6.713460e+01
6.709355e+01
6.703675e+01
6.696149e+01
6.686738e+01
6.676217e+01
6.666857e+01
6.659312e+01
6.653399e+01
6.648770e+01
6.645185e+01
6.642587e+01
6.641163e+01
6.641265e+01
6.643144e+01
6.646750e+01
6.651703e+01
6.657424e+01
6.663327e+01
6.668951e+01
6.674033e+01
6.678466e+01
6.682202e+01
6.685173e+01
6.687303e+01
6.688578e+01
6.689013e+01
6.688626e+01
6.687389e+01
6.685262e+01
6.682275e+01
6.678550e+01
6.674069e+01
6.669424e+01
6.665841e+01
6.664953e+01
6.666926e+01
6.670774e+01
6.675263e+01
6.679417e+01
6.682847e+01
6.685490e+01
6.687432e+01
6.688802e+01
6.689725e+01
6.690303e+01
6.690615e+01
6.690692e+01
6.690565e+01
6.690249e+01
6.689757e+01
6.689108e+01
6.688326e+01
6.687446e+01
6.686488e+01
6.685480e+01
6.684490e+01
6.683639e+01
6.683118e+01
6.683094e+01
6.683518e+01
6.684234e+01
6.685072e+01
6.685894e+01
6.686618e+01
6.687220e+01
6.687706e+01
6.688094e+01
6.688405e+01
6.688657e+01
6.688867e+01
6.689045e+01
6.689200e+01
6.689336e+01
6.689456e+01
6.689564e+01
6.689660e+01
6.689746e+01
6.689821e+01
6.689887e+01
6.689944e+01
6.689991e+01
6.690029e+01
6.690057e+01
6.690076e+01
6.690085e+01
6.690083e+01
6.690070e+01
6.690045e+01
6.690007e+01
6.689954e+01
6.689884e+01
6.689795e+01
6.689684e+01
6.689504e+01
6.689475e+01
6.721225e+01
6.721255e+01
6.720331e+01
6.719231e+01
6.717761e+01
6.715693e+01
6.712774e+01
6.708736e+01
6.703325e+01
6.696355e+01
6.687843e+01
6.678362e+01
6.669342e+01
6.661569e+01
6.655216e+01
6.650183e+01
6.646357e+01
6.643746e+01
6.642518e+01
6.642891e+01
6.644969e+01
6.648600e+01
6.653389e+01
6.658808e+01
6.664364e+01
6.669665e+01
6.674484e+01
6.678709e+01
6.682280e+01
6.685145e+01
6.687249e+01
6.688570e+01
6.689099e+01
6.688814e+01
6.687668e+01
6.685599e+01
6.682567e+01
6.678608e+01
6.673933e+01
6.669389e+01
6.666421e+01
6.666147e+01
6.668439e+01
6.672286e+01
6.676529e+01
6.680416e+01
6.683612e+01
6.686066e+01
6.687860e+01
6.689121e+01
6.689969e+01
6.690502e+01
6.690797e+01
6.690871e+01
6.690749e+01
6.690444e+01
6.689967e+01
6.689324e+01
6.688519e+01
6.687560e+01
6.686469e+01
6.685307e+01
6.684195e+01
6.683332e+01
6.682917e+01
6.683027e+01
6.683577e+01
6.684389e+01
6.685278e+01
6.686117e+01
6.686842e+01
6.687437e+01
6.687909e+01
6.688279e+01
6.688570e+01
6.688801e+01
6.688990e+01
6.689148e+01
6.689283e+01
6.689402e+01
6.689508e+01
6.689603e+01
6.689689e+01
6.689765e+01
6.689833e+01
6.689893e+01
6.689944e+01
6.689987e+01
6.690021e+01
6.690047e+01
6.690063e+01
6.690070e+01
6.690066e+01
6.690051e+01
6.690024e+01
6.689984e+01
6.689929e+01
6.689858e+01
6.689768e+01
6.689661e+01
6.689510e+01
6.689480e+01
6.721277e+01
6.721306e+01
6.720286e+01
6.719093e+01
6.717541e+01
6.715413e+01
6.712475e+01
6.708486e+01
6.703218e+01
6.696516e+01
6.688420e+01
6.679415e+01
6.670584e+01
6.662726e+01
6.656165e+01
6.650930e+01
6.646981e+01
6.644361e+01
6.643216e+01
6.643697e+01
6.645841e+01
6.649459e+01
6.654155e+01
6.659424e+01
6.664816e+01
6.669969e+01
6.674664e+01
6.678789e+01
6.682278e+01
6.685089e+01
6.687191e+01
6.688556e+01
6.689157e+01
6.688955e+01
6.687892e+01
6.685887e+01
6.682838e+01
6.678709e+01
6.673864e+01
6.669396e+01
6.666780e+01
6.666814e+01
6.669213e+01
6.672989e+01
6.677084e+01
6.680844e+01
6.683940e+01
6.686316e+01
6.688050e+01
6.689266e+01
6.690083e+01
6.690599e+01
6.690877e+01
6.690948e+01
6.690833e+01
6.690543e+01
6.690084e+01
6.689456e+01
6.688650e+01
6.687652e+01
6.686482e+01
6.685224e+01
6.684051e+01
6.683195e+01
6.682841e+01
6.683025e+01
6.683635e+01
6.684482e+01
6.685382e+01
6.686224e+01
6.686951e+01
6.687545e+01
6.688013e+01
6.688377e+01
6.688659e+01
6.688880e+01
6.689057e+01
6.689204e+01
6.689329e+01
6.689439e+01
6.689537e+01
6.689625e+01
6.689704e+01
6.689776e+01
6.689840e+01
6.689896e+01
6.689945e+01
6.689986e+01
6.690018e+01
6.690042e+01
6.690057e+01
6.690062e+01
6.690058e+01
6.690042e+01
6.690013e+01
6.689972e+01
6.689916e+01
6.689843e+01
6.689752e+01
6.689643e+01
6.689518e+01
6.689489e+01
0.000000e+00
6.721277e+01
6.720257e+01
6.719063e+01
6.717511e+01
6.715384e+01
6.712446e+01
6.708457e+01
6.703188e+01
6.696487e+01
6.688390e+01
6.679386e+01
6.670555e+01
6.662697e+01
6.656136e+01
6.650901e+01
6.646951e+01
6.644332e+01
6.643187e+01
6.643668e+01
6.645812e+01
6.649430e+01
6.654126e+01
6.659395e+01
6.664787e+01
6.669940e+01
6.674635e+01
6.678759e+01
6.682249e+01
6.685060e+01
6.687162e+01
6.688527e+01
6.689127e+01
6.688925e+01
6.687863e+01
6.685857e+01
6.682808e+01
6.678680e+01
6.673835e+01
6.669367e+01
6.666751e+01
6.666785e+01
6.669183e+01
6.672959e+01
6.677055e+01
6.680815e+01
6.683911e+01
6.686287e+01
6.688021e+01
6.689237e+01
6.690054e+01
6.690569e+01
6.690848e+01
6.690919e+01
6.690804e+01
6.690514e+01
6.690055e+01
6.689427e+01
6.688620e+01
6.687623e+01
6.686453e+01