# vtk DataFile Version 3.0
Scalar Field
ASCII
DATASET RECTILINEAR_GRID
DIMENSIONS 102 22 1
X_COORDINATES 102 double
0.000000 0.100000 0.200000 0.300000 0.400000 0.500000 0.600000 0.700000 0.800000 0.900000 1.000000 1.100000 1.200000 1.300000 1.400000 1.500000 1.600000 1.700000 1.800000 1.900000 2.000000 2.100000 2.200000 2.300000 2.400000 2.500000 2.600000 2.700000 2.800000 2.900000 3.000000 3.100000 3.200000 3.300000 3.400000 3.500000 3.600000 3.700000 3.800000 3.900000 4.000000 4.100000 4.200000 4.300000 4.400000 4.500000 4.600000 4.700000 4.800000 4.900000 5.000000 5.100000 5.200000 5.300000 5.400000 5.500000 5.600000 5.700000 5.800000 5.900000 6.000000 6.100000 6.200000 6.300000 6.400000 6.500000 6.600000 6.700000 6.800000 6.900000 7.000000 7.100000 7.200000 7.300000 7.400000 7.500000 7.600000 7.700000 7.800000 7.900000 8.000000 8.100000 8.200000 8.300000 8.400000 8.500000 8.600000 8.700000 8.800000 8.900000 9.000000 9.100000 9.200000 9.300000 9.400000 9.500000 9.600000 9.700000 9.800000 9.900000 10.000000 10.100000 
Y_COORDINATES 22 double
0.000000 0.100000 0.200000 0.300000 0.400000 0.500000 0.600000 0.700000 0.800000 0.900000 1.000000 1.100000 1.200000 1.300000 1.400000 1.500000 1.600000 1.700000 1.800000 1.900000 2.000000 2.100000 
Z_COORDINATES 1 double
0.0
POINT_DATA 2244
SCALARS Pressure double 1
LOOKUP_TABLE default
0.000000e+00
2.440432e+01
2.437607e+01
2.434434e+01
2.430553e+01
2.425557e+01
2.419029e+01
2.410738e+01
2.400414e+01
2.389816e+01
2.380355e+01
2.372499e+01
2.366190e+01
2.361262e+01
2.357612e+01
2.355187e+01
2.353908e+01
2.353634e+01
2.354207e+01
2.355479e+01
2.357326e+01
2.359653e+01
2.362394e+01
2.365499e+01
2.368922e+01
2.372613e+01
2.376514e+01
2.380560e+01
2.384685e+01
2.388813e+01
2.392843e+01
2.396671e+01
2.400215e+01
2.403397e+01
2.406169e+01
2.408009e+01
2.408014e+01
2.405355e+01
2.399895e+01
2.392529e+01
2.384870e+01
2.378651e+01
2.374946e+01
2.373650e+01
2.374025e+01
2.375438e+01
2.377415e+01
2.379636e+01
2.381914e+01
2.384128e+01
2.386193e+01
2.388039e+01
2.389617e+01
2.390905e+01
2.391911e+01
2.392667e+01
2.393219e+01
2.393613e+01
2.393889e+01
2.394081e+01
2.394213e+01
2.394302e+01
2.394360e+01
2.394395e+01
2.394413e+01
2.394417e+01
2.394411e+01
2.394396e+01
2.394375e+01
2.394348e+01
2.394317e+01
2.394282e+01
2.394244e+01
2.394205e+01
2.394164e+01
2.394122e+01
2.394080e+01
2.394037e+01
2.393995e+01
2.393953e+01
2.393912e+01
2.393873e+01
2.393835e+01
2.393798e+01
2.393764e+01
2.393731e+01
2.393701e+01
2.393672e+01
2.393646e+01
2.393623e+01
2.393603e+01
2.393585e+01
2.393571e+01
2.393561e+01
2.393554e+01
2.393551e+01
2.393552e+01
2.393556e+01
2.393564e+01
2.393571e+01
2.393599e+01
0.000000e+00
2.440432e+01
2.440450e+01
2.437625e+01
2.434452e+01
2.430571e+01
2.425575e+01
2.419047e+01
2.410756e+01
2.400432e+01
2.389834e+01
2.380373e+01
2.372517e+01
2.366208e+01
2.361280e+01
2.357630e+01
2.355205e+01
2.353926e+01
2.353652e+01
2.354225e+01
2.355497e+01
2.357344e+01
2.359671e+01
2.362412e+01
2.365517e+01
2.368940e+01
2.372631e+01
2.376532e+01
2.380578e+01
2.384703e+01
2.388832e+01
2.392861e+01
2.396689e+01
2.400233e+01
2.403415e+01
2.406188e+01
2.408027e+01
2.408032e+01
2.405373e+01
2.399913e+01
2.392547e+01
2.384888e+01
2.378669e+01
2.374964e+01
2.373668e+01
2.374043e+01
2.375456e+01
2.377433e+01
2.379654e+01
2.381932e+01
2.384146e+01
2.386211e+01
2.388057e+01
2.389635e+01
2.390923e+01
2.391929e+01
2.392685e+01
2.393237e+01
2.393631e+01
2.393907e+01
2.394099e+01
2.394231e+01
2.394320e+01
2.394378e+01
2.394414e+01
2.394431e+01
2.394436e+01
2.394429e+01
2.394415e+01
2.394393e+01
2.394366e+01
2.394335e+01
2.394300e+01
2.394262e+01
2.394223e+01
2.394182e+01
2.394140e+01
2.394098e+01
2.394055e+01
2.394013e+01
2.393971e+01
2.393930e+01
2.393891e+01
2.393853e+01
2.393817e+01
2.393782e+01
2.393749e+01
2.393719e+01
2.393690e+01
2.393665e+01
2.393641e+01
2.393621e+01
2.393603e+01
2.393589e+01
2.393579e+01
2.393572e+01
2.393569e+01
2.393570e+01
2.393574e+01
2.393582e+01
2.393589e+01
2.393617e+01
2.393599e+01
2.440270e+01
2.440288e+01
2.437610e+01
2.434560e+01
2.430752e+01
2.425735e+01
2.419021e+01
2.410354e+01
2.399118e+01
2.388138e+01
2.378830e+01
2.371323e+01
2.365330e+01
2.360612e+01
2.357073e+01
2.354714e+01
2.353495e+01
2.353272e+01
2.353889e+01
2.355193e+01
2.357057e+01
2.359387e+01
2.362116e+01
2.365200e+01
2.368598e+01
2.372264e+01
2.376141e+01
2.380163e+01
2.384257e+01
2.388355e+01
2.392346e+01
2.396122e+01
2.399594e+01
2.402700e+01
2.405296e+01
2.406869e+01
2.406768e+01
2.404221e+01
2.398948e+01
2.391922e+01
2.384630e+01
2.378597e+01
2.374840e+01
2.373513e+01
2.373820e+01
2.375149e+01
2.377053e+01
2.379240e+01
2.381510e+01
2.383737e+01
2.385824e+01
2.387704e+01
2.389322e+01
2.390653e+01
2.391702e+01
2.392499e+01
2.393088e+01
2.393513e+01
2.393816e+01
2.394031e+01
2.394181e+01
2.394284e+01
2.394353e+01
2.394397e+01
2.394422e+01
2.394431e+01
2.394428e+01
2.394415e+01
2.394395e+01
2.394369e+01
2.394338e+01
2.394303e+01
2.394266e+01
2.394226e+01
2.394184e+01
2.394142e+01
2.394099e+01
2.394057e+01
2.394014e+01
2.393972e+01
2.393931e+01
2.393892e+01
2.393854e+01
2.393817e+01
2.393783e+01
2.393750e+01
2.393719e+01
2.393691e+01
2.393665e+01
2.393642e+01
2.393621e+01
2.393604e+01
2.393589e+01
2.393579e+01
2.393572e+01
2.393569e+01
2.393570e+01
2.393575e+01
2.393585e+01
2.393599e+01
2.393631e+01
2.393613e+01
2.440001e+01
2.440019e+01
2.437649e+01
2.434876e+01
2.431268e+01
2.426269e+01
2.419210e+01
2.409688e+01
2.396305e+01
2.384678e+01
2.375853e+01
2.369107e+01
2.363729e+01
2.359389e+01
2.356036e+01
2.353779e+01
2.352672e+01
2.352543e+01
2.353237e+01
2.354597e+01
2.356487e+01
2.358811e+01
2.361506e+01
2.364534e+01
2.367866e+01
2.371465e+01
2.375280e+01
2.379243e+01
2.383278e+01
2.387308e+01
2.391232e+01
2.394932e+01
2.398308e+01
2.401325e+01
2.403953e+01
2.405662e+01
2.405694e+01
2.403332e+01
2.398089e+01
2.391131e+01
2.384025e+01
2.378173e+01
2.374463e+01
2.373095e+01
2.373438e+01
2.374711e+01
2.376535e+01
2.378648e+01
2.380869e+01
2.383064e+01
2.385139e+01
2.387033e+01
2.388696e+01
2.390093e+01
2.391218e+01
2.392094e+01
2.392756e+01
2.393246e+01
2.393605e+01
2.393866e+01
2.394055e+01
2.394189e+01
2.394283e+01
2.394347e+01
2.394386e+01
2.394407e+01
2.394412e+01
2.394405e+01
2.394389e+01
2.394365e+01
2.394335e+01
2.394300e+01
2.394262e+01
2.394222e+01
2.394180e+01
2.394138e+01
2.394095e+01
2.394051e+01
2.394009e+01
2.393967e+01
2.393927e+01
2.393887e+01
2.393850e+01
2.393813e+01
2.393779e+01
2.393747e+01
2.393716e+01
2.393688e+01
2.393662e+01
2.393639e+01
2.393619e+01
2.393601e+01
2.393587e+01
2.393576e+01
2.393569e+01
2.393566e+01
2.393568e+01
2.393574e+01
2.393586e+01
2.393604e+01
2.393640e+01
2.393622e+01
2.439667e+01
2.439685e+01
2.437794e+01
2.435478e+01
2.432244e+01
2.427347e+01
2.419734e+01
2.408457e+01
2.391055e+01
2.379079e+01
2.371563e+01
2.366067e+01
2.361559e+01
2.357703e+01
2.354548e+01
2.352374e+01
2.351425e+01
2.351435e+01
2.352252e+01
2.353703e+01
2.355640e+01
2.357960e+01
2.360606e+01
2.363551e+01
2.366782e+01
2.370278e+01
2.373998e+01
2.377878e+01
2.381833e+01
2.385772e+01
2.389611e+01
2.393245e+01
2.396583e+01
2.399637e+01
2.402539e+01
2.404557e+01
2.404664e+01
2.402437e+01
2.397587e+01
2.390723e+01
2.383778e+01
2.378044e+01
2.374370e+01
2.372913e+01
2.373286e+01
2.374541e+01
2.376270e+01
2.378269e+01
2.380385e+01
2.382499e+01
2.384503e+01
2.386363e+01
2.388030e+01
2.389462e+01
2.390643e+01
2.391585e+01
2.392318e+01
2.392879e+01
2.393304e+01
2.393623e+01
2.393862e+01
2.394038e+01
2.394166e+01
2.394256e+01
2.394315e+01
2.394351e+01
2.394367e+01
2.394368e+01
2.394357e+01
2.394337e+01
2.394309e+01
2.394277e+01
2.394240e+01
2.394201e+01
2.394160e+01
2.394119e+01
2.394077e+01
2.394035e+01
2.393993e+01
2.393953e+01
2.393914e+01
2.393875e+01
2.393839e+01
2.393803e+01
2.393770e+01
2.393738e+01
2.393709e+01
2.393681e+01
2.393656e+01
2.393633e+01
2.393613e+01
2.393596e+01
2.393582e+01
2.393571e+01
2.393564e+01
2.393561e+01
2.393563e+01
2.393570e+01
2.393583e+01
2.393605e+01
2.393645e+01
2.393627e+01
2.439321e+01
2.439339e+01
2.438105e+01
2.436465e+01
2.433885e+01
2.429349e+01
2.421029e+01
2.406286e+01
2.381980e+01
2.371156e+01
2.366238e+01
2.362586e+01
2.359161e+01
2.355807e+01
2.352749e+01
2.350523e+01
2.349707e+01
2.349926e+01
2.350932e+01
2.352529e+01
2.354550e+01
2.356876e+01
2.359460e+01
2.362292e+01
2.365383e+01
2.368734e+01
2.372323e+01
2.376097e+01
2.379968e+01
2.383818e+01
2.387590e+01
2.391242e+01
2.394742e+01
2.398027e+01
2.400932e+01
2.403169e+01
2.403083e+01
2.400757e+01
2.396519e+01
2.390527e+01
2.384225e+01
2.378857e+01
2.375220e+01
2.373599e+01
2.373720e+01
2.374925e+01
2.376533e+01
2.378374e+01
2.380333e+01
2.382306e+01
2.384192e+01
2.385938e+01
2.387544e+01
2.388959e+01
2.390155e+01
2.391133e+01
2.391913e+01
2.392527e+01
2.393004e+01
2.393371e+01
2.393652e+01
2.393864e+01
2.394021e+01
2.394134e+01
2.394211e+01
2.394260e+01
2.394286e+01
2.394295e+01
2.394290e+01
2.394275e+01
2.394253e+01
2.394225e+01
2.394193e+01
2.394158e+01
2.394121e+01
2.394083e+01
2.394045e+01
2.394006e+01
2.393968e+01
2.393930e+01
2.393893e+01
2.393857e+01
2.393822e+01
2.393788e+01
2.393757e+01
2.393727e+01
2.393698e+01
2.393672e+01
2.393648e+01
2.393626e+01
2.393606e+01
2.393590e+01
2.393576e+01
2.393565e+01
2.393557e+01
2.393554e+01
2.393556e+01
2.393563e+01
2.393578e+01
2.393601e+01
2.393645e+01
2.393627e+01
2.439009e+01
2.439027e+01
2.438613e+01
2.437906e+01
2.436439e+01
2.432992e+01
2.424512e+01
2.403646e+01
2.366135e+01
2.360519e+01
2.360663e+01
2.359414e+01
2.357195e+01
2.354305e+01
2.351113e+01
2.348518e+01
2.347469e+01
2.348010e+01
2.349321e+01
2.351170e+01
2.353345e+01
2.355707e+01
2.358222e+01
2.360911e+01
2.363815e+01
2.366969e+01
2.370381e+01
2.374016e+01
2.377794e+01
2.381572e+01
2.385288e+01
2.388990e+01
2.392814e+01
2.396565e+01
2.399511e+01
2.401014e+01
2.400189e+01
2.397731e+01
2.394306e+01
2.389934e+01
2.385004e+01
2.380535e+01
2.377198e+01
2.375405e+01
2.375128e+01
2.375998e+01
2.377435e+01
2.379064e+01
2.380809e+01
2.382584e+01
2.384299e+01
2.385872e+01
2.387342e+01
2.388673e+01
2.389826e+01
2.390794e+01
2.391586e+01
2.392223e+01
2.392730e+01
2.393128e+01
2.393437e+01
2.393674e+01
2.393851e+01
2.393979e+01
2.394069e+01
2.394129e+01
2.394164e+01
2.394181e+01
2.394185e+01
2.394177e+01
2.394163e+01
2.394143e+01
2.394119e+01
2.394092e+01
2.394063e+01
2.394033e+01
2.394002e+01
2.393968e+01
2.393935e+01
2.393901e+01
2.393867e+01
2.393834e+01
2.393803e+01
2.393772e+01
2.393742e+01
2.393714e+01
2.393688e+01
2.393663e+01
2.393641e+01
2.393620e+01
2.393601e+01
2.393584e+01
2.393570e+01
2.393559e+01
2.393552e+01
2.393548e+01
2.393549e+01
2.393555e+01
2.393569e+01
2.393592e+01
2.393639e+01
2.393621e+01
2.438751e+01
2.438769e+01
2.439272e+01
2.439726e+01
2.439967e+01
2.439127e+01
2.433798e+01
2.410047e+01
2.337034e+01
2.346305e+01
2.356340e+01
2.357337e+01
2.356218e+01
2.354001e+01
2.350580e+01
2.347176e+01
2.345430e+01
2.345762e+01
2.347625e+01
2.349921e+01
2.352385e+01
2.354835e+01
2.357284e+01
2.359791e+01
2.362442e+01
2.365314e+01
2.368454e+01
2.371863e+01
2.375491e+01
2.379221e+01
2.382913e+01
2.386438e+01
2.389864e+01
2.393455e+01
2.396206e+01
2.396843e+01
2.395521e+01
2.393557e+01
2.391382e+01
2.388868e+01
2.385785e+01
2.382646e+01
2.379950e+01
2.378173e+01
2.377513e+01
2.377879e+01
2.378987e+01
2.380319e+01
2.381782e+01
2.383297e+01
2.384778e+01
2.386149e+01
2.387415e+01
2.388599e+01
2.389657e+01
2.390569e+01
2.391337e+01
2.391969e+01
2.392482e+01
2.392892e+01
2.393213e+01
2.393460e+01
2.393647e+01
2.393784e+01
2.393882e+01
2.393950e+01
2.393994e+01
2.394021e+01
2.394036e+01
2.394041e+01
2.394038e+01
2.394032e+01
2.394023e+01
2.394009e+01
2.393991e+01
2.393970e+01
2.393947e+01
2.393922e+01
2.393895e+01
2.393868e+01
2.393841e+01
2.393813e+01
2.393786e+01
2.393759e+01
2.393733e+01
2.393708e+01
2.393683e+01
2.393660e+01
2.393639e+01
2.393619e+01
2.393600e+01
2.393584e+01
2.393569e+01
2.393557e+01
2.393548e+01
2.393543e+01
2.393542e+01
2.393546e+01
2.393558e+01
2.393579e+01
2.393625e+01
2.393607e+01
2.438529e+01
2.438547e+01
2.439924e+01
2.441565e+01
2.443815e+01
2.447003e+01
2.451026e+01
2.462187e+01
2.399593e+01
2.353346e+01
2.360423e+01
2.357017e+01
2.355058e+01
2.354231e+01
2.351504e+01
2.347478e+01
2.345116e+01
2.344956e+01
2.346802e+01
2.349486e+01
2.352443e+01
2.355030e+01
2.357430e+01
2.359713e+01
2.362006e+01
2.364435e+01
2.367084e+01
2.369982e+01
2.373076e+01
2.376216e+01
2.379205e+01
2.381815e+01
2.385198e+01
2.388591e+01
2.390534e+01
2.390634e+01
2.389830e+01
2.388976e+01
2.388338e+01
2.387702e+01
2.386629e+01
2.384992e+01
2.383130e+01
2.381552e+01
2.380628e+01
2.380492e+01
2.381088e+01
2.382057e+01
2.383170e+01
2.384359e+01
2.385549e+01
2.386672e+01
2.387698e+01
2.388690e+01
2.389608e+01
2.390426e+01
2.391136e+01
2.391736e+01
2.392231e+01
2.392633e+01
2.392952e+01
2.393200e+01
2.393390e+01
2.393532e+01
2.393637e+01
2.393714e+01
2.393770e+01
2.393809e+01
2.393839e+01
2.393861e+01
2.393875e+01
2.393884e+01
2.393890e+01
2.393892e+01
2.393891e+01
2.393888e+01
2.393880e+01
2.393870e+01
2.393857e+01
2.393841e+01
2.393822e+01
2.393802e+01
2.393781e+01
2.393759e+01
2.393736e+01
2.393713e+01
2.393691e+01
2.393669e+01
2.393648e+01
2.393627e+01
2.393608e+01
2.393591e+01
2.393575e+01
2.393561e+01
2.393550e+01
2.393542e+01
2.393537e+01
2.393538e+01
2.393546e+01
2.393563e+01
2.393603e+01
2.393585e+01
2.438294e+01
2.438312e+01
2.440339e+01
2.442842e+01
2.446491e+01
2.452320e+01
2.462011e+01
2.475279e+01
2.477264e+01
0.000000e+00
2.355755e+01
2.355773e+01
2.353286e+01
2.351952e+01
2.349853e+01
2.347398e+01
2.345722e+01
2.345777e+01
2.347498e+01
2.350309e+01
2.353550e+01
2.356422e+01
2.358968e+01
2.361111e+01
2.363036e+01
2.364916e+01
2.366867e+01
2.368934e+01
2.371088e+01
2.373213e+01
2.375108e+01
2.377345e+01
2.379727e+01
2.381623e+01
2.382821e+01
2.383686e+01
2.384512e+01
2.385334e+01
2.386234e+01
2.387140e+01
2.387720e+01
2.387503e+01
2.386528e+01
2.385245e+01
2.384177e+01
2.383621e+01
2.383677e+01
2.384187e+01
2.384877e+01
2.385680e+01
2.386524e+01
2.387350e+01
2.388120e+01
2.388881e+01
2.389621e+01
2.390310e+01
2.390930e+01
2.391471e+01
2.391931e+01
2.392311e+01
2.392619e+01
2.392864e+01
2.393056e+01
2.393200e+01
2.393309e+01
2.393396e+01
2.393465e+01
2.393516e+01
2.393563e+01
2.393607e+01
2.393649e+01
2.393690e+01
2.393726e+01
2.393758e+01
2.393785e+01
2.393806e+01
2.393821e+01
2.393830e+01
2.393833e+01
2.393830e+01
2.393822e+01
2.393810e+01
2.393795e+01
2.393777e+01
2.393757e+01
2.393736e+01
2.393714e+01
2.393692e+01
2.393670e+01
2.393649e+01
2.393628e+01
2.393608e+01
2.393589e+01
2.393572e+01
2.393558e+01
2.393545e+01
2.393536e+01
2.393532e+01
2.393533e+01
2.393542e+01
2.393571e+01
2.393553e+01
2.438001e+01
2.438019e+01
2.440352e+01
2.443182e+01
2.447132e+01
2.452936e+01
2.461246e+01
2.471023e+01
2.479285e+01
2.479267e+01
0.000000e+00
2.351997e+01
2.352015e+01
2.349430e+01
2.347216e+01
2.345660e+01
2.345621e+01
2.347133e+01
2.349859e+01
2.353021e+01
2.356286e+01
2.359396e+01
2.362211e+01
2.364494e+01
2.366212e+01
2.367623e+01
2.368857e+01
2.369984e+01
2.371050e+01
2.371915e+01
2.372494e+01
2.372905e+01
2.373335e+01
2.373892e+01
2.375180e+01
2.377645e+01
2.380417e+01
2.383011e+01
2.385293e+01
2.387325e+01
2.389029e+01
2.389931e+01
2.389844e+01
2.389005e+01
2.387901e+01
2.387036e+01
2.386603e+01
2.386598e+01
2.386817e+01
2.387185e+01
2.387638e+01
2.388123e+01
2.388606e+01
2.389105e+01
2.389630e+01
2.390152e+01
2.390653e+01
2.391117e+01
2.391528e+01
2.391881e+01
2.392176e+01
2.392417e+01
2.392619e+01
2.392785e+01
2.392910e+01
2.393022e+01
2.393118e+01
2.393208e+01
2.393295e+01
2.393379e+01
2.393459e+01
2.393534e+01
2.393601e+01
2.393661e+01
2.393713e+01
2.393756e+01
2.393790e+01
2.393814e+01
2.393830e+01
2.393838e+01
2.393839e+01
2.393834e+01
2.393824e+01
2.393810e+01
2.393793e+01
2.393773e+01
2.393751e+01
2.393728e+01
2.393704e+01
2.393680e+01
2.393657e+01
2.393634e+01
2.393611e+01
2.393590e+01
2.393571e+01
2.393553e+01
2.393538e+01
2.393526e+01
2.393519e+01
2.393518e+01
2.393530e+01
2.393512e+01
2.437633e+01
2.437651e+01
2.439951e+01
2.442634e+01
2.446143e+01
2.450964e+01
2.457183e+01
2.462928e+01
2.465447e+01
2.440601e+01
2.440583e+01
0.000000e+00
2.348831e+01
2.345682e+01
2.343429e+01
2.342189e+01
2.343516e+01
2.347325e+01
2.352473e+01
2.357319e+01
2.361261e+01
2.364653e+01
2.367736e+01
2.370218e+01
2.371926e+01
2.373024e+01
2.373560e+01
2.373568e+01
2.373047e+01
2.372254e+01
2.370973e+01
2.369229e+01
2.367559e+01
2.366804e+01
2.369042e+01
2.373221e+01
2.377871e+01
2.382063e+01
2.385419e+01
2.388126e+01
2.390395e+01
2.392024e+01
2.392682e+01
2.392372e+01
2.391488e+01
2.390482e+01
2.389683e+01
2.389175e+01
2.388910e+01
2.388816e+01
2.388840e+01
2.388940e+01
2.389091e+01
2.389297e+01
2.389565e+01
2.389881e+01
2.390233e+01
2.390607e+01
2.390979e+01
2.391345e+01
2.391670e+01
2.391933e+01
2.392164e+01
2.392357e+01
2.392527e+01
2.392685e+01
2.392835e+01
2.392976e+01
2.393110e+01
2.393233e+01
2.393347e+01
2.393449e+01
2.393540e+01
2.393619e+01
2.393687e+01
2.393742e+01
2.393786e+01
2.393820e+01
2.393844e+01
2.393859e+01
2.393866e+01
2.393866e+01
2.393859e+01
2.393848e+01
2.393832e+01
2.393813e+01
2.393792e+01
2.393768e+01
2.393743e+01
2.393717e+01
2.393690e+01
2.393664e+01
2.393637e+01
2.393612e+01
2.393587e+01
2.393563e+01
2.393541e+01
2.393521e+01
2.393504e+01
2.393491e+01
2.393483e+01
2.393465e+01
2.437208e+01
2.437226e+01
2.439224e+01
2.441452e+01
2.444159e+01
2.447350e+01
2.450338e+01
2.450930e+01
2.444428e+01
2.432006e+01
2.389890e+01
2.357265e+01
2.338782e+01
2.343050e+01
2.341317e+01
2.340840e+01
2.343127e+01
2.348198e+01
2.354989e+01
2.361123e+01
2.365797e+01
2.369825e+01
2.373638e+01
2.376867e+01
2.378458e+01
2.378894e+01
2.378333e+01
2.376958e+01
2.375034e+01
2.372974e+01
2.369940e+01
2.366219e+01
2.362632e+01
2.361765e+01
2.365168e+01
2.370848e+01
2.376992e+01
2.382268e+01
2.386246e+01
2.389270e+01
2.391670e+01
2.393539e+01
2.394650e+01
2.394807e+01
2.394235e+01
2.393371e+01
2.392467e+01
2.391642e+01
2.390971e+01
2.390432e+01
2.390013e+01
2.389704e+01
2.389498e+01
2.389382e+01
2.389367e+01
2.389464e+01
2.389678e+01
2.390002e+01
2.390354e+01
2.390742e+01
2.391100e+01
2.391427e+01
2.391727e+01
2.391998e+01
2.392243e+01
2.392466e+01
2.392669e+01
2.392855e+01
2.393026e+01
2.393179e+01
2.393316e+01
2.393435e+01
2.393538e+01
2.393627e+01
2.393700e+01
2.393760e+01
2.393808e+01
2.393845e+01
2.393872e+01
2.393889e+01
2.393898e+01
2.393900e+01
2.393895e+01
2.393885e+01
2.393870e+01
2.393851e+01
2.393830e+01
2.393805e+01
2.393779e+01
2.393751e+01
2.393722e+01
2.393693e+01
2.393663e+01
2.393633e+01
2.393603e+01
2.393573e+01
2.393544e+01
2.393516e+01
2.393488e+01
2.393462e+01
2.393431e+01
2.393413e+01
2.436766e+01
2.436784e+01
2.438319e+01
2.439906e+01
2.441554e+01
2.442978e+01
2.443244e+01
2.440317e+01
2.430428e+01
2.412368e+01
2.384020e+01
2.324676e+01
2.334550e+01
2.341555e+01
2.342388e+01
2.342873e+01
2.345740e+01
2.351066e+01
2.357924e+01
2.364018e+01
2.368618e+01
2.373199e+01
2.377790e+01
2.381652e+01
2.383620e+01
2.383331e+01
2.381816e+01
2.379417e+01
2.376507e+01
2.373468e+01
2.369091e+01
2.363846e+01
2.359194e+01
2.359325e+01
2.363827e+01
2.370538e+01
2.377524e+01
2.383148e+01
2.387378e+01
2.390491e+01
2.392771e+01
2.394435e+01
2.395505e+01
2.395845e+01
2.395594e+01
2.395101e+01
2.394371e+01
2.393477e+01
2.392542e+01
2.391659e+01
2.390887e+01
2.390248e+01
2.389739e+01
2.389321e+01
2.389028e+01
2.388894e+01
2.388950e+01
2.389210e+01
2.389609e+01
2.390093e+01
2.390588e+01
2.391043e+01
2.391446e+01
2.391799e+01
2.392111e+01
2.392385e+01
2.392625e+01
2.392839e+01
2.393028e+01
2.393195e+01
2.393341e+01
2.393466e+01
2.393574e+01
2.393665e+01
2.393740e+01
2.393800e+01
2.393848e+01
2.393884e+01
2.393910e+01
2.393926e+01
2.393934e+01
2.393935e+01
2.393930e+01
2.393920e+01
2.393904e+01
2.393885e+01
2.393863e+01
2.393837e+01
2.393810e+01
2.393780e+01
2.393749e+01
2.393717e+01
2.393684e+01
2.393650e+01
2.393616e+01
2.393581e+01
2.393545e+01
2.393508e+01
2.393471e+01
2.393432e+01
2.393378e+01
2.393360e+01
2.436345e+01
2.436363e+01
2.437344e+01
2.438227e+01
2.438878e+01
2.438902e+01
2.437453e+01
2.433042e+01
2.423392e+01
2.406517e+01
2.383669e+01
2.352387e+01
2.347563e+01
2.347947e+01
2.347770e+01
2.347986e+01
2.350329e+01
2.354672e+01
2.360379e+01
2.365429e+01
2.370174e+01
2.374913e+01
2.379311e+01
2.382560e+01
2.384045e+01
2.383757e+01
2.382362e+01
2.380023e+01
2.376960e+01
2.373468e+01
2.368373e+01
2.362248e+01
2.358319e+01
2.359620e+01
2.364899e+01
2.372020e+01
2.378921e+01
2.384389e+01
2.388521e+01
2.391538e+01
2.393642e+01
2.394940e+01
2.395488e+01
2.395499e+01
2.395418e+01
2.395368e+01
2.395037e+01
2.394322e+01
2.393374e+01
2.392361e+01
2.391401e+01
2.390554e+01
2.389790e+01
2.389100e+01
2.388527e+01
2.388101e+01
2.388080e+01
2.388426e+01
2.389004e+01
2.389664e+01
2.390302e+01
2.390877e+01
2.391362e+01
2.391771e+01
2.392118e+01
2.392415e+01
2.392672e+01
2.392895e+01
2.393089e+01
2.393258e+01
2.393403e+01
2.393527e+01
2.393631e+01
2.393719e+01
2.393790e+01
2.393847e+01
2.393892e+01
2.393925e+01
2.393948e+01
2.393962e+01
2.393968e+01
2.393968e+01
2.393961e+01
2.393949e+01
2.393933e+01
2.393913e+01
2.393890e+01
2.393863e+01
2.393835e+01
2.393804e+01
2.393771e+01
2.393737e+01
2.393701e+01
2.393664e+01
2.393625e+01
2.393585e+01
2.393543e+01
2.393499e+01
2.393452e+01
2.393401e+01
2.393328e+01
2.393309e+01
2.435959e+01
2.435977e+01
2.436410e+01
2.436649e+01
2.436492e+01
2.435555e+01
2.433186e+01
2.428419e+01
2.419994e+01
2.406624e+01
2.388530e+01
2.367915e+01
2.359092e+01
2.355725e+01
2.354128e+01
2.353792e+01
2.355333e+01
2.358602e+01
2.362985e+01
2.367334e+01
2.371553e+01
2.375564e+01
2.378924e+01
2.381300e+01
2.382356e+01
2.382225e+01
2.381084e+01
2.379053e+01
2.376441e+01
2.373169e+01
2.368284e+01
2.362634e+01
2.360318e+01
2.362462e+01
2.367836e+01
2.374588e+01
2.380784e+01
2.385765e+01
2.389554e+01
2.392293e+01
2.394132e+01
2.395205e+01
2.395677e+01
2.395757e+01
2.395699e+01
2.395478e+01
2.395007e+01
2.394292e+01
2.393411e+01
2.392460e+01
2.391532e+01
2.390613e+01
2.389685e+01
2.388783e+01
2.387916e+01
2.387417e+01
2.387498e+01
2.388010e+01
2.388750e+01
2.389548e+01
2.390290e+01
2.390917e+01
2.391438e+01
2.391869e+01
2.392228e+01
2.392529e+01
2.392784e+01
2.393002e+01
2.393188e+01
2.393348e+01
2.393484e+01
2.393599e+01
2.393695e+01
2.393775e+01
2.393840e+01
2.393891e+01
2.393930e+01
2.393959e+01
2.393978e+01
2.393989e+01
2.393993e+01
2.393991e+01
2.393983e+01
2.393971e+01
2.393954e+01
2.393933e+01
2.393909e+01
2.393882e+01
2.393853e+01
2.393821e+01
2.393787e+01
2.393751e+01
2.393713e+01
2.393673e+01
2.393631e+01
2.393587e+01
2.393539e+01
2.393488e+01
2.393433e+01
2.393372e+01
2.393282e+01
2.393264e+01
2.435632e+01
2.435650e+01
2.435598e+01
2.435301e+01
2.434539e+01
2.432978e+01
2.430140e+01
2.425404e+01
2.418063e+01
2.407392e+01
2.393253e+01
2.377563e+01
2.367852e+01
2.362638e+01
2.359896e+01
2.358914e+01
2.359695e+01
2.361989e+01
2.365280e+01
2.368821e+01
2.372340e+01
2.375598e+01
2.378256e+01
2.380044e+01
2.380820e+01
2.380629e+01
2.379578e+01
2.377810e+01
2.375608e+01
2.372593e+01
2.368457e+01
2.364507e+01
2.363621e+01
2.366251e+01
2.371318e+01
2.377287e+01
2.382683e+01
2.387092e+01
2.390466e+01
2.392897e+01
2.394515e+01
2.395472e+01
2.395929e+01
2.396046e+01
2.395936e+01
2.395600e+01
2.395026e+01
2.394249e+01
2.393340e+01
2.392398e+01
2.391441e+01
2.390445e+01
2.389415e+01
2.388377e+01
2.387451e+01
2.387097e+01
2.387334e+01
2.387984e+01
2.388835e+01
2.389702e+01
2.390465e+01
2.391105e+01
2.391630e+01
2.392057e+01
2.392407e+01
2.392694e+01
2.392933e+01
2.393133e+01
2.393302e+01
2.393444e+01
2.393565e+01
2.393666e+01
2.393751e+01
2.393821e+01
2.393878e+01
2.393923e+01
2.393957e+01
2.393982e+01
2.393998e+01
2.394007e+01
2.394009e+01
2.394006e+01
2.393997e+01
2.393984e+01
2.393967e+01
2.393946e+01
2.393921e+01
2.393894e+01
2.393864e+01
2.393832e+01
2.393797e+01
2.393760e+01
2.393720e+01
2.393678e+01
2.393633e+01
2.393585e+01
2.393533e+01
2.393477e+01
2.393415e+01
2.393345e+01
2.393242e+01
2.393224e+01
2.435377e+01
2.435395e+01
2.434947e+01
2.434233e+01
2.433039e+01
2.431079e+01
2.427994e+01
2.423367e+01
2.416767e+01
2.407803e+01
2.396411e+01
2.383914e+01
2.374420e+01
2.368231e+01
2.364594e+01
2.363000e+01
2.363140e+01
2.364672e+01
2.367132e+01
2.369981e+01
2.372886e+01
2.375563e+01
2.377731e+01
2.379177e+01
2.379788e+01
2.379560e+01
2.378556e+01
2.376901e+01
2.374767e+01
2.371950e+01
2.368645e+01
2.366282e+01
2.366540e+01
2.369515e+01
2.374254e+01
2.379507e+01
2.384280e+01
2.388204e+01
2.391213e+01
2.393381e+01
2.394834e+01
2.395719e+01
2.396174e+01
2.396308e+01
2.396182e+01
2.395808e+01
2.395197e+01
2.394383e+01
2.393424e+01
2.392400e+01
2.391327e+01
2.390200e+01
2.389051e+01
2.387957e+01
2.387180e+01
2.387026e+01
2.387433e+01
2.388201e+01
2.389116e+01
2.389988e+01
2.390746e+01
2.391373e+01
2.391880e+01
2.392285e+01
2.392610e+01
2.392872e+01
2.393086e+01
2.393262e+01
2.393409e+01
2.393532e+01
2.393635e+01
2.393722e+01
2.393794e+01
2.393854e+01
2.393902e+01
2.393941e+01
2.393970e+01
2.393992e+01
2.394006e+01
2.394013e+01
2.394014e+01
2.394010e+01
2.394002e+01
2.393988e+01
2.393971e+01
2.393951e+01
2.393926e+01
2.393899e+01
2.393869e+01
2.393837e+01
2.393801e+01
2.393763e+01
2.393722e+01
2.393679e+01
2.393632e+01
2.393581e+01
2.393525e+01
2.393465e+01
2.393397e+01
2.393322e+01
2.393211e+01
2.393193e+01
2.435194e+01
2.435212e+01
2.434468e+01
2.433453e+01
2.431964e+01
2.429753e+01
2.426537e+01
2.422007e+01
2.415878e+01
2.407941e+01
2.398253e+01
2.387770e+01
2.378883e+01
2.372400e+01
2.368241e+01
2.366123e+01
2.365723e+01
2.366669e+01
2.368527e+01
2.370852e+01
2.373291e+01
2.375555e+01
2.377393e+01
2.378619e+01
2.379121e+01
2.378865e+01
2.377881e+01
2.376252e+01
2.374079e+01
2.371412e+01
2.368816e+01
2.367567e+01
2.368620e+01
2.371845e+01
2.376345e+01
2.381118e+01
2.385455e+01
2.389032e+01
2.391779e+01
2.393762e+01
2.395102e+01
2.395934e+01
2.396386e+01
2.396531e+01
2.396410e+01
2.396038e+01
2.395430e+01
2.394608e+01
2.393610e+01
2.392481e+01
2.391249e+01
2.389944e+01
2.388662e+01
2.387588e+01
2.387011e+01
2.387069e+01
2.387641e+01
2.388502e+01
2.389443e+01
2.390312e+01
2.391049e+01
2.391647e+01
2.392122e+01
2.392496e+01
2.392791e+01
2.393026e+01
2.393214e+01
2.393368e+01
2.393495e+01
2.393600e+01
2.393688e+01
2.393761e+01
2.393823e+01
2.393873e+01
2.393915e+01
2.393948e+01
2.393973e+01
2.393992e+01
2.394004e+01
2.394010e+01
2.394011e+01
2.394007e+01
2.393999e+01
2.393986e+01
2.393969e+01
2.393949e+01
2.393925e+01
2.393899e+01
2.393869e+01
2.393837e+01
2.393801e+01
2.393763e+01
2.393721e+01
2.393676e+01
2.393628e+01
2.393575e+01
2.393517e+01
2.393453e+01
2.393382e+01
2.393303e+01
2.393190e+01
2.393172e+01
2.435078e+01
2.435096e+01
2.434156e+01
2.432948e+01
2.431278e+01
2.428922e+01
2.425640e+01
2.421185e+01
2.415341e+01
2.407993e+01
2.399275e+01
2.389949e+01
2.381576e+01
2.375059e+01
2.370634e+01
2.368187e+01
2.367431e+01
2.367993e+01
2.369461e+01
2.371433e+01
2.373561e+01
2.375559e+01
2.377191e+01
2.378280e+01
2.378713e+01
2.378439e+01
2.377460e+01
2.375816e+01
2.373593e+01
2.371055e+01
2.368994e+01
2.368474e+01
2.370014e+01
2.373341e+01
2.377660e+01
2.382136e+01
2.386196e+01
2.389546e+01
2.392122e+01
2.393986e+01
2.395257e+01
2.396063e+01
2.396516e+01
2.396677e+01
2.396573e+01
2.396224e+01
2.395641e+01
2.394835e+01
2.393812e+01
2.392589e+01
2.391196e+01
2.389713e+01
2.388323e+01
2.387308e+01
2.386902e+01
2.387137e+01
2.387843e+01
2.388773e+01
2.389722e+01
2.390577e+01
2.391291e+01
2.391862e+01
2.392310e+01
2.392657e+01
2.392927e+01
2.393139e+01
2.393307e+01
2.393443e+01
2.393555e+01
2.393646e+01
2.393723e+01
2.393787e+01
2.393840e+01
2.393884e+01
2.393920e+01
2.393949e+01
2.393971e+01
2.393987e+01
2.393998e+01
2.394003e+01
2.394004e+01
2.394000e+01
2.393992e+01
2.393980e+01
2.393964e+01
2.393944e+01
2.393921e+01
2.393895e+01
2.393866e+01
2.393833e+01
2.393798e+01
2.393759e+01
2.393717e+01
2.393672e+01
2.393622e+01
2.393568e+01
2.393508e+01
2.393442e+01
2.393368e+01
2.393286e+01
2.393179e+01
2.393161e+01
2.435024e+01
2.435042e+01
2.434005e+01
2.432704e+01
2.430950e+01
2.428534e+01
2.425233e+01
2.420827e+01
2.415132e+01
2.408065e+01
2.399791e+01
2.390988e+01
2.382879e+01
2.376373e+01
2.371831e+01
2.369222e+01
2.368287e+01
2.368658e+01
2.369931e+01
2.371722e+01
2.373691e+01
2.375553e+01
2.377081e+01
2.378103e+01
2.378505e+01
2.378229e+01
2.377256e+01
2.375598e+01
2.373355e+01
2.370931e+01
2.369175e+01
2.368971e+01
2.370684e+01
2.374011e+01
2.378219e+01
2.382549e+01
2.386484e+01
2.389739e+01
2.392247e+01
2.394067e+01
2.395314e+01
2.396114e+01
2.396566e+01
2.396731e+01
2.396642e+01
2.396315e+01
2.395757e+01
2.394972e+01
2.393949e+01
2.392675e+01
2.391180e+01
2.389590e+01
2.388158e+01
2.387195e+01
2.386889e+01
2.387214e+01
2.387973e+01
2.388917e+01
2.389862e+01
2.390709e+01
2.391412e+01
2.391972e+01
2.392406e+01
2.392740e+01
2.392997e+01
2.393198e+01
2.393355e+01
2.393482e+01
2.393585e+01
2.393670e+01
2.393741e+01
2.393800e+01
2.393849e+01
2.393890e+01
2.393923e+01
2.393950e+01
2.393971e+01
2.393986e+01
2.393995e+01
2.394000e+01
2.394000e+01
2.393996e+01
2.393988e+01
2.393976e+01
2.393960e+01
2.393940e+01
2.393917e+01
2.393891e+01
2.393862e+01
2.393830e+01
2.393795e+01
2.393756e+01
2.393714e+01
2.393668e+01
2.393618e+01
2.393563e+01
2.393502e+01
2.393435e+01
2.393358e+01
2.393270e+01
2.393171e+01
2.393152e+01
0.000000e+00
2.435024e+01
2.433987e+01
2.432686e+01
2.430932e+01
2.428516e+01
2.425215e+01
2.420809e+01
2.415114e+01
2.408047e+01
2.399773e+01
2.390970e+01
2.382861e+01
2.376355e+01
2.371813e+01
2.369204e+01
2.368269e+01
2.368639e+01
2.369913e+01
2.371704e+01
2.373673e+01
2.375535e+01
2.377063e+01
2.378085e+01
2.378487e+01
2.378211e+01
2.377238e+01
2.375580e+01
2.373337e+01
2.370913e+01
2.369156e+01
2.368952e+01
2.370665e+01
2.373992e+01
2.378201e+01
2.382531e+01
2.386466e+01
2.389721e+01
2.392229e+01
2.394049e+01
2.395296e+01
2.396096e+01
2.396548e+01
2.396713e+01
2.396624e+01
2.396296e+01
2.395739e+01
2.394953e+01
2.393931e+01
2.392657e+01
2.391162e+01
2.389572e+01
2.388140e+01
2.387177e+01
2.386871e+01
2.387196e+01
2.387955e+01
2.388899e+01
2.389844e+01
2.390690e+01
2.391394e+01