# vtk DataFile Version 3.0
Scalar Field
ASCII
DATASET RECTILINEAR_GRID
DIMENSIONS 102 22 1
X_COORDINATES 102 double
0.000000 0.100000 0.200000 0.300000 0.400000 0.500000 0.600000 0.700000 0.800000 0.900000 1.000000 1.100000 1.200000 1.300000 1.400000 1.500000 1.600000 1.700000 1.800000 1.900000 2.000000 2.100000 2.200000 2.300000 2.400000 2.500000 2.600000 2.700000 2.800000 2.900000 3.000000 3.100000 3.200000 3.300000 3.400000 3.500000 3.600000 3.700000 3.800000 3.900000 4.000000 4.100000 4.200000 4.300000 4.400000 4.500000 4.600000 4.700000 4.800000 4.900000 5.000000 5.100000 5.200000 5.300000 5.400000 5.500000 5.600000 5.700000 5.800000 5.900000 6.000000 6.100000 6.200000 6.300000 6.400000 6.500000 6.600000 6.700000 6.800000 6.900000 7.000000 7.100000 7.200000 7.300000 7.400000 7.500000 7.600000 7.700000 7.800000 7.900000 8.000000 8.100000 8.200000 8.300000 8.400000 8.500000 8.600000 8.700000 8.800000 8.900000 9.000000 9.100000 9.200000 9.300000 9.400000 9.500000 9.600000 9.700000 9.800000 9.900000 10.000000 10.100000 
Y_COORDINATES 22 double
0.000000 0.100000 0.200000 0.300000 0.400000 0.500000 0.600000 0.700000 0.800000 0.900000 1.000000 1.100000 1.200000 1.300000 1.400000 1.500000 1.600000 1.700000 1.800000 1.900000 2.000000 2.100000 
Z_COORDINATES 1 double
0.0
POINT_DATA 2244
SCALARS Pressure double 1
LOOKUP_TABLE default
0.000000e+00
6.715912e+01
6.712638e+01
6.708915e+01
6.704351e+01
6.698545e+01
6.691114e+01
6.681918e+01
6.670912e+01
6.660233e+01
6.651552e+01
6.645368e+01
6.641458e+01
6.639341e+01
6.638562e+01
6.638768e+01
6.639713e+01
6.641229e+01
6.643201e+01
6.645557e+01
6.648262e+01
6.651294e+01
6.654624e+01
6.658175e+01
6.661784e+01
6.665193e+01
6.668042e+01
6.669858e+01
6.670275e+01
6.669284e+01
6.667300e+01
6.664967e+01
6.662912e+01
6.661558e+01
6.661091e+01
6.661529e+01
6.662827e+01
6.664900e+01
6.667618e+01
6.670810e+01
6.674274e+01
6.677792e+01
6.681150e+01
6.684144e+01
6.686619e+01
6.688509e+01
6.689852e+01
6.690763e+01
6.691373e+01
6.691797e+01
6.692169e+01
6.692418e+01
6.692411e+01
6.691980e+01
6.690959e+01
6.689240e+01
6.686815e+01
6.683825e+01
6.680522e+01
6.677255e+01
6.674411e+01
6.672339e+01
6.671279e+01
6.671318e+01
6.672289e+01
6.674119e+01
6.676673e+01
6.679693e+01
6.682779e+01
6.685447e+01
6.687308e+01
6.688252e+01
6.688509e+01
6.688402e+01
6.688170e+01
6.687928e+01
6.687744e+01
6.687610e+01
6.687479e+01
6.687303e+01
6.687042e+01
6.686658e+01
6.686127e+01
6.685433e+01
6.684582e+01
6.683594e+01
6.682498e+01
6.681332e+01
6.680142e+01
6.678975e+01
6.677882e+01
6.676912e+01
6.676104e+01
6.675482e+01
6.675051e+01
6.674787e+01
6.674639e+01
6.674524e+01
6.674367e+01
6.674054e+01
6.672939e+01
0.000000e+00
6.715912e+01
6.715870e+01
6.712596e+01
6.708873e+01
6.704309e+01
6.698503e+01
6.691072e+01
6.681876e+01
6.670870e+01
6.660191e+01
6.651510e+01
6.645327e+01
6.641416e+01
6.639299e+01
6.638520e+01
6.638726e+01
6.639671e+01
6.641187e+01
6.643159e+01
6.645516e+01
6.648220e+01
6.651252e+01
6.654583e+01
6.658133e+01
6.661742e+01
6.665151e+01
6.668000e+01
6.669816e+01
6.670233e+01
6.669242e+01
6.667258e+01
6.664925e+01
6.662870e+01
6.661516e+01
6.661049e+01
6.661487e+01
6.662785e+01
6.664858e+01
6.667576e+01
6.670768e+01
6.674232e+01
6.677750e+01
6.681108e+01
6.684102e+01
6.686577e+01
6.688467e+01
6.689810e+01
6.690721e+01
6.691331e+01
6.691755e+01
6.692127e+01
6.692376e+01
6.692369e+01
6.691938e+01
6.690917e+01
6.689198e+01
6.686773e+01
6.683783e+01
6.680480e+01
6.677213e+01
6.674369e+01
6.672297e+01
6.671237e+01
6.671276e+01
6.672247e+01
6.674077e+01
6.676631e+01
6.679651e+01
6.682738e+01
6.685405e+01
6.687266e+01
6.688210e+01
6.688467e+01
6.688360e+01
6.688128e+01
6.687886e+01
6.687702e+01
6.687569e+01
6.687437e+01
6.687261e+01
6.687000e+01
6.686616e+01
6.686085e+01
6.685391e+01
6.684540e+01
6.683552e+01
6.682456e+01
6.681291e+01
6.680100e+01
6.678933e+01
6.677840e+01
6.676870e+01
6.676062e+01
6.675440e+01
6.675009e+01
6.674745e+01
6.674597e+01
6.674482e+01
6.674325e+01
6.674012e+01
6.672897e+01
6.672939e+01
6.715824e+01
6.715782e+01
6.712660e+01
6.709062e+01
6.704571e+01
6.698738e+01
6.691108e+01
6.681517e+01
6.669527e+01
6.658398e+01
6.649831e+01
6.643985e+01
6.640419e+01
6.638572e+01
6.637971e+01
6.638287e+01
6.639296e+01
6.640845e+01
6.642829e+01
6.645176e+01
6.647849e+01
6.650832e+01
6.654102e+01
6.657608e+01
6.661240e+01
6.664799e+01
6.667912e+01
6.670071e+01
6.670798e+01
6.669955e+01
6.667925e+01
6.665377e+01
6.663026e+01
6.661441e+01
6.660839e+01
6.661195e+01
6.662441e+01
6.664472e+01
6.667152e+01
6.670313e+01
6.673748e+01
6.677241e+01
6.680590e+01
6.683607e+01
6.686123e+01
6.688070e+01
6.689471e+01
6.690428e+01
6.691065e+01
6.691481e+01
6.691776e+01
6.691905e+01
6.691758e+01
6.691199e+01
6.690088e+01
6.688342e+01
6.685952e+01
6.683049e+01
6.679877e+01
6.676764e+01
6.674075e+01
6.672137e+01
6.671182e+01
6.671350e+01
6.672406e+01
6.674297e+01
6.676853e+01
6.679755e+01
6.682558e+01
6.684855e+01
6.686458e+01
6.687352e+01
6.687693e+01
6.687727e+01
6.687637e+01
6.687518e+01
6.687410e+01
6.687312e+01
6.687191e+01
6.687013e+01
6.686747e+01
6.686363e+01
6.685839e+01
6.685161e+01
6.684329e+01
6.683363e+01
6.682295e+01
6.681162e+01
6.680008e+01
6.678880e+01
6.677827e+01
6.676893e+01
6.676116e+01
6.675519e+01
6.675107e+01
6.674870e+01
6.674777e+01
6.674725e+01
6.674650e+01
6.674455e+01
6.673585e+01
6.673627e+01
6.715717e+01
6.715675e+01
6.712868e+01
6.709552e+01
6.705260e+01
6.699429e+01
6.691412e+01
6.680900e+01
6.666542e+01
6.654575e+01
6.646414e+01
6.641342e+01
6.638497e+01
6.637191e+01
6.636929e+01
6.637445e+01
6.638567e+01
6.640173e+01
6.642173e+01
6.644502e+01
6.647119e+01
6.650009e+01
6.653161e+01
6.656565e+01
6.660187e+01
6.663979e+01
6.667663e+01
6.670589e+01
6.671988e+01
6.671385e+01
6.669232e+01
6.666312e+01
6.663445e+01
6.661371e+01
6.660482e+01
6.660666e+01
6.661797e+01
6.663731e+01
6.666313e+01
6.669370e+01
6.672716e+01
6.676143e+01
6.679460e+01
6.682495e+01
6.685091e+01
6.687161e+01
6.688700e+01
6.689774e+01
6.690489e+01
6.690936e+01
6.691173e+01
6.691173e+01
6.690865e+01
6.690166e+01
6.688985e+01
6.687233e+01
6.684892e+01
6.682110e+01
6.679115e+01
6.676213e+01
6.673737e+01
6.671993e+01
6.671222e+01
6.671561e+01
6.672715e+01
6.674611e+01
6.677033e+01
6.679632e+01
6.682002e+01
6.683892e+01
6.685257e+01
6.686097e+01
6.686559e+01
6.686778e+01
6.686866e+01
6.686890e+01
6.686884e+01
6.686844e+01
6.686754e+01
6.686596e+01
6.686347e+01
6.685983e+01
6.685483e+01
6.684835e+01
6.684037e+01
6.683107e+01
6.682083e+01
6.681001e+01
6.679903e+01
6.678834e+01
6.677839e+01
6.676960e+01
6.676232e+01
6.675680e+01
6.675316e+01
6.675144e+01
6.675140e+01
6.675192e+01
6.675246e+01
6.675217e+01
6.674772e+01
6.674813e+01
6.715634e+01
6.715592e+01
6.713277e+01
6.710428e+01
6.706507e+01
6.700745e+01
6.692083e+01
6.679653e+01
6.660751e+01
6.648061e+01
6.641189e+01
6.637545e+01
6.635800e+01
6.635270e+01
6.635463e+01
6.636243e+01
6.637513e+01
6.639193e+01
6.641213e+01
6.643515e+01
6.646061e+01
6.648834e+01
6.651846e+01
6.655128e+01
6.658720e+01
6.662670e+01
6.667030e+01
6.671094e+01
6.673711e+01
6.673647e+01
6.671228e+01
6.667715e+01
6.664147e+01
6.661347e+01
6.659966e+01
6.659882e+01
6.660844e+01
6.662644e+01
6.665100e+01
6.668043e+01
6.671288e+01
6.674641e+01
6.677910e+01
6.680937e+01
6.683606e+01
6.685815e+01
6.687525e+01
6.688760e+01
6.689593e+01
6.690106e+01
6.690338e+01
6.690233e+01
6.689795e+01
6.688987e+01
6.687748e+01
6.686020e+01
6.683785e+01
6.681186e+01
6.678438e+01
6.675811e+01
6.673609e+01
6.672118e+01
6.671591e+01
6.672100e+01
6.673324e+01
6.675148e+01
6.677332e+01
6.679546e+01
6.681467e+01
6.683013e+01
6.684170e+01
6.684953e+01
6.685460e+01
6.685783e+01
6.685990e+01
6.686120e+01
6.686194e+01
6.686220e+01
6.686170e+01
6.686040e+01
6.685818e+01
6.685486e+01
6.685028e+01
6.684433e+01
6.683697e+01
6.682830e+01
6.681875e+01
6.680869e+01
6.679851e+01
6.678862e+01
6.677946e+01
6.677141e+01
6.676482e+01
6.675996e+01
6.675705e+01
6.675627e+01
6.675717e+01
6.675874e+01
6.676051e+01
6.676172e+01
6.676174e+01
6.676216e+01
6.715626e+01
6.715585e+01
6.713949e+01
6.711799e+01
6.708535e+01
6.703082e+01
6.693543e+01
6.677205e+01
6.650348e+01
6.638571e+01
6.634350e+01
6.632761e+01
6.632458e+01
6.632891e+01
6.633618e+01
6.634706e+01
6.636153e+01
6.637923e+01
6.639968e+01
6.642241e+01
6.644709e+01
6.647362e+01
6.650237e+01
6.653425e+01
6.657013e+01
6.661077e+01
6.665629e+01
6.670622e+01
6.675160e+01
6.676513e+01
6.674009e+01
6.669596e+01
6.665064e+01
6.661533e+01
6.659444e+01
6.659045e+01
6.659798e+01
6.661429e+01
6.663731e+01
6.666532e+01
6.669658e+01
6.672921e+01
6.676133e+01
6.679130e+01
6.681855e+01
6.684188e+01
6.686059e+01
6.687461e+01
6.688440e+01
6.689058e+01
6.689339e+01
6.689153e+01
6.688585e+01
6.687678e+01
6.686424e+01
6.684785e+01
6.682737e+01
6.680407e+01
6.677986e+01
6.675707e+01
6.673839e+01
6.672652e+01
6.672396e+01
6.673031e+01
6.674255e+01
6.675922e+01
6.677794e+01
6.679597e+01
6.681105e+01
6.682352e+01
6.683315e+01
6.684020e+01
6.684529e+01
6.684896e+01
6.685157e+01
6.685336e+01
6.685445e+01
6.685497e+01
6.685473e+01
6.685366e+01
6.685174e+01
6.684888e+01
6.684493e+01
6.683975e+01
6.683329e+01
6.682559e+01
6.681701e+01
6.680797e+01
6.679881e+01
6.678995e+01
6.678177e+01
6.677465e+01
6.676895e+01
6.676497e+01
6.676297e+01
6.676313e+01
6.676465e+01
6.676684e+01
6.676930e+01
6.677145e+01
6.677502e+01
6.677543e+01
6.715739e+01
6.715697e+01
6.714921e+01
6.713749e+01
6.711628e+01
6.707228e+01
6.697291e+01
6.673945e+01
6.632166e+01
6.625240e+01
6.626362e+01
6.627553e+01
6.628846e+01
6.630251e+01
6.631495e+01
6.632901e+01
6.634538e+01
6.636413e+01
6.638494e+01
6.640736e+01
6.643114e+01
6.645643e+01
6.648369e+01
6.651449e+01
6.654997e+01
6.659112e+01
6.663786e+01
6.668891e+01
6.673792e+01
6.677150e+01
6.675900e+01
6.671537e+01
6.666228e+01
6.662166e+01
6.659649e+01
6.658781e+01
6.659330e+01
6.660723e+01
6.662766e+01
6.665327e+01
6.668248e+01
6.671352e+01
6.674447e+01
6.677345e+01
6.680062e+01
6.682480e+01
6.684497e+01
6.686068e+01
6.687190e+01
6.687880e+01
6.688151e+01
6.687836e+01
6.687139e+01
6.686185e+01
6.685006e+01
6.683564e+01
6.681818e+01
6.679867e+01
6.677862e+01
6.676002e+01
6.674522e+01
6.673668e+01
6.673659e+01
6.674343e+01
6.675473e+01
6.676896e+01
6.678406e+01
6.679795e+01
6.680939e+01
6.681908e+01
6.682681e+01
6.683284e+01
6.683751e+01
6.684108e+01
6.684371e+01
6.684551e+01
6.684657e+01
6.684700e+01
6.684680e+01
6.684585e+01
6.684424e+01
6.684194e+01
6.683881e+01
6.683469e+01
6.682945e+01
6.682307e+01
6.681581e+01
6.680806e+01
6.680017e+01
6.679252e+01
6.678550e+01
6.677948e+01
6.677480e+01
6.677177e+01
6.677058e+01
6.677123e+01
6.677286e+01
6.677507e+01
6.677750e+01
6.678013e+01
6.678532e+01
6.678574e+01
6.715987e+01
6.715945e+01
6.716149e+01
6.716218e+01
6.715899e+01
6.714187e+01
6.707347e+01
6.680535e+01
6.599847e+01
6.607720e+01
6.619496e+01
6.623469e+01
6.625719e+01
6.627728e+01
6.629277e+01
6.630959e+01
6.632777e+01
6.634761e+01
6.636883e+01
6.639082e+01
6.641320e+01
6.643629e+01
6.646098e+01
6.648842e+01
6.651819e+01
6.654967e+01
6.658310e+01
6.663158e+01
6.669208e+01
6.672449e+01
6.671881e+01
6.669981e+01
6.666883e+01
6.663785e+01
6.661362e+01
6.660131e+01
6.660231e+01
6.661282e+01
6.662911e+01
6.665052e+01
6.667592e+01
6.670371e+01
6.673202e+01
6.675882e+01
6.678432e+01
6.680809e+01
6.682882e+01
6.684550e+01
6.685737e+01
6.686408e+01
6.686553e+01
6.686099e+01
6.685354e+01
6.684482e+01
6.683520e+01
6.682415e+01
6.681097e+01
6.679630e+01
6.678118e+01
6.676729e+01
6.675667e+01
6.675140e+01
6.675309e+01
6.675946e+01
6.676890e+01
6.678002e+01
6.679123e+01
6.680114e+01
6.680934e+01
6.681637e+01
6.682220e+01
6.682699e+01
6.683089e+01
6.683394e+01
6.683618e+01
6.683764e+01
6.683839e+01
6.683854e+01
6.683817e+01
6.683725e+01
6.683592e+01
6.683423e+01
6.683207e+01
6.682925e+01
6.682555e+01
6.682084e+01
6.681523e+01
6.680907e+01
6.680265e+01
6.679635e+01
6.679056e+01
6.678565e+01
6.678192e+01
6.677962e+01
6.677882e+01
6.677943e+01
6.678075e+01
6.678256e+01
6.678462e+01
6.678725e+01
6.679228e+01
6.679270e+01
6.716339e+01
6.716298e+01
6.717459e+01
6.718837e+01
6.720711e+01
6.723318e+01
6.726310e+01
6.736285e+01
6.668108e+01
6.615285e+01
6.622766e+01
6.623324e+01
6.624589e+01
6.626292e+01
6.627782e+01
6.629688e+01
6.631547e+01
6.633510e+01
6.635538e+01
6.637521e+01
6.639359e+01
6.641043e+01
6.642690e+01
6.644512e+01
6.646465e+01
6.648515e+01
6.651575e+01
6.655094e+01
6.658829e+01
6.661581e+01
6.663483e+01
6.664988e+01
6.666009e+01
6.665918e+01
6.664618e+01
6.663296e+01
6.662759e+01
6.663215e+01
6.664342e+01
6.665915e+01
6.667902e+01
6.670176e+01
6.672564e+01
6.674874e+01
6.677057e+01
6.679197e+01
6.681134e+01
6.682707e+01
6.683778e+01
6.684302e+01
6.684266e+01
6.683801e+01
6.683210e+01
6.682618e+01
6.682044e+01
6.681419e+01
6.680648e+01
6.679742e+01
6.678768e+01
6.677868e+01
6.677213e+01
6.676963e+01
6.677198e+01
6.677709e+01
6.678400e+01
6.679165e+01
6.679897e+01
6.680521e+01
6.681039e+01
6.681490e+01
6.681880e+01
6.682216e+01
6.682498e+01
6.682718e+01
6.682874e+01
6.682964e+01
6.682993e+01
6.682974e+01
6.682915e+01
6.682822e+01
6.682717e+01
6.682611e+01
6.682500e+01
6.682362e+01
6.682169e+01
6.681894e+01
6.681528e+01
6.681094e+01
6.680614e+01
6.680124e+01
6.679662e+01
6.679262e+01
6.678954e+01
6.678756e+01
6.678673e+01
6.678697e+01
6.678780e+01
6.678910e+01
6.679076e+01
6.679313e+01
6.679698e+01
6.679740e+01
6.716725e+01
6.716683e+01
6.718590e+01
6.720974e+01
6.724478e+01
6.730150e+01
6.739730e+01
6.753119e+01
6.756331e+01
0.000000e+00
6.624318e+01
6.624276e+01
6.625435e+01
6.627186e+01
6.628292e+01
6.629946e+01
6.631808e+01
6.633681e+01
6.635503e+01
6.637156e+01
6.638535e+01
6.639645e+01
6.640593e+01
6.641378e+01
6.641830e+01
6.642239e+01
6.643215e+01
6.645309e+01
6.649183e+01
6.653970e+01
6.658508e+01
6.662474e+01
6.665923e+01
6.668458e+01
6.669035e+01
6.668019e+01
6.666895e+01
6.666552e+01
6.666972e+01
6.667842e+01
6.669136e+01
6.670746e+01
6.672520e+01
6.674284e+01
6.675874e+01
6.677511e+01
6.679027e+01
6.680221e+01
6.680953e+01
6.681256e+01
6.681156e+01
6.680943e+01
6.680792e+01
6.680731e+01
6.680722e+01
6.680689e+01
6.680536e+01
6.680220e+01
6.679785e+01
6.679346e+01
6.679041e+01
6.678981e+01
6.679179e+01
6.679511e+01
6.679915e+01
6.680326e+01
6.680691e+01
6.680980e+01
6.681214e+01
6.681423e+01
6.681612e+01
6.681783e+01
6.681927e+01
6.682035e+01
6.682101e+01
6.682125e+01
6.682111e+01
6.682066e+01
6.681999e+01
6.681918e+01
6.681848e+01
6.681809e+01
6.681804e+01
6.681814e+01
6.681807e+01
6.681742e+01
6.681590e+01
6.681349e+01
6.681037e+01
6.680681e+01
6.680319e+01
6.679985e+01
6.679710e+01
6.679512e+01
6.679403e+01
6.679376e+01
6.679406e+01
6.679490e+01
6.679622e+01
6.679823e+01
6.680098e+01
6.680140e+01
6.717070e+01
6.717028e+01
6.719336e+01
6.722179e+01
6.726180e+01
6.732133e+01
6.740673e+01
6.750979e+01
6.759458e+01
6.759500e+01
0.000000e+00
6.630213e+01
6.630172e+01
6.630927e+01
6.631890e+01
6.633134e+01
6.634758e+01
6.636451e+01
6.637991e+01
6.639224e+01
6.640037e+01
6.640384e+01
6.640211e+01
6.639564e+01
6.638420e+01
6.637078e+01
6.636118e+01
6.637411e+01
6.642655e+01
6.649587e+01
6.656350e+01
6.662068e+01
6.666791e+01
6.670816e+01
6.673106e+01
6.673285e+01
6.672083e+01
6.670946e+01
6.670580e+01
6.670679e+01
6.671188e+01
6.672008e+01
6.672998e+01
6.673990e+01
6.674783e+01
6.675632e+01
6.676385e+01
6.676856e+01
6.677020e+01
6.677054e+01
6.677288e+01
6.677778e+01
6.678414e+01
6.679096e+01
6.679758e+01
6.680345e+01
6.680785e+01
6.681037e+01
6.681100e+01
6.681053e+01
6.681010e+01
6.681038e+01
6.681142e+01
6.681268e+01
6.681381e+01
6.681457e+01
6.681485e+01
6.681470e+01
6.681434e+01
6.681400e+01
6.681372e+01
6.681349e+01
6.681325e+01
6.681295e+01
6.681257e+01
6.681210e+01
6.681160e+01
6.681111e+01
6.681067e+01
6.681039e+01
6.681046e+01
6.681101e+01
6.681208e+01
6.681358e+01
6.681519e+01
6.681648e+01
6.681701e+01
6.681651e+01
6.681497e+01
6.681263e+01
6.680984e+01
6.680697e+01
6.680436e+01
6.680224e+01
6.680077e+01
6.679993e+01
6.679969e+01
6.680006e+01
6.680102e+01
6.680268e+01
6.680506e+01
6.680548e+01
6.717330e+01
6.717288e+01
6.719645e+01
6.722451e+01
6.726144e+01
6.731166e+01
6.737830e+01
6.744366e+01
6.747163e+01
6.725122e+01
6.725163e+01
0.000000e+00
6.632723e+01
6.635191e+01
6.635545e+01
6.637122e+01
6.638914e+01
6.640408e+01
6.641427e+01
6.641945e+01
6.641917e+01
6.641391e+01
6.640290e+01
6.638725e+01
6.636263e+01
6.633061e+01
6.630379e+01
6.632522e+01
6.639282e+01
6.647970e+01
6.656426e+01
6.663254e+01
6.668434e+01
6.672797e+01
6.676305e+01
6.677874e+01
6.677506e+01
6.676097e+01
6.674973e+01
6.674300e+01
6.673995e+01
6.673947e+01
6.674007e+01
6.674010e+01
6.673812e+01
6.673546e+01
6.673129e+01
6.672661e+01
6.672329e+01
6.672456e+01
6.673388e+01
6.674815e+01
6.676401e+01
6.677922e+01
6.679274e+01
6.680417e+01
6.681357e+01
6.682074e+01
6.682555e+01
6.682834e+01
6.682971e+01
6.683003e+01
6.682973e+01
6.682883e+01
6.682729e+01
6.682517e+01
6.682258e+01
6.681972e+01
6.681680e+01
6.681393e+01
6.681123e+01
6.680875e+01
6.680650e+01
6.680453e+01
6.680290e+01
6.680164e+01
6.680082e+01
6.680049e+01
6.680087e+01
6.680187e+01
6.680338e+01
6.680536e+01
6.680779e+01
6.681061e+01
6.681361e+01
6.681643e+01
6.681853e+01
6.681953e+01
6.681933e+01
6.681806e+01
6.681601e+01
6.681352e+01
6.681097e+01
6.680861e+01
6.680672e+01
6.680534e+01
6.680453e+01
6.680438e+01
6.680496e+01
6.680636e+01
6.680883e+01
6.680924e+01
6.717501e+01
6.717459e+01
6.719582e+01
6.722004e+01
6.724978e+01
6.728612e+01
6.732209e+01
6.733602e+01
6.728114e+01
6.717398e+01
6.678772e+01
6.648938e+01
6.632945e+01
6.636424e+01
6.637523e+01
6.639947e+01
6.641932e+01
6.643139e+01
6.643806e+01
6.643989e+01
6.643574e+01
6.642504e+01
6.640806e+01
6.638438e+01
6.634732e+01
6.629877e+01
6.627456e+01
6.631047e+01
6.639073e+01
6.648822e+01
6.658135e+01
6.665374e+01
6.670834e+01
6.675054e+01
6.678646e+01
6.681321e+01
6.682155e+01
6.681400e+01
6.679906e+01
6.678598e+01
6.677545e+01
6.676614e+01
6.675638e+01
6.674487e+01
6.673118e+01
6.671578e+01
6.669996e+01
6.668626e+01
6.667716e+01
6.668172e+01
6.669970e+01
6.672440e+01
6.675016e+01
6.677355e+01
6.679294e+01
6.680882e+01
6.682190e+01
6.683234e+01
6.684002e+01
6.684491e+01
6.684724e+01
6.684723e+01
6.684578e+01
6.684315e+01
6.683952e+01
6.683508e+01
6.683010e+01
6.682483e+01
6.681952e+01
6.681417e+01
6.680894e+01
6.680398e+01
6.679944e+01
6.679551e+01
6.679235e+01
6.679008e+01
6.678878e+01
6.678874e+01
6.679049e+01
6.679354e+01
6.679732e+01
6.680145e+01
6.680564e+01
6.680982e+01
6.681385e+01
6.681754e+01
6.682046e+01
6.682224e+01
6.682273e+01
6.682207e+01
6.682046e+01
6.681816e+01
6.681571e+01
6.681331e+01
6.681115e+01
6.680937e+01
6.680812e+01
6.680756e+01
6.680785e+01
6.680920e+01
6.681252e+01
6.681294e+01
6.717601e+01
6.717560e+01
6.719262e+01
6.721120e+01
6.723147e+01
6.725081e+01
6.726014e+01
6.723956e+01
6.715307e+01
6.699074e+01
6.673365e+01
6.619020e+01
6.629381e+01
6.636601e+01
6.639554e+01
6.642178e+01
6.643683e+01
6.644635e+01
6.645306e+01
6.645430e+01
6.644796e+01
6.643404e+01
6.641345e+01
6.638249e+01
6.633299e+01
6.628326e+01
6.627838e+01
6.632863e+01
6.641614e+01
6.651631e+01
6.660553e+01
6.667614e+01
6.673074e+01
6.677231e+01
6.680504e+01
6.683319e+01
6.685222e+01
6.685609e+01
6.684600e+01
6.683128e+01
6.681443e+01
6.679575e+01
6.677484e+01
6.675237e+01
6.672774e+01
6.670046e+01
6.667342e+01
6.665021e+01
6.663693e+01
6.664755e+01
6.667496e+01
6.670971e+01
6.674439e+01
6.677417e+01
6.679788e+01
6.681681e+01
6.683210e+01
6.684436e+01
6.685360e+01
6.685964e+01
6.686241e+01
6.686216e+01
6.685993e+01
6.685608e+01
6.685088e+01
6.684462e+01
6.683762e+01
6.683019e+01
6.682265e+01
6.681487e+01
6.680709e+01
6.679956e+01
6.679257e+01
6.678646e+01
6.678150e+01
6.677793e+01
6.677583e+01
6.677625e+01
6.677978e+01
6.678545e+01
6.679223e+01
6.679922e+01
6.680560e+01
6.681120e+01
6.681601e+01
6.682001e+01
6.682296e+01
6.682452e+01
6.682466e+01
6.682398e+01
6.682259e+01
6.682066e+01
6.681844e+01
6.681613e+01
6.681389e+01
6.681190e+01
6.681035e+01
6.680948e+01
6.680947e+01
6.681077e+01
6.681544e+01
6.681586e+01
6.717660e+01
6.717618e+01
6.718819e+01
6.720024e+01
6.721095e+01
6.721659e+01
6.720888e+01
6.717334e+01
6.708822e+01
6.693529e+01
6.672816e+01
6.644387e+01
6.640806e+01
6.641936e+01
6.643069e+01
6.644305e+01
6.645162e+01
6.645919e+01
6.646156e+01
6.645816e+01
6.644913e+01
6.643479e+01
6.641579e+01
6.638232e+01
6.633462e+01
6.630322e+01
6.631616e+01
6.637430e+01
6.646048e+01
6.655398e+01
6.663415e+01
6.669893e+01
6.675001e+01
6.678980e+01
6.682001e+01
6.684247e+01
6.686052e+01
6.687166e+01
6.687198e+01
6.686231e+01
6.684437e+01
6.682008e+01
6.679143e+01
6.676104e+01
6.672724e+01
6.668996e+01
6.665329e+01
6.662177e+01
6.660948e+01
6.662677e+01
6.666285e+01
6.670583e+01
6.674706e+01
6.678066e+01
6.680690e+01
6.682733e+01
6.684343e+01
6.685617e+01
6.686582e+01
6.687224e+01
6.687516e+01
6.687496e+01
6.687239e+01
6.686783e+01
6.686161e+01
6.685403e+01
6.684541e+01
6.683610e+01
6.682646e+01
6.681642e+01
6.680615e+01
6.679602e+01
6.678649e+01
6.677802e+01
6.677106e+01
6.676596e+01
6.676286e+01
6.676398e+01
6.676953e+01
6.677809e+01
6.678812e+01
6.679815e+01
6.680681e+01
6.681393e+01
6.681949e+01
6.682349e+01
6.682586e+01
6.682650e+01
6.682582e+01
6.682455e+01
6.682290e+01
6.682106e+01
6.681910e+01
6.681709e+01
6.681502e+01
6.681308e+01
6.681137e+01
6.681011e+01
6.680966e+01
6.681058e+01
6.681574e+01
6.681616e+01
6.717702e+01
6.717660e+01
6.718337e+01
6.718923e+01
6.719207e+01
6.718818e+01
6.717120e+01
6.713171e+01
6.705759e+01
6.693683e+01
6.677226e+01
6.658516e+01
6.650848e+01
6.648205e+01
6.647224e+01
6.646958e+01
6.646863e+01
6.646822e+01
6.646509e+01
6.645854e+01
6.644920e+01
6.643605e+01
6.641816e+01
6.638886e+01
6.635707e+01
6.634621e+01
6.637159e+01
6.643095e+01
6.651003e+01
6.659121e+01
6.666201e+01
6.672028e+01
6.676680e+01
6.680339e+01
6.683193e+01
6.685391e+01
6.686972e+01
6.688012e+01
6.688272e+01
6.687665e+01
6.686102e+01
6.683626e+01
6.680449e+01
6.676953e+01
6.672915e+01
6.668449e+01
6.664086e+01
6.660429e+01
6.659720e+01
6.662153e+01
6.666447e+01
6.671292e+01
6.675704e+01
6.679209e+01
6.681899e+01
6.683946e+01
6.685519e+01
6.686737e+01
6.687655e+01
6.688272e+01
6.688558e+01
6.688560e+01
6.688311e+01
6.687840e+01
6.687174e+01
6.686340e+01
6.685366e+01
6.684283e+01
6.683135e+01
6.681924e+01
6.680662e+01
6.679397e+01
6.678186e+01
6.677095e+01
6.676189e+01
6.675520e+01
6.675112e+01
6.675316e+01
6.676076e+01
6.677208e+01
6.678513e+01
6.679775e+01
6.680831e+01
6.681661e+01
6.682270e+01
6.682671e+01
6.682881e+01
6.682916e+01
6.682812e+01
6.682647e+01
6.682438e+01
6.682200e+01
6.681953e+01
6.681719e+01
6.681494e+01
6.681275e+01
6.681072e+01
6.680905e+01
6.680810e+01
6.680838e+01
6.681272e+01
6.681314e+01
6.717728e+01
6.717686e+01
6.717892e+01
6.717956e+01
6.717644e+01
6.716633e+01
6.714455e+01
6.710506e+01
6.704098e+01
6.694534e+01
6.681700e+01
6.667384e+01
6.658657e+01
6.653951e+01
6.651292e+01
6.649726e+01
6.648685e+01
6.647882e+01
6.647067e+01
6.646120e+01
6.645012e+01
6.643700e+01
6.642066e+01
6.639956e+01
6.638418e+01
6.638932e+01
6.642307e+01
6.648131e+01
6.655234e+01
6.662314e+01
6.668584e+01
6.673825e+01
6.678074e+01
6.681469e+01
6.684160e+01
6.686216e+01
6.687630e+01
6.688430e+01
6.688623e+01
6.688127e+01
6.686771e+01
6.684463e+01
6.681308e+01
6.677681e+01
6.673299e+01
6.668425e+01
6.663722e+01
6.660142e+01
6.660123e+01
6.663142e+01
6.667832e+01
6.672873e+01
6.677255e+01
6.680696e+01
6.683296e+01
6.685231e+01
6.686679e+01
6.687774e+01
6.688588e+01
6.689135e+01
6.689404e+01
6.689420e+01
6.689202e+01
6.688760e+01
6.688106e+01
6.687256e+01
6.686228e+01
6.685047e+01
6.683751e+01
6.682365e+01
6.680891e+01
6.679386e+01
6.677924e+01
6.676589e+01
6.675472e+01
6.674654e+01
6.674188e+01
6.674491e+01
6.675434e+01
6.676796e+01
6.678340e+01
6.679791e+01
6.680984e+01
6.681896e+01
6.682541e+01
6.682947e+01
6.683151e+01
6.683186e+01
6.683082e+01
6.682903e+01
6.682665e+01
6.682382e+01
6.682075e+01
6.681770e+01
6.681484e+01
6.681200e+01
6.680932e+01
6.680700e+01
6.680539e+01
6.680497e+01
6.680789e+01
6.680831e+01
6.717751e+01
6.717710e+01
6.717527e+01
6.717183e+01
6.716443e+01
6.715032e+01
6.712601e+01
6.708739e+01
6.703026e+01
6.695070e+01
6.684783e+01
6.673323e+01
6.664556e+01
6.658660e+01
6.654815e+01
6.652234e+01
6.650394e+01
6.648961e+01
6.647693e+01
6.646449e+01
6.645163e+01
6.643806e+01
6.642355e+01
6.641029e+01
6.640716e+01
6.642337e+01
6.646247e+01
6.651935e+01
6.658431e+01
6.664796e+01
6.670466e+01
6.675251e+01
6.679175e+01
6.682355e+01
6.684898e+01
6.686832e+01
6.688146e+01
6.688872e+01
6.689019e+01
6.688525e+01
6.687253e+01
6.685073e+01
6.681993e+01
6.678306e+01
6.673756e+01
6.668742e+01
6.664063e+01
6.661157e+01
6.661759e+01
6.665160e+01
6.669964e+01
6.674903e+01
6.679074e+01
6.682320e+01
6.684739e+01
6.686497e+01
6.687774e+01
6.688713e+01
6.689396e+01
6.689857e+01
6.690094e+01
6.690117e+01
6.689933e+01
6.689540e+01
6.688935e+01
6.688116e+01
6.687088e+01
6.685865e+01
6.684474e+01
6.682950e+01
6.681297e+01
6.679577e+01
6.677878e+01
6.676307e+01
6.674987e+01
6.674038e+01
6.673584e+01
6.673978e+01
6.675068e+01
6.676597e+01
6.678297e+01
6.679866e+01
6.681146e+01
6.682111e+01
6.682779e+01
6.683191e+01
6.683393e+01
6.683432e+01
6.683343e+01
6.683164e+01
6.682914e+01
6.682604e+01
6.682251e+01
6.681876e+01
6.681507e+01
6.681133e+01
6.680774e+01
6.680459e+01
6.680227e+01
6.680121e+01
6.680229e+01
6.680271e+01
6.717774e+01
6.717732e+01
6.717258e+01
6.716617e+01
6.715586e+01
6.713924e+01
6.711355e+01
6.707580e+01
6.702311e+01
6.695323e+01
6.686623e+01
6.676993e+01
6.668647e+01
6.662253e+01
6.657614e+01
6.654275e+01
6.651812e+01
6.649891e+01
6.648261e+01
6.646761e+01
6.645312e+01
6.643905e+01
6.642640e+01
6.641911e+01
6.642442e+01
6.644827e+01
6.649066e+01
6.654616e+01
6.660682e+01
6.666565e+01
6.671824e+01
6.676295e+01
6.679993e+01
6.683008e+01
6.685429e+01
6.687294e+01
6.688597e+01
6.689362e+01
6.689565e+01
6.689135e+01
6.687942e+01
6.685843e+01
6.682783e+01
6.678927e+01
6.674184e+01
6.669085e+01
6.664668e+01
6.662551e+01
6.663720e+01
6.667383e+01
6.672167e+01
6.676876e+01
6.680814e+01
6.683835e+01
6.686022e+01
6.687569e+01
6.688665e+01
6.689458e+01
6.690039e+01
6.690451e+01
6.690666e+01
6.690693e+01
6.690539e+01
6.690196e+01
6.689648e+01
6.688882e+01
6.687888e+01
6.686667e+01
6.685231e+01
6.683612e+01
6.681819e+01
6.679918e+01
6.678007e+01
6.676217e+01
6.674709e+01
6.673659e+01
6.673257e+01
6.673738e+01
6.674939e+01
6.676578e+01
6.678361e+01
6.679991e+01
6.681320e+01
6.682319e+01
6.683005e+01
6.683422e+01
6.683623e+01
6.683662e+01
6.683579e+01
6.683408e+01
6.683154e+01
6.682828e+01
6.682440e+01
6.682005e+01
6.681548e+01
6.681076e+01
6.680619e+01
6.680221e+01
6.679927e+01
6.679759e+01
6.679664e+01
6.679706e+01
6.717794e+01
6.717752e+01
6.717084e+01
6.716252e+01
6.715040e+01
6.713233e+01
6.710597e+01
6.706888e+01
6.701889e+01
6.695458e+01
6.687661e+01
6.679097e+01
6.671157e+01
6.664595e+01
6.659524e+01
6.655713e+01
6.652833e+01
6.650574e+01
6.648686e+01
6.646999e+01
6.645426e+01
6.643988e+01
6.642889e+01
6.642586e+01
6.643653e+01
6.646444e+01
6.650830e+01
6.656276e+01
6.662087e+01
6.667680e+01
6.672683e+01
6.676952e+01
6.680499e+01
6.683407e+01
6.685756e+01
6.687606e+01
6.688949e+01
6.689786e+01
6.690088e+01
6.689766e+01
6.688684e+01
6.686680e+01
6.683629e+01
6.679550e+01
6.674529e+01
6.669276e+01
6.665132e+01
6.663637e+01
6.665242e+01
6.669089e+01
6.673833e+01
6.678359e+01
6.682098e+01
6.684926e+01
6.686943e+01
6.688336e+01
6.689295e+01
6.689973e+01
6.690471e+01
6.690847e+01
6.691054e+01
6.691109e+01
6.691002e+01
6.690715e+01
6.690222e+01
6.689507e+01
6.688555e+01
6.687356e+01
6.685911e+01
6.684234e+01
6.682346e+01
6.680306e+01
6.678219e+01
6.676236e+01
6.674563e+01
6.673439e+01
6.673099e+01
6.673655e+01
6.674937e+01
6.676646e+01
6.678468e+01
6.680128e+01
6.681489e+01
6.682514e+01
6.683219e+01
6.683644e+01
6.683846e+01
6.683878e+01
6.683789e+01
6.683620e+01
6.683362e+01
6.683025e+01
6.682612e+01
6.682128e+01
6.681588e+01
6.681023e+01
6.680477e+01
6.680009e+01
6.679671e+01
6.679451e+01
6.679167e+01
6.679209e+01
6.717806e+01
6.717764e+01
6.717000e+01
6.716075e+01
6.714780e+01
6.712912e+01
6.710255e+01
6.706593e+01
6.701735e+01
6.695572e+01
6.688193e+01
6.680117e+01
6.672395e+01
6.665781e+01
6.660513e+01
6.656470e+01
6.653377e+01
6.650944e+01
6.648921e+01
6.647134e+01
6.645495e+01
6.644052e+01
6.643055e+01
6.642960e+01
6.644257e+01
6.647196e+01
6.651611e+01
6.656985e+01
6.662668e+01
6.668130e+01
6.673027e+01
6.677217e+01
6.680707e+01
6.683570e+01
6.685888e+01
6.687719e+01
6.689088e+01
6.689991e+01
6.690383e+01
6.690167e+01
6.689199e+01
6.687304e+01
6.684302e+01
6.680061e+01
6.674750e+01
6.669283e+01
6.665284e+01
6.664138e+01
6.665987e+01
6.669907e+01
6.674587e+01
6.679002e+01
6.682655e+01
6.685415e+01
6.687375e+01
6.688714e+01
6.689620e+01
6.690249e+01
6.690706e+01
6.691038e+01
6.691244e+01
6.691322e+01
6.691253e+01
6.691011e+01
6.690567e+01
6.689897e+01
6.688984e+01
6.687813e+01
6.686377e+01
6.684679e+01
6.682736e+01
6.680602e+01
6.678382e+01
6.676247e+01
6.674441e+01
6.673257e+01
6.672941e+01
6.673545e+01
6.674891e+01
6.676661e+01
6.678511e+01
6.680187e+01
6.681562e+01
6.682598e+01
6.683310e+01
6.683743e+01
6.683952e+01
6.683992e+01
6.683909e+01
6.683734e+01
6.683472e+01
6.683129e+01
6.682706e+01
6.682200e+01
6.681614e+01
6.681002e+01
6.680417e+01
6.679926e+01
6.679564e+01
6.679293e+01
6.678844e+01
6.678886e+01
0.000000e+00
6.717806e+01
6.717042e+01
6.716117e+01
6.714822e+01
6.712954e+01
6.710297e+01
6.706635e+01
6.701777e+01
6.695614e+01
6.688235e+01
6.680158e+01
6.672437e+01
6.665823e+01
6.660555e+01
6.656512e+01
6.653419e+01
6.650986e+01
6.648963e+01
6.647175e+01
6.645537e+01
6.644094e+01
6.643097e+01
6.643002e+01
6.644299e+01
6.647238e+01
6.651653e+01
6.657027e+01
6.662710e+01
6.668172e+01
6.673069e+01
6.677259e+01
6.680748e+01
6.683612e+01
6.685929e+01
6.687760e+01
6.689130e+01
6.690033e+01
6.690425e+01
6.690209e+01
6.689241e+01
6.687346e+01
6.684344e+01
6.680103e+01
6.674792e+01
6.669325e+01
6.665326e+01
6.664179e+01
6.666029e+01
6.669949e+01
6.674628e+01
6.679044e+01
6.682697e+01
6.685457e+01
6.687417e+01
6.688756e+01
6.689662e+01
6.690291e+01
6.690747e+01
6.691080e+01
6.691286e+01