# vtk DataFile Version 3.0
Scalar Field
ASCII
DATASET RECTILINEAR_GRID
DIMENSIONS 102 22 1
X_COORDINATES 102 double
0.000000 0.100000 0.200000 0.300000 0.400000 0.500000 0.600000 0.700000 0.800000 0.900000 1.000000 1.100000 1.200000 1.300000 1.400000 1.500000 1.600000 1.700000 1.800000 1.900000 2.000000 2.100000 2.200000 2.300000 2.400000 2.500000 2.600000 2.700000 2.800000 2.900000 3.000000 3.100000 3.200000 3.300000 3.400000 3.500000 3.600000 3.700000 3.800000 3.900000 4.000000 4.100000 4.200000 4.300000 4.400000 4.500000 4.600000 4.700000 4.800000 4.900000 5.000000 5.100000 5.200000 5.300000 5.400000 5.500000 5.600000 5.700000 5.800000 5.900000 6.000000 6.100000 6.200000 6.300000 6.400000 6.500000 6.600000 6.700000 6.800000 6.900000 7.000000 7.100000 7.200000 7.300000 7.400000 7.500000 7.600000 7.700000 7.800000 7.900000 8.000000 8.100000 8.200000 8.300000 8.400000 8.500000 8.600000 8.700000 8.800000 8.900000 9.000000 9.100000 9.200000 9.300000 9.400000 9.500000 9.600000 9.700000 9.800000 9.900000 10.000000 10.100000 
Y_COORDINATES 22 double
0.000000 0.100000 0.200000 0.300000 0.400000 0.500000 0.600000 0.700000 0.800000 0.900000 1.000000 1.100000 1.200000 1.300000 1.400000 1.500000 1.600000 1.700000 1.800000 1.900000 2.000000 2.100000 
Z_COORDINATES 1 double
0.0
POINT_DATA 2244
SCALARS Pressure double 1
LOOKUP_TABLE default
0.000000e+00
7.256511e+01
7.253317e+01
7.249662e+01
7.245167e+01
7.239445e+01
7.232132e+01
7.223111e+01
7.212382e+01
7.202057e+01
7.193766e+01
7.187969e+01
7.184407e+01
7.182586e+01
7.182049e+01
7.182443e+01
7.183528e+01
7.185139e+01
7.187172e+01
7.189563e+01
7.192256e+01
7.195165e+01
7.198116e+01
7.200845e+01
7.203005e+01
7.204288e+01
7.204620e+01
7.204208e+01
7.203401e+01
7.202539e+01
7.201878e+01
7.201588e+01
7.201776e+01
7.202526e+01
7.203892e+01
7.205889e+01
7.208477e+01
7.211559e+01
7.214985e+01
7.218577e+01
7.222142e+01
7.225489e+01
7.228439e+01
7.230865e+01
7.232728e+01
7.234083e+01
7.235050e+01
7.235742e+01
7.236314e+01
7.236781e+01
7.237002e+01
7.236773e+01
7.235867e+01
7.234114e+01
7.231487e+01
7.228159e+01
7.224470e+01
7.220893e+01
7.217941e+01
7.216048e+01
7.215459e+01
7.216119e+01
7.217829e+01
7.220432e+01
7.223649e+01
7.227056e+01
7.230128e+01
7.232408e+01
7.233685e+01
7.234128e+01
7.234034e+01
7.233634e+01
7.233101e+01
7.232476e+01
7.231736e+01
7.230886e+01
7.229953e+01
7.228984e+01
7.228032e+01
7.227151e+01
7.226390e+01
7.225785e+01
7.225362e+01
7.225135e+01
7.225100e+01
7.225243e+01
7.225542e+01
7.225979e+01
7.226534e+01
7.227180e+01
7.227887e+01
7.228620e+01
7.229341e+01
7.230008e+01
7.230583e+01
7.231039e+01
7.231368e+01
7.231578e+01
7.231688e+01
7.231718e+01
7.231667e+01
0.000000e+00
7.256511e+01
7.256477e+01
7.253283e+01
7.249627e+01
7.245133e+01
7.239411e+01
7.232098e+01
7.223077e+01
7.212348e+01
7.202023e+01
7.193732e+01
7.187934e+01
7.184373e+01
7.182552e+01
7.182014e+01
7.182409e+01
7.183494e+01
7.185104e+01
7.187138e+01
7.189528e+01
7.192222e+01
7.195131e+01
7.198082e+01
7.200811e+01
7.202970e+01
7.204254e+01
7.204586e+01
7.204174e+01
7.203367e+01
7.202505e+01
7.201843e+01
7.201553e+01
7.201742e+01
7.202492e+01
7.203858e+01
7.205855e+01
7.208443e+01
7.211525e+01
7.214951e+01
7.218543e+01
7.222108e+01
7.225455e+01
7.228404e+01
7.230830e+01
7.232694e+01
7.234049e+01
7.235015e+01
7.235707e+01
7.236279e+01
7.236747e+01
7.236968e+01
7.236739e+01
7.235833e+01
7.234080e+01
7.231453e+01
7.228125e+01
7.224436e+01
7.220859e+01
7.217907e+01
7.216013e+01
7.215425e+01
7.216085e+01
7.217795e+01
7.220398e+01
7.223615e+01
7.227022e+01
7.230094e+01
7.232373e+01
7.233651e+01
7.234094e+01
7.234000e+01
7.233600e+01
7.233067e+01
7.232441e+01
7.231702e+01
7.230851e+01
7.229919e+01
7.228950e+01
7.227998e+01
7.227117e+01
7.226356e+01
7.225751e+01
7.225328e+01
7.225100e+01
7.225066e+01
7.225209e+01
7.225508e+01
7.225945e+01
7.226500e+01
7.227145e+01
7.227852e+01
7.228586e+01
7.229306e+01
7.229974e+01
7.230549e+01
7.231005e+01
7.231334e+01
7.231544e+01
7.231653e+01
7.231684e+01
7.231633e+01
7.231667e+01
7.256449e+01
7.256415e+01
7.253370e+01
7.249838e+01
7.245417e+01
7.239669e+01
7.232159e+01
7.222742e+01
7.211038e+01
7.200256e+01
7.192067e+01
7.186599e+01
7.183377e+01
7.181820e+01
7.181458e+01
7.181962e+01
7.183109e+01
7.184748e+01
7.186778e+01
7.189139e+01
7.191786e+01
7.194664e+01
7.197658e+01
7.200540e+01
7.202939e+01
7.204491e+01
7.205030e+01
7.204708e+01
7.203868e+01
7.202875e+01
7.202045e+01
7.201620e+01
7.201700e+01
7.202358e+01
7.203646e+01
7.205573e+01
7.208100e+01
7.211132e+01
7.214520e+01
7.218080e+01
7.221621e+01
7.224968e+01
7.227942e+01
7.230409e+01
7.232322e+01
7.233723e+01
7.234716e+01
7.235417e+01
7.235928e+01
7.236268e+01
7.236322e+01
7.235923e+01
7.234885e+01
7.233085e+01
7.230486e+01
7.227258e+01
7.223730e+01
7.220347e+01
7.217587e+01
7.215854e+01
7.215408e+01
7.216196e+01
7.217988e+01
7.220616e+01
7.223751e+01
7.226916e+01
7.229638e+01
7.231660e+01
7.232885e+01
7.233421e+01
7.233466e+01
7.233215e+01
7.232785e+01
7.232211e+01
7.231499e+01
7.230666e+01
7.229752e+01
7.228802e+01
7.227872e+01
7.227014e+01
7.226277e+01
7.225695e+01
7.225293e+01
7.225083e+01
7.225063e+01
7.225226e+01
7.225541e+01
7.225994e+01
7.226563e+01
7.227223e+01
7.227938e+01
7.228671e+01
7.229376e+01
7.230014e+01
7.230552e+01
7.230970e+01
7.231266e+01
7.231454e+01
7.231560e+01
7.231613e+01
7.231692e+01
7.231726e+01
7.256391e+01
7.256357e+01
7.253623e+01
7.250371e+01
7.246147e+01
7.240400e+01
7.232504e+01
7.222170e+01
7.208113e+01
7.196472e+01
7.188665e+01
7.183961e+01
7.181455e+01
7.180428e+01
7.180399e+01
7.181103e+01
7.182365e+01
7.184056e+01
7.186085e+01
7.188391e+01
7.190944e+01
7.193734e+01
7.196745e+01
7.199904e+01
7.202818e+01
7.204960e+01
7.205915e+01
7.205773e+01
7.204899e+01
7.203694e+01
7.202537e+01
7.201802e+01
7.201658e+01
7.202131e+01
7.203258e+01
7.205041e+01
7.207431e+01
7.210330e+01
7.213603e+01
7.217075e+01
7.220559e+01
7.223885e+01
7.226890e+01
7.229440e+01
7.231469e+01
7.232987e+01
7.234070e+01
7.234819e+01
7.235307e+01
7.235523e+01
7.235388e+01
7.234803e+01
7.233654e+01
7.231820e+01
7.229264e+01
7.226171e+01
7.222858e+01
7.219733e+01
7.217231e+01
7.215732e+01
7.215510e+01
7.216452e+01
7.218295e+01
7.220839e+01
7.223727e+01
7.226508e+01
7.228840e+01
7.230635e+01
7.231795e+01
7.232412e+01
7.232646e+01
7.232604e+01
7.232327e+01
7.231850e+01
7.231200e+01
7.230410e+01
7.229521e+01
7.228595e+01
7.227692e+01
7.226863e+01
7.226156e+01
7.225604e+01
7.225231e+01
7.225050e+01
7.225061e+01
7.225258e+01
7.225603e+01
7.226083e+01
7.226675e+01
7.227350e+01
7.228068e+01
7.228782e+01
7.229444e+01
7.230018e+01
7.230488e+01
7.230842e+01
7.231091e+01
7.231257e+01
7.231371e+01
7.231465e+01
7.231624e+01
7.231659e+01
7.256377e+01
7.256343e+01
7.254095e+01
7.251306e+01
7.247450e+01
7.241773e+01
7.233239e+01
7.221004e+01
7.202412e+01
7.189979e+01
7.183417e+01
7.180144e+01
7.178761e+01
7.178487e+01
7.178907e+01
7.179877e+01
7.181291e+01
7.183059e+01
7.185097e+01
7.187345e+01
7.189792e+01
7.192467e+01
7.195446e+01
7.198812e+01
7.202411e+01
7.205488e+01
7.207217e+01
7.207392e+01
7.206488e+01
7.205017e+01
7.203415e+01
7.202129e+01
7.201596e+01
7.201779e+01
7.202669e+01
7.204248e+01
7.206450e+01
7.209182e+01
7.212312e+01
7.215675e+01
7.219084e+01
7.222368e+01
7.225385e+01
7.228021e+01
7.230188e+01
7.231862e+01
7.233081e+01
7.233917e+01
7.234438e+01
7.234568e+01
7.234282e+01
7.233547e+01
7.232297e+01
7.230460e+01
7.228011e+01
7.225127e+01
7.222108e+01
7.219314e+01
7.217135e+01
7.215926e+01
7.215968e+01
7.217035e+01
7.218863e+01
7.221227e+01
7.223781e+01
7.226138e+01
7.228138e+01
7.229727e+01
7.230829e+01
7.231507e+01
7.231867e+01
7.231994e+01
7.231853e+01
7.231465e+01
7.230871e+01
7.230114e+01
7.229248e+01
7.228350e+01
7.227480e+01
7.226689e+01
7.226021e+01
7.225510e+01
7.225178e+01
7.225038e+01
7.225101e+01
7.225342e+01
7.225728e+01
7.226241e+01
7.226856e+01
7.227533e+01
7.228227e+01
7.228883e+01
7.229455e+01
7.229942e+01
7.230330e+01
7.230621e+01
7.230834e+01
7.230995e+01
7.231133e+01
7.231273e+01
7.231480e+01
7.231514e+01
7.256456e+01
7.256422e+01
7.254846e+01
7.252748e+01
7.249546e+01
7.244180e+01
7.234780e+01
7.218675e+01
7.192099e+01
7.180479e+01
7.176512e+01
7.175322e+01
7.175434e+01
7.176084e+01
7.177033e+01
7.178317e+01
7.179919e+01
7.181790e+01
7.183860e+01
7.186066e+01
7.188424e+01
7.191006e+01
7.193937e+01
7.197333e+01
7.201204e+01
7.205432e+01
7.208502e+01
7.209561e+01
7.208702e+01
7.206902e+01
7.204763e+01
7.202845e+01
7.201579e+01
7.201402e+01
7.201978e+01
7.203319e+01
7.205306e+01
7.207839e+01
7.210798e+01
7.214027e+01
7.217347e+01
7.220576e+01
7.223585e+01
7.226297e+01
7.228602e+01
7.230445e+01
7.231832e+01
7.232802e+01
7.233402e+01
7.233488e+01
7.233045e+01
7.232160e+01
7.230853e+01
7.229090e+01
7.226843e+01
7.224270e+01
7.221636e+01
7.219250e+01
7.217453e+01
7.216569e+01
7.216860e+01
7.217975e+01
7.219698e+01
7.221798e+01
7.223970e+01
7.225907e+01
7.227606e+01
7.228990e+01
7.230014e+01
7.230718e+01
7.231168e+01
7.231416e+01
7.231369e+01
7.231046e+01
7.230497e+01
7.229777e+01
7.228945e+01
7.228086e+01
7.227263e+01
7.226524e+01
7.225910e+01
7.225453e+01
7.225175e+01
7.225094e+01
7.225227e+01
7.225517e+01
7.225944e+01
7.226483e+01
7.227097e+01
7.227739e+01
7.228357e+01
7.228902e+01
7.229369e+01
7.229759e+01
7.230070e+01
7.230314e+01
7.230510e+01
7.230682e+01
7.230850e+01
7.231033e+01
7.231284e+01
7.231318e+01
7.256668e+01
7.256634e+01
7.255907e+01
7.254778e+01
7.252712e+01
7.248396e+01
7.238611e+01
7.215549e+01
7.174035e+01
7.167004e+01
7.168292e+01
7.169985e+01
7.171842e+01
7.173402e+01
7.174876e+01
7.176486e+01
7.178300e+01
7.180305e+01
7.182436e+01
7.184626e+01
7.186890e+01
7.189362e+01
7.192224e+01
7.195619e+01
7.199532e+01
7.203695e+01
7.207486e+01
7.210770e+01
7.211018e+01
7.209136e+01
7.206391e+01
7.203885e+01
7.202126e+01
7.201330e+01
7.201600e+01
7.202677e+01
7.204410e+01
7.206696e+01
7.209430e+01
7.212474e+01
7.215654e+01
7.218783e+01
7.221717e+01
7.224464e+01
7.226895e+01
7.228921e+01
7.230498e+01
7.231599e+01
7.232215e+01
7.232174e+01
7.231543e+01
7.230550e+01
7.229287e+01
7.227728e+01
7.225823e+01
7.223693e+01
7.221546e+01
7.219640e+01
7.218270e+01
7.217715e+01
7.218171e+01
7.219235e+01
7.220753e+01
7.222513e+01
7.224268e+01
7.225803e+01
7.227200e+01
7.228369e+01
7.229290e+01
7.229983e+01
7.230480e+01
7.230800e+01
7.230815e+01
7.230545e+01
7.230045e+01
7.229379e+01
7.228609e+01
7.227818e+01
7.227070e+01
7.226408e+01
7.225869e+01
7.225484e+01
7.225277e+01
7.225280e+01
7.225478e+01
7.225815e+01
7.226267e+01
7.226797e+01
7.227361e+01
7.227909e+01
7.228395e+01
7.228811e+01
7.229170e+01
7.229471e+01
7.229722e+01
7.229937e+01
7.230130e+01
7.230318e+01
7.230515e+01
7.230737e+01
7.231047e+01
7.231081e+01
7.257023e+01
7.256989e+01
7.257228e+01
7.257330e+01
7.257052e+01
7.255409e+01
7.248713e+01
7.222205e+01
7.141894e+01
7.149163e+01
7.160863e+01
7.165557e+01
7.168608e+01
7.170740e+01
7.172594e+01
7.174477e+01
7.176491e+01
7.178649e+01
7.180867e+01
7.183032e+01
7.185111e+01
7.187250e+01
7.189661e+01
7.192446e+01
7.195740e+01
7.199757e+01
7.203679e+01
7.207432e+01
7.209319e+01
7.209350e+01
7.207579e+01
7.205270e+01
7.203503e+01
7.202451e+01
7.202342e+01
7.203109e+01
7.204494e+01
7.206396e+01
7.208763e+01
7.211481e+01
7.214392e+01
7.217309e+01
7.220037e+01
7.222690e+01
7.225153e+01
7.227296e+01
7.228989e+01
7.230111e+01
7.230617e+01
7.230351e+01
7.229597e+01
7.228649e+01
7.227606e+01
7.226428e+01
7.225023e+01
7.223460e+01
7.221882e+01
7.220502e+01
7.219568e+01
7.219310e+01
7.219795e+01
7.220717e+01
7.221944e+01
7.223305e+01
7.224617e+01
7.225780e+01
7.226856e+01
7.227795e+01
7.228584e+01
7.229227e+01
7.229722e+01
7.230066e+01
7.230116e+01
7.229901e+01
7.229477e+01
7.228905e+01
7.228244e+01
7.227569e+01
7.226938e+01
7.226386e+01
7.225949e+01
7.225657e+01
7.225543e+01
7.225638e+01
7.225885e+01
7.226241e+01
7.226672e+01
7.227136e+01
7.227588e+01
7.227988e+01
7.228324e+01
7.228618e+01
7.228874e+01
7.229099e+01
7.229304e+01
7.229497e+01
7.229687e+01
7.229885e+01
7.230105e+01
7.230365e+01
7.230754e+01
7.230789e+01
7.257487e+01
7.257453e+01
7.258636e+01
7.260033e+01
7.261928e+01
7.264573e+01
7.267660e+01
7.277834e+01
7.209898e+01
7.156192e+01
7.163153e+01
7.164790e+01
7.166908e+01
7.169118e+01
7.171016e+01
7.172943e+01
7.174923e+01
7.177019e+01
7.179120e+01
7.181054e+01
7.182697e+01
7.184163e+01
7.185474e+01
7.187104e+01
7.189337e+01
7.192384e+01
7.195090e+01
7.197668e+01
7.200300e+01
7.203098e+01
7.205394e+01
7.206201e+01
7.205887e+01
7.205108e+01
7.204644e+01
7.204948e+01
7.205893e+01
7.207279e+01
7.209116e+01
7.211332e+01
7.213791e+01
7.216317e+01
7.218715e+01
7.221045e+01
7.223319e+01
7.225352e+01
7.226930e+01
7.227870e+01
7.228158e+01
7.227772e+01
7.227146e+01
7.226501e+01
7.225898e+01
7.225278e+01
7.224518e+01
7.223613e+01
7.222647e+01
7.221795e+01
7.221258e+01
7.221202e+01
7.221620e+01
7.222315e+01
7.223185e+01
7.224113e+01
7.224981e+01
7.225768e+01
7.226515e+01
7.227204e+01
7.227825e+01
7.228362e+01
7.228799e+01
7.229119e+01
7.229197e+01
7.229065e+01
7.228769e+01
7.228356e+01
7.227869e+01
7.227373e+01
7.226909e+01
7.226510e+01
7.226206e+01
7.226031e+01
7.226021e+01
7.226180e+01
7.226440e+01
7.226764e+01
7.227113e+01
7.227449e+01
7.227742e+01
7.227974e+01
7.228169e+01
7.228341e+01
7.228501e+01
7.228657e+01
7.228815e+01
7.228981e+01
7.229158e+01
7.229358e+01
7.229596e+01
7.229893e+01
7.230374e+01
7.230408e+01
7.257986e+01
7.257951e+01
7.259867e+01
7.262256e+01
7.265763e+01
7.271437e+01
7.281037e+01
7.294367e+01
7.297724e+01
0.000000e+00
7.166039e+01
7.166004e+01
7.167900e+01
7.169904e+01
7.171405e+01
7.173094e+01
7.174853e+01
7.176642e+01
7.178325e+01
7.179746e+01
7.180781e+01
7.181405e+01
7.181599e+01
7.181573e+01
7.181578e+01
7.182128e+01
7.183520e+01
7.187412e+01
7.192635e+01
7.198213e+01
7.203363e+01
7.207424e+01
7.209484e+01
7.209486e+01
7.208692e+01
7.208249e+01
7.208544e+01
7.209337e+01
7.210513e+01
7.212063e+01
7.213883e+01
7.215818e+01
7.217680e+01
7.219380e+01
7.221146e+01
7.222747e+01
7.223898e+01
7.224479e+01
7.224572e+01
7.224401e+01
7.224275e+01
7.224265e+01
7.224339e+01
7.224418e+01
7.224386e+01
7.224170e+01
7.223804e+01
7.223434e+01
7.223214e+01
7.223250e+01
7.223525e+01
7.223932e+01
7.224410e+01
7.224894e+01
7.225328e+01
7.225730e+01
7.226134e+01
7.226539e+01
7.226935e+01
7.227302e+01
7.227622e+01
7.227878e+01
7.228003e+01
7.228011e+01
7.227921e+01
7.227751e+01
7.227520e+01
7.227272e+01
7.227032e+01
7.226826e+01
7.226684e+01
7.226638e+01
7.226713e+01
7.226889e+01
7.227108e+01
7.227338e+01
7.227547e+01
7.227712e+01
7.227826e+01
7.227896e+01
7.227949e+01
7.228001e+01
7.228064e+01
7.228143e+01
7.228242e+01
7.228365e+01
7.228516e+01
7.228708e+01
7.228961e+01
7.229301e+01
7.229877e+01
7.229911e+01
7.258443e+01
7.258409e+01
7.260715e+01
7.263552e+01
7.267544e+01
7.273481e+01
7.282011e+01
7.292300e+01
7.301012e+01
7.301047e+01
0.000000e+00
7.172733e+01
7.172699e+01
7.173773e+01
7.174825e+01
7.176095e+01
7.177506e+01
7.178816e+01
7.179836e+01
7.180402e+01
7.180408e+01
7.179792e+01
7.178611e+01
7.176887e+01
7.174968e+01
7.174057e+01
7.175936e+01
7.181634e+01
7.189170e+01
7.196852e+01
7.203678e+01
7.209426e+01
7.213462e+01
7.214896e+01
7.214330e+01
7.213124e+01
7.212532e+01
7.212530e+01
7.212914e+01
7.213660e+01
7.214664e+01
7.215775e+01
7.216797e+01
7.217634e+01
7.218562e+01
7.219284e+01
7.219636e+01
7.219781e+01
7.219993e+01
7.220587e+01
7.221400e+01
7.222298e+01
7.223184e+01
7.223995e+01
7.224646e+01
7.225077e+01
7.225274e+01
7.225306e+01
7.225303e+01
7.225337e+01
7.225421e+01
7.225513e+01
7.225587e+01
7.225629e+01
7.225639e+01
7.225644e+01
7.225675e+01
7.225743e+01
7.225844e+01
7.225971e+01
7.226117e+01
7.226295e+01
7.226510e+01
7.226739e+01
7.226954e+01
7.227127e+01
7.227243e+01
7.227312e+01
7.227345e+01
7.227365e+01
7.227400e+01
7.227473e+01
7.227586e+01
7.227723e+01
7.227847e+01
7.227930e+01
7.227956e+01
7.227932e+01
7.227872e+01
7.227788e+01
7.227700e+01
7.227625e+01
7.227576e+01
7.227558e+01
7.227577e+01
7.227637e+01
7.227748e+01
7.227923e+01
7.228193e+01
7.228583e+01
7.229243e+01
7.229277e+01
7.258816e+01
7.258782e+01
7.261126e+01
7.263920e+01
7.267598e+01
7.272633e+01
7.279286e+01
7.285748e+01
7.288717e+01
7.266190e+01
7.266224e+01
0.000000e+00
7.175243e+01
7.177719e+01
7.178322e+01
7.179593e+01
7.180769e+01
7.181509e+01
7.181743e+01
7.181409e+01
7.180538e+01
7.179080e+01
7.176916e+01
7.173855e+01
7.170311e+01
7.168571e+01
7.171935e+01
7.179446e+01
7.188731e+01
7.197743e+01
7.205198e+01
7.211368e+01
7.216583e+01
7.219708e+01
7.220253e+01
7.219112e+01
7.217656e+01
7.216799e+01
7.216335e+01
7.216191e+01
7.216235e+01
7.216304e+01
7.216226e+01
7.215954e+01
7.215547e+01
7.215026e+01
7.214599e+01
7.214476e+01
7.215379e+01
7.217017e+01
7.218955e+01
7.220865e+01
7.222584e+01
7.224045e+01
7.225256e+01
7.226197e+01
7.226835e+01
7.227188e+01
7.227318e+01
7.227279e+01
7.227149e+01
7.226931e+01
7.226634e+01
7.226281e+01
7.225901e+01
7.225513e+01
7.225144e+01
7.224823e+01
7.224570e+01
7.224402e+01
7.224330e+01
7.224443e+01
7.224804e+01
7.225340e+01
7.225954e+01
7.226557e+01
7.227083e+01
7.227506e+01
7.227839e+01
7.228097e+01
7.228300e+01
7.228448e+01
7.228531e+01
7.228573e+01
7.228554e+01
7.228466e+01
7.228315e+01
7.228122e+01
7.227910e+01
7.227682e+01
7.227456e+01
7.227250e+01
7.227076e+01
7.226945e+01
7.226865e+01
7.226845e+01
7.226896e+01
7.227034e+01
7.227317e+01
7.227748e+01
7.228448e+01
7.228483e+01
7.259096e+01
7.259062e+01
7.261166e+01
7.263567e+01
7.266536e+01
7.270146e+01
7.273711e+01
7.275077e+01
7.269599e+01
7.258734e+01
7.219950e+01
7.190507e+01
7.175803e+01
7.179514e+01
7.180651e+01
7.182104e+01
7.183006e+01
7.183325e+01
7.183139e+01
7.182400e+01
7.181045e+01
7.179066e+01
7.176091e+01
7.171839e+01
7.167197e+01
7.166487e+01
7.171424e+01
7.180301e+01
7.190664e+01
7.200259e+01
7.207756e+01
7.213561e+01
7.218453e+01
7.222699e+01
7.224932e+01
7.224908e+01
7.223620e+01
7.222050e+01
7.220803e+01
7.219764e+01
7.218750e+01
7.217588e+01
7.216219e+01
7.214592e+01
7.212795e+01
7.211082e+01
7.209756e+01
7.209653e+01
7.211400e+01
7.214188e+01
7.217268e+01
7.220149e+01
7.222567e+01
7.224535e+01
7.226148e+01
7.227433e+01
7.228365e+01
7.228918e+01
7.229100e+01
7.228981e+01
7.228664e+01
7.228182e+01
7.227568e+01
7.226868e+01
7.226136e+01
7.225379e+01
7.224622e+01
7.223911e+01
7.223294e+01
7.222813e+01
7.222499e+01
7.222558e+01
7.223096e+01
7.223981e+01
7.225040e+01
7.226114e+01
7.227060e+01
7.227829e+01
7.228436e+01
7.228897e+01
7.229221e+01
7.229397e+01
7.229423e+01
7.229362e+01
7.229209e+01
7.228970e+01
7.228665e+01
7.228319e+01
7.227965e+01
7.227599e+01
7.227234e+01
7.226890e+01
7.226581e+01
7.226322e+01
7.226126e+01
7.226009e+01
7.225981e+01
7.226070e+01
7.226353e+01
7.226805e+01
7.227479e+01
7.227513e+01
7.259300e+01
7.259266e+01
7.260945e+01
7.262783e+01
7.264786e+01
7.266694e+01
7.267597e+01
7.265510e+01
7.256803e+01
7.240565e+01
7.214873e+01
7.160996e+01
7.172023e+01
7.179039e+01
7.182280e+01
7.183689e+01
7.184238e+01
7.184422e+01
7.184132e+01
7.183212e+01
7.181624e+01
7.179339e+01
7.175690e+01
7.170513e+01
7.166692e+01
7.167841e+01
7.174083e+01
7.183547e+01
7.193996e+01
7.203102e+01
7.210408e+01
7.216075e+01
7.220422e+01
7.224065e+01
7.227185e+01
7.228720e+01
7.228647e+01
7.227302e+01
7.225563e+01
7.223621e+01
7.221445e+01
7.219042e+01
7.216580e+01
7.213684e+01
7.210596e+01
7.207736e+01
7.205563e+01
7.205909e+01
7.208600e+01
7.212478e+01
7.216555e+01
7.220188e+01
7.223089e+01
7.225392e+01
7.227237e+01
7.228700e+01
7.229782e+01
7.230439e+01
7.230635e+01
7.230465e+01
7.230010e+01
7.229318e+01
7.228441e+01
7.227439e+01
7.226388e+01
7.225289e+01
7.224163e+01
7.223076e+01
7.222101e+01
7.221308e+01
7.220751e+01
7.220788e+01
7.221527e+01
7.222779e+01
7.224293e+01
7.225839e+01
7.227175e+01
7.228248e+01
7.229078e+01
7.229689e+01
7.230089e+01
7.230269e+01
7.230241e+01
7.230094e+01
7.229832e+01
7.229471e+01
7.229034e+01
7.228553e+01
7.228060e+01
7.227561e+01
7.227056e+01
7.226568e+01
7.226114e+01
7.225717e+01
7.225395e+01
7.225166e+01
7.225045e+01
7.225076e+01
7.225334e+01
7.225772e+01
7.226341e+01
7.226375e+01
7.259462e+01
7.259427e+01
7.260596e+01
7.261772e+01
7.262818e+01
7.263358e+01
7.262563e+01
7.258983e+01
7.250420e+01
7.235078e+01
7.214384e+01
7.186165e+01
7.182865e+01
7.183917e+01
7.184944e+01
7.185398e+01
7.185538e+01
7.185396e+01
7.184714e+01
7.183565e+01
7.182016e+01
7.179715e+01
7.175849e+01
7.171498e+01
7.169759e+01
7.172434e+01
7.179185e+01
7.188331e+01
7.197771e+01
7.205897e+01
7.212572e+01
7.217922e+01
7.222080e+01
7.225120e+01
7.227309e+01
7.229303e+01
7.230471e+01
7.230135e+01
7.228736e+01
7.226491e+01
7.223621e+01
7.220397e+01
7.217084e+01
7.213154e+01
7.209003e+01
7.205148e+01
7.202688e+01
7.203731e+01
7.207326e+01
7.212080e+01
7.216871e+01
7.220904e+01
7.224064e+01
7.226518e+01
7.228436e+01
7.229933e+01
7.231043e+01
7.231729e+01
7.231933e+01
7.231746e+01
7.231212e+01
7.230379e+01
7.229301e+01
7.228050e+01
7.226715e+01
7.225306e+01
7.223837e+01
7.222397e+01
7.221086e+01
7.220006e+01
7.219240e+01
7.219292e+01
7.220242e+01
7.221846e+01
7.223783e+01
7.225753e+01
7.227417e+01
7.228730e+01
7.229718e+01
7.230420e+01
7.230858e+01
7.231036e+01
7.230973e+01
7.230768e+01
7.230432e+01
7.229981e+01
7.229441e+01
7.228843e+01
7.228219e+01
7.227590e+01
7.226946e+01
7.226311e+01
7.225708e+01
7.225164e+01
7.224707e+01
7.224360e+01
7.224137e+01
7.224097e+01
7.224302e+01
7.224680e+01
7.225063e+01
7.225097e+01
7.259589e+01
7.259555e+01
7.260196e+01
7.260750e+01
7.261010e+01
7.260601e+01
7.258886e+01
7.254916e+01
7.247467e+01
7.235325e+01
7.218832e+01
7.200168e+01
7.192563e+01
7.189814e+01
7.188593e+01
7.187756e+01
7.187019e+01
7.186233e+01
7.185227e+01
7.183965e+01
7.182403e+01
7.180245e+01
7.177186e+01
7.174713e+01
7.174774e+01
7.178363e+01
7.184967e+01
7.193213e+01
7.201366e+01
7.208509e+01
7.214461e+01
7.219279e+01
7.223101e+01
7.226066e+01
7.228312e+01
7.230026e+01
7.230945e+01
7.230934e+01
7.229933e+01
7.227901e+01
7.224959e+01
7.221425e+01
7.217593e+01
7.212972e+01
7.208105e+01
7.203643e+01
7.201599e+01
7.203371e+01
7.207675e+01
7.212967e+01
7.218060e+01
7.222182e+01
7.225376e+01
7.227810e+01
7.229670e+01
7.231093e+01
7.232139e+01
7.232789e+01
7.233001e+01
7.232825e+01
7.232276e+01
7.231379e+01
7.230181e+01
7.228746e+01
7.227172e+01
7.225490e+01
7.223711e+01
7.221948e+01
7.220333e+01
7.219007e+01
7.218093e+01
7.218199e+01
7.219354e+01
7.221268e+01
7.223557e+01
7.225861e+01
7.227769e+01
7.229245e+01
7.230327e+01
7.231068e+01
7.231514e+01
7.231686e+01
7.231610e+01
7.231378e+01
7.230999e+01
7.230494e+01
7.229883e+01
7.229194e+01
7.228457e+01
7.227705e+01
7.226925e+01
7.226143e+01
7.225388e+01
7.224695e+01
7.224099e+01
7.223628e+01
7.223302e+01
7.223180e+01
7.223300e+01
7.223569e+01
7.223700e+01
7.223734e+01
7.259691e+01
7.259657e+01
7.259823e+01
7.259855e+01
7.259520e+01
7.258492e+01
7.256301e+01
7.252337e+01
7.245901e+01
7.236280e+01
7.223377e+01
7.209014e+01
7.200222e+01
7.195339e+01
7.192377e+01
7.190322e+01
7.188712e+01
7.187293e+01
7.185895e+01
7.184438e+01
7.182857e+01
7.180986e+01
7.179015e+01
7.178126e+01
7.179530e+01
7.183662e+01
7.189938e+01
7.197244e+01
7.204361e+01
7.210686e+01
7.216031e+01
7.220421e+01
7.223971e+01
7.226797e+01
7.228901e+01
7.230292e+01
7.230944e+01
7.230888e+01
7.230041e+01
7.228252e+01
7.225503e+01
7.222036e+01
7.218030e+01
7.213144e+01
7.208019e+01
7.203528e+01
7.202313e+01
7.204735e+01
7.209430e+01
7.214867e+01
7.219840e+01
7.223826e+01
7.226878e+01
7.229166e+01
7.230878e+01
7.232161e+01
7.233090e+01
7.233666e+01
7.233875e+01
7.233722e+01
7.233203e+01
7.232316e+01
7.231079e+01
7.229540e+01
7.227786e+01
7.225873e+01
7.223820e+01
7.221767e+01
7.219885e+01
7.218362e+01
7.217379e+01
7.217570e+01
7.218915e+01
7.221078e+01
7.223628e+01
7.226146e+01
7.228210e+01
7.229779e+01
7.230897e+01
7.231637e+01
7.232066e+01
7.232228e+01
7.232154e+01
7.231915e+01
7.231522e+01
7.230992e+01
7.230341e+01
7.229592e+01
7.228769e+01
7.227903e+01
7.226999e+01
7.226077e+01
7.225174e+01
7.224331e+01
7.223593e+01
7.223000e+01
7.222573e+01
7.222360e+01
7.222369e+01
7.222489e+01
7.222326e+01
7.222360e+01
7.259777e+01
7.259743e+01
7.259520e+01
7.259143e+01
7.258381e+01
7.256955e+01
7.254513e+01
7.250640e+01
7.244904e+01
7.236899e+01
7.226533e+01
7.214964e+01
7.206051e+01
7.199932e+01
7.195747e+01
7.192705e+01
7.190338e+01
7.188357e+01
7.186579e+01
7.184907e+01
7.183290e+01
7.181737e+01
7.180667e+01
7.180922e+01
7.183229e+01
7.187677e+01
7.193663e+01
7.200272e+01
7.206666e+01
7.212379e+01
7.217257e+01
7.221320e+01
7.224655e+01
7.227323e+01
7.229292e+01
7.230558e+01
7.231134e+01
7.231031e+01
7.230191e+01
7.228492e+01
7.225869e+01
7.222471e+01
7.218364e+01
7.213460e+01
7.208460e+01
7.204605e+01
7.204247e+01
7.207139e+01
7.211934e+01
7.217201e+01
7.221862e+01
7.225582e+01
7.228404e+01
7.230484e+01
7.232007e+01
7.233123e+01
7.233921e+01
7.234423e+01
7.234611e+01
7.234485e+01
7.234020e+01
7.233188e+01
7.231978e+01
7.230407e+01
7.228537e+01
7.226439e+01
7.224151e+01
7.221841e+01
7.219724e+01
7.218053e+01
7.217078e+01
7.217378e+01
7.218885e+01
7.221232e+01
7.223946e+01
7.226573e+01
7.228715e+01
7.230321e+01
7.231437e+01
7.232149e+01
7.232544e+01
7.232686e+01
7.232619e+01
7.232382e+01
7.231989e+01
7.231453e+01
7.230786e+01
7.230004e+01
7.229123e+01
7.228168e+01
7.227155e+01
7.226105e+01
7.225061e+01
7.224074e+01
7.223200e+01
7.222487e+01
7.221964e+01
7.221660e+01
7.221547e+01
7.221495e+01
7.221024e+01
7.221058e+01
7.259848e+01
7.259814e+01
7.259298e+01
7.258625e+01
7.257571e+01
7.255896e+01
7.253318e+01
7.249532e+01
7.244242e+01
7.237210e+01
7.228426e+01
7.218661e+01
7.210122e+01
7.203461e+01
7.198459e+01
7.194669e+01
7.191703e+01
7.189268e+01
7.187169e+01
7.185304e+01
7.183661e+01
7.182393e+01
7.181967e+01
7.183022e+01
7.185928e+01
7.190539e+01
7.196276e+01
7.202402e+01
7.208302e+01
7.213599e+01
7.218156e+01
7.221982e+01
7.225144e+01
7.227685e+01
7.229592e+01
7.230859e+01
7.231482e+01
7.231438e+01
7.230655e+01
7.229017e+01
7.226436e+01
7.222966e+01
7.218659e+01
7.213687e+01
7.208937e+01
7.205981e+01
7.206353e+01
7.209596e+01
7.214374e+01
7.219372e+01
7.223724e+01
7.227163e+01
7.229723e+01
7.231575e+01
7.232909e+01
7.233879e+01
7.234583e+01
7.235058e+01
7.235248e+01
7.235154e+01
7.234749e+01
7.233990e+01
7.232844e+01
7.231291e+01
7.229360e+01
7.227119e+01
7.224632e+01
7.222092e+01
7.219766e+01
7.217978e+01
7.217064e+01
7.217480e+01
7.219122e+01
7.221596e+01
7.224400e+01
7.227065e+01
7.229236e+01
7.230850e+01
7.231953e+01
7.232630e+01
7.232983e+01
7.233095e+01
7.233027e+01
7.232787e+01
7.232394e+01
7.231859e+01
7.231190e+01
7.230392e+01
7.229476e+01
7.228458e+01
7.227357e+01
7.226199e+01
7.225030e+01
7.223911e+01
7.222910e+01
7.222089e+01
7.221483e+01
7.221098e+01
7.220869e+01
7.220647e+01
7.219877e+01
7.219911e+01
7.259901e+01
7.259867e+01
7.259157e+01
7.258292e+01
7.257059e+01
7.255239e+01
7.252594e+01
7.248875e+01
7.243856e+01
7.237381e+01
7.229499e+01
7.220789e+01
7.212634e+01
7.205779e+01
7.200330e+01
7.196068e+01
7.192692e+01
7.189935e+01
7.187601e+01
7.185594e+01
7.183950e+01
7.182910e+01
7.182920e+01
7.184441e+01
7.187653e+01
7.192322e+01
7.197897e+01
7.203735e+01
7.209332e+01
7.214365e+01
7.218715e+01
7.222390e+01
7.225443e+01
7.227917e+01
7.229817e+01
7.231122e+01
7.231824e+01
7.231877e+01
7.231192e+01
7.229642e+01
7.227100e+01
7.223511e+01
7.218927e+01
7.213777e+01
7.209244e+01
7.206992e+01
7.207907e+01
7.211400e+01
7.216154e+01
7.220940e+01
7.225055e+01
7.228276e+01
7.230649e+01
7.232340e+01
7.233536e+01
7.234395e+01
7.235027e+01
7.235478e+01
7.235693e+01
7.235663e+01
7.235346e+01
7.234679e+01
7.233605e+01
7.232092e+01
7.230139e+01
7.227793e+01
7.225142e+01
7.222399e+01
7.219882e+01
7.217989e+01
7.217147e+01
7.217661e+01
7.219403e+01
7.221961e+01
7.224813e+01
7.227489e+01
7.229682e+01
7.231306e+01
7.232388e+01
7.233027e+01
7.233335e+01
7.233413e+01
7.233336e+01
7.233092e+01
7.232702e+01
7.232174e+01
7.231511e+01
7.230713e+01
7.229781e+01
7.228723e+01
7.227558e+01
7.226314e+01
7.225044e+01
7.223817e+01
7.222711e+01
7.221800e+01
7.221132e+01
7.220690e+01
7.220374e+01
7.220014e+01
7.218980e+01
7.219014e+01
7.259930e+01
7.259896e+01
7.259090e+01
7.258132e+01
7.256816e+01
7.254935e+01
7.252270e+01
7.248599e+01
7.243722e+01
7.237515e+01
7.230051e+01
7.221825e+01
7.213880e+01
7.206962e+01
7.201308e+01
7.196811e+01
7.193225e+01
7.190299e+01
7.187839e+01
7.185759e+01
7.184125e+01
7.183208e+01
7.183419e+01
7.185132e+01
7.188450e+01
7.193114e+01
7.198596e+01
7.204295e+01
7.209755e+01
7.214676e+01
7.218941e+01
7.222551e+01
7.225553e+01
7.227990e+01
7.229882e+01
7.231228e+01
7.232002e+01
7.232144e+01
7.231556e+01
7.230103e+01
7.227627e+01
7.223970e+01
7.219144e+01
7.213782e+01
7.209367e+01
7.207502e+01
7.208703e+01
7.212282e+01
7.216965e+01
7.221615e+01
7.225622e+01
7.228761e+01
7.231071e+01
7.232708e+01
7.233853e+01
7.234667e+01
7.235261e+01
7.235679e+01
7.235913e+01
7.235936e+01
7.235688e+01
7.235100e+01
7.234101e+01
7.232645e+01
7.230707e+01
7.228303e+01
7.225533e+01
7.222616e+01
7.219919e+01
7.217926e+01
7.217097e+01
7.217657e+01
7.219466e+01
7.222089e+01
7.224976e+01
7.227656e+01
7.229861e+01
7.231494e+01
7.232584e+01
7.233223e+01
7.233527e+01
7.233597e+01
7.233498e+01
7.233249e+01
7.232864e+01
7.232347e+01
7.231695e+01
7.230905e+01
7.229975e+01
7.228905e+01
7.227708e+01
7.226418e+01
7.225086e+01
7.223788e+01
7.222617e+01
7.221658e+01
7.220957e+01
7.220483e+01
7.220118e+01
7.219665e+01
7.218448e+01
7.218482e+01
0.000000e+00
7.259930e+01
7.259124e+01
7.258166e+01
7.256850e+01
7.254969e+01
7.252305e+01
7.248633e+01
7.243756e+01
7.237550e+01
7.230085e+01
7.221860e+01
7.213915e+01
7.206996e+01
7.201342e+01
7.196845e+01
7.193260e+01
7.190333e+01
7.187873e+01
7.185793e+01
7.184160e+01
7.183242e+01
7.183453e+01
7.185166e+01
7.188485e+01
7.193149e+01
7.198630e+01
7.204329e+01
7.209789e+01
7.214710e+01
7.218975e+01
7.222585e+01
7.225587e+01
7.228025e+01
7.229916e+01
7.231262e+01
7.232036e+01
7.232179e+01
7.231590e+01
7.230138e+01
7.227661e+01
7.224004e+01
7.219178e+01
7.213816e+01
7.209401e+01
7.207536e+01
7.208737e+01
7.212316e+01
7.216999e+01
7.221649e+01
7.225656e+01
7.228795e+01
7.231105e+01
7.232742e+01
7.233887e+01
7.234701e+01
7.235295e+01
7.235714e+01
7.235948e+01
7.235970e+01
7.235723e+01