# vtk DataFile Version 3.0
Scalar Field
ASCII
DATASET RECTILINEAR_GRID
DIMENSIONS 102 22 1
X_COORDINATES 102 double
0.000000 0.100000 0.200000 0.300000 0.400000 0.500000 0.600000 0.700000 0.800000 0.900000 1.000000 1.100000 1.200000 1.300000 1.400000 1.500000 1.600000 1.700000 1.800000 1.900000 2.000000 2.100000 2.200000 2.300000 2.400000 2.500000 2.600000 2.700000 2.800000 2.900000 3.000000 3.100000 3.200000 3.300000 3.400000 3.500000 3.600000 3.700000 3.800000 3.900000 4.000000 4.100000 4.200000 4.300000 4.400000 4.500000 4.600000 4.700000 4.800000 4.900000 5.000000 5.100000 5.200000 5.300000 5.400000 5.500000 5.600000 5.700000 5.800000 5.900000 6.000000 6.100000 6.200000 6.300000 6.400000 6.500000 6.600000 6.700000 6.800000 6.900000 7.000000 7.100000 7.200000 7.300000 7.400000 7.500000 7.600000 7.700000 7.800000 7.900000 8.000000 8.100000 8.200000 8.300000 8.400000 8.500000 8.600000 8.700000 8.800000 8.900000 9.000000 9.100000 9.200000 9.300000 9.400000 9.500000 9.600000 9.700000 9.800000 9.900000 10.000000 10.100000 
Y_COORDINATES 22 double
0.000000 0.100000 0.200000 0.300000 0.400000 0.500000 0.600000 0.700000 0.800000 0.900000 1.000000 1.100000 1.200000 1.300000 1.400000 1.500000 1.600000 1.700000 1.800000 1.900000 2.000000 2.100000 
Z_COORDINATES 1 double
0.0
POINT_DATA 2244
SCALARS Pressure double 1
LOOKUP_TABLE default
0.000000e+00
7.291580e+01
7.288908e+01
7.285793e+01
7.281920e+01
7.276937e+01
7.270517e+01
7.262559e+01
7.253081e+01
7.243929e+01
7.236503e+01
7.231176e+01
7.227710e+01
7.225662e+01
7.224584e+01
7.224078e+01
7.223776e+01
7.223353e+01
7.222609e+01
7.221592e+01
7.220602e+01
7.220018e+01
7.220076e+01
7.220796e+01
7.222059e+01
7.223726e+01
7.225696e+01
7.227920e+01
7.230397e+01
7.233151e+01
7.236209e+01
7.239570e+01
7.243195e+01
7.247004e+01
7.250888e+01
7.254718e+01
7.258358e+01
7.261670e+01
7.264542e+01
7.266927e+01
7.268864e+01
7.270452e+01
7.271813e+01
7.273065e+01
7.274040e+01
7.274401e+01
7.273664e+01
7.271360e+01
7.267268e+01
7.261721e+01
7.255586e+01
7.250090e+01
7.246406e+01
7.245184e+01
7.246074e+01
7.248638e+01
7.252410e+01
7.256785e+01
7.261081e+01
7.264674e+01
7.267169e+01
7.268582e+01
7.269190e+01
7.269318e+01
7.269179e+01
7.268922e+01
7.268593e+01
7.268119e+01
7.267453e+01
7.266582e+01
7.265533e+01
7.264360e+01
7.263136e+01
7.261941e+01
7.260856e+01
7.259951e+01
7.259283e+01
7.258890e+01
7.258784e+01
7.258954e+01
7.259367e+01
7.259997e+01
7.260811e+01
7.261770e+01
7.262823e+01
7.263910e+01
7.264955e+01
7.265884e+01
7.266630e+01
7.267164e+01
7.267496e+01
7.267663e+01
7.267711e+01
7.267697e+01
7.267671e+01
7.267667e+01
7.267720e+01
7.267867e+01
7.268149e+01
7.268613e+01
7.269637e+01
0.000000e+00
7.291580e+01
7.291615e+01
7.288942e+01
7.285828e+01
7.281955e+01
7.276971e+01
7.270552e+01
7.262593e+01
7.253115e+01
7.243964e+01
7.236537e+01
7.231211e+01
7.227745e+01
7.225696e+01
7.224619e+01
7.224112e+01
7.223810e+01
7.223387e+01
7.222643e+01
7.221627e+01
7.220637e+01
7.220052e+01
7.220111e+01
7.220831e+01
7.222093e+01
7.223761e+01
7.225731e+01
7.227955e+01
7.230432e+01
7.233186e+01
7.236244e+01
7.239604e+01
7.243229e+01
7.247039e+01
7.250923e+01
7.254752e+01
7.258393e+01
7.261705e+01
7.264577e+01
7.266962e+01
7.268899e+01
7.270486e+01
7.271848e+01
7.273100e+01
7.274075e+01
7.274436e+01
7.273698e+01
7.271395e+01
7.267303e+01
7.261756e+01
7.255621e+01
7.250124e+01
7.246441e+01
7.245218e+01
7.246108e+01
7.248672e+01
7.252444e+01
7.256820e+01
7.261116e+01
7.264708e+01
7.267204e+01
7.268617e+01
7.269225e+01
7.269353e+01
7.269214e+01
7.268957e+01
7.268627e+01
7.268154e+01
7.267487e+01
7.266616e+01
7.265568e+01
7.264395e+01
7.263171e+01
7.261976e+01
7.260890e+01
7.259985e+01
7.259318e+01
7.258925e+01
7.258819e+01
7.258989e+01
7.259402e+01
7.260031e+01
7.260845e+01
7.261804e+01
7.262858e+01
7.263944e+01
7.264990e+01
7.265918e+01
7.266665e+01
7.267199e+01
7.267531e+01
7.267698e+01
7.267746e+01
7.267732e+01
7.267705e+01
7.267701e+01
7.267755e+01
7.267902e+01
7.268184e+01
7.268648e+01
7.269671e+01
7.269637e+01
7.291553e+01
7.291588e+01
7.289056e+01
7.286061e+01
7.282260e+01
7.277255e+01
7.270648e+01
7.262298e+01
7.251898e+01
7.242292e+01
7.234924e+01
7.229874e+01
7.226709e+01
7.224912e+01
7.224038e+01
7.223712e+01
7.223590e+01
7.223333e+01
7.222694e+01
7.221686e+01
7.220635e+01
7.219974e+01
7.220009e+01
7.220754e+01
7.222049e+01
7.223737e+01
7.225705e+01
7.227901e+01
7.230328e+01
7.233020e+01
7.236013e+01
7.239313e+01
7.242887e+01
7.246659e+01
7.250514e+01
7.254324e+01
7.257959e+01
7.261281e+01
7.264170e+01
7.266569e+01
7.268505e+01
7.270072e+01
7.271365e+01
7.272437e+01
7.273134e+01
7.273176e+01
7.272221e+01
7.269851e+01
7.265815e+01
7.260495e+01
7.254718e+01
7.249600e+01
7.246197e+01
7.245154e+01
7.246172e+01
7.248718e+01
7.252332e+01
7.256404e+01
7.260318e+01
7.263649e+01
7.266130e+01
7.267701e+01
7.268519e+01
7.268843e+01
7.268864e+01
7.268701e+01
7.268399e+01
7.267923e+01
7.267247e+01
7.266372e+01
7.265330e+01
7.264174e+01
7.262977e+01
7.261816e+01
7.260769e+01
7.259902e+01
7.259269e+01
7.258904e+01
7.258820e+01
7.259018e+01
7.259458e+01
7.260113e+01
7.260952e+01
7.261933e+01
7.262996e+01
7.264065e+01
7.265060e+01
7.265917e+01
7.266587e+01
7.267058e+01
7.267349e+01
7.267499e+01
7.267551e+01
7.267545e+01
7.267526e+01
7.267528e+01
7.267585e+01
7.267733e+01
7.268010e+01
7.268463e+01
7.269428e+01
7.269394e+01
7.291549e+01
7.291584e+01
7.289347e+01
7.286619e+01
7.283010e+01
7.278013e+01
7.271042e+01
7.261807e+01
7.249205e+01
7.238750e+01
7.231671e+01
7.227271e+01
7.224731e+01
7.223425e+01
7.222927e+01
7.222933e+01
7.223160e+01
7.223254e+01
7.222842e+01
7.221840e+01
7.220653e+01
7.219837e+01
7.219811e+01
7.220614e+01
7.221980e+01
7.223714e+01
7.225675e+01
7.227812e+01
7.230136e+01
7.232697e+01
7.235543e+01
7.238699e+01
7.242147e+01
7.245817e+01
7.249598e+01
7.253360e+01
7.256974e+01
7.260306e+01
7.263235e+01
7.265690e+01
7.267671e+01
7.269252e+01
7.270521e+01
7.271441e+01
7.271862e+01
7.271609e+01
7.270408e+01
7.267961e+01
7.264057e+01
7.259038e+01
7.253712e+01
7.249059e+01
7.246020e+01
7.245191e+01
7.246304e+01
7.248710e+01
7.251996e+01
7.255630e+01
7.259104e+01
7.262122e+01
7.264530e+01
7.266245e+01
7.267343e+01
7.267950e+01
7.268207e+01
7.268220e+01
7.268001e+01
7.267558e+01
7.266896e+01
7.266034e+01
7.265005e+01
7.263870e+01
7.262705e+01
7.261584e+01
7.260581e+01
7.259761e+01
7.259173e+01
7.258850e+01
7.258811e+01
7.259065e+01
7.259549e+01
7.260244e+01
7.261116e+01
7.262111e+01
7.263157e+01
7.264168e+01
7.265059e+01
7.265804e+01
7.266370e+01
7.266760e+01
7.267005e+01
7.267150e+01
7.267216e+01
7.267232e+01
7.267234e+01
7.267250e+01
7.267309e+01
7.267449e+01
7.267710e+01
7.268133e+01
7.269011e+01
7.268976e+01
7.291600e+01
7.291635e+01
7.289857e+01
7.287571e+01
7.284323e+01
7.279412e+01
7.271865e+01
7.260856e+01
7.244031e+01
7.232762e+01
7.226732e+01
7.223560e+01
7.221959e+01
7.221345e+01
7.221362e+01
7.221810e+01
7.222521e+01
7.223158e+01
7.223153e+01
7.222145e+01
7.220699e+01
7.219606e+01
7.219453e+01
7.220366e+01
7.221868e+01
7.223699e+01
7.225665e+01
7.227713e+01
7.229880e+01
7.232238e+01
7.234866e+01
7.237812e+01
7.241076e+01
7.244600e+01
7.248276e+01
7.251968e+01
7.255539e+01
7.258870e+01
7.261850e+01
7.264390e+01
7.266464e+01
7.268116e+01
7.269407e+01
7.270301e+01
7.270472e+01
7.269875e+01
7.268424e+01
7.265960e+01
7.262335e+01
7.257799e+01
7.253082e+01
7.249008e+01
7.246386e+01
7.245751e+01
7.246882e+01
7.249070e+01
7.251970e+01
7.255145e+01
7.258184e+01
7.260876e+01
7.263160e+01
7.264910e+01
7.266134e+01
7.266919e+01
7.267372e+01
7.267580e+01
7.267485e+01
7.267107e+01
7.266478e+01
7.265635e+01
7.264622e+01
7.263514e+01
7.262391e+01
7.261324e+01
7.260382e+01
7.259625e+01
7.259099e+01
7.258839e+01
7.258874e+01
7.259194e+01
7.259737e+01
7.260476e+01
7.261366e+01
7.262341e+01
7.263314e+01
7.264196e+01
7.264950e+01
7.265566e+01
7.266028e+01
7.266353e+01
7.266576e+01
7.266735e+01
7.266816e+01
7.266850e+01
7.266863e+01
7.266882e+01
7.266935e+01
7.267060e+01
7.267299e+01
7.267687e+01
7.268487e+01
7.268452e+01
7.291744e+01
7.291779e+01
7.290632e+01
7.289004e+01
7.286394e+01
7.281825e+01
7.273541e+01
7.259012e+01
7.234732e+01
7.224048e+01
7.220282e+01
7.218931e+01
7.218582e+01
7.218838e+01
7.219453e+01
7.220358e+01
7.221580e+01
7.222916e+01
7.223670e+01
7.222762e+01
7.220864e+01
7.219301e+01
7.218931e+01
7.219945e+01
7.221716e+01
7.223757e+01
7.225766e+01
7.227705e+01
7.229663e+01
7.231745e+01
7.234077e+01
7.236739e+01
7.239755e+01
7.243082e+01
7.246619e+01
7.250224e+01
7.253742e+01
7.257061e+01
7.260102e+01
7.262773e+01
7.265029e+01
7.266863e+01
7.268239e+01
7.269087e+01
7.268926e+01
7.267966e+01
7.266341e+01
7.263999e+01
7.260806e+01
7.256922e+01
7.252953e+01
7.249557e+01
7.247400e+01
7.246934e+01
7.247996e+01
7.249911e+01
7.252399e+01
7.255112e+01
7.257722e+01
7.260068e+01
7.262155e+01
7.263847e+01
7.265116e+01
7.266007e+01
7.266592e+01
7.266931e+01
7.266927e+01
7.266596e+01
7.265991e+01
7.265170e+01
7.264190e+01
7.263127e+01
7.262068e+01
7.261079e+01
7.260220e+01
7.259546e+01
7.259103e+01
7.258928e+01
7.259063e+01
7.259455e+01
7.260051e+01
7.260811e+01
7.261674e+01
7.262563e+01
7.263389e+01
7.264101e+01
7.264711e+01
7.265201e+01
7.265577e+01
7.265862e+01
7.266084e+01
7.266254e+01
7.266348e+01
7.266390e+01
7.266407e+01
7.266424e+01
7.266469e+01
7.266579e+01
7.266795e+01
7.267149e+01
7.267880e+01
7.267845e+01
7.292009e+01
7.292043e+01
7.291688e+01
7.290975e+01
7.289460e+01
7.285954e+01
7.277461e+01
7.256660e+01
7.218417e+01
7.211751e+01
7.212661e+01
7.213893e+01
7.214965e+01
7.216169e+01
7.217364e+01
7.218613e+01
7.220089e+01
7.221875e+01
7.223852e+01
7.223793e+01
7.221403e+01
7.219129e+01
7.218433e+01
7.219488e+01
7.221579e+01
7.224082e+01
7.226230e+01
7.228033e+01
7.229751e+01
7.231485e+01
7.233447e+01
7.235749e+01
7.238443e+01
7.241509e+01
7.244854e+01
7.248333e+01
7.251768e+01
7.255036e+01
7.258134e+01
7.260986e+01
7.263520e+01
7.265604e+01
7.267024e+01
7.267603e+01
7.266977e+01
7.265705e+01
7.264078e+01
7.262074e+01
7.259523e+01
7.256476e+01
7.253373e+01
7.250718e+01
7.249039e+01
7.248704e+01
7.249610e+01
7.251200e+01
7.253251e+01
7.255492e+01
7.257660e+01
7.259637e+01
7.261458e+01
7.263004e+01
7.264231e+01
7.265153e+01
7.265804e+01
7.266216e+01
7.266265e+01
7.265965e+01
7.265390e+01
7.264615e+01
7.263703e+01
7.262727e+01
7.261773e+01
7.260897e+01
7.260152e+01
7.259588e+01
7.259251e+01
7.259192e+01
7.259431e+01
7.259878e+01
7.260491e+01
7.261214e+01
7.261978e+01
7.262706e+01
7.263330e+01
7.263881e+01
7.264346e+01
7.264728e+01
7.265041e+01
7.265302e+01
7.265526e+01
7.265696e+01
7.265794e+01
7.265839e+01
7.265856e+01
7.265873e+01
7.265915e+01
7.266018e+01
7.266217e+01
7.266541e+01
7.267202e+01
7.267168e+01
7.292394e+01
7.292428e+01
7.292963e+01
7.293394e+01
7.293572e+01
7.292647e+01
7.287258e+01
7.263442e+01
7.188895e+01
7.195254e+01
7.205477e+01
7.209617e+01
7.211789e+01
7.213471e+01
7.215079e+01
7.216722e+01
7.218347e+01
7.220178e+01
7.222396e+01
7.223723e+01
7.222027e+01
7.219134e+01
7.218242e+01
7.219381e+01
7.221910e+01
7.224875e+01
7.227327e+01
7.229073e+01
7.230633e+01
7.231955e+01
7.233498e+01
7.235366e+01
7.237639e+01
7.240332e+01
7.243373e+01
7.246625e+01
7.249900e+01
7.253028e+01
7.256101e+01
7.259081e+01
7.261776e+01
7.263912e+01
7.265135e+01
7.265197e+01
7.264240e+01
7.262978e+01
7.261662e+01
7.260252e+01
7.258546e+01
7.256480e+01
7.254310e+01
7.252407e+01
7.251185e+01
7.250940e+01
7.251624e+01
7.252845e+01
7.254432e+01
7.256180e+01
7.257884e+01
7.259460e+01
7.260957e+01
7.262281e+01
7.263388e+01
7.264265e+01
7.264914e+01
7.265340e+01
7.265407e+01
7.265139e+01
7.264628e+01
7.263950e+01
7.263168e+01
7.262342e+01
7.261549e+01
7.260832e+01
7.260237e+01
7.259812e+01
7.259607e+01
7.259676e+01
7.259985e+01
7.260447e+01
7.261013e+01
7.261622e+01
7.262211e+01
7.262722e+01
7.263160e+01
7.263545e+01
7.263879e+01
7.264171e+01
7.264431e+01
7.264667e+01
7.264879e+01
7.265038e+01
7.265133e+01
7.265182e+01
7.265209e+01
7.265237e+01
7.265289e+01
7.265396e+01
7.265587e+01
7.265886e+01
7.266467e+01
7.266432e+01
7.292862e+01
7.292896e+01
7.294282e+01
7.295891e+01
7.298074e+01
7.301171e+01
7.305124e+01
7.316524e+01
7.252675e+01
7.200737e+01
7.206289e+01
7.207832e+01
7.209467e+01
7.210922e+01
7.212422e+01
7.214093e+01
7.215618e+01
7.217544e+01
7.219373e+01
7.220161e+01
7.219436e+01
7.217858e+01
7.217600e+01
7.219115e+01
7.222129e+01
7.225724e+01
7.228682e+01
7.230864e+01
7.232365e+01
7.233449e+01
7.234661e+01
7.236079e+01
7.237833e+01
7.240002e+01
7.242557e+01
7.245384e+01
7.248308e+01
7.251135e+01
7.253730e+01
7.256407e+01
7.258988e+01
7.260909e+01
7.261758e+01
7.261471e+01
7.260719e+01
7.259940e+01
7.259279e+01
7.258686e+01
7.257960e+01
7.256931e+01
7.255686e+01
7.254491e+01
7.253673e+01
7.253476e+01
7.253903e+01
7.254729e+01
7.255832e+01
7.257067e+01
7.258283e+01
7.259423e+01
7.260543e+01
7.261577e+01
7.262484e+01
7.263234e+01
7.263804e+01
7.264187e+01
7.264257e+01
7.264061e+01
7.263682e+01
7.263184e+01
7.262613e+01
7.262017e+01
7.261449e+01
7.260941e+01
7.260534e+01
7.260276e+01
7.260217e+01
7.260389e+01
7.260706e+01
7.261112e+01
7.261553e+01
7.261977e+01
7.262343e+01
7.262637e+01
7.262892e+01
7.263120e+01
7.263333e+01
7.263538e+01
7.263737e+01
7.263928e+01
7.264108e+01
7.264248e+01
7.264347e+01
7.264417e+01
7.264473e+01
7.264533e+01
7.264614e+01
7.264742e+01
7.264936e+01
7.265213e+01
7.265700e+01
7.265665e+01
7.293344e+01
7.293379e+01
7.295399e+01
7.297872e+01
7.301473e+01
7.307249e+01
7.316949e+01
7.330079e+01
7.332384e+01
0.000000e+00
7.208732e+01
7.208766e+01
7.210025e+01
7.210815e+01
7.211457e+01
7.212257e+01
7.212972e+01
7.213571e+01
7.213953e+01
7.213507e+01
7.212257e+01
7.211500e+01
7.212703e+01
7.216194e+01
7.221198e+01
7.226033e+01
7.230042e+01
7.233147e+01
7.234918e+01
7.236028e+01
7.236960e+01
7.238025e+01
7.239207e+01
7.240713e+01
7.242574e+01
7.244701e+01
7.246921e+01
7.249007e+01
7.250766e+01
7.252927e+01
7.254907e+01
7.256079e+01
7.256455e+01
7.256553e+01
7.256723e+01
7.256979e+01
7.257292e+01
7.257628e+01
7.257870e+01
7.257825e+01
7.257426e+01
7.256837e+01
7.256344e+01
7.256151e+01
7.256314e+01
7.256738e+01
7.257352e+01
7.258060e+01
7.258767e+01
7.259439e+01
7.260130e+01
7.260801e+01
7.261416e+01
7.261940e+01
7.262352e+01
7.262648e+01
7.262750e+01
7.262706e+01
7.262563e+01
7.262352e+01
7.262091e+01
7.261808e+01
7.261527e+01
7.261274e+01
7.261086e+01
7.261006e+01
7.261070e+01
7.261273e+01
7.261535e+01
7.261811e+01
7.262063e+01
7.262260e+01
7.262393e+01
7.262481e+01
7.262553e+01
7.262628e+01
7.262716e+01
7.262818e+01
7.262933e+01
7.263054e+01
7.263181e+01
7.263308e+01
7.263431e+01
7.263549e+01
7.263666e+01
7.263788e+01
7.263924e+01
7.264090e+01
7.264296e+01
7.264553e+01
7.264938e+01
7.264903e+01
7.293778e+01
7.293813e+01
7.296130e+01
7.298940e+01
7.302876e+01
7.308676e+01
7.317083e+01
7.327150e+01
7.334758e+01
7.334724e+01
0.000000e+00
7.211140e+01
7.211174e+01
7.211530e+01
7.211394e+01
7.211094e+01
7.210477e+01
7.209394e+01
7.207716e+01
7.205381e+01
7.202797e+01
7.202121e+01
7.204670e+01
7.210263e+01
7.217782e+01
7.225628e+01
7.232198e+01
7.236836e+01
7.239207e+01
7.240262e+01
7.240839e+01
7.241465e+01
7.242020e+01
7.242744e+01
7.243721e+01
7.244886e+01
7.246055e+01
7.246987e+01
7.247856e+01
7.248697e+01
7.249236e+01
7.249625e+01
7.250250e+01
7.251514e+01
7.253054e+01
7.254591e+01
7.255989e+01
7.257230e+01
7.258287e+01
7.259039e+01
7.259373e+01
7.259322e+01
7.259070e+01
7.258838e+01
7.258746e+01
7.258782e+01
7.258914e+01
7.259094e+01
7.259277e+01
7.259447e+01
7.259648e+01
7.259866e+01
7.260083e+01
7.260282e+01
7.260463e+01
7.260650e+01
7.260859e+01
7.261086e+01
7.261313e+01
7.261515e+01
7.261669e+01
7.261772e+01
7.261829e+01
7.261861e+01
7.261902e+01
7.261982e+01
7.262110e+01
7.262273e+01
7.262416e+01
7.262504e+01
7.262522e+01
7.262480e+01
7.262398e+01
7.262290e+01
7.262181e+01
7.262092e+01
7.262032e+01
7.262001e+01
7.261998e+01
7.262021e+01
7.262087e+01
7.262218e+01
7.262396e+01
7.262603e+01
7.262821e+01
7.263041e+01
7.263255e+01
7.263470e+01
7.263692e+01
7.263925e+01
7.264203e+01
7.264168e+01
7.294129e+01
7.294164e+01
7.296442e+01
7.299119e+01
7.302678e+01
7.307618e+01
7.313975e+01
7.319621e+01
7.322463e+01
7.298091e+01
7.298057e+01
0.000000e+00
7.211144e+01
7.211182e+01
7.210898e+01
7.209949e+01
7.208421e+01
7.206193e+01
7.203168e+01
7.199507e+01
7.196094e+01
7.196444e+01
7.200831e+01
7.208423e+01
7.217784e+01
7.227343e+01
7.235875e+01
7.242122e+01
7.245727e+01
7.246980e+01
7.247043e+01
7.246960e+01
7.246736e+01
7.246570e+01
7.246513e+01
7.246531e+01
7.246379e+01
7.245899e+01
7.245149e+01
7.244250e+01
7.243420e+01
7.243094e+01
7.244563e+01
7.247224e+01
7.250243e+01
7.253077e+01
7.255498e+01
7.257482e+01
7.259138e+01
7.260457e+01
7.261328e+01
7.261699e+01
7.261670e+01
7.261415e+01
7.261112e+01
7.260800e+01
7.260478e+01
7.260141e+01
7.259783e+01
7.259411e+01
7.259048e+01
7.258712e+01
7.258427e+01
7.258226e+01
7.258137e+01
7.258267e+01
7.258699e+01
7.259339e+01
7.260069e+01
7.260785e+01
7.261416e+01
7.261929e+01
7.262337e+01
7.262657e+01
7.262908e+01
7.263096e+01
7.263202e+01
7.263253e+01
7.263223e+01
7.263105e+01
7.262909e+01
7.262662e+01
7.262394e+01
7.262105e+01
7.261822e+01
7.261564e+01
7.261341e+01
7.261159e+01
7.261020e+01
7.260925e+01
7.260928e+01
7.261072e+01
7.261325e+01
7.261646e+01
7.261991e+01
7.262329e+01
7.262629e+01
7.262890e+01
7.263116e+01
7.263310e+01
7.263467e+01
7.263432e+01
7.294399e+01
7.294433e+01
7.296415e+01
7.298665e+01
7.301427e+01
7.304701e+01
7.307785e+01
7.308477e+01
7.302587e+01
7.290911e+01
7.250123e+01
7.220241e+01
7.207843e+01
7.212179e+01
7.211255e+01
7.209528e+01
7.207344e+01
7.204472e+01
7.200717e+01
7.196342e+01
7.193829e+01
7.195586e+01
7.201495e+01
7.210389e+01
7.220705e+01
7.230864e+01
7.239897e+01
7.247373e+01
7.252025e+01
7.254192e+01
7.254918e+01
7.254624e+01
7.253514e+01
7.252356e+01
7.251069e+01
7.249474e+01
7.247655e+01
7.245629e+01
7.243118e+01
7.240447e+01
7.238119e+01
7.237708e+01
7.240241e+01
7.244295e+01
7.248658e+01
7.252601e+01
7.255771e+01
7.258279e+01
7.260318e+01
7.261972e+01
7.263183e+01
7.263856e+01
7.263995e+01
7.263718e+01
7.263245e+01
7.262634e+01
7.261916e+01
7.261110e+01
7.260249e+01
7.259359e+01
7.258439e+01
7.257548e+01
7.256756e+01
7.256134e+01
7.255736e+01
7.255840e+01
7.256556e+01
7.257681e+01
7.258980e+01
7.260261e+01
7.261368e+01
7.262267e+01
7.262983e+01
7.263536e+01
7.263932e+01
7.264159e+01
7.264205e+01
7.264136e+01
7.263949e+01
7.263653e+01
7.263273e+01
7.262847e+01
7.262410e+01
7.261950e+01
7.261494e+01
7.261062e+01
7.260669e+01
7.260325e+01
7.260041e+01
7.259819e+01
7.259763e+01
7.259931e+01
7.260273e+01
7.260722e+01
7.261208e+01
7.261675e+01
7.262058e+01
7.262353e+01
7.262565e+01
7.262698e+01
7.262719e+01
7.262684e+01
7.294628e+01
7.294663e+01
7.296164e+01
7.297762e+01
7.299470e+01
7.300996e+01
7.301406e+01
7.298704e+01
7.289290e+01
7.272313e+01
7.245524e+01
7.190427e+01
7.203575e+01
7.209307e+01
7.210061e+01
7.209102e+01
7.207102e+01
7.204053e+01
7.199823e+01
7.196136e+01
7.195301e+01
7.198509e+01
7.205342e+01
7.214558e+01
7.224747e+01
7.233943e+01
7.241937e+01
7.249063e+01
7.254954e+01
7.258375e+01
7.260156e+01
7.260863e+01
7.259384e+01
7.257271e+01
7.254799e+01
7.251973e+01
7.249000e+01
7.245662e+01
7.241627e+01
7.237441e+01
7.233905e+01
7.234213e+01
7.237850e+01
7.243072e+01
7.248453e+01
7.253079e+01
7.256686e+01
7.259488e+01
7.261708e+01
7.263494e+01
7.264859e+01
7.265715e+01
7.265988e+01
7.265738e+01
7.265154e+01
7.264306e+01
7.263249e+01
7.262029e+01
7.260714e+01
7.259349e+01
7.257907e+01
7.256485e+01
7.255194e+01
7.254147e+01
7.253424e+01
7.253574e+01
7.254625e+01
7.256271e+01
7.258158e+01
7.259998e+01
7.261533e+01
7.262757e+01
7.263710e+01
7.264420e+01
7.264896e+01
7.265124e+01
7.265109e+01
7.264941e+01
7.264628e+01
7.264188e+01
7.263655e+01
7.263068e+01
7.262471e+01
7.261850e+01
7.261224e+01
7.260616e+01
7.260049e+01
7.259542e+01
7.259113e+01
7.258770e+01
7.258669e+01
7.258867e+01
7.259300e+01
7.259878e+01
7.260506e+01
7.261090e+01
7.261542e+01
7.261854e+01
7.262031e+01
7.262082e+01
7.261945e+01
7.261910e+01
7.294803e+01
7.294837e+01
7.295777e+01
7.296672e+01
7.297394e+01
7.297547e+01
7.296285e+01
7.292144e+01
7.282888e+01
7.266686e+01
7.245047e+01
7.215976e+01
7.212924e+01
7.212997e+01
7.212302e+01
7.210807e+01
7.208576e+01
7.205557e+01
7.201924e+01
7.199627e+01
7.200149e+01
7.204064e+01
7.210892e+01
7.219611e+01
7.228537e+01
7.236607e+01
7.243613e+01
7.249338e+01
7.253495e+01
7.257048e+01
7.260871e+01
7.262491e+01
7.261627e+01
7.259774e+01
7.257090e+01
7.253690e+01
7.250014e+01
7.245703e+01
7.240551e+01
7.235194e+01
7.231751e+01
7.233007e+01
7.237595e+01
7.243586e+01
7.249500e+01
7.254336e+01
7.258081e+01
7.260955e+01
7.263187e+01
7.264951e+01
7.266315e+01
7.267230e+01
7.267583e+01
7.267415e+01
7.266806e+01
7.265815e+01
7.264506e+01
7.262951e+01
7.261248e+01
7.259458e+01
7.257542e+01
7.255629e+01
7.253873e+01
7.252432e+01
7.251436e+01
7.251697e+01
7.253107e+01
7.255260e+01
7.257697e+01
7.260015e+01
7.261898e+01
7.263361e+01
7.264464e+01
7.265257e+01
7.265761e+01
7.265972e+01
7.265916e+01
7.265680e+01
7.265278e+01
7.264734e+01
7.264079e+01
7.263355e+01
7.262605e+01
7.261830e+01
7.261038e+01
7.260258e+01
7.259519e+01
7.258854e+01
7.258290e+01
7.257849e+01
7.257715e+01
7.257947e+01
7.258464e+01
7.259156e+01
7.259904e+01
7.260581e+01
7.261080e+01
7.261388e+01
7.261509e+01
7.261457e+01
7.261139e+01
7.261104e+01
7.294945e+01
7.294980e+01
7.295366e+01
7.295619e+01
7.295545e+01
7.294756e+01
7.292601e+01
7.288113e+01
7.280028e+01
7.267060e+01
7.249648e+01
7.230117e+01
7.222035e+01
7.218355e+01
7.215772e+01
7.213366e+01
7.210843e+01
7.208062e+01
7.205473e+01
7.204423e+01
7.205826e+01
7.209927e+01
7.216248e+01
7.223906e+01
7.231527e+01
7.238542e+01
7.244701e+01
7.249909e+01
7.254182e+01
7.257703e+01
7.260366e+01
7.261303e+01
7.261028e+01
7.259711e+01
7.257326e+01
7.254074e+01
7.250415e+01
7.245756e+01
7.240142e+01
7.234421e+01
7.232006e+01
7.234181e+01
7.239342e+01
7.245586e+01
7.251430e+01
7.256131e+01
7.259763e+01
7.262527e+01
7.264645e+01
7.266292e+01
7.267558e+01
7.268429e+01
7.268805e+01
7.268719e+01
7.268157e+01
7.267136e+01
7.265698e+01
7.263916e+01
7.261908e+01
7.259759e+01
7.257426e+01
7.255073e+01
7.252903e+01
7.251128e+01
7.249978e+01
7.250400e+01
7.252157e+01
7.254756e+01
7.257646e+01
7.260315e+01
7.262438e+01
7.264044e+01
7.265214e+01
7.266023e+01
7.266515e+01
7.266705e+01
7.266626e+01
7.266354e+01
7.265902e+01
7.265292e+01
7.264552e+01
7.263719e+01
7.262833e+01
7.261915e+01
7.260964e+01
7.260017e+01
7.259113e+01
7.258297e+01
7.257615e+01
7.257101e+01
7.256951e+01
7.257215e+01
7.257802e+01
7.258581e+01
7.259417e+01
7.260153e+01
7.260673e+01
7.260954e+01
7.261001e+01
7.260831e+01
7.260311e+01
7.260277e+01
7.295072e+01
7.295107e+01
7.295003e+01
7.294723e+01
7.294051e+01
7.292650e+01
7.290036e+01
7.285579e+01
7.278548e+01
7.268172e+01
7.254364e+01
7.239065e+01
7.229480e+01
7.223623e+01
7.219486e+01
7.216171e+01
7.213293e+01
7.210748e+01
7.208985e+01
7.208817e+01
7.210766e+01
7.214846e+01
7.220587e+01
7.227210e+01
7.233828e+01
7.239991e+01
7.245487e+01
7.250247e+01
7.254236e+01
7.257310e+01
7.259252e+01
7.259972e+01
7.259721e+01
7.258581e+01
7.256515e+01
7.253627e+01
7.250322e+01
7.245810e+01
7.240448e+01
7.235484e+01
7.234364e+01
7.237173e+01
7.242418e+01
7.248403e+01
7.253799e+01
7.258155e+01
7.261517e+01
7.264064e+01
7.265998e+01
7.267482e+01
7.268607e+01
7.269374e+01
7.269744e+01
7.269702e+01
7.269219e+01
7.268259e+01
7.266815e+01
7.264931e+01
7.262717e+01
7.260282e+01
7.257596e+01
7.254865e+01
7.252344e+01
7.250317e+01
7.249171e+01
7.249779e+01
7.251843e+01
7.254789e+01
7.257996e+01
7.260873e+01
7.263126e+01
7.264785e+01
7.265950e+01
7.266722e+01
7.267171e+01
7.267335e+01
7.267248e+01
7.266962e+01
7.266489e+01
7.265847e+01
7.265059e+01
7.264150e+01
7.263155e+01
7.262110e+01
7.261012e+01
7.259906e+01
7.258844e+01
7.257888e+01
7.257102e+01
7.256543e+01
7.256391e+01
7.256685e+01
7.257324e+01
7.258163e+01
7.259048e+01
7.259809e+01
7.260325e+01
7.260563e+01
7.260523e+01
7.260224e+01
7.259487e+01
7.259452e+01
7.295188e+01
7.295222e+01
7.294721e+01
7.294025e+01
7.292925e+01
7.291130e+01
7.288271e+01
7.283915e+01
7.277600e+01
7.268875e+01
7.257629e+01
7.245079e+01
7.235206e+01
7.228064e+01
7.222798e+01
7.218726e+01
7.215514e+01
7.213125e+01
7.211892e+01
7.212285e+01
7.214546e+01
7.218540e+01
7.223801e+01
7.229685e+01
7.235580e+01
7.241117e+01
7.246114e+01
7.250481e+01
7.254111e+01
7.256835e+01
7.258544e+01
7.259232e+01
7.259002e+01
7.257902e+01
7.255943e+01
7.253228e+01
7.249928e+01
7.245669e+01
7.240939e+01
7.237424e+01
7.237390e+01
7.240604e+01
7.245695e+01
7.251205e+01
7.256102e+01
7.260073e+01
7.263135e+01
7.265445e+01
7.267184e+01
7.268502e+01
7.269488e+01
7.270161e+01
7.270505e+01
7.270496e+01
7.270094e+01
7.269233e+01
7.267863e+01
7.265979e+01
7.263653e+01
7.261002e+01
7.258029e+01
7.254980e+01
7.252178e+01
7.250003e+01
7.248976e+01
7.249787e+01
7.252100e+01
7.255282e+01
7.258664e+01
7.261627e+01
7.263917e+01
7.265563e+01
7.266673e+01
7.267373e+01
7.267758e+01
7.267888e+01
7.267795e+01
7.267504e+01
7.267028e+01
7.266378e+01
7.265568e+01
7.264616e+01
7.263546e+01
7.262393e+01
7.261166e+01
7.259916e+01
7.258706e+01
7.257618e+01
7.256741e+01
7.256155e+01
7.256012e+01
7.256334e+01
7.257013e+01
7.257888e+01
7.258794e+01
7.259553e+01
7.260046e+01
7.260232e+01
7.260101e+01
7.259668e+01
7.258702e+01
7.258667e+01
7.295287e+01
7.295322e+01
7.294522e+01
7.293527e+01
7.292134e+01
7.290090e+01
7.287098e+01
7.282830e+01
7.276963e+01
7.269220e+01
7.259567e+01
7.248802e+01
7.239224e+01
7.231503e+01
7.225479e+01
7.220828e+01
7.217349e+01
7.215055e+01
7.214157e+01
7.214891e+01
7.217303e+01
7.221170e+01
7.226051e+01
7.231427e+01
7.236826e+01
7.241928e+01
7.246558e+01
7.250609e+01
7.253968e+01
7.256503e+01
7.258143e+01
7.258871e+01
7.258712e+01
7.257676e+01
7.255763e+01
7.253036e+01
7.249577e+01
7.245398e+01
7.241315e+01
7.239070e+01
7.239915e+01
7.243425e+01
7.248352e+01
7.253451e+01
7.257952e+01
7.261593e+01
7.264396e+01
7.266499e+01
7.268076e+01
7.269270e+01
7.270174e+01
7.270823e+01
7.271162e+01
7.271195e+01
7.270875e+01
7.270126e+01
7.268861e+01
7.267033e+01
7.264662e+01
7.261844e+01
7.258631e+01
7.255307e+01
7.252274e+01
7.250032e+01
7.249185e+01
7.250195e+01
7.252702e+01
7.256030e+01
7.259479e+01
7.262454e+01
7.264733e+01
7.266340e+01
7.267384e+01
7.267999e+01
7.268307e+01
7.268392e+01
7.268282e+01
7.267982e+01
7.267505e+01
7.266857e+01
7.266043e+01
7.265071e+01
7.263954e+01
7.262719e+01
7.261388e+01
7.260011e+01
7.258668e+01
7.257459e+01
7.256498e+01
7.255895e+01
7.255769e+01
7.256119e+01
7.256830e+01
7.257730e+01
7.258639e+01
7.259384e+01
7.259848e+01
7.259983e+01
7.259768e+01
7.259205e+01
7.258004e+01
7.257969e+01
7.295363e+01
7.295397e+01
7.294401e+01
7.293212e+01
7.291639e+01
7.289451e+01
7.286392e+01
7.282191e+01
7.276592e+01
7.269406e+01
7.260655e+01
7.250933e+01
7.241696e+01
7.233759e+01
7.227321e+01
7.222317e+01
7.218670e+01
7.216424e+01
7.215699e+01
7.216601e+01
7.219068e+01
7.222831e+01
7.227471e+01
7.232530e+01
7.237613e+01
7.242436e+01
7.246829e+01
7.250673e+01
7.253862e+01
7.256301e+01
7.257923e+01
7.258700e+01
7.258618e+01
7.257654e+01
7.255778e+01
7.252983e+01
7.249322e+01
7.245132e+01
7.241554e+01
7.240164e+01
7.241627e+01
7.245346e+01
7.250134e+01
7.254944e+01
7.259181e+01
7.262609e+01
7.265243e+01
7.267211e+01
7.268673e+01
7.269775e+01
7.270619e+01
7.271256e+01
7.271639e+01
7.271758e+01
7.271547e+01
7.270910e+01
7.269754e+01
7.268002e+01
7.265626e+01
7.262679e+01
7.259259e+01
7.255683e+01
7.252440e+01
7.250161e+01
7.249481e+01
7.250654e+01
7.253299e+01
7.256714e+01
7.260186e+01
7.263164e+01
7.265433e+01
7.266990e+01
7.267956e+01
7.268487e+01
7.268721e+01
7.268761e+01
7.268634e+01
7.268331e+01
7.267864e+01
7.267230e+01
7.266429e+01
7.265457e+01
7.264319e+01
7.263029e+01
7.261617e+01
7.260140e+01
7.258685e+01
7.257370e+01
7.256335e+01
7.255719e+01
7.255611e+01
7.255987e+01
7.256725e+01
7.257646e+01
7.258558e+01
7.259290e+01
7.259733e+01
7.259825e+01
7.259536e+01
7.258856e+01
7.257413e+01
7.257378e+01
7.295405e+01
7.295440e+01
7.294346e+01
7.293064e+01
7.291409e+01
7.289161e+01
7.286084e+01
7.281932e+01
7.276475e+01
7.269557e+01
7.261222e+01
7.251975e+01
7.242927e+01
7.234909e+01
7.228279e+01
7.223100e+01
7.219368e+01
7.217134e+01
7.216478e+01
7.217440e+01
7.219911e+01
7.223609e+01
7.228124e+01
7.233030e+01
7.237962e+01
7.242652e+01
7.246927e+01
7.250666e+01
7.253772e+01
7.256168e+01
7.257797e+01
7.258617e+01
7.258595e+01
7.257695e+01
7.255859e+01
7.253017e+01
7.249216e+01
7.245028e+01
7.241782e+01
7.240820e+01
7.242512e+01
7.246234e+01
7.250903e+01
7.255563e+01
7.259683e+01
7.263031e+01
7.265609e+01
7.267534e+01
7.268959e+01
7.270027e+01
7.270843e+01
7.271458e+01
7.271871e+01
7.272053e+01
7.271931e+01
7.271399e+01
7.270350e+01
7.268686e+01
7.266343e+01
7.263318e+01
7.259732e+01
7.255923e+01
7.252477e+01
7.250134e+01
7.249519e+01
7.250776e+01
7.253512e+01
7.256997e+01
7.260483e+01
7.263466e+01
7.265738e+01
7.267294e+01
7.268247e+01
7.268755e+01
7.268962e+01
7.268969e+01
7.268817e+01
7.268514e+01
7.268058e+01
7.267443e+01
7.266660e+01
7.265700e+01
7.264562e+01
7.263251e+01
7.261798e+01
7.260259e+01
7.258728e+01
7.257339e+01
7.256254e+01
7.255623e+01
7.255520e+01
7.255910e+01
7.256666e+01
7.257598e+01
7.258504e+01
7.259222e+01
7.259646e+01
7.259711e+01
7.259381e+01
7.258625e+01
7.256961e+01
7.256926e+01
0.000000e+00
7.295405e+01
7.294311e+01
7.293030e+01
7.291374e+01
7.289127e+01
7.286050e+01
7.281897e+01
7.276440e+01
7.269523e+01
7.261187e+01
7.251941e+01
7.242892e+01
7.234874e+01
7.228244e+01
7.223065e+01
7.219333e+01
7.217099e+01
7.216444e+01
7.217405e+01
7.219877e+01
7.223575e+01
7.228089e+01
7.232995e+01
7.237927e+01
7.242617e+01
7.246892e+01
7.250631e+01
7.253737e+01
7.256133e+01
7.257762e+01
7.258582e+01
7.258561e+01
7.257660e+01
7.255825e+01
7.252983e+01
7.249181e+01
7.244994e+01
7.241747e+01
7.240785e+01
7.242478e+01
7.246200e+01
7.250869e+01
7.255528e+01
7.259649e+01
7.262997e+01
7.265575e+01
7.267500e+01
7.268925e+01
7.269992e+01
7.270808e+01
7.271423e+01
7.271836e+01
7.272018e+01
7.271896e+01
7.271365e+01
7.270315e+01
7.268651e+01
7.266309e+01
7.263283e+01
7.259697e+01