# vtk DataFile Version 3.0
Scalar Field
ASCII
DATASET RECTILINEAR_GRID
DIMENSIONS 102 22 1
X_COORDINATES 102 double
0.000000 0.100000 0.200000 0.300000 0.400000 0.500000 0.600000 0.700000 0.800000 0.900000 1.000000 1.100000 1.200000 1.300000 1.400000 1.500000 1.600000 1.700000 1.800000 1.900000 2.000000 2.100000 2.200000 2.300000 2.400000 2.500000 2.600000 2.700000 2.800000 2.900000 3.000000 3.100000 3.200000 3.300000 3.400000 3.500000 3.600000 3.700000 3.800000 3.900000 4.000000 4.100000 4.200000 4.300000 4.400000 4.500000 4.600000 4.700000 4.800000 4.900000 5.000000 5.100000 5.200000 5.300000 5.400000 5.500000 5.600000 5.700000 5.800000 5.900000 6.000000 6.100000 6.200000 6.300000 6.400000 6.500000 6.600000 6.700000 6.800000 6.900000 7.000000 7.100000 7.200000 7.300000 7.400000 7.500000 7.600000 7.700000 7.800000 7.900000 8.000000 8.100000 8.200000 8.300000 8.400000 8.500000 8.600000 8.700000 8.800000 8.900000 9.000000 9.100000 9.200000 9.300000 9.400000 9.500000 9.600000 9.700000 9.800000 9.900000 10.000000 10.100000 
Y_COORDINATES 22 double
0.000000 0.100000 0.200000 0.300000 0.400000 0.500000 0.600000 0.700000 0.800000 0.900000 1.000000 1.100000 1.200000 1.300000 1.400000 1.500000 1.600000 1.700000 1.800000 1.900000 2.000000 2.100000 
Z_COORDINATES 1 double
0.0
POINT_DATA 2244
SCALARS Pressure double 1
LOOKUP_TABLE default
0.000000e+00
6.446939e+01
6.444410e+01
6.441508e+01
6.437914e+01
6.433267e+01
6.427210e+01
6.419583e+01
6.410265e+01
6.400941e+01
6.392895e+01
6.386463e+01
6.381406e+01
6.377323e+01
6.373859e+01
6.370811e+01
6.368165e+01
6.366077e+01
6.364747e+01
6.364276e+01
6.364619e+01
6.365655e+01
6.367244e+01
6.369262e+01
6.371625e+01
6.374290e+01
6.377241e+01
6.380472e+01
6.383969e+01
6.387696e+01
6.391587e+01
6.395560e+01
6.399516e+01
6.403347e+01
6.406932e+01
6.410169e+01
6.413009e+01
6.415476e+01
6.417624e+01
6.419584e+01
6.421158e+01
6.421878e+01
6.421008e+01
6.417853e+01
6.412196e+01
6.404838e+01
6.397409e+01
6.391803e+01
6.389238e+01
6.389419e+01
6.391640e+01
6.395231e+01
6.399499e+01
6.403805e+01
6.407620e+01
6.410616e+01
6.412684e+01
6.413925e+01
6.414559e+01
6.414813e+01
6.414847e+01
6.414777e+01
6.414676e+01
6.414475e+01
6.414103e+01
6.413507e+01
6.412653e+01
6.411538e+01
6.410187e+01
6.408655e+01
6.407022e+01
6.405391e+01
6.403871e+01
6.402570e+01
6.401578e+01
6.400961e+01
6.400745e+01
6.400918e+01
6.401437e+01
6.402283e+01
6.403417e+01
6.404779e+01
6.406273e+01
6.407762e+01
6.409088e+01
6.410107e+01
6.410750e+01
6.411059e+01
6.411132e+01
6.411076e+01
6.410964e+01
6.410852e+01
6.410761e+01
6.410682e+01
6.410608e+01
6.410544e+01
6.410509e+01
6.410544e+01
6.410719e+01
6.411137e+01
6.412387e+01
0.000000e+00
6.446939e+01
6.446986e+01
6.444457e+01
6.441555e+01
6.437961e+01
6.433314e+01
6.427257e+01
6.419630e+01
6.410312e+01
6.400988e+01
6.392942e+01
6.386510e+01
6.381453e+01
6.377370e+01
6.373906e+01
6.370858e+01
6.368212e+01
6.366124e+01
6.364794e+01
6.364323e+01
6.364666e+01
6.365702e+01
6.367291e+01
6.369309e+01
6.371672e+01
6.374337e+01
6.377288e+01
6.380519e+01
6.384016e+01
6.387743e+01
6.391634e+01
6.395607e+01
6.399563e+01
6.403394e+01
6.406979e+01
6.410216e+01
6.413056e+01
6.415523e+01
6.417671e+01
6.419631e+01
6.421205e+01
6.421925e+01
6.421055e+01
6.417900e+01
6.412243e+01
6.404885e+01
6.397456e+01
6.391850e+01
6.389285e+01
6.389466e+01
6.391687e+01
6.395278e+01
6.399546e+01
6.403852e+01
6.407667e+01
6.410663e+01
6.412731e+01
6.413973e+01
6.414606e+01
6.414860e+01
6.414894e+01
6.414824e+01
6.414724e+01
6.414522e+01
6.414150e+01
6.413554e+01
6.412700e+01
6.411586e+01
6.410234e+01
6.408702e+01
6.407069e+01
6.405438e+01
6.403919e+01
6.402617e+01
6.401625e+01
6.401008e+01
6.400792e+01
6.400965e+01
6.401484e+01
6.402330e+01
6.403464e+01
6.404826e+01
6.406320e+01
6.407810e+01
6.409135e+01
6.410154e+01
6.410797e+01
6.411106e+01
6.411179e+01
6.411123e+01
6.411011e+01
6.410899e+01
6.410808e+01
6.410729e+01
6.410656e+01
6.410592e+01
6.410556e+01
6.410591e+01
6.410766e+01
6.411184e+01
6.412435e+01
6.412387e+01
6.446850e+01
6.446897e+01
6.444508e+01
6.441724e+01
6.438201e+01
6.433531e+01
6.427287e+01
6.419274e+01
6.409060e+01
6.399322e+01
6.391379e+01
6.385273e+01
6.380565e+01
6.376778e+01
6.373529e+01
6.370605e+01
6.367997e+01
6.365885e+01
6.364523e+01
6.364060e+01
6.364428e+01
6.365497e+01
6.367113e+01
6.369144e+01
6.371503e+01
6.374144e+01
6.377060e+01
6.380249e+01
6.383704e+01
6.387395e+01
6.391259e+01
6.395212e+01
6.399151e+01
6.402976e+01
6.406559e+01
6.409791e+01
6.412610e+01
6.415028e+01
6.417103e+01
6.418868e+01
6.420110e+01
6.420479e+01
6.419446e+01
6.416317e+01
6.410815e+01
6.403841e+01
6.396879e+01
6.391594e+01
6.389134e+01
6.389400e+01
6.391510e+01
6.394873e+01
6.398853e+01
6.402892e+01
6.406590e+01
6.409630e+01
6.411849e+01
6.413279e+01
6.414089e+01
6.414481e+01
6.414621e+01
6.414601e+01
6.414499e+01
6.414268e+01
6.413857e+01
6.413229e+01
6.412358e+01
6.411243e+01
6.409910e+01
6.408414e+01
6.406832e+01
6.405257e+01
6.403794e+01
6.402544e+01
6.401595e+01
6.401011e+01
6.400827e+01
6.401042e+01
6.401599e+01
6.402482e+01
6.403651e+01
6.405027e+01
6.406484e+01
6.407868e+01
6.409033e+01
6.409898e+01
6.410442e+01
6.410714e+01
6.410797e+01
6.410778e+01
6.410719e+01
6.410657e+01
6.410595e+01
6.410533e+01
6.410468e+01
6.410405e+01
6.410366e+01
6.410387e+01
6.410536e+01
6.410905e+01
6.411962e+01
6.411915e+01
6.446716e+01
6.446763e+01
6.444668e+01
6.442148e+01
6.438817e+01
6.434158e+01
6.427564e+01
6.418687e+01
6.406358e+01
6.395889e+01
6.388325e+01
6.382952e+01
6.378942e+01
6.375712e+01
6.372864e+01
6.370169e+01
6.367616e+01
6.365439e+01
6.363999e+01
6.363550e+01
6.363969e+01
6.365101e+01
6.366770e+01
6.368825e+01
6.371168e+01
6.373758e+01
6.376591e+01
6.379680e+01
6.383034e+01
6.386633e+01
6.390424e+01
6.394322e+01
6.398224e+01
6.402025e+01
6.405604e+01
6.408844e+01
6.411662e+01
6.414047e+01
6.416063e+01
6.417726e+01
6.418776e+01
6.418880e+01
6.417630e+01
6.414535e+01
6.409217e+01
6.402623e+01
6.396133e+01
6.391214e+01
6.388876e+01
6.389213e+01
6.391126e+01
6.394142e+01
6.397740e+01
6.401445e+01
6.404893e+01
6.407881e+01
6.410251e+01
6.411958e+01
6.413067e+01
6.413709e+01
6.414032e+01
6.414143e+01
6.414087e+01
6.413849e+01
6.413409e+01
6.412755e+01
6.411877e+01
6.410774e+01
6.409467e+01
6.408017e+01
6.406496e+01
6.404994e+01
6.403606e+01
6.402429e+01
6.401546e+01
6.401022e+01
6.400907e+01
6.401188e+01
6.401800e+01
6.402723e+01
6.403900e+01
6.405229e+01
6.406565e+01
6.407755e+01
6.408703e+01
6.409394e+01
6.409829e+01
6.410065e+01
6.410173e+01
6.410214e+01
6.410225e+01
6.410231e+01
6.410222e+01
6.410193e+01
6.410145e+01
6.410087e+01
6.410035e+01
6.410024e+01
6.410113e+01
6.410378e+01
6.411159e+01
6.411111e+01
6.446573e+01
6.446620e+01
6.444982e+01
6.442900e+01
6.439929e+01
6.435366e+01
6.428222e+01
6.417621e+01
6.401304e+01
6.390267e+01
6.383848e+01
6.379714e+01
6.376728e+01
6.374298e+01
6.372023e+01
6.369642e+01
6.367123e+01
6.364790e+01
6.363174e+01
6.362730e+01
6.363246e+01
6.364495e+01
6.366261e+01
6.368364e+01
6.370690e+01
6.373202e+01
6.375912e+01
6.378852e+01
6.382052e+01
6.385512e+01
6.389193e+01
6.393011e+01
6.396858e+01
6.400618e+01
6.404186e+01
6.407450e+01
6.410312e+01
6.412739e+01
6.414796e+01
6.416547e+01
6.417459e+01
6.417172e+01
6.415570e+01
6.412490e+01
6.407710e+01
6.401770e+01
6.395942e+01
6.391455e+01
6.389220e+01
6.389473e+01
6.391161e+01
6.393791e+01
6.396961e+01
6.400280e+01
6.403418e+01
6.406241e+01
6.408619e+01
6.410454e+01
6.411760e+01
6.412629e+01
6.413156e+01
6.413429e+01
6.413472e+01
6.413270e+01
6.412837e+01
6.412179e+01
6.411303e+01
6.410221e+01
6.408957e+01
6.407575e+01
6.406143e+01
6.404741e+01
6.403457e+01
6.402379e+01
6.401587e+01
6.401151e+01
6.401142e+01
6.401505e+01
6.402176e+01
6.403119e+01
6.404256e+01
6.405466e+01
6.406605e+01
6.407551e+01
6.408292e+01
6.408828e+01
6.409178e+01
6.409391e+01
6.409522e+01
6.409606e+01
6.409666e+01
6.409713e+01
6.409739e+01
6.409732e+01
6.409697e+01
6.409642e+01
6.409580e+01
6.409535e+01
6.409559e+01
6.409710e+01
6.410215e+01
6.410167e+01
6.446463e+01
6.446510e+01
6.445498e+01
6.444067e+01
6.441731e+01
6.437524e+01
6.429701e+01
6.415735e+01
6.392465e+01
6.382217e+01
6.378127e+01
6.375826e+01
6.374157e+01
6.372725e+01
6.371187e+01
6.369238e+01
6.366703e+01
6.364040e+01
6.362078e+01
6.361504e+01
6.362205e+01
6.363675e+01
6.365622e+01
6.367824e+01
6.370145e+01
6.372560e+01
6.375102e+01
6.377834e+01
6.380819e+01
6.384084e+01
6.387609e+01
6.391320e+01
6.395102e+01
6.398817e+01
6.402380e+01
6.405713e+01
6.408734e+01
6.411392e+01
6.413644e+01
6.415357e+01
6.416040e+01
6.415205e+01
6.413237e+01
6.410286e+01
6.406234e+01
6.401279e+01
6.396390e+01
6.392510e+01
6.390441e+01
6.390479e+01
6.391894e+01
6.394105e+01
6.396814e+01
6.399705e+01
6.402486e+01
6.405033e+01
6.407302e+01
6.409157e+01
6.410565e+01
6.411565e+01
6.412227e+01
6.412625e+01
6.412770e+01
6.412601e+01
6.412166e+01
6.411502e+01
6.410640e+01
6.409603e+01
6.408413e+01
6.407133e+01
6.405826e+01
6.404560e+01
6.403413e+01
6.402464e+01
6.401793e+01
6.401479e+01
6.401604e+01
6.402042e+01
6.402748e+01
6.403664e+01
6.404693e+01
6.405714e+01
6.406608e+01
6.407318e+01
6.407876e+01
6.408279e+01
6.408557e+01
6.408749e+01
6.408886e+01
6.408988e+01
6.409066e+01
6.409124e+01
6.409166e+01
6.409171e+01
6.409144e+01
6.409093e+01
6.409024e+01
6.408951e+01
6.408915e+01
6.408956e+01
6.409214e+01
6.409167e+01
6.446419e+01
6.446466e+01
6.446235e+01
6.445703e+01
6.444450e+01
6.441318e+01
6.433372e+01
6.413471e+01
6.377024e+01
6.371151e+01
6.371664e+01
6.371730e+01
6.371455e+01
6.371071e+01
6.370404e+01
6.369234e+01
6.366778e+01
6.363575e+01
6.360962e+01
6.359977e+01
6.360806e+01
6.362703e+01
6.364983e+01
6.367394e+01
6.369743e+01
6.372053e+01
6.374382e+01
6.376843e+01
6.379539e+01
6.382537e+01
6.385845e+01
6.389404e+01
6.393097e+01
6.396755e+01
6.400301e+01
6.403723e+01
6.407025e+01
6.410109e+01
6.412630e+01
6.414170e+01
6.414113e+01
6.412625e+01
6.410512e+01
6.407987e+01
6.404873e+01
6.401118e+01
6.397347e+01
6.394231e+01
6.392423e+01
6.392256e+01
6.393333e+01
6.395094e+01
6.397313e+01
6.399735e+01
6.402111e+01
6.404302e+01
6.406345e+01
6.408097e+01
6.409496e+01
6.410545e+01
6.411280e+01
6.411747e+01
6.411945e+01
6.411783e+01
6.411341e+01
6.410689e+01
6.409873e+01
6.408923e+01
6.407858e+01
6.406732e+01
6.405598e+01
6.404512e+01
6.403540e+01
6.402755e+01
6.402241e+01
6.402087e+01
6.402322e+01
6.402807e+01
6.403496e+01
6.404314e+01
6.405165e+01
6.405949e+01
6.406587e+01
6.407097e+01
6.407491e+01
6.407782e+01
6.407995e+01
6.408156e+01
6.408279e+01
6.408372e+01
6.408441e+01
6.408490e+01
6.408521e+01
6.408526e+01
6.408501e+01
6.408453e+01
6.408384e+01
6.408298e+01
6.408216e+01
6.408166e+01
6.408215e+01
6.408167e+01
6.446449e+01
6.446496e+01
6.447135e+01
6.447719e+01
6.448123e+01
6.447545e+01
6.442726e+01
6.420000e+01
6.348672e+01
6.356295e+01
6.365838e+01
6.368155e+01
6.368791e+01
6.369081e+01
6.368961e+01
6.369092e+01
6.367546e+01
6.363892e+01
6.360510e+01
6.358913e+01
6.359583e+01
6.361828e+01
6.364664e+01
6.367499e+01
6.369923e+01
6.372145e+01
6.374227e+01
6.376349e+01
6.378662e+01
6.381286e+01
6.384266e+01
6.387569e+01
6.391089e+01
6.394656e+01
6.398164e+01
6.401614e+01
6.404956e+01
6.408074e+01
6.410564e+01
6.411607e+01
6.410771e+01
6.409178e+01
6.407449e+01
6.405701e+01
6.403734e+01
6.401321e+01
6.398742e+01
6.396453e+01
6.394974e+01
6.394647e+01
6.395358e+01
6.396648e+01
6.398352e+01
6.400267e+01
6.402186e+01
6.403958e+01
6.405677e+01
6.407212e+01
6.408494e+01
6.409500e+01
6.410232e+01
6.410706e+01
6.410902e+01
6.410732e+01
6.410306e+01
6.409710e+01
6.409001e+01
6.408205e+01
6.407331e+01
6.406421e+01
6.405514e+01
6.404652e+01
6.403894e+01
6.403309e+01
6.402977e+01
6.402985e+01
6.403284e+01
6.403760e+01
6.404358e+01
6.405008e+01
6.405631e+01
6.406161e+01
6.406574e+01
6.406903e+01
6.407156e+01
6.407348e+01
6.407497e+01
6.407613e+01
6.407701e+01
6.407764e+01
6.407804e+01
6.407825e+01
6.407830e+01
6.407821e+01
6.407792e+01
6.407747e+01
6.407684e+01
6.407599e+01
6.407492e+01
6.407375e+01
6.407250e+01
6.407203e+01
6.446525e+01
6.446572e+01
6.448034e+01
6.449750e+01
6.452090e+01
6.455427e+01
6.459790e+01
6.471570e+01
6.410074e+01
6.361977e+01
6.367753e+01
6.367028e+01
6.366733e+01
6.366772e+01
6.366548e+01
6.367170e+01
6.366648e+01
6.364185e+01
6.360784e+01
6.358967e+01
6.359469e+01
6.361824e+01
6.365119e+01
6.368386e+01
6.371051e+01
6.373337e+01
6.375202e+01
6.376972e+01
6.378817e+01
6.380918e+01
6.383377e+01
6.386195e+01
6.389279e+01
6.392452e+01
6.395506e+01
6.398175e+01
6.401281e+01
6.404416e+01
6.406415e+01
6.406796e+01
6.406131e+01
6.405229e+01
6.404395e+01
6.403690e+01
6.402960e+01
6.401914e+01
6.400502e+01
6.399023e+01
6.397899e+01
6.397474e+01
6.397812e+01
6.398625e+01
6.399794e+01
6.401166e+01
6.402577e+01
6.403882e+01
6.405192e+01
6.406410e+01
6.407469e+01
6.408329e+01
6.408965e+01
6.409377e+01
6.409529e+01
6.409376e+01
6.409029e+01
6.408573e+01
6.408057e+01
6.407495e+01
6.406885e+01
6.406254e+01
6.405622e+01
6.405025e+01
6.404512e+01
6.404149e+01
6.404006e+01
6.404135e+01
6.404425e+01
6.404817e+01
6.405257e+01
6.405690e+01
6.406068e+01
6.406358e+01
6.406578e+01
6.406745e+01
6.406874e+01
6.406974e+01
6.407053e+01
6.407111e+01
6.407149e+01
6.407166e+01
6.407163e+01
6.407146e+01
6.407119e+01
6.407085e+01
6.407045e+01
6.407001e+01
6.406948e+01
6.406875e+01
6.406766e+01
6.406611e+01
6.406344e+01
6.406297e+01
6.446593e+01
6.446639e+01
6.448701e+01
6.451225e+01
6.454890e+01
6.460734e+01
6.470454e+01
6.483565e+01
6.485005e+01
0.000000e+00
6.367321e+01
6.367368e+01
6.366049e+01
6.364992e+01
6.364018e+01
6.363302e+01
6.362447e+01
6.360892e+01
6.359281e+01
6.358689e+01
6.359829e+01
6.362652e+01
6.366147e+01
6.369808e+01
6.372959e+01
6.375433e+01
6.377312e+01
6.378915e+01
6.380308e+01
6.381794e+01
6.383543e+01
6.385584e+01
6.387826e+01
6.390084e+01
6.392096e+01
6.394192e+01
6.396751e+01
6.398721e+01
6.399884e+01
6.400417e+01
6.400995e+01
6.401500e+01
6.401949e+01
6.402383e+01
6.402777e+01
6.402903e+01
6.402556e+01
6.401800e+01
6.401007e+01
6.400529e+01
6.400523e+01
6.400873e+01
6.401504e+01
6.402308e+01
6.403165e+01
6.403965e+01
6.404791e+01
6.405592e+01
6.406312e+01
6.406905e+01
6.407345e+01
6.407631e+01
6.407736e+01
6.407675e+01
6.407520e+01
6.407319e+01
6.407098e+01
6.406858e+01
6.406584e+01
6.406283e+01
6.405963e+01
6.405652e+01
6.405398e+01
6.405252e+01
6.405259e+01
6.405418e+01
6.405641e+01
6.405890e+01
6.406129e+01
6.406329e+01
6.406471e+01
6.406554e+01
6.406600e+01
6.406624e+01
6.406637e+01
6.406643e+01
6.406642e+01
6.406631e+01
6.406609e+01
6.406572e+01
6.406524e+01
6.406467e+01
6.406407e+01
6.406347e+01
6.406293e+01
6.406247e+01
6.406206e+01
6.406154e+01
6.406063e+01
6.405898e+01
6.405526e+01
6.405479e+01
6.446603e+01
6.446650e+01
6.448974e+01
6.451780e+01
6.455695e+01
6.461450e+01
6.469794e+01
6.479638e+01
6.486538e+01
6.486491e+01
0.000000e+00
6.364757e+01
6.364804e+01
6.363016e+01
6.361042e+01
6.359020e+01
6.356843e+01
6.354818e+01
6.354123e+01
6.355428e+01
6.358714e+01
6.363256e+01
6.368086e+01
6.372514e+01
6.376054e+01
6.378896e+01
6.381028e+01
6.382558e+01
6.383614e+01
6.384487e+01
6.385434e+01
6.386509e+01
6.387640e+01
6.388694e+01
6.389452e+01
6.390245e+01
6.390886e+01
6.391506e+01
6.392397e+01
6.394263e+01
6.396487e+01
6.398598e+01
6.400402e+01
6.401911e+01
6.403208e+01
6.404203e+01
6.404696e+01
6.404611e+01
6.404141e+01
6.403631e+01
6.403335e+01
6.403259e+01
6.403368e+01
6.403599e+01
6.403873e+01
6.404119e+01
6.404389e+01
6.404665e+01
6.404914e+01
6.405113e+01
6.405256e+01
6.405360e+01
6.405475e+01
6.405631e+01
6.405822e+01
6.406026e+01
6.406219e+01
6.406380e+01
6.406492e+01
6.406547e+01
6.406550e+01
6.406524e+01
6.406507e+01
6.406534e+01
6.406616e+01
6.406736e+01
6.406844e+01
6.406917e+01
6.406942e+01
6.406916e+01
6.406849e+01
6.406753e+01
6.406642e+01
6.406531e+01
6.406426e+01
6.406330e+01
6.406239e+01
6.406150e+01
6.406062e+01
6.405971e+01
6.405880e+01
6.405790e+01
6.405704e+01
6.405628e+01
6.405570e+01
6.405530e+01
6.405503e+01
6.405474e+01
6.405411e+01
6.405262e+01
6.404827e+01
6.404780e+01
6.446537e+01
6.446584e+01
6.448837e+01
6.451465e+01
6.454953e+01
6.459758e+01
6.465876e+01
6.471190e+01
6.473583e+01
6.447924e+01
6.447877e+01
0.000000e+00
6.362096e+01
6.359481e+01
6.357759e+01
6.355055e+01
6.351848e+01
6.348931e+01
6.348661e+01
6.351386e+01
6.356631e+01
6.363272e+01
6.370068e+01
6.376150e+01
6.381020e+01
6.384565e+01
6.387058e+01
6.388658e+01
6.389329e+01
6.389611e+01
6.389743e+01
6.389748e+01
6.389514e+01
6.388976e+01
6.388041e+01
6.386763e+01
6.385450e+01
6.384624e+01
6.386020e+01
6.389343e+01
6.393237e+01
6.396863e+01
6.399874e+01
6.402237e+01
6.404159e+01
6.405724e+01
6.406805e+01
6.407244e+01
6.407102e+01
6.406641e+01
6.406126e+01
6.405680e+01
6.405308e+01
6.404979e+01
6.404653e+01
6.404297e+01
6.403930e+01
6.403560e+01
6.403201e+01
6.402887e+01
6.402673e+01
6.402602e+01
6.402876e+01
6.403427e+01
6.404127e+01
6.404859e+01
6.405544e+01
6.406138e+01
6.406630e+01
6.407028e+01
6.407336e+01
6.407570e+01
6.407747e+01
6.407876e+01
6.407941e+01
6.407960e+01
6.407919e+01
6.407814e+01
6.407652e+01
6.407445e+01
6.407210e+01
6.406963e+01
6.406711e+01
6.406467e+01
6.406237e+01
6.406023e+01
6.405827e+01
6.405648e+01
6.405485e+01
6.405339e+01
6.405209e+01
6.405097e+01
6.405003e+01
6.404935e+01
6.404896e+01
6.404883e+01
6.404885e+01
6.404885e+01
6.404853e+01
6.404733e+01
6.404295e+01
6.404248e+01
6.446414e+01
6.446461e+01
6.448394e+01
6.450556e+01
6.453178e+01
6.456247e+01
6.459040e+01
6.459347e+01
6.452839e+01
6.440300e+01
6.397893e+01
6.366551e+01
6.352918e+01
6.357961e+01
6.355962e+01
6.352898e+01
6.349237e+01
6.346484e+01
6.346914e+01
6.350682e+01
6.357126e+01
6.365018e+01
6.372988e+01
6.380147e+01
6.386092e+01
6.390673e+01
6.394112e+01
6.396352e+01
6.396884e+01
6.396361e+01
6.395320e+01
6.393814e+01
6.391926e+01
6.389930e+01
6.387246e+01
6.383922e+01
6.380558e+01
6.379073e+01
6.381565e+01
6.386315e+01
6.391624e+01
6.396446e+01
6.400264e+01
6.403186e+01
6.405492e+01
6.407365e+01
6.408789e+01
6.409606e+01
6.409750e+01
6.409365e+01
6.408745e+01
6.408024e+01
6.407236e+01
6.406382e+01
6.405462e+01
6.404493e+01
6.403472e+01
6.402434e+01
6.401450e+01
6.400612e+01
6.400001e+01
6.399775e+01
6.400279e+01
6.401314e+01
6.402615e+01
6.403946e+01
6.405158e+01
6.406165e+01
6.406996e+01
6.407677e+01
6.408223e+01
6.408640e+01
6.408928e+01
6.409080e+01
6.409094e+01
6.409017e+01
6.408851e+01
6.408607e+01
6.408298e+01
6.407946e+01
6.407570e+01
6.407191e+01
6.406808e+01
6.406432e+01
6.406071e+01
6.405731e+01
6.405418e+01
6.405136e+01
6.404888e+01
6.404677e+01
6.404505e+01
6.404372e+01
6.404278e+01
6.404247e+01
6.404268e+01
6.404321e+01
6.404382e+01
6.404428e+01
6.404430e+01
6.404350e+01
6.404003e+01
6.403956e+01
6.446274e+01
6.446321e+01
6.447751e+01
6.449230e+01
6.450767e+01
6.452057e+01
6.452151e+01
6.449035e+01
6.438996e+01
6.421081e+01
6.392986e+01
6.335303e+01
6.347969e+01
6.353296e+01
6.354411e+01
6.352357e+01
6.348950e+01
6.347363e+01
6.348793e+01
6.353289e+01
6.360155e+01
6.368278e+01
6.376369e+01
6.383618e+01
6.389898e+01
6.394998e+01
6.398928e+01
6.401851e+01
6.402689e+01
6.401420e+01
6.399396e+01
6.396822e+01
6.393848e+01
6.390825e+01
6.386675e+01
6.381713e+01
6.376875e+01
6.376020e+01
6.379591e+01
6.385455e+01
6.391725e+01
6.397184e+01
6.401388e+01
6.404586e+01
6.407056e+01
6.409023e+01
6.410572e+01
6.411613e+01
6.412007e+01
6.411754e+01
6.411102e+01
6.410176e+01
6.409038e+01
6.407721e+01
6.406265e+01
6.404743e+01
6.403112e+01
6.401436e+01
6.399840e+01
6.398465e+01
6.397429e+01
6.397127e+01
6.397929e+01
6.399507e+01
6.401446e+01
6.403394e+01
6.405093e+01
6.406462e+01
6.407561e+01
6.408445e+01
6.409143e+01
6.409662e+01
6.409996e+01
6.410131e+01
6.410096e+01
6.409942e+01
6.409683e+01
6.409333e+01
6.408914e+01
6.408445e+01
6.407949e+01
6.407447e+01
6.406940e+01
6.406434e+01
6.405939e+01
6.405465e+01
6.405023e+01
6.404624e+01
6.404277e+01
6.403990e+01
6.403764e+01
6.403601e+01
6.403512e+01
6.403546e+01
6.403666e+01
6.403832e+01
6.403994e+01
6.404108e+01
6.404154e+01
6.404122e+01
6.403986e+01
6.403939e+01
6.446115e+01
6.446162e+01
6.447016e+01
6.447776e+01
6.448309e+01
6.448211e+01
6.446629e+01
6.442082e+01
6.432288e+01
6.415333e+01
6.392656e+01
6.362143e+01
6.358363e+01
6.358040e+01
6.357267e+01
6.355167e+01
6.352537e+01
6.351789e+01
6.353623e+01
6.358001e+01
6.364335e+01
6.371648e+01
6.378429e+01
6.384529e+01
6.389911e+01
6.394819e+01
6.399436e+01
6.402786e+01
6.403619e+01
6.402680e+01
6.400884e+01
6.398233e+01
6.394869e+01
6.391243e+01
6.386108e+01
6.379983e+01
6.375200e+01
6.375594e+01
6.380137e+01
6.386644e+01
6.393282e+01
6.398786e+01
6.403028e+01
6.406244e+01
6.408699e+01
6.410616e+01
6.412125e+01
6.413218e+01
6.413763e+01
6.413677e+01
6.413098e+01
6.412085e+01
6.410707e+01
6.409025e+01
6.407121e+01
6.405121e+01
6.402940e+01
6.400678e+01
6.398509e+01
6.396627e+01
6.395200e+01
6.394926e+01
6.396079e+01
6.398206e+01
6.400752e+01
6.403263e+01
6.405360e+01
6.407005e+01
6.408284e+01
6.409281e+01
6.410046e+01
6.410596e+01
6.410930e+01
6.411037e+01
6.410967e+01
6.410763e+01
6.410441e+01
6.410020e+01
6.409520e+01
6.408961e+01
6.408364e+01
6.407749e+01
6.407126e+01
6.406493e+01
6.405863e+01
6.405249e+01
6.404670e+01
6.404142e+01
6.403683e+01
6.403304e+01
6.403012e+01
6.402808e+01
6.402734e+01
6.402845e+01
6.403081e+01
6.403383e+01
6.403664e+01
6.403863e+01
6.403966e+01
6.403987e+01
6.404120e+01
6.404072e+01
6.445969e+01
6.446016e+01
6.446308e+01
6.446417e+01
6.446144e+01
6.445099e+01
6.442625e+01
6.437750e+01
6.429197e+01
6.415644e+01
6.397481e+01
6.377050e+01
6.368378e+01
6.364391e+01
6.361766e+01
6.359311e+01
6.357274e+01
6.356975e+01
6.358844e+01
6.362784e+01
6.368310e+01
6.374425e+01
6.380318e+01
6.385810e+01
6.390845e+01
6.395352e+01
6.398985e+01
6.401249e+01
6.401926e+01
6.401509e+01
6.400099e+01
6.397738e+01
6.394707e+01
6.391173e+01
6.385972e+01
6.379800e+01
6.376406e+01
6.377884e+01
6.382898e+01
6.389414e+01
6.395746e+01
6.400915e+01
6.404926e+01
6.407972e+01
6.410287e+01
6.412074e+01
6.413465e+01
6.414486e+01
6.415039e+01
6.415101e+01
6.414647e+01
6.413675e+01
6.412209e+01
6.410308e+01
6.408077e+01
6.405683e+01
6.403030e+01
6.400251e+01
6.397574e+01
6.395253e+01
6.393526e+01
6.393395e+01
6.394926e+01
6.397555e+01
6.400615e+01
6.403565e+01
6.405939e+01
6.407757e+01
6.409123e+01
6.410146e+01
6.410903e+01
6.411429e+01
6.411732e+01
6.411810e+01
6.411720e+01
6.411489e+01
6.411133e+01
6.410672e+01
6.410123e+01
6.409502e+01
6.408827e+01
6.408115e+01
6.407386e+01
6.406634e+01
6.405872e+01
6.405118e+01
6.404396e+01
6.403730e+01
6.403145e+01
6.402664e+01
6.402298e+01
6.402048e+01
6.401999e+01
6.402184e+01
6.402529e+01
6.402949e+01
6.403331e+01
6.403600e+01
6.403746e+01
6.403804e+01
6.403991e+01
6.403944e+01
6.445854e+01
6.445901e+01
6.445700e+01
6.445269e+01
6.444394e+01
6.442734e+01
6.439804e+01
6.434973e+01
6.427510e+01
6.416638e+01
6.402253e+01
6.386329e+01
6.376336e+01
6.370348e+01
6.366369e+01
6.363473e+01
6.361681e+01
6.361560e+01
6.363307e+01
6.366749e+01
6.371440e+01
6.376614e+01
6.381753e+01
6.386638e+01
6.391127e+01
6.394991e+01
6.397909e+01
6.399652e+01
6.400235e+01
6.399857e+01
6.398609e+01
6.396582e+01
6.394047e+01
6.390727e+01
6.386107e+01
6.381191e+01
6.379484e+01
6.381724e+01
6.386725e+01
6.392780e+01
6.398465e+01
6.403151e+01
6.406813e+01
6.409605e+01
6.411724e+01
6.413350e+01
6.414599e+01
6.415502e+01
6.416016e+01
6.416123e+01
6.415781e+01
6.414923e+01
6.413509e+01
6.411551e+01
6.409136e+01
6.406447e+01
6.403410e+01
6.400196e+01
6.397093e+01
6.394441e+01
6.392580e+01
6.392670e+01
6.394563e+01
6.397604e+01
6.401045e+01
6.404251e+01
6.406782e+01
6.408670e+01
6.410036e+01
6.411015e+01
6.411707e+01
6.412166e+01
6.412417e+01
6.412468e+01
6.412363e+01
6.412121e+01
6.411755e+01
6.411280e+01
6.410710e+01
6.410057e+01
6.409332e+01
6.408550e+01
6.407727e+01
6.406872e+01
6.405988e+01
6.405099e+01
6.404234e+01
6.403424e+01
6.402707e+01
6.402114e+01
6.401671e+01
6.401382e+01
6.401361e+01
6.401612e+01
6.402042e+01
6.402547e+01
6.402998e+01
6.403308e+01
6.403468e+01
6.403512e+01
6.403569e+01
6.403522e+01
6.445777e+01
6.445823e+01
6.445221e+01
6.444372e+01
6.443066e+01
6.441011e+01
6.437838e+01
6.433114e+01
6.426383e+01
6.417201e+01
6.405475e+01
6.392504e+01
6.382392e+01
6.375268e+01
6.370351e+01
6.367052e+01
6.365272e+01
6.365167e+01
6.366745e+01
6.369769e+01
6.373809e+01
6.378306e+01
6.382856e+01
6.387220e+01
6.391202e+01
6.394562e+01
6.397066e+01
6.398593e+01
6.399141e+01
6.398791e+01
6.397615e+01
6.395713e+01
6.393301e+01
6.390112e+01
6.386198e+01
6.382943e+01
6.382598e+01
6.385400e+01
6.390255e+01
6.395773e+01
6.400880e+01
6.405126e+01
6.408462e+01
6.411009e+01
6.412943e+01
6.414416e+01
6.415532e+01
6.416332e+01
6.416809e+01
6.416935e+01
6.416675e+01
6.415942e+01
6.414648e+01
6.412745e+01
6.410270e+01
6.407377e+01
6.404044e+01
6.400474e+01
6.397031e+01
6.394164e+01
6.392364e+01
6.392711e+01
6.394914e+01
6.398251e+01
6.401919e+01
6.405228e+01
6.407808e+01
6.409684e+01
6.410987e+01
6.411871e+01
6.412459e+01
6.412825e+01
6.413009e+01
6.413030e+01
6.412909e+01
6.412660e+01
6.412295e+01
6.411824e+01
6.411255e+01
6.410594e+01
6.409848e+01
6.409026e+01
6.408137e+01
6.407199e+01
6.406212e+01
6.405200e+01
6.404198e+01
6.403247e+01
6.402393e+01
6.401685e+01
6.401164e+01
6.400851e+01
6.400860e+01
6.401163e+01
6.401650e+01
6.402205e+01
6.402689e+01
6.403012e+01
6.403152e+01
6.403128e+01
6.402932e+01
6.402885e+01
6.445732e+01
6.445779e+01
6.444877e+01
6.443725e+01
6.442125e+01
6.439820e+01
6.436514e+01
6.431881e+01
6.425603e+01
6.417422e+01
6.407343e+01
6.396262e+01
6.386576e+01
6.379039e+01
6.373574e+01
6.369950e+01
6.368067e+01
6.367879e+01
6.369263e+01
6.371941e+01
6.375512e+01
6.379535e+01
6.383654e+01
6.387616e+01
6.391211e+01
6.394232e+01
6.396499e+01
6.397919e+01
6.398463e+01
6.398152e+01
6.397025e+01
6.395158e+01
6.392667e+01
6.389530e+01
6.386253e+01
6.384282e+01
6.384932e+01
6.388141e+01
6.392896e+01
6.398015e+01
6.402709e+01
6.406626e+01
6.409711e+01
6.412066e+01
6.413850e+01
6.415208e+01
6.416246e+01
6.417014e+01
6.417480e+01
6.417646e+01
6.417469e+01
6.416860e+01
6.415701e+01
6.413903e+01
6.411440e+01
6.408403e+01
6.404829e+01
6.400958e+01
6.397233e+01
6.394236e+01
6.392646e+01
6.393243e+01
6.395693e+01
6.399223e+01
6.402992e+01
6.406315e+01
6.408882e+01
6.410712e+01
6.411928e+01
6.412694e+01
6.413154e+01
6.413415e+01
6.413534e+01
6.413514e+01
6.413368e+01
6.413110e+01
6.412747e+01
6.412285e+01
6.411727e+01
6.411074e+01
6.410328e+01
6.409490e+01
6.408567e+01
6.407569e+01
6.406503e+01
6.405392e+01
6.404270e+01
6.403186e+01
6.402200e+01
6.401378e+01
6.400785e+01
6.400463e+01
6.400502e+01
6.400844e+01
6.401370e+01
6.401946e+01
6.402437e+01
6.402748e+01
6.402845e+01
6.402720e+01
6.402199e+01
6.402152e+01
6.445711e+01
6.445758e+01
6.444659e+01
6.443313e+01
6.441531e+01
6.439081e+01
6.435707e+01
6.431141e+01
6.425134e+01
6.417519e+01
6.408368e+01
6.398381e+01
6.389115e+01
6.381476e+01
6.375749e+01
6.371929e+01
6.369942e+01
6.369664e+01
6.370898e+01
6.373342e+01
6.376614e+01
6.380330e+01
6.384163e+01
6.387857e+01
6.391200e+01
6.394013e+01
6.396146e+01
6.397509e+01
6.398058e+01
6.397781e+01
6.396689e+01
6.394809e+01
6.392207e+01
6.389099e+01
6.386321e+01
6.385214e+01
6.386527e+01
6.389963e+01
6.394600e+01
6.399458e+01
6.403897e+01
6.407609e+01
6.410537e+01
6.412769e+01
6.414451e+01
6.415725e+01
6.416702e+01
6.417457e+01
6.417964e+01
6.418216e+01
6.418152e+01
6.417666e+01
6.416640e+01
6.414956e+01
6.412539e+01
6.409403e+01
6.405621e+01
6.401472e+01
6.397486e+01
6.394401e+01
6.393022e+01
6.393828e+01
6.396459e+01
6.400109e+01
6.403922e+01
6.407242e+01
6.409788e+01
6.411550e+01
6.412667e+01
6.413319e+01
6.413672e+01
6.413842e+01
6.413905e+01
6.413853e+01
6.413693e+01
6.413436e+01
6.413085e+01
6.412638e+01
6.412096e+01
6.411456e+01
6.410718e+01
6.409881e+01
6.408944e+01
6.407913e+01
6.406796e+01
6.405612e+01
6.404396e+01
6.403202e+01
6.402100e+01
6.401175e+01
6.400517e+01
6.400204e+01
6.400269e+01
6.400643e+01
6.401195e+01
6.401781e+01
6.402267e+01
6.402559e+01
6.402608e+01
6.402377e+01
6.401524e+01
6.401477e+01
6.445706e+01
6.445753e+01
6.444556e+01
6.443117e+01
6.441252e+01
6.438742e+01
6.435349e+01
6.430830e+01
6.424965e+01
6.417621e+01
6.408894e+01
6.399400e+01
6.390356e+01
6.382695e+01
6.376855e+01
6.372938e+01
6.370888e+01
6.370552e+01
6.371702e+01
6.374024e+01
6.377146e+01
6.380709e+01
6.384397e+01
6.387954e+01
6.391172e+01
6.393881e+01
6.395951e+01
6.397293e+01
6.397853e+01
6.397606e+01
6.396541e+01
6.394649e+01
6.391980e+01
6.388927e+01
6.386473e+01
6.385768e+01
6.387317e+01
6.390786e+01
6.395325e+01
6.400046e+01
6.404370e+01
6.408003e+01
6.410879e+01
6.413077e+01
6.414728e+01
6.415973e+01
6.416928e+01
6.417663e+01
6.418194e+01
6.418506e+01
6.418533e+01
6.418162e+01
6.417261e+01
6.415691e+01
6.413346e+01
6.410170e+01
6.406226e+01
6.401821e+01
6.397582e+01
6.394392e+01
6.393093e+01
6.394004e+01
6.396745e+01
6.400486e+01
6.404327e+01
6.407649e+01
6.410195e+01
6.411951e+01
6.413046e+01
6.413661e+01
6.413967e+01
6.414093e+01
6.414107e+01
6.414026e+01
6.413859e+01
6.413608e+01
6.413269e+01
6.412838e+01
6.412312e+01
6.411687e+01
6.410961e+01
6.410130e+01
6.409194e+01
6.408151e+01
6.407008e+01
6.405782e+01
6.404506e+01
6.403233e+01
6.402041e+01
6.401037e+01
6.400337e+01
6.400028e+01
6.400117e+01
6.400522e+01
6.401101e+01
6.401696e+01
6.402175e+01
6.402452e+01
6.402465e+01
6.402155e+01
6.401023e+01
6.400976e+01
0.000000e+00
6.445706e+01
6.444509e+01
6.443070e+01
6.441205e+01
6.438695e+01
6.435302e+01
6.430783e+01
6.424918e+01
6.417574e+01
6.408847e+01
6.399353e+01
6.390309e+01
6.382648e+01
6.376808e+01
6.372891e+01
6.370841e+01
6.370505e+01
6.371655e+01
6.373977e+01
6.377099e+01
6.380662e+01
6.384350e+01
6.387907e+01
6.391125e+01
6.393834e+01
6.395904e+01
6.397246e+01
6.397806e+01
6.397559e+01
6.396494e+01
6.394602e+01
6.391933e+01
6.388880e+01
6.386426e+01
6.385721e+01
6.387270e+01
6.390739e+01
6.395278e+01
6.399999e+01
6.404323e+01
6.407955e+01
6.410832e+01
6.413030e+01
6.414681e+01
6.415926e+01
6.416881e+01
6.417616e+01
6.418147e+01
6.418459e+01
6.418486e+01
6.418115e+01
6.417214e+01
6.415644e+01
6.413299e+01
6.410123e+01
6.406178e+01
6.401774e+01
6.397535e+01
6.394345e+01
6.393046e+01