# vtk DataFile Version 3.0
Scalar Field
ASCII
DATASET RECTILINEAR_GRID
DIMENSIONS 102 22 1
X_COORDINATES 102 double
0.000000 0.100000 0.200000 0.300000 0.400000 0.500000 0.600000 0.700000 0.800000 0.900000 1.000000 1.100000 1.200000 1.300000 1.400000 1.500000 1.600000 1.700000 1.800000 1.900000 2.000000 2.100000 2.200000 2.300000 2.400000 2.500000 2.600000 2.700000 2.800000 2.900000 3.000000 3.100000 3.200000 3.300000 3.400000 3.500000 3.600000 3.700000 3.800000 3.900000 4.000000 4.100000 4.200000 4.300000 4.400000 4.500000 4.600000 4.700000 4.800000 4.900000 5.000000 5.100000 5.200000 5.300000 5.400000 5.500000 5.600000 5.700000 5.800000 5.900000 6.000000 6.100000 6.200000 6.300000 6.400000 6.500000 6.600000 6.700000 6.800000 6.900000 7.000000 7.100000 7.200000 7.300000 7.400000 7.500000 7.600000 7.700000 7.800000 7.900000 8.000000 8.100000 8.200000 8.300000 8.400000 8.500000 8.600000 8.700000 8.800000 8.900000 9.000000 9.100000 9.200000 9.300000 9.400000 9.500000 9.600000 9.700000 9.800000 9.900000 10.000000 10.100000 
Y_COORDINATES 22 double
0.000000 0.100000 0.200000 0.300000 0.400000 0.500000 0.600000 0.700000 0.800000 0.900000 1.000000 1.100000 1.200000 1.300000 1.400000 1.500000 1.600000 1.700000 1.800000 1.900000 2.000000 2.100000 
Z_COORDINATES 1 double
0.0
POINT_DATA 2244
SCALARS Pressure double 1
LOOKUP_TABLE default
0.000000e+00
5.729530e+01
5.726769e+01
5.723535e+01
5.719514e+01
5.714354e+01
5.707737e+01
5.699576e+01
5.689936e+01
5.680740e+01
5.673440e+01
5.668415e+01
5.665400e+01
5.663923e+01
5.663528e+01
5.663828e+01
5.664480e+01
5.665152e+01
5.665554e+01
5.665553e+01
5.665271e+01
5.665013e+01
5.665073e+01
5.665581e+01
5.666517e+01
5.667810e+01
5.669407e+01
5.671283e+01
5.673419e+01
5.675797e+01
5.678378e+01
5.681109e+01
5.683918e+01
5.686723e+01
5.689435e+01
5.691963e+01
5.694220e+01
5.696149e+01
5.697723e+01
5.698955e+01
5.699883e+01
5.700563e+01
5.701049e+01
5.701392e+01
5.701636e+01
5.701811e+01
5.701940e+01
5.702038e+01
5.702117e+01
5.702181e+01
5.702236e+01
5.702284e+01
5.702327e+01
5.702366e+01
5.702401e+01
5.702434e+01
5.702464e+01
5.702493e+01
5.702520e+01
5.702545e+01
5.702569e+01
5.702593e+01
5.702615e+01
5.702637e+01
5.702659e+01
5.702680e+01
5.702700e+01
5.702720e+01
5.702740e+01
5.702758e+01
5.702776e+01
5.702793e+01
5.702810e+01
5.702825e+01
5.702840e+01
5.702853e+01
5.702866e+01
5.702877e+01
5.702887e+01
5.702896e+01
5.702904e+01
5.702910e+01
5.702915e+01
5.702918e+01
5.702921e+01
5.702921e+01
5.702921e+01
5.702919e+01
5.702915e+01
5.702911e+01
5.702905e+01
5.702897e+01
5.702889e+01
5.702879e+01
5.702867e+01
5.702855e+01
5.702840e+01
5.702824e+01
5.702804e+01
5.702779e+01
5.702762e+01
0.000000e+00
5.729530e+01
5.729571e+01
5.726811e+01
5.723577e+01
5.719556e+01
5.714396e+01
5.707779e+01
5.699618e+01
5.689978e+01
5.680782e+01
5.673482e+01
5.668457e+01
5.665441e+01
5.663964e+01
5.663570e+01
5.663870e+01
5.664522e+01
5.665194e+01
5.665596e+01
5.665595e+01
5.665313e+01
5.665055e+01
5.665114e+01
5.665623e+01
5.666559e+01
5.667852e+01
5.669449e+01
5.671325e+01
5.673461e+01
5.675838e+01
5.678420e+01
5.681151e+01
5.683960e+01
5.686765e+01
5.689477e+01
5.692005e+01
5.694262e+01
5.696191e+01
5.697765e+01
5.698997e+01
5.699925e+01
5.700604e+01
5.701090e+01
5.701434e+01
5.701678e+01
5.701853e+01
5.701982e+01
5.702080e+01
5.702159e+01
5.702223e+01
5.702278e+01
5.702326e+01
5.702369e+01
5.702408e+01
5.702443e+01
5.702476e+01
5.702506e+01
5.702535e+01
5.702562e+01
5.702587e+01
5.702611e+01
5.702635e+01
5.702657e+01
5.702679e+01
5.702701e+01
5.702722e+01
5.702742e+01
5.702762e+01
5.702781e+01
5.702800e+01
5.702818e+01
5.702835e+01
5.702852e+01
5.702867e+01
5.702882e+01
5.702895e+01
5.702908e+01
5.702919e+01
5.702929e+01
5.702938e+01
5.702946e+01
5.702952e+01
5.702957e+01
5.702960e+01
5.702962e+01
5.702963e+01
5.702963e+01
5.702961e+01
5.702957e+01
5.702953e+01
5.702947e+01
5.702939e+01
5.702931e+01
5.702921e+01
5.702909e+01
5.702896e+01
5.702882e+01
5.702866e+01
5.702846e+01
5.702821e+01
5.702803e+01
5.702762e+01
5.729518e+01
5.729559e+01
5.726941e+01
5.723828e+01
5.719879e+01
5.714697e+01
5.707891e+01
5.699339e+01
5.688765e+01
5.679102e+01
5.671855e+01
5.667106e+01
5.664387e+01
5.663147e+01
5.662928e+01
5.663370e+01
5.664167e+01
5.665004e+01
5.665570e+01
5.665684e+01
5.665438e+01
5.665158e+01
5.665181e+01
5.665682e+01
5.666626e+01
5.667912e+01
5.669488e+01
5.671329e+01
5.673428e+01
5.675768e+01
5.678316e+01
5.681021e+01
5.683810e+01
5.686598e+01
5.689301e+01
5.691829e+01
5.694096e+01
5.696042e+01
5.697637e+01
5.698891e+01
5.699840e+01
5.700537e+01
5.701037e+01
5.701393e+01
5.701645e+01
5.701828e+01
5.701962e+01
5.702065e+01
5.702146e+01
5.702213e+01
5.702270e+01
5.702319e+01
5.702362e+01
5.702401e+01
5.702437e+01
5.702469e+01
5.702500e+01
5.702528e+01
5.702555e+01
5.702580e+01
5.702605e+01
5.702628e+01
5.702651e+01
5.702674e+01
5.702695e+01
5.702717e+01
5.702737e+01
5.702757e+01
5.702777e+01
5.702796e+01
5.702814e+01
5.702832e+01
5.702848e+01
5.702864e+01
5.702879e+01
5.702892e+01
5.702905e+01
5.702916e+01
5.702927e+01
5.702935e+01
5.702943e+01
5.702949e+01
5.702954e+01
5.702958e+01
5.702960e+01
5.702961e+01
5.702960e+01
5.702958e+01
5.702955e+01
5.702950e+01
5.702944e+01
5.702937e+01
5.702928e+01
5.702918e+01
5.702907e+01
5.702894e+01
5.702880e+01
5.702864e+01
5.702847e+01
5.702828e+01
5.702811e+01
5.702769e+01
5.729548e+01
5.729590e+01
5.727269e+01
5.724424e+01
5.720668e+01
5.715493e+01
5.708320e+01
5.698876e+01
5.686054e+01
5.675503e+01
5.668536e+01
5.664446e+01
5.662355e+01
5.661589e+01
5.661698e+01
5.662391e+01
5.663450e+01
5.664614e+01
5.665533e+01
5.665889e+01
5.665713e+01
5.665397e+01
5.665348e+01
5.665819e+01
5.666782e+01
5.668055e+01
5.669583e+01
5.671351e+01
5.673368e+01
5.675627e+01
5.678102e+01
5.680742e+01
5.683479e+01
5.686227e+01
5.688900e+01
5.691418e+01
5.693701e+01
5.695683e+01
5.697327e+01
5.698632e+01
5.699629e+01
5.700368e+01
5.700903e+01
5.701286e+01
5.701562e+01
5.701762e+01
5.701911e+01
5.702025e+01
5.702114e+01
5.702187e+01
5.702247e+01
5.702298e+01
5.702343e+01
5.702383e+01
5.702419e+01
5.702452e+01
5.702483e+01
5.702512e+01
5.702539e+01
5.702565e+01
5.702591e+01
5.702615e+01
5.702639e+01
5.702662e+01
5.702685e+01
5.702707e+01
5.702729e+01
5.702750e+01
5.702770e+01
5.702790e+01
5.702809e+01
5.702827e+01
5.702844e+01
5.702860e+01
5.702876e+01
5.702890e+01
5.702903e+01
5.702915e+01
5.702925e+01
5.702934e+01
5.702942e+01
5.702948e+01
5.702953e+01
5.702957e+01
5.702959e+01
5.702960e+01
5.702959e+01
5.702957e+01
5.702954e+01
5.702949e+01
5.702943e+01
5.702935e+01
5.702927e+01
5.702917e+01
5.702905e+01
5.702893e+01
5.702879e+01
5.702864e+01
5.702848e+01
5.702832e+01
5.702816e+01
5.702774e+01
5.729654e+01
5.729696e+01
5.727836e+01
5.725436e+01
5.722042e+01
5.716950e+01
5.709187e+01
5.697945e+01
5.680786e+01
5.669339e+01
5.663419e+01
5.660603e+01
5.659500e+01
5.659415e+01
5.659975e+01
5.660993e+01
5.662381e+01
5.663989e+01
5.665451e+01
5.666234e+01
5.666166e+01
5.665784e+01
5.665628e+01
5.666022e+01
5.667012e+01
5.668271e+01
5.669726e+01
5.671383e+01
5.673277e+01
5.675417e+01
5.677784e+01
5.680337e+01
5.683005e+01
5.685703e+01
5.688339e+01
5.690836e+01
5.693133e+01
5.695159e+01
5.696865e+01
5.698240e+01
5.699304e+01
5.700103e+01
5.700689e+01
5.701115e+01
5.701423e+01
5.701649e+01
5.701818e+01
5.701946e+01
5.702047e+01
5.702128e+01
5.702195e+01
5.702251e+01
5.702300e+01
5.702344e+01
5.702383e+01
5.702418e+01
5.702451e+01
5.702482e+01
5.702512e+01
5.702540e+01
5.702568e+01
5.702594e+01
5.702620e+01
5.702645e+01
5.702669e+01
5.702693e+01
5.702716e+01
5.702739e+01
5.702761e+01
5.702782e+01
5.702802e+01
5.702822e+01
5.702840e+01
5.702857e+01
5.702873e+01
5.702888e+01
5.702902e+01
5.702914e+01
5.702925e+01
5.702935e+01
5.702943e+01
5.702949e+01
5.702954e+01
5.702958e+01
5.702960e+01
5.702961e+01
5.702960e+01
5.702958e+01
5.702954e+01
5.702949e+01
5.702943e+01
5.702935e+01
5.702926e+01
5.702916e+01
5.702905e+01
5.702892e+01
5.702878e+01
5.702864e+01
5.702849e+01
5.702835e+01
5.702819e+01
5.702777e+01
5.729872e+01
5.729913e+01
5.728690e+01
5.726954e+01
5.724199e+01
5.719441e+01
5.710911e+01
5.696069e+01
5.671210e+01
5.660276e+01
5.656681e+01
5.655774e+01
5.656009e+01
5.656806e+01
5.657909e+01
5.659268e+01
5.660932e+01
5.662969e+01
5.665109e+01
5.666644e+01
5.666856e+01
5.666387e+01
5.666101e+01
5.666396e+01
5.667328e+01
5.668595e+01
5.669954e+01
5.671466e+01
5.673208e+01
5.675200e+01
5.677438e+01
5.679882e+01
5.682470e+01
5.685112e+01
5.687707e+01
5.690170e+01
5.692483e+01
5.694561e+01
5.696340e+01
5.697792e+01
5.698929e+01
5.699791e+01
5.700428e+01
5.700894e+01
5.701234e+01
5.701484e+01
5.701673e+01
5.701818e+01
5.701932e+01
5.702026e+01
5.702103e+01
5.702170e+01
5.702227e+01
5.702278e+01
5.702324e+01
5.702366e+01
5.702404e+01
5.702441e+01
5.702475e+01
5.702507e+01
5.702537e+01
5.702567e+01
5.702596e+01
5.702624e+01
5.702651e+01
5.702677e+01
5.702703e+01
5.702728e+01
5.702752e+01
5.702775e+01
5.702797e+01
5.702818e+01
5.702838e+01
5.702856e+01
5.702873e+01
5.702889e+01
5.702903e+01
5.702916e+01
5.702927e+01
5.702937e+01
5.702945e+01
5.702952e+01
5.702957e+01
5.702961e+01
5.702963e+01
5.702964e+01
5.702963e+01
5.702960e+01
5.702956e+01
5.702951e+01
5.702944e+01
5.702936e+01
5.702927e+01
5.702917e+01
5.702905e+01
5.702892e+01
5.702879e+01
5.702864e+01
5.702850e+01
5.702836e+01
5.702819e+01
5.702778e+01
5.730228e+01
5.730270e+01
5.729847e+01
5.729035e+01
5.727382e+01
5.723679e+01
5.714900e+01
5.693622e+01
5.654391e+01
5.647361e+01
5.648566e+01
5.650409e+01
5.652290e+01
5.653968e+01
5.655652e+01
5.657426e+01
5.659357e+01
5.661448e+01
5.663768e+01
5.666175e+01
5.667627e+01
5.667283e+01
5.666935e+01
5.667170e+01
5.668047e+01
5.669165e+01
5.670417e+01
5.671765e+01
5.673341e+01
5.675175e+01
5.677266e+01
5.679585e+01
5.682071e+01
5.684639e+01
5.687180e+01
5.689579e+01
5.691876e+01
5.693985e+01
5.695821e+01
5.697336e+01
5.698532e+01
5.699443e+01
5.700121e+01
5.700619e+01
5.700986e+01
5.701259e+01
5.701467e+01
5.701631e+01
5.701763e+01
5.701874e+01
5.701969e+01
5.702051e+01
5.702124e+01
5.702189e+01
5.702247e+01
5.702300e+01
5.702347e+01
5.702390e+01
5.702430e+01
5.702467e+01
5.702503e+01
5.702537e+01
5.702570e+01
5.702602e+01
5.702633e+01
5.702663e+01
5.702691e+01
5.702719e+01
5.702746e+01
5.702771e+01
5.702795e+01
5.702818e+01
5.702839e+01
5.702858e+01
5.702876e+01
5.702893e+01
5.702908e+01
5.702921e+01
5.702933e+01
5.702943e+01
5.702951e+01
5.702958e+01
5.702963e+01
5.702966e+01
5.702968e+01
5.702968e+01
5.702967e+01
5.702964e+01
5.702960e+01
5.702954e+01
5.702947e+01
5.702939e+01
5.702929e+01
5.702918e+01
5.702906e+01
5.702893e+01
5.702879e+01
5.702865e+01
5.702850e+01
5.702836e+01
5.702819e+01
5.702777e+01
5.730724e+01
5.730766e+01
5.731246e+01
5.731594e+01
5.731651e+01
5.730542e+01
5.724854e+01
5.700574e+01
5.624298e+01
5.629944e+01
5.640756e+01
5.645714e+01
5.648667e+01
5.650967e+01
5.653135e+01
5.655349e+01
5.657568e+01
5.659553e+01
5.661765e+01
5.664233e+01
5.666357e+01
5.667509e+01
5.667744e+01
5.668067e+01
5.669061e+01
5.670301e+01
5.671521e+01
5.672671e+01
5.674081e+01
5.675747e+01
5.677669e+01
5.679812e+01
5.682137e+01
5.684565e+01
5.686988e+01
5.689279e+01
5.691466e+01
5.693532e+01
5.695363e+01
5.696893e+01
5.698111e+01
5.699047e+01
5.699749e+01
5.700271e+01
5.700660e+01
5.700955e+01
5.701186e+01
5.701373e+01
5.701531e+01
5.701668e+01
5.701788e+01
5.701898e+01
5.701996e+01
5.702080e+01
5.702154e+01
5.702220e+01
5.702279e+01
5.702333e+01
5.702382e+01
5.702428e+01
5.702471e+01
5.702511e+01
5.702550e+01
5.702587e+01
5.702622e+01
5.702655e+01
5.702687e+01
5.702718e+01
5.702747e+01
5.702774e+01
5.702800e+01
5.702824e+01
5.702846e+01
5.702866e+01
5.702885e+01
5.702902e+01
5.702917e+01
5.702930e+01
5.702942e+01
5.702952e+01
5.702960e+01
5.702966e+01
5.702971e+01
5.702974e+01
5.702975e+01
5.702975e+01
5.702973e+01
5.702970e+01
5.702965e+01
5.702959e+01
5.702951e+01
5.702942e+01
5.702932e+01
5.702920e+01
5.702908e+01
5.702894e+01
5.702880e+01
5.702865e+01
5.702850e+01
5.702835e+01
5.702817e+01
5.702775e+01
5.731316e+01
5.731358e+01
5.732708e+01
5.734260e+01
5.736358e+01
5.739317e+01
5.743006e+01
5.754144e+01
5.689179e+01
5.635278e+01
5.640695e+01
5.643420e+01
5.646061e+01
5.648239e+01
5.650285e+01
5.652493e+01
5.654683e+01
5.656710e+01
5.658282e+01
5.659714e+01
5.661236e+01
5.662966e+01
5.664940e+01
5.667160e+01
5.669180e+01
5.671485e+01
5.673211e+01
5.674477e+01
5.675758e+01
5.677225e+01
5.678962e+01
5.680849e+01
5.682906e+01
5.685082e+01
5.687277e+01
5.689365e+01
5.691318e+01
5.693224e+01
5.694949e+01
5.696415e+01
5.697604e+01
5.698536e+01
5.699252e+01
5.699799e+01
5.700218e+01
5.700545e+01
5.700809e+01
5.701030e+01
5.701225e+01
5.701401e+01
5.701556e+01
5.701693e+01
5.701818e+01
5.701930e+01
5.702032e+01
5.702123e+01
5.702204e+01
5.702277e+01
5.702342e+01
5.702400e+01
5.702453e+01
5.702502e+01
5.702547e+01
5.702588e+01
5.702627e+01
5.702664e+01
5.702699e+01
5.702731e+01
5.702761e+01
5.702789e+01
5.702816e+01
5.702840e+01
5.702862e+01
5.702883e+01
5.702901e+01
5.702918e+01
5.702932e+01
5.702945e+01
5.702956e+01
5.702965e+01
5.702973e+01
5.702979e+01
5.702982e+01
5.702985e+01
5.702985e+01
5.702984e+01
5.702982e+01
5.702978e+01
5.702972e+01
5.702965e+01
5.702957e+01
5.702947e+01
5.702936e+01
5.702924e+01
5.702910e+01
5.702896e+01
5.702881e+01
5.702866e+01
5.702850e+01
5.702834e+01
5.702814e+01
5.702772e+01
5.731934e+01
5.731976e+01
5.733981e+01
5.736429e+01
5.739998e+01
5.745731e+01
5.755402e+01
5.768552e+01
5.771343e+01
0.000000e+00
5.644490e+01
5.644532e+01
5.646776e+01
5.648172e+01
5.649235e+01
5.650510e+01
5.651677e+01
5.652278e+01
5.652320e+01
5.651742e+01
5.650981e+01
5.651104e+01
5.654051e+01
5.659861e+01
5.666663e+01
5.672331e+01
5.675857e+01
5.677631e+01
5.678692e+01
5.679794e+01
5.681199e+01
5.682729e+01
5.684403e+01
5.686200e+01
5.688033e+01
5.689786e+01
5.691392e+01
5.693008e+01
5.694508e+01
5.695823e+01
5.696930e+01
5.697834e+01
5.698560e+01
5.699143e+01
5.699605e+01
5.699974e+01
5.700284e+01
5.700541e+01
5.700775e+01
5.700993e+01
5.701199e+01
5.701394e+01
5.701576e+01
5.701742e+01
5.701892e+01
5.702025e+01
5.702140e+01
5.702240e+01
5.702326e+01
5.702401e+01
5.702465e+01
5.702522e+01
5.702573e+01
5.702618e+01
5.702659e+01
5.702697e+01
5.702731e+01
5.702763e+01
5.702793e+01
5.702820e+01
5.702845e+01
5.702868e+01
5.702889e+01
5.702909e+01
5.702926e+01
5.702941e+01
5.702954e+01
5.702966e+01
5.702976e+01
5.702984e+01
5.702990e+01
5.702994e+01
5.702997e+01
5.702998e+01
5.702998e+01
5.702996e+01
5.702992e+01
5.702987e+01
5.702981e+01
5.702973e+01
5.702963e+01
5.702953e+01
5.702941e+01
5.702928e+01
5.702914e+01
5.702898e+01
5.702882e+01
5.702866e+01
5.702849e+01
5.702832e+01
5.702810e+01
5.702768e+01
5.732506e+01
5.732548e+01
5.734873e+01
5.737689e+01
5.741640e+01
5.747468e+01
5.755914e+01
5.766051e+01
5.774217e+01
5.774175e+01
0.000000e+00
5.648870e+01
5.648911e+01
5.649982e+01
5.650428e+01
5.650430e+01
5.649918e+01
5.648716e+01
5.646615e+01
5.643678e+01
5.640643e+01
5.640254e+01
5.645045e+01
5.654210e+01
5.664970e+01
5.674476e+01
5.680309e+01
5.682796e+01
5.683440e+01
5.683805e+01
5.684498e+01
5.685468e+01
5.686610e+01
5.687883e+01
5.689200e+01
5.690463e+01
5.691617e+01
5.692807e+01
5.693953e+01
5.695016e+01
5.695979e+01
5.696824e+01
5.697549e+01
5.698187e+01
5.698721e+01
5.699184e+01
5.699584e+01
5.699941e+01
5.700270e+01
5.700577e+01
5.700863e+01
5.701128e+01
5.701371e+01
5.701591e+01
5.701787e+01
5.701959e+01
5.702107e+01
5.702233e+01
5.702339e+01
5.702429e+01
5.702506e+01
5.702570e+01
5.702625e+01
5.702673e+01
5.702715e+01
5.702752e+01
5.702785e+01
5.702814e+01
5.702841e+01
5.702866e+01
5.702889e+01
5.702909e+01
5.702927e+01
5.702944e+01
5.702959e+01
5.702972e+01
5.702983e+01
5.702992e+01
5.703000e+01
5.703006e+01
5.703011e+01
5.703014e+01
5.703015e+01
5.703015e+01
5.703013e+01
5.703009e+01
5.703005e+01
5.702998e+01
5.702991e+01
5.702982e+01
5.702971e+01
5.702960e+01
5.702947e+01
5.702932e+01
5.702917e+01
5.702901e+01
5.702884e+01
5.702866e+01
5.702848e+01
5.702830e+01
5.702806e+01
5.702764e+01
5.732994e+01
5.733036e+01
5.735341e+01
5.738048e+01
5.741639e+01
5.746642e+01
5.753115e+01
5.758993e+01
5.762082e+01
5.738390e+01
5.738349e+01
0.000000e+00
5.650025e+01
5.651222e+01
5.651088e+01
5.650270e+01
5.648781e+01
5.646598e+01
5.643342e+01
5.639253e+01
5.635024e+01
5.635580e+01
5.642258e+01
5.653543e+01
5.666449e+01
5.678005e+01
5.685262e+01
5.688748e+01
5.689661e+01
5.689266e+01
5.688946e+01
5.689055e+01
5.689498e+01
5.690087e+01
5.690718e+01
5.691330e+01
5.691904e+01
5.692520e+01
5.693166e+01
5.693856e+01
5.694612e+01
5.695447e+01
5.696276e+01
5.697071e+01
5.697775e+01
5.698403e+01
5.698962e+01
5.699455e+01
5.699893e+01
5.700286e+01
5.700640e+01
5.700961e+01
5.701251e+01
5.701507e+01
5.701732e+01
5.701929e+01
5.702099e+01
5.702244e+01
5.702367e+01
5.702470e+01
5.702557e+01
5.702629e+01
5.702689e+01
5.702740e+01
5.702782e+01
5.702818e+01
5.702850e+01
5.702877e+01
5.702901e+01
5.702922e+01
5.702941e+01
5.702958e+01
5.702973e+01
5.702986e+01
5.702998e+01
5.703008e+01
5.703016e+01
5.703023e+01
5.703028e+01
5.703032e+01
5.703035e+01
5.703035e+01
5.703035e+01
5.703033e+01
5.703029e+01
5.703025e+01
5.703018e+01
5.703011e+01
5.703002e+01
5.702991e+01
5.702980e+01
5.702967e+01
5.702953e+01
5.702938e+01
5.702921e+01
5.702904e+01
5.702885e+01
5.702866e+01
5.702847e+01
5.702827e+01
5.702801e+01
5.702759e+01
5.733392e+01
5.733434e+01
5.735453e+01
5.737755e+01
5.740593e+01
5.743974e+01
5.747218e+01
5.748134e+01
5.742511e+01
5.731200e+01
5.691110e+01
5.661629e+01
5.649107e+01
5.653160e+01
5.652470e+01
5.650781e+01
5.648646e+01
5.645791e+01
5.641772e+01
5.636721e+01
5.633076e+01
5.635272e+01
5.643604e+01
5.656105e+01
5.669707e+01
5.680639e+01
5.688675e+01
5.693249e+01
5.694655e+01
5.694230e+01
5.693489e+01
5.692982e+01
5.692748e+01
5.692547e+01
5.692357e+01
5.692219e+01
5.692147e+01
5.692130e+01
5.692228e+01
5.692530e+01
5.693109e+01
5.693934e+01
5.694922e+01
5.695970e+01
5.696952e+01
5.697806e+01
5.698530e+01
5.699153e+01
5.699684e+01
5.700145e+01
5.700548e+01
5.700903e+01
5.701215e+01
5.701488e+01
5.701728e+01
5.701935e+01
5.702115e+01
5.702269e+01
5.702401e+01
5.702512e+01
5.702606e+01
5.702684e+01
5.702748e+01
5.702802e+01
5.702846e+01
5.702883e+01
5.702914e+01
5.702940e+01
5.702961e+01
5.702980e+01
5.702996e+01
5.703010e+01
5.703021e+01
5.703031e+01
5.703040e+01
5.703046e+01
5.703052e+01
5.703056e+01
5.703059e+01
5.703060e+01
5.703060e+01
5.703059e+01
5.703056e+01
5.703052e+01
5.703047e+01
5.703041e+01
5.703033e+01
5.703024e+01
5.703013e+01
5.703002e+01
5.702989e+01
5.702975e+01
5.702959e+01
5.702943e+01
5.702925e+01
5.702907e+01
5.702887e+01
5.702866e+01
5.702845e+01
5.702824e+01
5.702795e+01
5.702753e+01
5.733736e+01
5.733778e+01
5.735337e+01
5.737004e+01
5.738806e+01
5.740458e+01
5.741034e+01
5.738546e+01
5.729418e+01
5.712805e+01
5.686510e+01
5.632232e+01
5.645138e+01
5.651094e+01
5.651882e+01
5.650831e+01
5.648941e+01
5.645893e+01
5.641315e+01
5.636444e+01
5.634707e+01
5.638644e+01
5.647955e+01
5.660695e+01
5.673082e+01
5.682658e+01
5.689556e+01
5.694306e+01
5.696501e+01
5.696365e+01
5.695887e+01
5.695617e+01
5.695168e+01
5.694386e+01
5.693536e+01
5.692820e+01
5.692222e+01
5.691646e+01
5.691203e+01
5.691045e+01
5.691470e+01
5.692481e+01
5.693834e+01
5.695215e+01
5.696452e+01
5.697493e+01
5.698335e+01
5.699033e+01
5.699619e+01
5.700118e+01
5.700548e+01
5.700920e+01
5.701244e+01
5.701525e+01
5.701768e+01
5.701978e+01
5.702159e+01
5.702314e+01
5.702446e+01
5.702558e+01
5.702653e+01
5.702733e+01
5.702799e+01
5.702855e+01
5.702900e+01
5.702938e+01
5.702969e+01
5.702995e+01
5.703016e+01
5.703033e+01
5.703047e+01
5.703058e+01
5.703067e+01
5.703075e+01
5.703080e+01
5.703085e+01
5.703087e+01
5.703089e+01
5.703089e+01
5.703088e+01
5.703086e+01
5.703082e+01
5.703078e+01
5.703072e+01
5.703065e+01
5.703057e+01
5.703047e+01
5.703037e+01
5.703025e+01
5.703012e+01
5.702998e+01
5.702983e+01
5.702966e+01
5.702948e+01
5.702929e+01
5.702909e+01
5.702888e+01
5.702866e+01
5.702843e+01
5.702820e+01
5.702789e+01
5.702747e+01
5.734018e+01
5.734060e+01
5.735065e+01
5.736041e+01
5.736866e+01
5.737148e+01
5.736050e+01
5.732109e+01
5.723104e+01
5.707225e+01
5.685983e+01
5.657368e+01
5.654428e+01
5.654661e+01
5.654068e+01
5.652645e+01
5.650532e+01
5.647524e+01
5.643322e+01
5.640019e+01
5.640130e+01
5.644917e+01
5.653835e+01
5.665231e+01
5.675534e+01
5.683789e+01
5.689704e+01
5.693243e+01
5.694667e+01
5.695147e+01
5.695800e+01
5.696091e+01
5.695654e+01
5.694801e+01
5.693847e+01
5.692972e+01
5.692072e+01
5.691071e+01
5.690069e+01
5.689711e+01
5.690348e+01
5.691700e+01
5.693341e+01
5.694954e+01
5.696316e+01
5.697424e+01
5.698322e+01
5.699057e+01
5.699667e+01
5.700179e+01
5.700615e+01
5.700988e+01
5.701310e+01
5.701587e+01
5.701826e+01
5.702032e+01
5.702210e+01
5.702362e+01
5.702492e+01
5.702603e+01
5.702697e+01
5.702776e+01
5.702843e+01
5.702899e+01
5.702945e+01
5.702983e+01
5.703014e+01
5.703040e+01
5.703061e+01
5.703077e+01
5.703090e+01
5.703100e+01
5.703108e+01
5.703114e+01
5.703118e+01
5.703120e+01
5.703120e+01
5.703120e+01
5.703118e+01
5.703115e+01
5.703110e+01
5.703105e+01
5.703099e+01
5.703091e+01
5.703082e+01
5.703073e+01
5.703062e+01
5.703050e+01
5.703037e+01
5.703022e+01
5.703007e+01
5.702990e+01
5.702972e+01
5.702953e+01
5.702933e+01
5.702912e+01
5.702889e+01
5.702866e+01
5.702841e+01
5.702816e+01
5.702782e+01
5.702740e+01
5.734252e+01
5.734294e+01
5.734751e+01
5.735090e+01
5.735122e+01
5.734463e+01
5.732466e+01
5.728165e+01
5.720303e+01
5.707611e+01
5.690521e+01
5.671326e+01
5.663434e+01
5.659917e+01
5.657455e+01
5.655135e+01
5.652685e+01
5.649866e+01
5.646805e+01
5.645196e+01
5.646563e+01
5.651528e+01
5.659491e+01
5.668763e+01
5.677203e+01
5.684043e+01
5.688980e+01
5.692092e+01
5.693805e+01
5.694746e+01
5.695337e+01
5.695414e+01
5.695003e+01
5.694328e+01
5.693612e+01
5.692816e+01
5.691805e+01
5.690564e+01
5.689440e+01
5.689302e+01
5.690178e+01
5.691698e+01
5.693459e+01
5.695078e+01
5.696437e+01
5.697547e+01
5.698447e+01
5.699180e+01
5.699784e+01
5.700289e+01
5.700715e+01
5.701077e+01
5.701388e+01
5.701655e+01
5.701885e+01
5.702083e+01
5.702253e+01
5.702400e+01
5.702527e+01
5.702636e+01
5.702729e+01
5.702808e+01
5.702875e+01
5.702931e+01
5.702978e+01
5.703017e+01
5.703049e+01
5.703076e+01
5.703097e+01
5.703113e+01
5.703126e+01
5.703135e+01
5.703142e+01
5.703147e+01
5.703149e+01
5.703150e+01
5.703149e+01
5.703147e+01
5.703143e+01
5.703138e+01
5.703132e+01
5.703125e+01
5.703117e+01
5.703108e+01
5.703098e+01
5.703087e+01
5.703075e+01
5.703061e+01
5.703047e+01
5.703032e+01
5.703015e+01
5.702997e+01
5.702978e+01
5.702958e+01
5.702937e+01
5.702914e+01
5.702890e+01
5.702865e+01
5.702838e+01
5.702811e+01
5.702775e+01
5.702733e+01
5.734453e+01
5.734495e+01
5.734466e+01
5.734274e+01
5.733710e+01
5.732438e+01
5.729978e+01
5.725701e+01
5.718878e+01
5.708747e+01
5.695219e+01
5.680206e+01
5.670829e+01
5.665132e+01
5.661113e+01
5.657875e+01
5.655031e+01
5.652404e+01
5.650332e+01
5.649919e+01
5.652052e+01
5.656898e+01
5.663800e+01
5.671413e+01
5.678421e+01
5.684185e+01
5.688472e+01
5.691374e+01
5.693191e+01
5.694266e+01
5.694806e+01
5.694837e+01
5.694467e+01
5.693879e+01
5.693221e+01
5.692396e+01
5.691348e+01
5.690129e+01
5.689337e+01
5.689518e+01
5.690577e+01
5.692159e+01
5.693862e+01
5.695401e+01
5.696703e+01
5.697769e+01
5.698634e+01
5.699339e+01
5.699918e+01
5.700401e+01
5.700808e+01
5.701155e+01
5.701452e+01
5.701709e+01
5.701930e+01
5.702121e+01
5.702286e+01
5.702428e+01
5.702552e+01
5.702658e+01
5.702750e+01
5.702828e+01
5.702896e+01
5.702953e+01
5.703001e+01
5.703041e+01
5.703074e+01
5.703101e+01
5.703123e+01
5.703140e+01
5.703153e+01
5.703162e+01
5.703169e+01
5.703173e+01
5.703175e+01
5.703175e+01
5.703173e+01
5.703169e+01
5.703164e+01
5.703158e+01
5.703151e+01
5.703143e+01
5.703133e+01
5.703123e+01
5.703112e+01
5.703099e+01
5.703086e+01
5.703072e+01
5.703056e+01
5.703040e+01
5.703022e+01
5.703003e+01
5.702983e+01
5.702962e+01
5.702939e+01
5.702915e+01
5.702890e+01
5.702863e+01
5.702835e+01
5.702806e+01
5.702768e+01
5.702726e+01
5.734627e+01
5.734668e+01
5.734243e+01
5.733637e+01
5.732646e+01
5.730979e+01
5.728273e+01
5.724093e+01
5.717981e+01
5.709486e+01
5.698497e+01
5.686199e+01
5.676534e+01
5.669556e+01
5.664400e+01
5.660382e+01
5.657164e+01
5.654669e+01
5.653255e+01
5.653594e+01
5.656142e+01
5.660786e+01
5.666853e+01
5.673329e+01
5.679315e+01
5.684317e+01
5.688157e+01
5.690903e+01
5.692742e+01
5.693873e+01
5.694431e+01
5.694489e+01
5.694154e+01
5.693569e+01
5.692832e+01
5.691901e+01
5.690814e+01
5.689803e+01
5.689430e+01
5.689926e+01
5.691125e+01
5.692692e+01
5.694297e+01
5.695747e+01
5.696978e+01
5.697991e+01
5.698817e+01
5.699489e+01
5.700042e+01
5.700502e+01
5.700889e+01
5.701218e+01
5.701501e+01
5.701745e+01
5.701957e+01
5.702141e+01
5.702301e+01
5.702441e+01
5.702562e+01
5.702668e+01
5.702759e+01
5.702839e+01
5.702906e+01
5.702964e+01
5.703014e+01
5.703055e+01
5.703089e+01
5.703117e+01
5.703140e+01
5.703158e+01
5.703171e+01
5.703181e+01
5.703188e+01
5.703192e+01
5.703194e+01
5.703193e+01
5.703190e+01
5.703186e+01
5.703181e+01
5.703174e+01
5.703166e+01
5.703157e+01
5.703146e+01
5.703135e+01
5.703123e+01
5.703109e+01
5.703095e+01
5.703080e+01
5.703064e+01
5.703046e+01
5.703028e+01
5.703008e+01
5.702987e+01
5.702965e+01
5.702942e+01
5.702916e+01
5.702890e+01
5.702861e+01
5.702831e+01
5.702800e+01
5.702760e+01
5.702718e+01
5.734769e+01
5.734811e+01
5.734088e+01
5.733183e+01
5.731899e+01
5.729984e+01
5.727143e+01
5.723051e+01
5.717384e+01
5.709867e+01
5.700459e+01
5.689931e+01
5.680556e+01
5.672990e+01
5.667059e+01
5.662435e+01
5.658914e+01
5.656514e+01
5.655529e+01
5.656335e+01
5.659074e+01
5.663478e+01
5.668923e+01
5.674638e+01
5.679942e+01
5.684429e+01
5.687964e+01
5.690587e+01
5.692419e+01
5.693585e+01
5.694178e+01
5.694274e+01
5.693960e+01
5.693338e+01
5.692478e+01
5.691425e+01
5.690353e+01
5.689614e+01
5.689580e+01
5.690311e+01
5.691596e+01
5.693128e+01
5.694653e+01
5.696027e+01
5.697199e+01
5.698170e+01
5.698963e+01
5.699610e+01
5.700141e+01
5.700581e+01
5.700951e+01
5.701265e+01
5.701534e+01
5.701767e+01
5.701971e+01
5.702149e+01
5.702305e+01
5.702442e+01
5.702562e+01
5.702667e+01
5.702759e+01
5.702839e+01
5.702908e+01
5.702967e+01
5.703018e+01
5.703061e+01
5.703096e+01
5.703126e+01
5.703149e+01
5.703168e+01
5.703182e+01
5.703193e+01
5.703200e+01
5.703204e+01
5.703206e+01
5.703205e+01
5.703202e+01
5.703198e+01
5.703192e+01
5.703185e+01
5.703176e+01
5.703166e+01
5.703155e+01
5.703143e+01
5.703131e+01
5.703117e+01
5.703102e+01
5.703086e+01
5.703069e+01
5.703051e+01
5.703032e+01
5.703012e+01
5.702990e+01
5.702967e+01
5.702943e+01
5.702917e+01
5.702889e+01
5.702859e+01
5.702827e+01
5.702794e+01
5.702752e+01
5.702710e+01
5.734872e+01
5.734914e+01
5.733995e+01
5.732897e+01
5.731433e+01
5.729374e+01
5.726466e+01
5.722440e+01
5.717041e+01
5.710079e+01
5.701569e+01
5.692080e+01
5.683044e+01
5.675253e+01
5.668894e+01
5.663893e+01
5.660182e+01
5.657841e+01
5.657085e+01
5.658116e+01
5.660913e+01
5.665136e+01
5.670195e+01
5.675442e+01
5.680323e+01
5.684499e+01
5.687850e+01
5.690392e+01
5.692211e+01
5.693397e+01
5.694019e+01
5.694145e+01
5.693840e+01
5.693164e+01
5.692191e+01
5.691055e+01
5.690044e+01
5.689532e+01
5.689741e+01
5.690621e+01
5.691941e+01
5.693431e+01
5.694898e+01
5.696219e+01
5.697351e+01
5.698293e+01
5.699065e+01
5.699695e+01
5.700211e+01
5.700637e+01
5.700994e+01
5.701296e+01
5.701555e+01
5.701780e+01
5.701976e+01
5.702149e+01
5.702301e+01
5.702436e+01
5.702555e+01
5.702661e+01
5.702753e+01
5.702834e+01
5.702904e+01
5.702964e+01
5.703016e+01
5.703060e+01
5.703097e+01
5.703127e+01
5.703152e+01
5.703172e+01
5.703187e+01
5.703198e+01
5.703206e+01
5.703210e+01
5.703212e+01
5.703211e+01
5.703209e+01
5.703204e+01
5.703198e+01
5.703191e+01
5.703182e+01
5.703172e+01
5.703161e+01
5.703148e+01
5.703135e+01
5.703121e+01
5.703106e+01
5.703089e+01
5.703072e+01
5.703054e+01
5.703034e+01
5.703014e+01
5.702992e+01
5.702968e+01
5.702944e+01
5.702917e+01
5.702888e+01
5.702856e+01
5.702822e+01
5.702785e+01
5.702743e+01
5.702701e+01
5.734928e+01
5.734970e+01
5.733954e+01
5.732763e+01
5.731216e+01
5.729097e+01
5.726171e+01
5.722194e+01
5.716937e+01
5.710243e+01
5.702148e+01
5.693135e+01
5.684287e+01
5.676412e+01
5.669851e+01
5.664662e+01
5.660855e+01
5.658535e+01
5.657870e+01
5.658979e+01
5.661773e+01
5.665889e+01
5.670755e+01
5.675780e+01
5.680464e+01
5.684498e+01
5.687764e+01
5.690268e+01
5.692079e+01
5.693274e+01
5.693918e+01
5.694070e+01
5.693773e+01
5.693068e+01
5.692038e+01
5.690886e+01
5.689948e+01
5.689561e+01
5.689871e+01
5.690798e+01
5.692116e+01
5.693573e+01
5.695006e+01
5.696301e+01
5.697414e+01
5.698343e+01
5.699106e+01
5.699730e+01
5.700241e+01
5.700662e+01
5.701014e+01
5.701311e+01
5.701566e+01
5.701787e+01
5.701980e+01
5.702150e+01
5.702300e+01
5.702433e+01
5.702551e+01
5.702656e+01
5.702748e+01
5.702829e+01
5.702899e+01
5.702960e+01
5.703013e+01
5.703057e+01
5.703095e+01
5.703126e+01
5.703151e+01
5.703171e+01
5.703187e+01
5.703199e+01
5.703207e+01
5.703211e+01
5.703213e+01
5.703213e+01
5.703211e+01
5.703206e+01
5.703200e+01
5.703193e+01
5.703184e+01
5.703174e+01
5.703162e+01
5.703150e+01
5.703137e+01
5.703122e+01
5.703107e+01
5.703091e+01
5.703073e+01
5.703055e+01
5.703035e+01
5.703014e+01
5.702992e+01
5.702969e+01
5.702944e+01
5.702916e+01
5.702887e+01
5.702854e+01
5.702818e+01
5.702774e+01
5.702731e+01
5.702689e+01
0.000000e+00
5.734928e+01
5.733912e+01
5.732721e+01
5.731175e+01
5.729055e+01
5.726129e+01
5.722152e+01
5.716895e+01
5.710201e+01
5.702106e+01
5.693094e+01
5.684245e+01
5.676370e+01
5.669809e+01
5.664620e+01
5.660813e+01
5.658493e+01
5.657828e+01
5.658937e+01
5.661732e+01
5.665847e+01
5.670713e+01
5.675738e+01
5.680422e+01
5.684456e+01
5.687722e+01
5.690226e+01
5.692037e+01
5.693232e+01
5.693877e+01
5.694028e+01
5.693732e+01
5.693026e+01
5.691996e+01
5.690844e+01
5.689906e+01
5.689519e+01
5.689829e+01
5.690756e+01
5.692074e+01
5.693532e+01
5.694964e+01
5.696259e+01
5.697372e+01
5.698301e+01
5.699064e+01
5.699688e+01
5.700199e+01
5.700620e+01
5.700972e+01
5.701269e+01
5.701524e+01
5.701745e+01
5.701938e+01
5.702108e+01
5.702258e+01
5.702391e+01
5.702510e+01
5.702614e+01
5.702706e+01