# vtk DataFile Version 3.0
Scalar Field
ASCII
DATASET RECTILINEAR_GRID
DIMENSIONS 102 22 1
X_COORDINATES 102 double
0.000000 0.100000 0.200000 0.300000 0.400000 0.500000 0.600000 0.700000 0.800000 0.900000 1.000000 1.100000 1.200000 1.300000 1.400000 1.500000 1.600000 1.700000 1.800000 1.900000 2.000000 2.100000 2.200000 2.300000 2.400000 2.500000 2.600000 2.700000 2.800000 2.900000 3.000000 3.100000 3.200000 3.300000 3.400000 3.500000 3.600000 3.700000 3.800000 3.900000 4.000000 4.100000 4.200000 4.300000 4.400000 4.500000 4.600000 4.700000 4.800000 4.900000 5.000000 5.100000 5.200000 5.300000 5.400000 5.500000 5.600000 5.700000 5.800000 5.900000 6.000000 6.100000 6.200000 6.300000 6.400000 6.500000 6.600000 6.700000 6.800000 6.900000 7.000000 7.100000 7.200000 7.300000 7.400000 7.500000 7.600000 7.700000 7.800000 7.900000 8.000000 8.100000 8.200000 8.300000 8.400000 8.500000 8.600000 8.700000 8.800000 8.900000 9.000000 9.100000 9.200000 9.300000 9.400000 9.500000 9.600000 9.700000 9.800000 9.900000 10.000000 10.100000 
Y_COORDINATES 22 double
0.000000 0.100000 0.200000 0.300000 0.400000 0.500000 0.600000 0.700000 0.800000 0.900000 1.000000 1.100000 1.200000 1.300000 1.400000 1.500000 1.600000 1.700000 1.800000 1.900000 2.000000 2.100000 
Z_COORDINATES 1 double
0.0
POINT_DATA 2244
SCALARS Pressure double 1
LOOKUP_TABLE default
0.000000e+00
2.941148e+01
2.938127e+01
2.934738e+01
2.930597e+01
2.925287e+01
2.918381e+01
2.909652e+01
2.898849e+01
2.887851e+01
2.878181e+01
2.870372e+01
2.864385e+01
2.860023e+01
2.857091e+01
2.855393e+01
2.854723e+01
2.854892e+01
2.855747e+01
2.857164e+01
2.859058e+01
2.861366e+01
2.864049e+01
2.867074e+01
2.870412e+01
2.874034e+01
2.877909e+01
2.881995e+01
2.886230e+01
2.890514e+01
2.894734e+01
2.898772e+01
2.902479e+01
2.905614e+01
2.907446e+01
2.906939e+01
2.903410e+01
2.897166e+01
2.889665e+01
2.882935e+01
2.878572e+01
2.876906e+01
2.877377e+01
2.879334e+01
2.882241e+01
2.885680e+01
2.889319e+01
2.892882e+01
2.896124e+01
2.898833e+01
2.900895e+01
2.902311e+01
2.903189e+01
2.903685e+01
2.903929e+01
2.904039e+01
2.904102e+01
2.904047e+01
2.903780e+01
2.903209e+01
2.902260e+01
2.900900e+01
2.899145e+01
2.897077e+01
2.894828e+01
2.892570e+01
2.890493e+01
2.888781e+01
2.887585e+01
2.886995e+01
2.887034e+01
2.887628e+01
2.888741e+01
2.890316e+01
2.892250e+01
2.894367e+01
2.896416e+01
2.898117e+01
2.899265e+01
2.899832e+01
2.899967e+01
2.899861e+01
2.899659e+01
2.899434e+01
2.899248e+01
2.899075e+01
2.898882e+01
2.898641e+01
2.898328e+01
2.897928e+01
2.897435e+01
2.896857e+01
2.896215e+01
2.895537e+01
2.894858e+01
2.894223e+01
2.893684e+01
2.893303e+01
2.893153e+01
2.893313e+01
2.894342e+01
0.000000e+00
2.941148e+01
2.941138e+01
2.938117e+01
2.934728e+01
2.930587e+01
2.925277e+01
2.918371e+01
2.909642e+01
2.898839e+01
2.887841e+01
2.878171e+01
2.870362e+01
2.864375e+01
2.860013e+01
2.857081e+01
2.855383e+01
2.854713e+01
2.854882e+01
2.855737e+01
2.857154e+01
2.859048e+01
2.861356e+01
2.864039e+01
2.867064e+01
2.870402e+01
2.874024e+01
2.877899e+01
2.881985e+01
2.886220e+01
2.890504e+01
2.894724e+01
2.898762e+01
2.902469e+01
2.905604e+01
2.907436e+01
2.906929e+01
2.903400e+01
2.897156e+01
2.889655e+01
2.882925e+01
2.878562e+01
2.876896e+01
2.877367e+01
2.879324e+01
2.882231e+01
2.885670e+01
2.889309e+01
2.892872e+01
2.896114e+01
2.898823e+01
2.900885e+01
2.902301e+01
2.903179e+01
2.903674e+01
2.903919e+01
2.904029e+01
2.904092e+01
2.904037e+01
2.903770e+01
2.903199e+01
2.902250e+01
2.900890e+01
2.899135e+01
2.897067e+01
2.894818e+01
2.892560e+01
2.890483e+01
2.888771e+01
2.887575e+01
2.886985e+01
2.887024e+01
2.887618e+01
2.888731e+01
2.890306e+01
2.892240e+01
2.894357e+01
2.896406e+01
2.898107e+01
2.899255e+01
2.899822e+01
2.899957e+01
2.899851e+01
2.899649e+01
2.899424e+01
2.899238e+01
2.899065e+01
2.898872e+01
2.898631e+01
2.898318e+01
2.897917e+01
2.897425e+01
2.896847e+01
2.896205e+01
2.895527e+01
2.894848e+01
2.894213e+01
2.893674e+01
2.893293e+01
2.893143e+01
2.893303e+01
2.894332e+01
2.894342e+01
2.940991e+01
2.940981e+01
2.938111e+01
2.934847e+01
2.930780e+01
2.925448e+01
2.918356e+01
2.909248e+01
2.897513e+01
2.886121e+01
2.876600e+01
2.869132e+01
2.863450e+01
2.859297e+01
2.856503e+01
2.854909e+01
2.854314e+01
2.854538e+01
2.855428e+01
2.856865e+01
2.858761e+01
2.861060e+01
2.863722e+01
2.866722e+01
2.870033e+01
2.873628e+01
2.877472e+01
2.881522e+01
2.885722e+01
2.889966e+01
2.894140e+01
2.898129e+01
2.901810e+01
2.904852e+01
2.906607e+01
2.906230e+01
2.902941e+01
2.896965e+01
2.889719e+01
2.883002e+01
2.878381e+01
2.876509e+01
2.876802e+01
2.878652e+01
2.881509e+01
2.884932e+01
2.888570e+01
2.892143e+01
2.895422e+01
2.898194e+01
2.900342e+01
2.901857e+01
2.902827e+01
2.903395e+01
2.903694e+01
2.903811e+01
2.903834e+01
2.903710e+01
2.903366e+01
2.902729e+01
2.901737e+01
2.900366e+01
2.898634e+01
2.896618e+01
2.894443e+01
2.892269e+01
2.890279e+01
2.888648e+01
2.887517e+01
2.886981e+01
2.887094e+01
2.887748e+01
2.888918e+01
2.890538e+01
2.892473e+01
2.894498e+01
2.896340e+01
2.897787e+01
2.898749e+01
2.899251e+01
2.899410e+01
2.899373e+01
2.899257e+01
2.899119e+01
2.898986e+01
2.898842e+01
2.898661e+01
2.898426e+01
2.898117e+01
2.897722e+01
2.897238e+01
2.896671e+01
2.896038e+01
2.895371e+01
2.894703e+01
2.894078e+01
2.893544e+01
2.893161e+01
2.892996e+01
2.893128e+01
2.894076e+01
2.894086e+01
2.940738e+01
2.940728e+01
2.938172e+01
2.935190e+01
2.931327e+01
2.926013e+01
2.918569e+01
2.908595e+01
2.894648e+01
2.882580e+01
2.873529e+01
2.866811e+01
2.861729e+01
2.857960e+01
2.855407e+01
2.854010e+01
2.853551e+01
2.853872e+01
2.854826e+01
2.856294e+01
2.858188e+01
2.860457e+01
2.863069e+01
2.866006e+01
2.869252e+01
2.872781e+01
2.876559e+01
2.880539e+01
2.884666e+01
2.888846e+01
2.892957e+01
2.896871e+01
2.900532e+01
2.903813e+01
2.905948e+01
2.905967e+01
2.902954e+01
2.896858e+01
2.889478e+01
2.882654e+01
2.877793e+01
2.875673e+01
2.875838e+01
2.877517e+01
2.880232e+01
2.883560e+01
2.887141e+01
2.890682e+01
2.893973e+01
2.896835e+01
2.899149e+01
2.900867e+01
2.902037e+01
2.902769e+01
2.903181e+01
2.903366e+01
2.903375e+01
2.903188e+01
2.902761e+01
2.902053e+01
2.901029e+01
2.899662e+01
2.897960e+01
2.896011e+01
2.893932e+01
2.891874e+01
2.890004e+01
2.888487e+01
2.887459e+01
2.887027e+01
2.887255e+01
2.887993e+01
2.889215e+01
2.890828e+01
2.892656e+01
2.894455e+01
2.895980e+01
2.897147e+01
2.897928e+01
2.898366e+01
2.898569e+01
2.898636e+01
2.898630e+01
2.898594e+01
2.898538e+01
2.898443e+01
2.898298e+01
2.898087e+01
2.897797e+01
2.897421e+01
2.896955e+01
2.896405e+01
2.895786e+01
2.895133e+01
2.894478e+01
2.893861e+01
2.893327e+01
2.892928e+01
2.892723e+01
2.892778e+01
2.893503e+01
2.893514e+01
2.940432e+01
2.940422e+01
2.938355e+01
2.935838e+01
2.932355e+01
2.927140e+01
2.919122e+01
2.907349e+01
2.889247e+01
2.876787e+01
2.869071e+01
2.863600e+01
2.859364e+01
2.856083e+01
2.853810e+01
2.852681e+01
2.852413e+01
2.852879e+01
2.853932e+01
2.855449e+01
2.857344e+01
2.859568e+01
2.862103e+01
2.864944e+01
2.868087e+01
2.871517e+01
2.875201e+01
2.879087e+01
2.883116e+01
2.887226e+01
2.891315e+01
2.895255e+01
2.898994e+01
2.902644e+01
2.905365e+01
2.905778e+01
2.903191e+01
2.897179e+01
2.889421e+01
2.882325e+01
2.877268e+01
2.874881e+01
2.874965e+01
2.876444e+01
2.878921e+01
2.882039e+01
2.885472e+01
2.888929e+01
2.892178e+01
2.895083e+01
2.897528e+01
2.899449e+01
2.900851e+01
2.901791e+01
2.902363e+01
2.902657e+01
2.902706e+01
2.902487e+01
2.902008e+01
2.901255e+01
2.900209e+01
2.898859e+01
2.897217e+01
2.895369e+01
2.893426e+01
2.891524e+01
2.889814e+01
2.888449e+01
2.887565e+01
2.887290e+01
2.887645e+01
2.888469e+01
2.889708e+01
2.891237e+01
2.892862e+01
2.894357e+01
2.895550e+01
2.896475e+01
2.897108e+01
2.897500e+01
2.897731e+01
2.897863e+01
2.897937e+01
2.897971e+01
2.897977e+01
2.897926e+01
2.897812e+01
2.897628e+01
2.897366e+01
2.897020e+01
2.896587e+01
2.896070e+01
2.895482e+01
2.894856e+01
2.894224e+01
2.893623e+01
2.893092e+01
2.892673e+01
2.892414e+01
2.892365e+01
2.892785e+01
2.892795e+01
2.940128e+01
2.940118e+01
2.938722e+01
2.936895e+01
2.934075e+01
2.929213e+01
2.920447e+01
2.905084e+01
2.879832e+01
2.868536e+01
2.863464e+01
2.859829e+01
2.856629e+01
2.853839e+01
2.851775e+01
2.850904e+01
2.850883e+01
2.851556e+01
2.852756e+01
2.854353e+01
2.856256e+01
2.858423e+01
2.860853e+01
2.863559e+01
2.866557e+01
2.869848e+01
2.873411e+01
2.877195e+01
2.881127e+01
2.885205e+01
2.889412e+01
2.893633e+01
2.897632e+01
2.901222e+01
2.904191e+01
2.904592e+01
2.901946e+01
2.896871e+01
2.889659e+01
2.882870e+01
2.877722e+01
2.875025e+01
2.874755e+01
2.876072e+01
2.878231e+01
2.881015e+01
2.884164e+01
2.887414e+01
2.890521e+01
2.893369e+01
2.895878e+01
2.897937e+01
2.899508e+01
2.900619e+01
2.901342e+01
2.901758e+01
2.901892e+01
2.901666e+01
2.901137e+01
2.900341e+01
2.899293e+01
2.897997e+01
2.896461e+01
2.894766e+01
2.893012e+01
2.891316e+01
2.889811e+01
2.888640e+01
2.887942e+01
2.887861e+01
2.888332e+01
2.889202e+01
2.890390e+01
2.891750e+01
2.893097e+01
2.894253e+01
2.895173e+01
2.895883e+01
2.896388e+01
2.896734e+01
2.896971e+01
2.897135e+01
2.897244e+01
2.897309e+01
2.897337e+01
2.897313e+01
2.897223e+01
2.897067e+01
2.896840e+01
2.896536e+01
2.896152e+01
2.895687e+01
2.895150e+01
2.894567e+01
2.893973e+01
2.893399e+01
2.892876e+01
2.892441e+01
2.892127e+01
2.891967e+01
2.892071e+01
2.892081e+01
2.939875e+01
2.939865e+01
2.939310e+01
2.938438e+01
2.936747e+01
2.932976e+01
2.923994e+01
2.902271e+01
2.863378e+01
2.857413e+01
2.857567e+01
2.856336e+01
2.854209e+01
2.851745e+01
2.849599e+01
2.848684e+01
2.848956e+01
2.849941e+01
2.851365e+01
2.853097e+01
2.855030e+01
2.857133e+01
2.859427e+01
2.861953e+01
2.864754e+01
2.867857e+01
2.871260e+01
2.874927e+01
2.878771e+01
2.882802e+01
2.887162e+01
2.891933e+01
2.896563e+01
2.900078e+01
2.902263e+01
2.901350e+01
2.898219e+01
2.894255e+01
2.889430e+01
2.884184e+01
2.879631e+01
2.876745e+01
2.875939e+01
2.876874e+01
2.878587e+01
2.880909e+01
2.883635e+01
2.886536e+01
2.889374e+01
2.892004e+01
2.894436e+01
2.896523e+01
2.898186e+01
2.899417e+01
2.900254e+01
2.900750e+01
2.900921e+01
2.900656e+01
2.900076e+01
2.899265e+01
2.898268e+01
2.897091e+01
2.895737e+01
2.894269e+01
2.892769e+01
2.891335e+01
2.890085e+01
2.889152e+01
2.888675e+01
2.888792e+01
2.889324e+01
2.890167e+01
2.891215e+01
2.892329e+01
2.893360e+01
2.894194e+01
2.894872e+01
2.895396e+01
2.895787e+01
2.896077e+01
2.896294e+01
2.896453e+01
2.896560e+01
2.896622e+01
2.896643e+01
2.896623e+01
2.896545e+01
2.896412e+01
2.896224e+01
2.895975e+01
2.895658e+01
2.895268e+01
2.894806e+01
2.894290e+01
2.893753e+01
2.893220e+01
2.892718e+01
2.892276e+01
2.891916e+01
2.891655e+01
2.891487e+01
2.891497e+01
2.939694e+01
2.939684e+01
2.940073e+01
2.940396e+01
2.940452e+01
2.939326e+01
2.933501e+01
2.908819e+01
2.833466e+01
2.842671e+01
2.853204e+01
2.854317e+01
2.853142e+01
2.850876e+01
2.848102e+01
2.846557e+01
2.846659e+01
2.848216e+01
2.849976e+01
2.851946e+01
2.853953e+01
2.855986e+01
2.858105e+01
2.860388e+01
2.862908e+01
2.865729e+01
2.868882e+01
2.872358e+01
2.876089e+01
2.879955e+01
2.883805e+01
2.887520e+01
2.892127e+01
2.896196e+01
2.897077e+01
2.895438e+01
2.893098e+01
2.890814e+01
2.888480e+01
2.885565e+01
2.882355e+01
2.879759e+01
2.878520e+01
2.878813e+01
2.880016e+01
2.881782e+01
2.883974e+01
2.886398e+01
2.888842e+01
2.891107e+01
2.893296e+01
2.895258e+01
2.896889e+01
2.898145e+01
2.899016e+01
2.899523e+01
2.899661e+01
2.899343e+01
2.898749e+01
2.897997e+01
2.897140e+01
2.896178e+01
2.895095e+01
2.893937e+01
2.892759e+01
2.891641e+01
2.890691e+01
2.890030e+01
2.889791e+01
2.890032e+01
2.890557e+01
2.891285e+01
2.892114e+01
2.892932e+01
2.893637e+01
2.894197e+01
2.894653e+01
2.895011e+01
2.895293e+01
2.895514e+01
2.895686e+01
2.895809e+01
2.895886e+01
2.895920e+01
2.895916e+01
2.895880e+01
2.895801e+01
2.895687e+01
2.895540e+01
2.895354e+01
2.895120e+01
2.894825e+01
2.894464e+01
2.894040e+01
2.893582e+01
2.893108e+01
2.892640e+01
2.892199e+01
2.891800e+01
2.891450e+01
2.891080e+01
2.891090e+01
2.939564e+01
2.939554e+01
2.940853e+01
2.942408e+01
2.944539e+01
2.947541e+01
2.951207e+01
2.961930e+01
2.897708e+01
2.850268e+01
2.857844e+01
2.854496e+01
2.853159e+01
2.851779e+01
2.848266e+01
2.846106e+01
2.845730e+01
2.847124e+01
2.849282e+01
2.851652e+01
2.853777e+01
2.855724e+01
2.857612e+01
2.859548e+01
2.861630e+01
2.863934e+01
2.866488e+01
2.869251e+01
2.872117e+01
2.874986e+01
2.877803e+01
2.881880e+01
2.886301e+01
2.889012e+01
2.889477e+01
2.889265e+01
2.888704e+01
2.888191e+01
2.887784e+01
2.886990e+01
2.885387e+01
2.883461e+01
2.882089e+01
2.881786e+01
2.882368e+01
2.883505e+01
2.885078e+01
2.886920e+01
2.888842e+01
2.890653e+01
2.892433e+01
2.894104e+01
2.895547e+01
2.896683e+01
2.897465e+01
2.897891e+01
2.897944e+01
2.897624e+01
2.897122e+01
2.896554e+01
2.895958e+01
2.895319e+01
2.894603e+01
2.893829e+01
2.893027e+01
2.892267e+01
2.891641e+01
2.891257e+01
2.891214e+01
2.891486e+01
2.891925e+01
2.892462e+01
2.893020e+01
2.893527e+01
2.893932e+01
2.894248e+01
2.894503e+01
2.894709e+01
2.894879e+01
2.895017e+01
2.895121e+01
2.895187e+01
2.895216e+01
2.895208e+01
2.895170e+01
2.895108e+01
2.895022e+01
2.894922e+01
2.894814e+01
2.894696e+01
2.894554e+01
2.894372e+01
2.894132e+01
2.893826e+01
2.893469e+01
2.893070e+01
2.892646e+01
2.892210e+01
2.891773e+01
2.891332e+01
2.890798e+01
2.890808e+01
2.939433e+01
2.939423e+01
2.941408e+01
2.943877e+01
2.947486e+01
2.953272e+01
2.962924e+01
2.976283e+01
2.978510e+01
0.000000e+00
2.853080e+01
2.853070e+01
2.851189e+01
2.850563e+01
2.848465e+01
2.846813e+01
2.846528e+01
2.847762e+01
2.849978e+01
2.852571e+01
2.854942e+01
2.856878e+01
2.858593e+01
2.860205e+01
2.861805e+01
2.863475e+01
2.865236e+01
2.867040e+01
2.868836e+01
2.870561e+01
2.872729e+01
2.875286e+01
2.877853e+01
2.880072e+01
2.882285e+01
2.884139e+01
2.885551e+01
2.886703e+01
2.887777e+01
2.888562e+01
2.888432e+01
2.887395e+01
2.886124e+01
2.885373e+01
2.885376e+01
2.885871e+01
2.886779e+01
2.887963e+01
2.889264e+01
2.890518e+01
2.891751e+01
2.892958e+01
2.894023e+01
2.894851e+01
2.895391e+01
2.895661e+01
2.895652e+01
2.895468e+01
2.895229e+01
2.895007e+01
2.894809e+01
2.894600e+01
2.894333e+01
2.893992e+01
2.893597e+01
2.893204e+01
2.892895e+01
2.892751e+01
2.892821e+01
2.893038e+01
2.893320e+01
2.893619e+01
2.893890e+01
2.894101e+01
2.894241e+01
2.894336e+01
2.894406e+01
2.894464e+01
2.894513e+01
2.894549e+01
2.894568e+01
2.894563e+01
2.894534e+01
2.894483e+01
2.894414e+01
2.894332e+01
2.894243e+01
2.894158e+01
2.894089e+01
2.894036e+01
2.893990e+01
2.893928e+01
2.893823e+01
2.893652e+01
2.893410e+01
2.893098e+01
2.892724e+01
2.892297e+01
2.891821e+01
2.891288e+01
2.890581e+01
2.890591e+01
2.939247e+01
2.939237e+01
2.941565e+01
2.944405e+01
2.948379e+01
2.954244e+01
2.962626e+01
2.972584e+01
2.980717e+01
2.980727e+01
0.000000e+00
2.851245e+01
2.851235e+01
2.849669e+01
2.848479e+01
2.847840e+01
2.848521e+01
2.850387e+01
2.852847e+01
2.855424e+01
2.857836e+01
2.859898e+01
2.861650e+01
2.863148e+01
2.864432e+01
2.865590e+01
2.866604e+01
2.867378e+01
2.867852e+01
2.868073e+01
2.868167e+01
2.868415e+01
2.869404e+01
2.872474e+01
2.876602e+01
2.880552e+01
2.883818e+01
2.886388e+01
2.888544e+01
2.890338e+01
2.891331e+01
2.891215e+01
2.890289e+01
2.889297e+01
2.888784e+01
2.888672e+01
2.888909e+01
2.889393e+01
2.889996e+01
2.890582e+01
2.891136e+01
2.891692e+01
2.892158e+01
2.892473e+01
2.892626e+01
2.892674e+01
2.892740e+01
2.892915e+01
2.893192e+01
2.893515e+01
2.893840e+01
2.894130e+01
2.894340e+01
2.894449e+01
2.894454e+01
2.894403e+01
2.894362e+01
2.894382e+01
2.894469e+01
2.894578e+01
2.894668e+01
2.894716e+01
2.894709e+01
2.894653e+01
2.894561e+01
2.894452e+01
2.894344e+01
2.894246e+01
2.894158e+01
2.894075e+01
2.893993e+01
2.893907e+01
2.893819e+01
2.893729e+01
2.893640e+01
2.893556e+01
2.893485e+01
2.893437e+01
2.893423e+01
2.893442e+01
2.893487e+01
2.893537e+01
2.893561e+01
2.893524e+01
2.893400e+01
2.893179e+01
2.892859e+01
2.892445e+01
2.891939e+01
2.891330e+01
2.890455e+01
2.890465e+01
2.938984e+01
2.938974e+01
2.941298e+01
2.944031e+01
2.947601e+01
2.952475e+01
2.958834e+01
2.964860e+01
2.967344e+01
2.943731e+01
2.943741e+01
0.000000e+00
2.849849e+01
2.848443e+01
2.847172e+01
2.847393e+01
2.849677e+01
2.853433e+01
2.857271e+01
2.860368e+01
2.862909e+01
2.865073e+01
2.866926e+01
2.868389e+01
2.869408e+01
2.869914e+01
2.869766e+01
2.869064e+01
2.868140e+01
2.866509e+01
2.864225e+01
2.862064e+01
2.862695e+01
2.867158e+01
2.873078e+01
2.878789e+01
2.883522e+01
2.887078e+01
2.889878e+01
2.892231e+01
2.893980e+01
2.894669e+01
2.894266e+01
2.893279e+01
2.892374e+01
2.891738e+01
2.891344e+01
2.891120e+01
2.890965e+01
2.890773e+01
2.890518e+01
2.890217e+01
2.889849e+01
2.889465e+01
2.889170e+01
2.889103e+01
2.889526e+01
2.890316e+01
2.891287e+01
2.892277e+01
2.893190e+01
2.893978e+01
2.894628e+01
2.895138e+01
2.895506e+01
2.895753e+01
2.895913e+01
2.896000e+01
2.896019e+01
2.895976e+01
2.895865e+01
2.895686e+01
2.895451e+01
2.895178e+01
2.894888e+01
2.894593e+01
2.894307e+01
2.894038e+01
2.893790e+01
2.893564e+01
2.893361e+01
2.893184e+01
2.893031e+01
2.892906e+01
2.892810e+01
2.892755e+01
2.892749e+01
2.892785e+01
2.892860e+01
2.892970e+01
2.893109e+01
2.893257e+01
2.893385e+01
2.893454e+01
2.893427e+01
2.893283e+01
2.893016e+01
2.892625e+01
2.892108e+01
2.891453e+01
2.890466e+01
2.890476e+01
2.938656e+01
2.938646e+01
2.940692e+01
2.942982e+01
2.945780e+01
2.949118e+01
2.952307e+01
2.953150e+01
2.946942e+01
2.935133e+01
2.894167e+01
2.862097e+01
2.842871e+01
2.846233e+01
2.845920e+01
2.847237e+01
2.850756e+01
2.856012e+01
2.860940e+01
2.864434e+01
2.867164e+01
2.869677e+01
2.871731e+01
2.873136e+01
2.873777e+01
2.873540e+01
2.872437e+01
2.870674e+01
2.868660e+01
2.865231e+01
2.860642e+01
2.857075e+01
2.858858e+01
2.864651e+01
2.871926e+01
2.878849e+01
2.884352e+01
2.888461e+01
2.891599e+01
2.894153e+01
2.896259e+01
2.897580e+01
2.897780e+01
2.897063e+01
2.895991e+01
2.894959e+01
2.894017e+01
2.893112e+01
2.892161e+01
2.891106e+01
2.889939e+01
2.888695e+01
2.887467e+01
2.886400e+01
2.885628e+01
2.885545e+01
2.886447e+01
2.887974e+01
2.889736e+01
2.891445e+01
2.892934e+01
2.894162e+01
2.895173e+01
2.895992e+01
2.896623e+01
2.897070e+01
2.897336e+01
2.897419e+01
2.897360e+01
2.897189e+01
2.896919e+01
2.896564e+01
2.896148e+01
2.895695e+01
2.895230e+01
2.894763e+01
2.894300e+01
2.893853e+01
2.893433e+01
2.893047e+01
2.892705e+01
2.892415e+01
2.892184e+01
2.892014e+01
2.891909e+01
2.891911e+01
2.892018e+01
2.892199e+01
2.892421e+01
2.892663e+01
2.892908e+01
2.893140e+01
2.893335e+01
2.893461e+01
2.893482e+01
2.893373e+01
2.893135e+01
2.892763e+01
2.892253e+01
2.891591e+01
2.890578e+01
2.890588e+01
2.938295e+01
2.938285e+01
2.939884e+01
2.941569e+01
2.943342e+01
2.944931e+01
2.945411e+01
2.942754e+01
2.933266e+01
2.915748e+01
2.888165e+01
2.830007e+01
2.839488e+01
2.846340e+01
2.848103e+01
2.849835e+01
2.853572e+01
2.858785e+01
2.863501e+01
2.866596e+01
2.869591e+01
2.872748e+01
2.875523e+01
2.876778e+01
2.877004e+01
2.876098e+01
2.874276e+01
2.871806e+01
2.868838e+01
2.864043e+01
2.857957e+01
2.855158e+01
2.858170e+01
2.864949e+01
2.872950e+01
2.880288e+01
2.885979e+01
2.890277e+01
2.893524e+01
2.896062e+01
2.898158e+01
2.899782e+01
2.900557e+01
2.900301e+01
2.899372e+01
2.898150e+01
2.896748e+01
2.895176e+01
2.893431e+01
2.891566e+01
2.889548e+01
2.887412e+01
2.885347e+01
2.883580e+01
2.882292e+01
2.882365e+01
2.883856e+01
2.886171e+01
2.888727e+01
2.891120e+01
2.893087e+01
2.894661e+01
2.895929e+01
2.896945e+01
2.897732e+01
2.898284e+01
2.898593e+01
2.898650e+01
2.898528e+01
2.898263e+01
2.897875e+01
2.897389e+01
2.896829e+01
2.896224e+01
2.895600e+01
2.894971e+01
2.894335e+01
2.893707e+01
2.893105e+01
2.892545e+01
2.892047e+01
2.891626e+01
2.891297e+01
2.891067e+01
2.890938e+01
2.891024e+01
2.891287e+01
2.891666e+01
2.892097e+01
2.892522e+01
2.892894e+01
2.893202e+01
2.893433e+01
2.893567e+01
2.893573e+01
2.893429e+01
2.893183e+01
2.892830e+01
2.892359e+01
2.891750e+01
2.890772e+01
2.890782e+01
2.937946e+01
2.937936e+01
2.939002e+01
2.939998e+01
2.940787e+01
2.940983e+01
2.939744e+01
2.935594e+01
2.926300e+01
2.909911e+01
2.887667e+01
2.857071e+01
2.852408e+01
2.852936e+01
2.853424e+01
2.854464e+01
2.857072e+01
2.861035e+01
2.864744e+01
2.868009e+01
2.871160e+01
2.873947e+01
2.876170e+01
2.877222e+01
2.877128e+01
2.876119e+01
2.874326e+01
2.871909e+01
2.868554e+01
2.862919e+01
2.857234e+01
2.856305e+01
2.860435e+01
2.867620e+01
2.875615e+01
2.882588e+01
2.888059e+01
2.892238e+01
2.895415e+01
2.897859e+01
2.899787e+01
2.901316e+01
2.902312e+01
2.902455e+01
2.901934e+01
2.900784e+01
2.899129e+01
2.897065e+01
2.894693e+01
2.892175e+01
2.889413e+01
2.886480e+01
2.883650e+01
2.881233e+01
2.879523e+01
2.879941e+01
2.882071e+01
2.885135e+01
2.888399e+01
2.891316e+01
2.893631e+01
2.895432e+01
2.896839e+01
2.897941e+01
2.898780e+01
2.899361e+01
2.899670e+01
2.899705e+01
2.899548e+01
2.899226e+01
2.898763e+01
2.898185e+01
2.897518e+01
2.896787e+01
2.896020e+01
2.895241e+01
2.894438e+01
2.893631e+01
2.892842e+01
2.892099e+01
2.891430e+01
2.890863e+01
2.890419e+01
2.890110e+01
2.889966e+01
2.890148e+01
2.890585e+01
2.891185e+01
2.891856e+01
2.892479e+01
2.892995e+01
2.893386e+01
2.893642e+01
2.893754e+01
2.893713e+01
2.893519e+01
2.893239e+01
2.892898e+01
2.892490e+01
2.891988e+01
2.891119e+01
2.891129e+01
2.937624e+01
2.937614e+01
2.938141e+01
2.938501e+01
2.938488e+01
2.937721e+01
2.935556e+01
2.931033e+01
2.922917e+01
2.909953e+01
2.892344e+01
2.872237e+01
2.863690e+01
2.860559e+01
2.859375e+01
2.859469e+01
2.860932e+01
2.863569e+01
2.866468e+01
2.869193e+01
2.871699e+01
2.873864e+01
2.875397e+01
2.876060e+01
2.875880e+01
2.874952e+01
2.873430e+01
2.871547e+01
2.868403e+01
2.863334e+01
2.859707e+01
2.860280e+01
2.864860e+01
2.871715e+01
2.879012e+01
2.885264e+01
2.890269e+01
2.894146e+01
2.897124e+01
2.899426e+01
2.901223e+01
2.902594e+01
2.903468e+01
2.903841e+01
2.903582e+01
2.902636e+01
2.900988e+01
2.898704e+01
2.895937e+01
2.892938e+01
2.889570e+01
2.885969e+01
2.882488e+01
2.879515e+01
2.877772e+01
2.878580e+01
2.881304e+01
2.884986e+01
2.888778e+01
2.892009e+01
2.894516e+01
2.896415e+01
2.897850e+01
2.898938e+01
2.899746e+01
2.900293e+01
2.900574e+01
2.900600e+01
2.900430e+01
2.900085e+01
2.899588e+01
2.898960e+01
2.898223e+01
2.897400e+01
2.896515e+01
2.895597e+01
2.894641e+01
2.893662e+01
2.892690e+01
2.891759e+01
2.890910e+01
2.890183e+01
2.889614e+01
2.889219e+01
2.889080e+01
2.889361e+01
2.889967e+01
2.890774e+01
2.891662e+01
2.892457e+01
2.893095e+01
2.893558e+01
2.893843e+01
2.893958e+01
2.893915e+01
2.893733e+01
2.893456e+01
2.893132e+01
2.892781e+01
2.892401e+01
2.891867e+01
2.891877e+01
2.937348e+01
2.937338e+01
2.937384e+01
2.937213e+01
2.936596e+01
2.935204e+01
2.932563e+01
2.928060e+01
2.920998e+01
2.910672e+01
2.896943e+01
2.881665e+01
2.872255e+01
2.867267e+01
2.864742e+01
2.863875e+01
2.864379e+01
2.865939e+01
2.867979e+01
2.870049e+01
2.871984e+01
2.873591e+01
2.874655e+01
2.875045e+01
2.874759e+01
2.873883e+01
2.872589e+01
2.870856e+01
2.868142e+01
2.864684e+01
2.863078e+01
2.864795e+01
2.869498e+01
2.875787e+01
2.882200e+01
2.887770e+01
2.892295e+01
2.895844e+01
2.898597e+01
2.900736e+01
2.902394e+01
2.903617e+01
2.904390e+01
2.904726e+01
2.904569e+01
2.903798e+01
2.902295e+01
2.900031e+01
2.897115e+01
2.893819e+01
2.890013e+01
2.885908e+01
2.881948e+01
2.878649e+01
2.877143e+01
2.878382e+01
2.881593e+01
2.885695e+01
2.889777e+01
2.893120e+01
2.895666e+01
2.897543e+01
2.898911e+01
2.899909e+01
2.900626e+01
2.901098e+01
2.901332e+01
2.901349e+01
2.901178e+01
2.900836e+01
2.900338e+01
2.899699e+01
2.898934e+01
2.898058e+01
2.897090e+01
2.896056e+01
2.894968e+01
2.893832e+01
2.892683e+01
2.891566e+01
2.890534e+01
2.889642e+01
2.888945e+01
2.888475e+01
2.888358e+01
2.888734e+01
2.889486e+01
2.890463e+01
2.891517e+01
2.892441e+01
2.893172e+01
2.893694e+01
2.894011e+01
2.894146e+01
2.894126e+01
2.893982e+01
2.893745e+01
2.893466e+01
2.893179e+01
2.892917e+01
2.892703e+01
2.892713e+01
2.937130e+01
2.937120e+01
2.936774e+01
2.936189e+01
2.935140e+01
2.933348e+01
2.930457e+01
2.926055e+01
2.919719e+01
2.911068e+01
2.900035e+01
2.887886e+01
2.878662e+01
2.872656e+01
2.869120e+01
2.867435e+01
2.867165e+01
2.867917e+01
2.869244e+01
2.870755e+01
2.872213e+01
2.873409e+01
2.874165e+01
2.874372e+01
2.874012e+01
2.873145e+01
2.871898e+01
2.870217e+01
2.867999e+01
2.865995e+01
2.865891e+01
2.868433e+01
2.873187e+01
2.879005e+01
2.884775e+01
2.889829e+01
2.893971e+01
2.897246e+01
2.899799e+01
2.901785e+01
2.903316e+01
2.904438e+01
2.905146e+01
2.905455e+01
2.905334e+01
2.904669e+01
2.903313e+01
2.901164e+01
2.898243e+01
2.894771e+01
2.890669e+01
2.886218e+01
2.881971e+01
2.878631e+01
2.877530e+01
2.879183e+01
2.882736e+01
2.887054e+01
2.891183e+01
2.894495e+01
2.896968e+01
2.898735e+01
2.899976e+01
2.900837e+01
2.901426e+01
2.901801e+01
2.901981e+01
2.901975e+01
2.901804e+01
2.901476e+01
2.900997e+01
2.900375e+01
2.899615e+01
2.898724e+01
2.897714e+01
2.896601e+01
2.895408e+01
2.894138e+01
2.892830e+01
2.891537e+01
2.890325e+01
2.889269e+01
2.888447e+01
2.887923e+01
2.887844e+01
2.888304e+01
2.889170e+01
2.890268e+01
2.891429e+01
2.892440e+01
2.893238e+01
2.893806e+01
2.894156e+01
2.894316e+01
2.894325e+01
2.894219e+01
2.894036e+01
2.893814e+01
2.893598e+01
2.893434e+01
2.893442e+01
2.893452e+01
2.936973e+01
2.936963e+01
2.936322e+01
2.935438e+01
2.934096e+01
2.932052e+01
2.929027e+01
2.924721e+01
2.918849e+01
2.911208e+01
2.901848e+01
2.891673e+01
2.883021e+01
2.876669e+01
2.872503e+01
2.870169e+01
2.869280e+01
2.869436e+01
2.870234e+01
2.871316e+01
2.872416e+01
2.873321e+01
2.873864e+01
2.873942e+01
2.873523e+01
2.872638e+01
2.871364e+01
2.869726e+01
2.867974e+01
2.866995e+01
2.867898e+01
2.871033e+01
2.875819e+01
2.881305e+01
2.886648e+01
2.891344e+01
2.895212e+01
2.898283e+01
2.900687e+01
2.902564e+01
2.904016e+01
2.905092e+01
2.905795e+01
2.906140e+01
2.906089e+01
2.905529e+01
2.904308e+01
2.902284e+01
2.899400e+01
2.895777e+01
2.891422e+01
2.886692e+01
2.882276e+01
2.879111e+01
2.878466e+01
2.880480e+01
2.884257e+01
2.888643e+01
2.892692e+01
2.895910e+01
2.898267e+01
2.899885e+01
2.900951e+01
2.901649e+01
2.902106e+01
2.902393e+01
2.902529e+01
2.902499e+01
2.902323e+01
2.902008e+01
2.901554e+01
2.900960e+01
2.900224e+01
2.899345e+01
2.898324e+01
2.897171e+01
2.895905e+01
2.894533e+01
2.893093e+01
2.891644e+01
2.890263e+01
2.889050e+01
2.888112e+01
2.887555e+01
2.887524e+01
2.888056e+01
2.889007e+01
2.890184e+01
2.891402e+01
2.892464e+01
2.893306e+01
2.893911e+01
2.894291e+01
2.894479e+01
2.894513e+01
2.894439e+01
2.894297e+01
2.894129e+01
2.893974e+01
2.893881e+01
2.894023e+01
2.894033e+01
2.936874e+01
2.936864e+01
2.936028e+01
2.934951e+01
2.933428e+01
2.931239e+01
2.928149e+01
2.923914e+01
2.918325e+01
2.911266e+01
2.902858e+01
2.893819e+01
2.885657e+01
2.879232e+01
2.874736e+01
2.872000e+01
2.870703e+01
2.870469e+01
2.870916e+01
2.871706e+01
2.872568e+01
2.873283e+01
2.873689e+01
2.873684e+01
2.873223e+01
2.872310e+01
2.870992e+01
2.869407e+01
2.868031e+01
2.867743e+01
2.869268e+01
2.872697e+01
2.877464e+01
2.882749e+01
2.887840e+01
2.892317e+01
2.896014e+01
2.898955e+01
2.901257e+01
2.903051e+01
2.904447e+01
2.905524e+01
2.906279e+01
2.906714e+01
2.906769e+01
2.906334e+01
2.905253e+01
2.903358e+01
2.900527e+01
2.896765e+01
2.892150e+01
2.887122e+01
2.882553e+01
2.879619e+01
2.879348e+01
2.881636e+01
2.885559e+01
2.889958e+01
2.893929e+01
2.897049e+01
2.899276e+01
2.900751e+01
2.901677e+01
2.902243e+01
2.902590e+01
2.902804e+01
2.902900e+01
2.902860e+01
2.902697e+01
2.902408e+01
2.901986e+01
2.901424e+01
2.900715e+01
2.899855e+01
2.898842e+01
2.897677e+01
2.896368e+01
2.894928e+01
2.893391e+01
2.891816e+01
2.890292e+01
2.888939e+01
2.887898e+01
2.887323e+01
2.887341e+01
2.887932e+01
2.888944e+01
2.890172e+01
2.891416e+01
2.892508e+01
2.893380e+01
2.894014e+01
2.894421e+01
2.894635e+01
2.894694e+01
2.894642e+01
2.894525e+01
2.894387e+01
2.894272e+01
2.894217e+01
2.894433e+01
2.894443e+01
2.936828e+01
2.936818e+01
2.935885e+01
2.934715e+01
2.933108e+01
2.930858e+01
2.927749e+01
2.923563e+01
2.918121e+01
2.911340e+01
2.903369e+01
2.894845e+01
2.886937e+01
2.880503e+01
2.875858e+01
2.872927e+01
2.871427e+01
2.870996e+01
2.871264e+01
2.871903e+01
2.872641e+01
2.873260e+01
2.873599e+01
2.873555e+01
2.873075e+01
2.872146e+01
2.870806e+01
2.869281e+01
2.868134e+01
2.868162e+01
2.869931e+01
2.873443e+01
2.878164e+01
2.883336e+01
2.888309e+01
2.892697e+01
2.896335e+01
2.899237e+01
2.901506e+01
2.903272e+01
2.904648e+01
2.905713e+01
2.906499e+01
2.907001e+01
2.907154e+01
2.906840e+01
2.905894e+01
2.904132e+01
2.901385e+01
2.897547e+01
2.892690e+01
2.887340e+01
2.882574e+01
2.879732e+01
2.879655e+01
2.882130e+01
2.886153e+01
2.890550e+01
2.894476e+01
2.897559e+01
2.899750e+01
2.901183e+01
2.902058e+01
2.902569e+01
2.902863e+01
2.903027e+01
2.903086e+01
2.903042e+01
2.902892e+01
2.902627e+01
2.902233e+01
2.901699e+01
2.901016e+01
2.900178e+01
2.899180e+01
2.898018e+01
2.896694e+01
2.895218e+01
2.893620e+01
2.891957e+01
2.890322e+01
2.888853e+01
2.887732e+01
2.887140e+01
2.887184e+01
2.887825e+01
2.888891e+01
2.890160e+01
2.891418e+01
2.892523e+01
2.893408e+01
2.894053e+01
2.894473e+01
2.894701e+01
2.894778e+01
2.894747e+01
2.894653e+01
2.894538e+01
2.894440e+01
2.894402e+01
2.894634e+01
2.894644e+01
0.000000e+00
2.936828e+01
2.935895e+01
2.934725e+01
2.933118e+01
2.930868e+01
2.927759e+01
2.923573e+01
2.918131e+01
2.911350e+01
2.903379e+01
2.894855e+01
2.886947e+01
2.880513e+01
2.875868e+01
2.872937e+01
2.871437e+01
2.871006e+01
2.871274e+01
2.871913e+01
2.872651e+01
2.873270e+01
2.873609e+01
2.873565e+01
2.873085e+01
2.872156e+01
2.870816e+01
2.869291e+01
2.868144e+01
2.868172e+01
2.869941e+01
2.873453e+01
2.878174e+01
2.883346e+01
2.888319e+01
2.892707e+01
2.896345e+01
2.899247e+01
2.901516e+01
2.903282e+01
2.904658e+01
2.905723e+01
2.906509e+01
2.907011e+01
2.907164e+01
2.906850e+01
2.905904e+01
2.904142e+01
2.901395e+01
2.897557e+01
2.892700e+01
2.887350e+01
2.882584e+01
2.879742e+01
2.879665e+01
2.882140e+01
2.886163e+01
2.890560e+01
2.894486e+01
2.897569e+01
2.899760e+01