# vtk DataFile Version 3.0
Scalar Field
ASCII
DATASET RECTILINEAR_GRID
DIMENSIONS 102 22 1
X_COORDINATES 102 double
0.000000 0.100000 0.200000 0.300000 0.400000 0.500000 0.600000 0.700000 0.800000 0.900000 1.000000 1.100000 1.200000 1.300000 1.400000 1.500000 1.600000 1.700000 1.800000 1.900000 2.000000 2.100000 2.200000 2.300000 2.400000 2.500000 2.600000 2.700000 2.800000 2.900000 3.000000 3.100000 3.200000 3.300000 3.400000 3.500000 3.600000 3.700000 3.800000 3.900000 4.000000 4.100000 4.200000 4.300000 4.400000 4.500000 4.600000 4.700000 4.800000 4.900000 5.000000 5.100000 5.200000 5.300000 5.400000 5.500000 5.600000 5.700000 5.800000 5.900000 6.000000 6.100000 6.200000 6.300000 6.400000 6.500000 6.600000 6.700000 6.800000 6.900000 7.000000 7.100000 7.200000 7.300000 7.400000 7.500000 7.600000 7.700000 7.800000 7.900000 8.000000 8.100000 8.200000 8.300000 8.400000 8.500000 8.600000 8.700000 8.800000 8.900000 9.000000 9.100000 9.200000 9.300000 9.400000 9.500000 9.600000 9.700000 9.800000 9.900000 10.000000 10.100000 
Y_COORDINATES 22 double
0.000000 0.100000 0.200000 0.300000 0.400000 0.500000 0.600000 0.700000 0.800000 0.900000 1.000000 1.100000 1.200000 1.300000 1.400000 1.500000 1.600000 1.700000 1.800000 1.900000 2.000000 2.100000 
Z_COORDINATES 1 double
0.0
POINT_DATA 2244
SCALARS Pressure double 1
LOOKUP_TABLE default
0.000000e+00
6.199218e+01
6.196009e+01
6.192397e+01
6.187983e+01
6.182347e+01
6.175069e+01
6.165947e+01
6.154796e+01
6.143646e+01
6.134135e+01
6.126826e+01
6.121637e+01
6.118255e+01
6.116324e+01
6.115527e+01
6.115614e+01
6.116406e+01
6.117776e+01
6.119630e+01
6.121903e+01
6.124551e+01
6.127542e+01
6.130860e+01
6.134496e+01
6.138434e+01
6.142629e+01
6.146991e+01
6.151377e+01
6.155567e+01
6.159256e+01
6.161796e+01
6.162263e+01
6.160010e+01
6.155327e+01
6.149398e+01
6.143792e+01
6.139779e+01
6.137796e+01
6.137586e+01
6.138756e+01
6.140938e+01
6.143823e+01
6.147144e+01
6.150652e+01
6.154111e+01
6.157295e+01
6.160002e+01
6.162114e+01
6.163619e+01
6.164605e+01
6.165204e+01
6.165529e+01
6.165721e+01
6.165807e+01
6.165685e+01
6.165234e+01
6.164345e+01
6.162957e+01
6.161087e+01
6.158838e+01
6.156391e+01
6.153974e+01
6.151836e+01
6.150205e+01
6.149248e+01
6.149045e+01
6.149553e+01
6.150685e+01
6.152369e+01
6.154476e+01
6.156805e+01
6.159072e+01
6.160969e+01
6.162264e+01
6.162905e+01
6.163040e+01
6.162845e+01
6.162449e+01
6.161978e+01
6.161431e+01
6.160801e+01
6.160081e+01
6.159276e+01
6.158400e+01
6.157477e+01
6.156536e+01
6.155610e+01
6.154734e+01
6.153937e+01
6.153243e+01
6.152664e+01
6.152202e+01
6.151844e+01
6.151561e+01
6.151321e+01
6.151084e+01
6.150802e+01
6.150407e+01
6.149805e+01
6.148436e+01
0.000000e+00
6.199218e+01
6.199185e+01
6.195976e+01
6.192364e+01
6.187950e+01
6.182314e+01
6.175036e+01
6.165914e+01
6.154763e+01
6.143614e+01
6.134102e+01
6.126793e+01
6.121604e+01
6.118222e+01
6.116291e+01
6.115494e+01
6.115581e+01
6.116373e+01
6.117743e+01
6.119597e+01
6.121870e+01
6.124518e+01
6.127509e+01
6.130828e+01
6.134463e+01
6.138402e+01
6.142597e+01
6.146958e+01
6.151344e+01
6.155534e+01
6.159223e+01
6.161763e+01
6.162230e+01
6.159977e+01
6.155294e+01
6.149365e+01
6.143760e+01
6.139747e+01
6.137764e+01
6.137553e+01
6.138723e+01
6.140905e+01
6.143790e+01
6.147111e+01
6.150620e+01
6.154078e+01
6.157262e+01
6.159969e+01
6.162081e+01
6.163587e+01
6.164572e+01
6.165171e+01
6.165496e+01
6.165688e+01
6.165774e+01
6.165652e+01
6.165201e+01
6.164312e+01
6.162924e+01
6.161054e+01
6.158806e+01
6.156358e+01
6.153941e+01
6.151803e+01
6.150172e+01
6.149216e+01
6.149012e+01
6.149520e+01
6.150652e+01
6.152336e+01
6.154443e+01
6.156772e+01
6.159039e+01
6.160936e+01
6.162231e+01
6.162873e+01
6.163007e+01
6.162812e+01
6.162417e+01
6.161945e+01
6.161399e+01
6.160768e+01
6.160048e+01
6.159243e+01
6.158367e+01
6.157444e+01
6.156503e+01
6.155578e+01
6.154701e+01
6.153904e+01
6.153210e+01
6.152631e+01
6.152169e+01
6.151811e+01
6.151528e+01
6.151288e+01
6.151051e+01
6.150769e+01
6.150374e+01
6.149773e+01
6.148403e+01
6.148436e+01
6.199081e+01
6.199048e+01
6.195991e+01
6.192504e+01
6.188165e+01
6.182506e+01
6.175036e+01
6.165529e+01
6.153417e+01
6.141850e+01
6.132473e+01
6.125496e+01
6.120623e+01
6.117483e+01
6.115730e+01
6.115048e+01
6.115207e+01
6.116041e+01
6.117431e+01
6.119288e+01
6.121553e+01
6.124183e+01
6.127150e+01
6.130436e+01
6.134028e+01
6.137912e+01
6.142050e+01
6.146356e+01
6.150712e+01
6.154949e+01
6.158740e+01
6.161430e+01
6.162143e+01
6.160168e+01
6.155666e+01
6.149789e+01
6.143993e+01
6.139596e+01
6.137349e+01
6.137012e+01
6.138134e+01
6.140305e+01
6.143190e+01
6.146510e+01
6.150016e+01
6.153470e+01
6.156679e+01
6.159433e+01
6.161614e+01
6.163200e+01
6.164259e+01
6.164913e+01
6.165278e+01
6.165450e+01
6.165468e+01
6.165252e+01
6.164708e+01
6.163750e+01
6.162331e+01
6.160475e+01
6.158279e+01
6.155914e+01
6.153596e+01
6.151561e+01
6.150025e+01
6.149148e+01
6.149027e+01
6.149619e+01
6.150824e+01
6.152566e+01
6.154689e+01
6.156942e+01
6.159016e+01
6.160674e+01
6.161791e+01
6.162380e+01
6.162547e+01
6.162425e+01
6.162121e+01
6.161707e+01
6.161196e+01
6.160589e+01
6.159888e+01
6.159102e+01
6.158247e+01
6.157347e+01
6.156431e+01
6.155531e+01
6.154681e+01
6.153909e+01
6.153237e+01
6.152677e+01
6.152231e+01
6.151891e+01
6.151639e+01
6.151434e+01
6.151236e+01
6.150999e+01
6.150656e+01
6.150122e+01
6.148851e+01
6.148884e+01
6.198871e+01
6.198838e+01
6.196099e+01
6.192898e+01
6.188762e+01
6.183116e+01
6.175278e+01
6.164880e+01
6.150471e+01
6.138162e+01
6.129229e+01
6.122995e+01
6.118755e+01
6.116078e+01
6.114667e+01
6.114198e+01
6.114487e+01
6.115394e+01
6.116815e+01
6.118671e+01
6.120910e+01
6.123495e+01
6.126404e+01
6.129621e+01
6.133129e+01
6.136911e+01
6.140936e+01
6.145143e+01
6.149438e+01
6.153714e+01
6.157867e+01
6.161201e+01
6.162631e+01
6.161057e+01
6.156438e+01
6.150270e+01
6.144113e+01
6.139245e+01
6.136587e+01
6.136074e+01
6.137080e+01
6.139183e+01
6.142024e+01
6.145306e+01
6.148771e+01
6.152200e+01
6.155415e+01
6.158242e+01
6.160561e+01
6.162316e+01
6.163543e+01
6.164332e+01
6.164788e+01
6.164993e+01
6.164964e+01
6.164655e+01
6.164011e+01
6.162988e+01
6.161552e+01
6.159711e+01
6.157577e+01
6.155314e+01
6.153125e+01
6.151229e+01
6.149828e+01
6.149080e+01
6.149107e+01
6.149816e+01
6.151100e+01
6.152862e+01
6.154908e+01
6.156962e+01
6.158739e+01
6.160142e+01
6.161096e+01
6.161624e+01
6.161827e+01
6.161816e+01
6.161639e+01
6.161321e+01
6.160880e+01
6.160324e+01
6.159662e+01
6.158907e+01
6.158080e+01
6.157211e+01
6.156330e+01
6.155468e+01
6.154655e+01
6.153920e+01
6.153283e+01
6.152759e+01
6.152350e+01
6.152054e+01
6.151863e+01
6.151722e+01
6.151597e+01
6.151441e+01
6.151189e+01
6.150755e+01
6.149692e+01
6.149725e+01
6.198633e+01
6.198601e+01
6.196357e+01
6.193627e+01
6.189871e+01
6.184311e+01
6.175865e+01
6.163600e+01
6.144843e+01
6.132029e+01
6.124421e+01
6.119484e+01
6.116147e+01
6.114087e+01
6.113151e+01
6.112969e+01
6.113433e+01
6.114444e+01
6.115910e+01
6.117764e+01
6.119960e+01
6.122476e+01
6.125295e+01
6.128409e+01
6.131800e+01
6.135447e+01
6.139326e+01
6.143427e+01
6.147712e+01
6.152116e+01
6.156608e+01
6.160892e+01
6.163448e+01
6.162659e+01
6.157938e+01
6.150997e+01
6.144140e+01
6.138795e+01
6.135666e+01
6.134998e+01
6.135839e+01
6.137798e+01
6.140525e+01
6.143723e+01
6.147136e+01
6.150539e+01
6.153741e+01
6.156620e+01
6.159065e+01
6.161009e+01
6.162441e+01
6.163410e+01
6.164001e+01
6.164297e+01
6.164270e+01
6.163906e+01
6.163199e+01
6.162127e+01
6.160681e+01
6.158881e+01
6.156842e+01
6.154723e+01
6.152708e+01
6.150994e+01
6.149770e+01
6.149196e+01
6.149416e+01
6.150237e+01
6.151571e+01
6.153281e+01
6.155151e+01
6.156915e+01
6.158385e+01
6.159563e+01
6.160381e+01
6.160876e+01
6.161132e+01
6.161224e+01
6.161153e+01
6.160913e+01
6.160527e+01
6.160011e+01
6.159385e+01
6.158666e+01
6.157876e+01
6.157051e+01
6.156220e+01
6.155411e+01
6.154652e+01
6.153969e+01
6.153384e+01
6.152911e+01
6.152560e+01
6.152334e+01
6.152228e+01
6.152172e+01
6.152138e+01
6.152081e+01
6.151935e+01
6.151617e+01
6.150812e+01
6.150844e+01
6.198425e+01
6.198392e+01
6.196831e+01
6.194801e+01
6.191710e+01
6.186485e+01
6.177224e+01
6.161194e+01
6.134922e+01
6.123220e+01
6.118276e+01
6.115201e+01
6.112975e+01
6.111594e+01
6.111216e+01
6.111370e+01
6.112051e+01
6.113200e+01
6.114731e+01
6.116584e+01
6.118725e+01
6.121142e+01
6.123838e+01
6.126813e+01
6.130062e+01
6.133562e+01
6.137291e+01
6.141326e+01
6.145734e+01
6.150452e+01
6.155139e+01
6.159492e+01
6.163258e+01
6.163249e+01
6.159282e+01
6.152039e+01
6.144590e+01
6.138773e+01
6.135306e+01
6.134250e+01
6.135006e+01
6.136765e+01
6.139262e+01
6.142263e+01
6.145531e+01
6.148841e+01
6.151988e+01
6.154875e+01
6.157422e+01
6.159522e+01
6.161133e+01
6.162278e+01
6.163022e+01
6.163443e+01
6.163465e+01
6.163056e+01
6.162277e+01
6.161168e+01
6.159748e+01
6.158042e+01
6.156158e+01
6.154244e+01
6.152457e+01
6.150975e+01
6.149972e+01
6.149621e+01
6.150014e+01
6.150913e+01
6.152226e+01
6.153793e+01
6.155398e+01
6.156820e+01
6.158025e+01
6.158991e+01
6.159690e+01
6.160163e+01
6.160466e+01
6.160640e+01
6.160643e+01
6.160459e+01
6.160115e+01
6.159637e+01
6.159051e+01
6.158380e+01
6.157645e+01
6.156883e+01
6.156121e+01
6.155385e+01
6.154699e+01
6.154086e+01
6.153570e+01
6.153168e+01
6.152896e+01
6.152768e+01
6.152752e+01
6.152789e+01
6.152846e+01
6.152876e+01
6.152817e+01
6.152617e+01
6.152104e+01
6.152137e+01
6.198293e+01
6.198260e+01
6.197558e+01
6.196502e+01
6.194556e+01
6.190409e+01
6.180841e+01
6.158108e+01
6.117601e+01
6.111203e+01
6.111596e+01
6.110953e+01
6.109809e+01
6.108909e+01
6.108940e+01
6.109443e+01
6.110381e+01
6.111717e+01
6.113347e+01
6.115208e+01
6.117282e+01
6.119573e+01
6.122104e+01
6.124899e+01
6.127970e+01
6.131307e+01
6.134877e+01
6.138801e+01
6.143338e+01
6.148631e+01
6.153853e+01
6.158061e+01
6.160842e+01
6.160227e+01
6.156743e+01
6.151679e+01
6.145492e+01
6.140167e+01
6.136485e+01
6.134939e+01
6.135272e+01
6.136772e+01
6.138899e+01
6.141535e+01
6.144496e+01
6.147571e+01
6.150546e+01
6.153310e+01
6.155856e+01
6.158045e+01
6.159795e+01
6.161094e+01
6.161968e+01
6.162460e+01
6.162478e+01
6.161994e+01
6.161159e+01
6.160065e+01
6.158751e+01
6.157230e+01
6.155593e+01
6.153962e+01
6.152468e+01
6.151268e+01
6.150527e+01
6.150416e+01
6.150920e+01
6.151824e+01
6.153018e+01
6.154344e+01
6.155618e+01
6.156704e+01
6.157652e+01
6.158421e+01
6.159015e+01
6.159462e+01
6.159791e+01
6.160017e+01
6.160063e+01
6.159920e+01
6.159615e+01
6.159182e+01
6.158651e+01
6.158048e+01
6.157394e+01
6.156721e+01
6.156056e+01
6.155417e+01
6.154826e+01
6.154306e+01
6.153879e+01
6.153568e+01
6.153396e+01
6.153378e+01
6.153445e+01
6.153557e+01
6.153676e+01
6.153759e+01
6.153750e+01
6.153653e+01
6.153422e+01
6.153455e+01
6.198261e+01
6.198228e+01
6.198498e+01
6.198670e+01
6.198509e+01
6.197042e+01
6.190615e+01
6.164678e+01
6.086469e+01
6.095464e+01
6.106614e+01
6.108345e+01
6.107888e+01
6.106937e+01
6.106598e+01
6.107301e+01
6.108552e+01
6.110172e+01
6.111959e+01
6.113845e+01
6.115835e+01
6.117958e+01
6.120258e+01
6.122791e+01
6.125601e+01
6.128688e+01
6.131991e+01
6.135448e+01
6.139060e+01
6.143019e+01
6.147629e+01
6.153027e+01
6.154489e+01
6.152945e+01
6.150672e+01
6.148445e+01
6.145801e+01
6.142501e+01
6.139381e+01
6.137456e+01
6.137133e+01
6.138123e+01
6.139720e+01
6.141836e+01
6.144324e+01
6.146999e+01
6.149655e+01
6.152126e+01
6.154505e+01
6.156642e+01
6.158427e+01
6.159796e+01
6.160718e+01
6.161199e+01
6.161132e+01
6.160580e+01
6.159764e+01
6.158798e+01
6.157712e+01
6.156496e+01
6.155213e+01
6.153945e+01
6.152804e+01
6.151927e+01
6.151466e+01
6.151560e+01
6.152088e+01
6.152896e+01
6.153871e+01
6.154878e+01
6.155786e+01
6.156569e+01
6.157257e+01
6.157839e+01
6.158327e+01
6.158731e+01
6.159055e+01
6.159294e+01
6.159361e+01
6.159253e+01
6.158999e+01
6.158634e+01
6.158188e+01
6.157685e+01
6.157143e+01
6.156593e+01
6.156054e+01
6.155540e+01
6.155070e+01
6.154665e+01
6.154348e+01
6.154148e+01
6.154089e+01
6.154155e+01
6.154278e+01
6.154425e+01
6.154562e+01
6.154649e+01
6.154662e+01
6.154639e+01
6.154629e+01
6.154662e+01
6.198303e+01
6.198270e+01
6.199484e+01
6.200938e+01
6.202926e+01
6.205705e+01
6.208969e+01
6.219171e+01
6.152853e+01
6.103483e+01
6.111436e+01
6.109044e+01
6.108241e+01
6.106662e+01
6.105811e+01
6.105987e+01
6.107283e+01
6.109364e+01
6.111343e+01
6.113233e+01
6.115083e+01
6.116938e+01
6.118849e+01
6.120870e+01
6.123040e+01
6.125341e+01
6.127710e+01
6.130144e+01
6.132672e+01
6.136356e+01
6.140841e+01
6.144323e+01
6.145486e+01
6.145847e+01
6.145815e+01
6.145858e+01
6.145913e+01
6.145124e+01
6.143254e+01
6.141367e+01
6.140408e+01
6.140651e+01
6.141638e+01
6.143123e+01
6.145009e+01
6.147136e+01
6.149317e+01
6.151361e+01
6.153382e+01
6.155285e+01
6.156930e+01
6.158201e+01
6.159022e+01
6.159396e+01
6.159228e+01
6.158718e+01
6.158080e+01
6.157405e+01
6.156697e+01
6.155914e+01
6.155082e+01
6.154246e+01
6.153499e+01
6.152961e+01
6.152759e+01
6.152966e+01
6.153423e+01
6.154037e+01
6.154714e+01
6.155362e+01
6.155910e+01
6.156393e+01
6.156829e+01
6.157226e+01
6.157589e+01
6.157914e+01
6.158191e+01
6.158407e+01
6.158484e+01
6.158426e+01
6.158255e+01
6.157997e+01
6.157678e+01
6.157317e+01
6.156927e+01
6.156535e+01
6.156151e+01
6.155788e+01
6.155462e+01
6.155192e+01
6.155002e+01
6.154915e+01
6.154950e+01
6.155055e+01
6.155189e+01
6.155325e+01
6.155434e+01
6.155493e+01
6.155515e+01
6.155535e+01
6.155656e+01
6.155689e+01
6.198360e+01
6.198327e+01
6.200267e+01
6.202691e+01
6.206248e+01
6.211977e+01
6.221582e+01
6.235000e+01
6.237633e+01
0.000000e+00
6.108152e+01
6.108119e+01
6.107113e+01
6.107337e+01
6.106513e+01
6.106524e+01
6.107743e+01
6.109830e+01
6.112125e+01
6.114061e+01
6.115804e+01
6.117420e+01
6.118945e+01
6.120422e+01
6.121884e+01
6.123307e+01
6.124654e+01
6.125965e+01
6.127403e+01
6.129386e+01
6.132012e+01
6.134800e+01
6.137864e+01
6.140593e+01
6.142795e+01
6.144670e+01
6.146429e+01
6.147584e+01
6.147312e+01
6.145961e+01
6.144667e+01
6.144188e+01
6.144459e+01
6.145232e+01
6.146418e+01
6.147876e+01
6.149439e+01
6.150929e+01
6.152395e+01
6.153837e+01
6.155101e+01
6.156044e+01
6.156594e+01
6.156799e+01
6.156669e+01
6.156417e+01
6.156180e+01
6.155988e+01
6.155806e+01
6.155570e+01
6.155256e+01
6.154887e+01
6.154542e+01
6.154318e+01
6.154304e+01
6.154510e+01
6.154818e+01
6.155169e+01
6.155506e+01
6.155785e+01
6.155993e+01
6.156178e+01
6.156359e+01
6.156551e+01
6.156752e+01
6.156951e+01
6.157136e+01
6.157296e+01
6.157392e+01
6.157420e+01
6.157384e+01
6.157292e+01
6.157155e+01
6.156983e+01
6.156788e+01
6.156585e+01
6.156382e+01
6.156190e+01
6.156022e+01
6.155896e+01
6.155830e+01
6.155836e+01
6.155910e+01
6.156008e+01
6.156110e+01
6.156197e+01
6.156255e+01
6.156280e+01
6.156297e+01
6.156338e+01
6.156506e+01
6.156539e+01
6.198369e+01
6.198336e+01
6.200656e+01
6.203504e+01
6.207500e+01
6.213426e+01
6.221895e+01
6.232050e+01
6.240200e+01
6.240232e+01
0.000000e+00
6.109160e+01
6.109127e+01
6.108713e+01
6.108758e+01
6.109148e+01
6.110604e+01
6.112752e+01
6.114981e+01
6.116908e+01
6.118624e+01
6.120151e+01
6.121474e+01
6.122588e+01
6.123435e+01
6.123898e+01
6.123901e+01
6.123677e+01
6.123132e+01
6.122768e+01
6.123566e+01
6.127154e+01
6.132235e+01
6.137237e+01
6.141449e+01
6.144782e+01
6.147586e+01
6.149907e+01
6.150988e+01
6.150597e+01
6.149332e+01
6.148303e+01
6.147912e+01
6.147967e+01
6.148403e+01
6.149103e+01
6.149920e+01
6.150690e+01
6.151410e+01
6.152139e+01
6.152738e+01
6.153111e+01
6.153246e+01
6.153312e+01
6.153489e+01
6.153832e+01
6.154274e+01
6.154745e+01
6.155185e+01
6.155532e+01
6.155754e+01
6.155852e+01
6.155875e+01
6.155902e+01
6.155976e+01
6.156100e+01
6.156204e+01
6.156253e+01
6.156231e+01
6.156153e+01
6.156040e+01
6.155922e+01
6.155832e+01
6.155782e+01
6.155771e+01
6.155793e+01
6.155841e+01
6.155926e+01
6.156066e+01
6.156234e+01
6.156404e+01
6.156551e+01
6.156662e+01
6.156733e+01
6.156769e+01
6.156779e+01
6.156771e+01
6.156756e+01
6.156745e+01
6.156750e+01
6.156779e+01
6.156828e+01
6.156891e+01
6.156948e+01
6.156990e+01
6.157013e+01
6.157018e+01
6.157014e+01
6.157021e+01
6.157065e+01
6.157219e+01
6.157252e+01
6.198297e+01
6.198264e+01
6.200613e+01
6.203394e+01
6.207040e+01
6.211983e+01
6.218510e+01
6.224855e+01
6.227389e+01
6.204959e+01
6.204992e+01
0.000000e+00
6.109910e+01
6.110627e+01
6.110292e+01
6.111550e+01
6.114303e+01
6.117458e+01
6.120031e+01
6.121831e+01
6.123426e+01
6.124741e+01
6.125656e+01
6.126057e+01
6.125916e+01
6.125194e+01
6.124070e+01
6.122268e+01
6.119549e+01
6.116800e+01
6.117268e+01
6.122244e+01
6.129122e+01
6.135924e+01
6.141660e+01
6.145957e+01
6.149337e+01
6.152193e+01
6.154225e+01
6.154807e+01
6.154058e+01
6.152750e+01
6.151787e+01
6.151174e+01
6.150865e+01
6.150754e+01
6.150708e+01
6.150586e+01
6.150378e+01
6.150101e+01
6.149731e+01
6.149366e+01
6.149164e+01
6.149393e+01
6.150209e+01
6.151373e+01
6.152645e+01
6.153863e+01
6.154929e+01
6.155807e+01
6.156497e+01
6.156998e+01
6.157332e+01
6.157531e+01
6.157592e+01
6.157562e+01
6.157425e+01
6.157181e+01
6.156851e+01
6.156471e+01
6.156074e+01
6.155671e+01
6.155297e+01
6.154972e+01
6.154708e+01
6.154511e+01
6.154386e+01
6.154393e+01
6.154604e+01
6.154966e+01
6.155406e+01
6.155854e+01
6.156264e+01
6.156610e+01
6.156890e+01
6.157116e+01
6.157301e+01
6.157452e+01
6.157577e+01
6.157679e+01
6.157753e+01
6.157790e+01
6.157809e+01
6.157808e+01
6.157790e+01
6.157762e+01
6.157735e+01
6.157716e+01
6.157720e+01
6.157761e+01
6.157869e+01
6.157902e+01
6.198148e+01
6.198116e+01
6.200216e+01
6.202587e+01
6.205482e+01
6.208990e+01
6.212416e+01
6.213563e+01
6.207730e+01
6.196607e+01
6.156982e+01
6.125782e+01
6.106865e+01
6.109628e+01
6.110376e+01
6.112882e+01
6.117057e+01
6.121137e+01
6.123879e+01
6.125631e+01
6.127127e+01
6.128374e+01
6.129041e+01
6.128930e+01
6.128039e+01
6.126466e+01
6.124463e+01
6.121112e+01
6.116266e+01
6.112344e+01
6.114120e+01
6.120428e+01
6.128594e+01
6.136526e+01
6.142883e+01
6.147677e+01
6.151353e+01
6.154362e+01
6.156860e+01
6.158319e+01
6.158329e+01
6.157272e+01
6.155927e+01
6.154766e+01
6.153770e+01
6.152834e+01
6.151834e+01
6.150696e+01
6.149406e+01
6.148029e+01
6.146705e+01
6.145639e+01
6.145013e+01
6.145647e+01
6.147258e+01
6.149352e+01
6.151503e+01
6.153456e+01
6.155061e+01
6.156368e+01
6.157411e+01
6.158200e+01
6.158733e+01
6.159003e+01
6.159007e+01
6.158834e+01
6.158493e+01
6.158008e+01
6.157418e+01
6.156776e+01
6.156120e+01
6.155445e+01
6.154790e+01
6.154184e+01
6.153654e+01
6.153223e+01
6.152907e+01
6.152841e+01
6.153143e+01
6.153728e+01
6.154475e+01
6.155263e+01
6.156004e+01
6.156629e+01
6.157142e+01
6.157563e+01
6.157909e+01
6.158188e+01
6.158404e+01
6.158554e+01
6.158633e+01
6.158643e+01
6.158623e+01
6.158578e+01
6.158520e+01
6.158463e+01
6.158424e+01
6.158403e+01
6.158412e+01
6.158454e+01
6.158522e+01
6.158555e+01
6.197950e+01
6.197917e+01
6.199585e+01
6.201375e+01
6.203296e+01
6.205083e+01
6.205818e+01
6.203491e+01
6.194483e+01
6.177642e+01
6.151029e+01
6.094516e+01
6.104036e+01
6.110722e+01
6.113336e+01
6.116012e+01
6.119858e+01
6.123516e+01
6.125701e+01
6.127746e+01
6.129733e+01
6.131130e+01
6.131592e+01
6.130992e+01
6.129514e+01
6.127340e+01
6.124623e+01
6.120024e+01
6.113854e+01
6.111099e+01
6.114256e+01
6.121524e+01
6.130301e+01
6.138441e+01
6.144821e+01
6.149689e+01
6.153398e+01
6.156309e+01
6.158761e+01
6.160711e+01
6.161583e+01
6.161170e+01
6.159974e+01
6.158505e+01
6.156875e+01
6.155071e+01
6.153085e+01
6.151014e+01
6.148709e+01
6.146293e+01
6.144026e+01
6.142182e+01
6.141398e+01
6.142560e+01
6.145023e+01
6.148031e+01
6.151003e+01
6.153536e+01
6.155556e+01
6.157161e+01
6.158425e+01
6.159376e+01
6.160006e+01
6.160290e+01
6.160244e+01
6.159960e+01
6.159462e+01
6.158786e+01
6.157981e+01
6.157106e+01
6.156214e+01
6.155281e+01
6.154351e+01
6.153468e+01
6.152673e+01
6.152008e+01
6.151505e+01
6.151385e+01
6.151793e+01
6.152616e+01
6.153684e+01
6.154825e+01
6.155897e+01
6.156786e+01
6.157505e+01
6.158083e+01
6.158547e+01
6.158909e+01
6.159174e+01
6.159341e+01
6.159409e+01
6.159398e+01
6.159351e+01
6.159281e+01
6.159202e+01
6.159133e+01
6.159094e+01
6.159084e+01
6.159111e+01
6.159171e+01
6.159239e+01
6.159272e+01
6.197739e+01
6.197706e+01
6.198864e+01
6.199988e+01
6.200939e+01
6.201341e+01
6.200359e+01
6.196535e+01
6.187680e+01
6.171894e+01
6.150428e+01
6.120797e+01
6.116491e+01
6.117212e+01
6.118225e+01
6.119808e+01
6.122281e+01
6.124898e+01
6.127016e+01
6.129090e+01
6.130801e+01
6.131685e+01
6.131670e+01
6.130852e+01
6.129369e+01
6.127310e+01
6.124387e+01
6.119149e+01
6.113888e+01
6.113113e+01
6.117394e+01
6.124939e+01
6.133507e+01
6.141077e+01
6.147102e+01
6.151761e+01
6.155338e+01
6.158093e+01
6.160236e+01
6.161946e+01
6.163113e+01
6.163359e+01
6.162763e+01
6.161409e+01
6.159450e+01
6.157031e+01
6.154306e+01
6.151511e+01
6.148330e+01
6.145009e+01
6.141909e+01
6.139395e+01
6.138750e+01
6.140521e+01
6.143787e+01
6.147574e+01
6.151179e+01
6.154090e+01
6.156364e+01
6.158123e+01
6.159476e+01
6.160477e+01
6.161126e+01
6.161395e+01
6.161322e+01
6.160972e+01
6.160371e+01
6.159558e+01
6.158583e+01
6.157506e+01
6.156398e+01
6.155223e+01
6.154033e+01
6.152882e+01
6.151834e+01
6.150952e+01
6.150287e+01
6.150142e+01
6.150668e+01
6.151725e+01
6.153099e+01
6.154572e+01
6.155940e+01
6.157060e+01
6.157945e+01
6.158637e+01
6.159174e+01
6.159578e+01
6.159860e+01
6.160028e+01
6.160085e+01
6.160063e+01
6.160006e+01
6.159928e+01
6.159845e+01
6.159779e+01
6.159751e+01
6.159764e+01
6.159824e+01
6.159926e+01
6.160064e+01
6.160097e+01
6.197542e+01
6.197509e+01
6.198139e+01
6.198636e+01
6.198792e+01
6.198233e+01
6.196319e+01
6.192104e+01
6.184374e+01
6.171912e+01
6.154916e+01
6.135485e+01
6.127329e+01
6.124462e+01
6.123575e+01
6.123860e+01
6.125061e+01
6.126683e+01
6.128244e+01
6.129632e+01
6.130639e+01
6.131043e+01
6.130792e+01
6.129960e+01
6.128714e+01
6.127055e+01
6.124290e+01
6.119914e+01
6.116876e+01
6.117671e+01
6.122395e+01
6.129513e+01
6.137206e+01
6.143916e+01
6.149376e+01
6.153668e+01
6.157000e+01
6.159588e+01
6.161603e+01
6.163119e+01
6.164102e+01
6.164546e+01
6.164261e+01
6.163167e+01
6.161243e+01
6.158594e+01
6.155449e+01
6.152134e+01
6.148277e+01
6.144245e+01
6.140505e+01
6.137553e+01
6.137349e+01
6.139755e+01
6.143683e+01
6.148034e+01
6.151957e+01
6.155053e+01
6.157416e+01
6.159194e+01
6.160524e+01
6.161485e+01
6.162098e+01
6.162342e+01
6.162260e+01
6.161885e+01
6.161236e+01
6.160344e+01
6.159252e+01
6.158015e+01
6.156708e+01
6.155314e+01
6.153880e+01
6.152479e+01
6.151197e+01
6.150124e+01
6.149343e+01
6.149203e+01
6.149851e+01
6.151121e+01
6.152763e+01
6.154516e+01
6.156125e+01
6.157426e+01
6.158434e+01
6.159196e+01
6.159763e+01
6.160175e+01
6.160453e+01
6.160612e+01
6.160663e+01
6.160644e+01
6.160590e+01
6.160518e+01
6.160446e+01
6.160396e+01
6.160389e+01
6.160437e+01
6.160544e+01
6.160714e+01
6.161000e+01
6.161033e+01
6.197368e+01
6.197335e+01
6.197490e+01
6.197461e+01
6.197016e+01
6.195830e+01
6.193434e+01
6.189223e+01
6.182512e+01
6.172612e+01
6.159386e+01
6.144626e+01
6.135591e+01
6.130838e+01
6.128448e+01
6.127542e+01
6.127661e+01
6.128363e+01
6.129226e+01
6.130001e+01
6.130494e+01
6.130552e+01
6.130131e+01
6.129286e+01
6.128166e+01
6.126619e+01
6.124286e+01
6.121498e+01
6.120401e+01
6.122378e+01
6.127256e+01
6.133780e+01
6.140522e+01
6.146478e+01
6.151395e+01
6.155313e+01
6.158393e+01
6.160808e+01
6.162681e+01
6.164023e+01
6.164862e+01
6.165199e+01
6.164980e+01
6.164060e+01
6.162305e+01
6.159705e+01
6.156439e+01
6.152823e+01
6.148534e+01
6.144034e+01
6.139912e+01
6.137029e+01
6.137348e+01
6.140288e+01
6.144642e+01
6.149262e+01
6.153236e+01
6.156325e+01
6.158631e+01
6.160320e+01
6.161543e+01
6.162404e+01
6.162944e+01
6.163158e+01
6.163074e+01
6.162704e+01
6.162054e+01
6.161139e+01
6.159986e+01
6.158639e+01
6.157167e+01
6.155578e+01
6.153921e+01
6.152288e+01
6.150791e+01
6.149558e+01
6.148710e+01
6.148607e+01
6.149376e+01
6.150828e+01
6.152683e+01
6.154647e+01
6.156428e+01
6.157859e+01
6.158946e+01
6.159740e+01
6.160307e+01
6.160700e+01
6.160957e+01
6.161102e+01
6.161151e+01
6.161140e+01
6.161097e+01
6.161041e+01
6.160990e+01
6.160965e+01
6.160988e+01
6.161078e+01
6.161245e+01
6.161504e+01
6.161994e+01
6.162027e+01
6.197229e+01
6.197196e+01
6.196961e+01
6.196521e+01
6.195646e+01
6.194058e+01
6.191407e+01
6.187287e+01
6.181282e+01
6.173015e+01
6.162413e+01
6.150681e+01
6.141775e+01
6.135958e+01
6.132470e+01
6.130613e+01
6.129874e+01
6.129822e+01
6.130081e+01
6.130370e+01
6.130488e+01
6.130296e+01
6.129742e+01
6.128858e+01
6.127717e+01
6.126241e+01
6.124415e+01
6.122963e+01
6.123276e+01
6.126077e+01
6.131029e+01
6.137079e+01
6.143148e+01
6.148544e+01
6.153036e+01
6.156645e+01
6.159506e+01
6.161762e+01
6.163510e+01
6.164756e+01
6.165506e+01
6.165791e+01
6.165570e+01
6.164724e+01
6.163100e+01
6.160612e+01
6.157344e+01
6.153535e+01
6.149001e+01
6.144262e+01
6.140066e+01
6.137677e+01
6.138493e+01
6.141802e+01
6.146338e+01
6.150956e+01
6.154806e+01
6.157758e+01
6.159914e+01
6.161447e+01
6.162517e+01
6.163245e+01
6.163693e+01
6.163873e+01
6.163784e+01
6.163434e+01
6.162812e+01
6.161915e+01
6.160752e+01
6.159347e+01
6.157753e+01
6.156001e+01
6.154144e+01
6.152297e+01
6.150605e+01
6.149237e+01
6.148365e+01
6.148325e+01
6.149208e+01
6.150809e+01
6.152821e+01
6.154926e+01
6.156816e+01
6.158328e+01
6.159460e+01
6.160262e+01
6.160808e+01
6.161167e+01
6.161390e+01
6.161513e+01
6.161559e+01
6.161556e+01
6.161526e+01
6.161486e+01
6.161458e+01
6.161462e+01
6.161519e+01
6.161655e+01
6.161887e+01
6.162245e+01
6.162964e+01
6.162997e+01
6.197130e+01
6.197097e+01
6.196569e+01
6.195831e+01
6.194662e+01
6.192822e+01
6.190035e+01
6.186004e+01
6.180450e+01
6.173169e+01
6.164197e+01
6.154382e+01
6.146000e+01
6.139784e+01
6.135589e+01
6.133008e+01
6.131610e+01
6.130990e+01
6.130785e+01
6.130710e+01
6.130554e+01
6.130179e+01
6.129517e+01
6.128572e+01
6.127377e+01
6.125966e+01
6.124603e+01
6.124086e+01
6.125355e+01
6.128728e+01
6.133709e+01
6.139420e+01
6.145040e+01
6.150048e+01
6.154240e+01
6.157629e+01
6.160331e+01
6.162470e+01
6.164125e+01
6.165331e+01
6.166089e+01
6.166414e+01
6.166254e+01
6.165493e+01
6.163979e+01
6.161583e+01
6.158299e+01
6.154277e+01
6.149520e+01
6.144635e+01
6.140595e+01
6.138813e+01
6.140090e+01
6.143654e+01
6.148229e+01
6.152698e+01
6.156380e+01
6.159156e+01
6.161119e+01
6.162453e+01
6.163348e+01
6.163944e+01
6.164320e+01
6.164480e+01
6.164401e+01
6.164075e+01
6.163492e+01
6.162635e+01
6.161494e+01
6.160073e+01
6.158402e+01
6.156520e+01
6.154494e+01
6.152454e+01
6.150582e+01
6.149096e+01
6.148225e+01
6.148260e+01
6.149246e+01
6.150966e+01
6.153090e+01
6.155278e+01
6.157229e+01
6.158791e+01
6.159950e+01
6.160753e+01
6.161274e+01
6.161592e+01
6.161772e+01
6.161864e+01
6.161904e+01
6.161899e+01
6.161874e+01
6.161846e+01
6.161836e+01
6.161864e+01
6.161952e+01
6.162129e+01
6.162422e+01
6.162874e+01
6.163821e+01
6.163854e+01
6.197068e+01
6.197035e+01
6.196313e+01
6.195383e+01
6.194033e+01
6.192047e+01
6.189192e+01
6.185230e+01
6.179952e+01
6.173239e+01
6.165195e+01
6.156486e+01
6.148564e+01
6.142240e+01
6.137667e+01
6.134639e+01
6.132810e+01
6.131809e+01
6.131289e+01
6.130968e+01
6.130631e+01
6.130133e+01
6.129393e+01
6.128388e+01
6.127144e+01
6.125801e+01
6.124810e+01
6.124917e+01
6.126758e+01
6.130412e+01
6.135378e+01
6.140883e+01
6.146237e+01
6.151007e+01
6.155010e+01
6.158256e+01
6.160847e+01
6.162901e+01
6.164510e+01
6.165730e+01
6.166548e+01
6.166960e+01
6.166904e+01
6.166260e+01
6.164869e+01
6.162570e+01
6.159266e+01
6.155006e+01
6.149968e+01
6.144905e+01
6.141057e+01
6.139774e+01
6.141415e+01
6.145157e+01
6.149732e+01
6.154069e+01
6.157599e+01
6.160209e+01
6.162007e+01
6.163187e+01
6.163945e+01
6.164435e+01
6.164751e+01
6.164892e+01
6.164830e+01
6.164552e+01
6.164031e+01
6.163234e+01
6.162134e+01
6.160722e+01
6.159011e+01
6.157035e+01
6.154872e+01
6.152668e+01
6.150635e+01
6.149041e+01
6.148177e+01
6.148279e+01
6.149346e+01
6.151152e+01
6.153351e+01
6.155588e+01
6.157578e+01
6.159176e+01
6.160352e+01
6.161147e+01
6.161643e+01
6.161925e+01
6.162069e+01
6.162133e+01
6.162162e+01
6.162152e+01
6.162126e+01
6.162105e+01
6.162106e+01
6.162151e+01
6.162262e+01
6.162468e+01
6.162806e+01
6.163332e+01
6.164479e+01
6.164512e+01
6.197039e+01
6.197006e+01
6.196188e+01
6.195165e+01
6.193731e+01
6.191683e+01
6.188808e+01
6.184893e+01
6.179759e+01
6.173319e+01
6.165702e+01
6.157495e+01
6.149815e+01
6.143465e+01
6.138721e+01
6.135475e+01
6.133431e+01
6.132235e+01
6.131553e+01
6.131106e+01
6.130676e+01
6.130116e+01
6.129336e+01
6.128296e+01
6.127031e+01
6.125754e+01
6.124972e+01
6.125365e+01
6.127430e+01
6.131167e+01
6.136089e+01
6.141482e+01
6.146713e+01
6.151385e+01
6.155319e+01
6.158516e+01
6.161068e+01
6.163091e+01
6.164679e+01
6.165894e+01
6.166755e+01
6.167243e+01
6.167286e+01
6.166759e+01
6.165495e+01
6.163308e+01
6.160031e+01
6.155587e+01
6.150238e+01
6.144922e+01
6.141146e+01
6.140147e+01
6.142017e+01
6.145860e+01
6.150413e+01
6.154669e+01
6.158134e+01
6.160689e+01
6.162435e+01
6.163563e+01
6.164268e+01
6.164709e+01
6.164979e+01
6.165096e+01
6.165051e+01
6.164815e+01
6.164346e+01
6.163602e+01
6.162548e+01
6.161164e+01
6.159447e+01
6.157423e+01
6.155169e+01
6.152836e+01
6.150664e+01
6.148971e+01
6.148089e+01
6.148221e+01
6.149340e+01
6.151203e+01
6.153449e+01
6.155710e+01
6.157714e+01
6.159328e+01
6.160520e+01
6.161327e+01
6.161827e+01
6.162105e+01
6.162241e+01
6.162296e+01
6.162305e+01
6.162286e+01
6.162259e+01
6.162241e+01
6.162249e+01
6.162304e+01
6.162427e+01
6.162651e+01
6.163017e+01
6.163586e+01
6.164875e+01
6.164908e+01
0.000000e+00
6.197039e+01
6.196221e+01
6.195198e+01
6.193764e+01
6.191716e+01
6.188841e+01
6.184926e+01
6.179792e+01
6.173351e+01
6.165735e+01
6.157528e+01
6.149847e+01
6.143497e+01
6.138754e+01
6.135508e+01
6.133464e+01
6.132268e+01
6.131586e+01
6.131138e+01
6.130709e+01
6.130149e+01
6.129369e+01
6.128329e+01
6.127064e+01
6.125787e+01
6.125005e+01
6.125398e+01
6.127463e+01
6.131200e+01
6.136122e+01
6.141515e+01
6.146745e+01
6.151418e+01
6.155352e+01
6.158549e+01
6.161101e+01
6.163124e+01
6.164712e+01
6.165927e+01
6.166787e+01
6.167275e+01
6.167319e+01
6.166792e+01
6.165527e+01
6.163341e+01
6.160064e+01
6.155620e+01
6.150270e+01
6.144955e+01
6.141179e+01
6.140180e+01
6.142050e+01
6.145893e+01
6.150446e+01
6.154702e+01
6.158167e+01
6.160722e+01
6.162468e+01
6.163595e+01
6.164301e+01