# vtk DataFile Version 3.0
Scalar Field
ASCII
DATASET RECTILINEAR_GRID
DIMENSIONS 102 22 1
X_COORDINATES 102 double
0.000000 0.100000 0.200000 0.300000 0.400000 0.500000 0.600000 0.700000 0.800000 0.900000 1.000000 1.100000 1.200000 1.300000 1.400000 1.500000 1.600000 1.700000 1.800000 1.900000 2.000000 2.100000 2.200000 2.300000 2.400000 2.500000 2.600000 2.700000 2.800000 2.900000 3.000000 3.100000 3.200000 3.300000 3.400000 3.500000 3.600000 3.700000 3.800000 3.900000 4.000000 4.100000 4.200000 4.300000 4.400000 4.500000 4.600000 4.700000 4.800000 4.900000 5.000000 5.100000 5.200000 5.300000 5.400000 5.500000 5.600000 5.700000 5.800000 5.900000 6.000000 6.100000 6.200000 6.300000 6.400000 6.500000 6.600000 6.700000 6.800000 6.900000 7.000000 7.100000 7.200000 7.300000 7.400000 7.500000 7.600000 7.700000 7.800000 7.900000 8.000000 8.100000 8.200000 8.300000 8.400000 8.500000 8.600000 8.700000 8.800000 8.900000 9.000000 9.100000 9.200000 9.300000 9.400000 9.500000 9.600000 9.700000 9.800000 9.900000 10.000000 10.100000 
Y_COORDINATES 22 double
0.000000 0.100000 0.200000 0.300000 0.400000 0.500000 0.600000 0.700000 0.800000 0.900000 1.000000 1.100000 1.200000 1.300000 1.400000 1.500000 1.600000 1.700000 1.800000 1.900000 2.000000 2.100000 
Z_COORDINATES 1 double
0.0
POINT_DATA 2244
SCALARS Pressure double 1
LOOKUP_TABLE default
0.000000e+00
3.354462e+01
3.351936e+01
3.349026e+01
3.345417e+01
3.340752e+01
3.334682e+01
3.327059e+01
3.317791e+01
3.308579e+01
3.300717e+01
3.294541e+01
3.289806e+01
3.286087e+01
3.282984e+01
3.280226e+01
3.277728e+01
3.275602e+01
3.274077e+01
3.273340e+01
3.273424e+01
3.274239e+01
3.275648e+01
3.277516e+01
3.279742e+01
3.282269e+01
3.285076e+01
3.288162e+01
3.291525e+01
3.295143e+01
3.298965e+01
3.302914e+01
3.306892e+01
3.310792e+01
3.314492e+01
3.317870e+01
3.320847e+01
3.323417e+01
3.325643e+01
3.327630e+01
3.329441e+01
3.330792e+01
3.331147e+01
3.329773e+01
3.326021e+01
3.319874e+01
3.312312e+01
3.305047e+01
3.299894e+01
3.297873e+01
3.298468e+01
3.301016e+01
3.304845e+01
3.309256e+01
3.313604e+01
3.317360e+01
3.320216e+01
3.322110e+01
3.323187e+01
3.323692e+01
3.323842e+01
3.323765e+01
3.323613e+01
3.323353e+01
3.322909e+01
3.322225e+01
3.321285e+01
3.320111e+01
3.318760e+01
3.317316e+01
3.315878e+01
3.314551e+01
3.313430e+01
3.312594e+01
3.312095e+01
3.311952e+01
3.312153e+01
3.312655e+01
3.313424e+01
3.314418e+01
3.315582e+01
3.316842e+01
3.318103e+01
3.319256e+01
3.320195e+01
3.320852e+01
3.321216e+01
3.321332e+01
3.321257e+01
3.321056e+01
3.320787e+01
3.320480e+01
3.320155e+01
3.319832e+01
3.319536e+01
3.319297e+01
3.319146e+01
3.319121e+01
3.319264e+01
3.319615e+01
3.320525e+01
0.000000e+00
3.354462e+01
3.354510e+01
3.351984e+01
3.349073e+01
3.345465e+01
3.340800e+01
3.334730e+01
3.327107e+01
3.317839e+01
3.308626e+01
3.300765e+01
3.294589e+01
3.289854e+01
3.286135e+01
3.283031e+01
3.280274e+01
3.277776e+01
3.275650e+01
3.274125e+01
3.273387e+01
3.273472e+01
3.274287e+01
3.275696e+01
3.277564e+01
3.279790e+01
3.282317e+01
3.285124e+01
3.288210e+01
3.291573e+01
3.295191e+01
3.299013e+01
3.302961e+01
3.306940e+01
3.310839e+01
3.314540e+01
3.317918e+01
3.320895e+01
3.323465e+01
3.325691e+01
3.327678e+01
3.329489e+01
3.330840e+01
3.331195e+01
3.329821e+01
3.326069e+01
3.319922e+01
3.312360e+01
3.305095e+01
3.299942e+01
3.297921e+01
3.298516e+01
3.301064e+01
3.304893e+01
3.309304e+01
3.313652e+01
3.317409e+01
3.320264e+01
3.322158e+01
3.323236e+01
3.323740e+01
3.323890e+01
3.323813e+01
3.323661e+01
3.323401e+01
3.322957e+01
3.322274e+01
3.321333e+01
3.320159e+01
3.318808e+01
3.317364e+01
3.315926e+01
3.314599e+01
3.313478e+01
3.312642e+01
3.312143e+01
3.312000e+01
3.312202e+01
3.312703e+01
3.313472e+01
3.314466e+01
3.315631e+01
3.316890e+01
3.318151e+01
3.319304e+01
3.320244e+01
3.320900e+01
3.321265e+01
3.321380e+01
3.321306e+01
3.321104e+01
3.320836e+01
3.320528e+01
3.320203e+01
3.319880e+01
3.319585e+01
3.319345e+01
3.319194e+01
3.319170e+01
3.319312e+01
3.319663e+01
3.320574e+01
3.320525e+01
3.354385e+01
3.354433e+01
3.352047e+01
3.349254e+01
3.345717e+01
3.341029e+01
3.334771e+01
3.326761e+01
3.316593e+01
3.306958e+01
3.299189e+01
3.293330e+01
3.288939e+01
3.285519e+01
3.282647e+01
3.280042e+01
3.277608e+01
3.275470e+01
3.273899e+01
3.273142e+01
3.273244e+01
3.274091e+01
3.275530e+01
3.277418e+01
3.279646e+01
3.282155e+01
3.284928e+01
3.287970e+01
3.291286e+01
3.294861e+01
3.298648e+01
3.302571e+01
3.306529e+01
3.310413e+01
3.314112e+01
3.317489e+01
3.320458e+01
3.322999e+01
3.325170e+01
3.327049e+01
3.328621e+01
3.329609e+01
3.329645e+01
3.328131e+01
3.324418e+01
3.318459e+01
3.311314e+01
3.304522e+01
3.299680e+01
3.297779e+01
3.298462e+01
3.300900e+01
3.304494e+01
3.308601e+01
3.312668e+01
3.316304e+01
3.319220e+01
3.321283e+01
3.322562e+01
3.323246e+01
3.323536e+01
3.323568e+01
3.323448e+01
3.323175e+01
3.322702e+01
3.321992e+01
3.321038e+01
3.319866e+01
3.318533e+01
3.317123e+01
3.315731e+01
3.314453e+01
3.313380e+01
3.312586e+01
3.312120e+01
3.312005e+01
3.312246e+01
3.312782e+01
3.313586e+01
3.314614e+01
3.315804e+01
3.317061e+01
3.318275e+01
3.319339e+01
3.320174e+01
3.320742e+01
3.321054e+01
3.321151e+01
3.321087e+01
3.320905e+01
3.320655e+01
3.320363e+01
3.320050e+01
3.319738e+01
3.319452e+01
3.319218e+01
3.319071e+01
3.319046e+01
3.319182e+01
3.319522e+01
3.320399e+01
3.320351e+01
3.354277e+01
3.354325e+01
3.352231e+01
3.349703e+01
3.346356e+01
3.341678e+01
3.335067e+01
3.326188e+01
3.313895e+01
3.303507e+01
3.296094e+01
3.290951e+01
3.287252e+01
3.284400e+01
3.281966e+01
3.279648e+01
3.277326e+01
3.275147e+01
3.273469e+01
3.272661e+01
3.272803e+01
3.273714e+01
3.275215e+01
3.277140e+01
3.279367e+01
3.281835e+01
3.284531e+01
3.287472e+01
3.290677e+01
3.294145e+01
3.297842e+01
3.301695e+01
3.305602e+01
3.309453e+01
3.313135e+01
3.316516e+01
3.319497e+01
3.322034e+01
3.324167e+01
3.325981e+01
3.327393e+01
3.328138e+01
3.327865e+01
3.326156e+01
3.322532e+01
3.316796e+01
3.310109e+01
3.303826e+01
3.299357e+01
3.297583e+01
3.298327e+01
3.300550e+01
3.303781e+01
3.307491e+01
3.311212e+01
3.314604e+01
3.317491e+01
3.319729e+01
3.321300e+01
3.322285e+01
3.322821e+01
3.323039e+01
3.323033e+01
3.322792e+01
3.322312e+01
3.321591e+01
3.320635e+01
3.319471e+01
3.318160e+01
3.316787e+01
3.315445e+01
3.314224e+01
3.313212e+01
3.312476e+01
3.312067e+01
3.312013e+01
3.312322e+01
3.312915e+01
3.313769e+01
3.314831e+01
3.316020e+01
3.317228e+01
3.318329e+01
3.319250e+01
3.319953e+01
3.320418e+01
3.320670e+01
3.320759e+01
3.320723e+01
3.320582e+01
3.320370e+01
3.320110e+01
3.319820e+01
3.319522e+01
3.319240e+01
3.319008e+01
3.318856e+01
3.318820e+01
3.318935e+01
3.319244e+01
3.320049e+01
3.320001e+01
3.354172e+01
3.354220e+01
3.352581e+01
3.350490e+01
3.347502e+01
3.342917e+01
3.335753e+01
3.325145e+01
3.308834e+01
3.297828e+01
3.291529e+01
3.287614e+01
3.284932e+01
3.282892e+01
3.281088e+01
3.279191e+01
3.277003e+01
3.274707e+01
3.272812e+01
3.271876e+01
3.272097e+01
3.273129e+01
3.274741e+01
3.276738e+01
3.278973e+01
3.281381e+01
3.283963e+01
3.286752e+01
3.289790e+01
3.293099e+01
3.296659e+01
3.300408e+01
3.304243e+01
3.308042e+01
3.311690e+01
3.315079e+01
3.318100e+01
3.320686e+01
3.322862e+01
3.324706e+01
3.326159e+01
3.326604e+01
3.325889e+01
3.323903e+01
3.320441e+01
3.315304e+01
3.309339e+01
3.303733e+01
3.299681e+01
3.297974e+01
3.298688e+01
3.300637e+01
3.303458e+01
3.306732e+01
3.310068e+01
3.313149e+01
3.315907e+01
3.318179e+01
3.319890e+01
3.321072e+01
3.321821e+01
3.322242e+01
3.322406e+01
3.322259e+01
3.321820e+01
3.321111e+01
3.320162e+01
3.319011e+01
3.317730e+01
3.316410e+01
3.315136e+01
3.313994e+01
3.313063e+01
3.312407e+01
3.312079e+01
3.312122e+01
3.312511e+01
3.313173e+01
3.314071e+01
3.315136e+01
3.316269e+01
3.317352e+01
3.318273e+01
3.319039e+01
3.319610e+01
3.319988e+01
3.320209e+01
3.320320e+01
3.320318e+01
3.320213e+01
3.320031e+01
3.319793e+01
3.319520e+01
3.319232e+01
3.318954e+01
3.318723e+01
3.318566e+01
3.318514e+01
3.318601e+01
3.318863e+01
3.319572e+01
3.319524e+01
3.354110e+01
3.354158e+01
3.353144e+01
3.351703e+01
3.349349e+01
3.345117e+01
3.337268e+01
3.323281e+01
3.299948e+01
3.289677e+01
3.285671e+01
3.283570e+01
3.282193e+01
3.281148e+01
3.280142e+01
3.278849e+01
3.276842e+01
3.274292e+01
3.271975e+01
3.270731e+01
3.271053e+01
3.272313e+01
3.274129e+01
3.276268e+01
3.278541e+01
3.280880e+01
3.283309e+01
3.285890e+01
3.288696e+01
3.291781e+01
3.295151e+01
3.298757e+01
3.302499e+01
3.306241e+01
3.309848e+01
3.313262e+01
3.316386e+01
3.319161e+01
3.321561e+01
3.323521e+01
3.324862e+01
3.324875e+01
3.323638e+01
3.321449e+01
3.318297e+01
3.313999e+01
3.309032e+01
3.304329e+01
3.300831e+01
3.299242e+01
3.299741e+01
3.301390e+01
3.303777e+01
3.306587e+01
3.309499e+01
3.312231e+01
3.314748e+01
3.316938e+01
3.318689e+01
3.319984e+01
3.320875e+01
3.321439e+01
3.321742e+01
3.321670e+01
3.321255e+01
3.320552e+01
3.319616e+01
3.318498e+01
3.317271e+01
3.316032e+01
3.314857e+01
3.313821e+01
3.312997e+01
3.312446e+01
3.312227e+01
3.312396e+01
3.312865e+01
3.313578e+01
3.314480e+01
3.315482e+01
3.316477e+01
3.317356e+01
3.318102e+01
3.318708e+01
3.319162e+01
3.319480e+01
3.319694e+01
3.319835e+01
3.319861e+01
3.319783e+01
3.319623e+01
3.319403e+01
3.319145e+01
3.318871e+01
3.318603e+01
3.318378e+01
3.318219e+01
3.318153e+01
3.318207e+01
3.318411e+01
3.318998e+01
3.318950e+01
3.354123e+01
3.354171e+01
3.353937e+01
3.353394e+01
3.352122e+01
3.348963e+01
3.340983e+01
3.321030e+01
3.284424e+01
3.278427e+01
3.278992e+01
3.279261e+01
3.279270e+01
3.279208e+01
3.279028e+01
3.278708e+01
3.277193e+01
3.274322e+01
3.271296e+01
3.269504e+01
3.269574e+01
3.271293e+01
3.273480e+01
3.275898e+01
3.278282e+01
3.280557e+01
3.282804e+01
3.285116e+01
3.287617e+01
3.290402e+01
3.293512e+01
3.296919e+01
3.300531e+01
3.304198e+01
3.307740e+01
3.311180e+01
3.314464e+01
3.317579e+01
3.320340e+01
3.322375e+01
3.323311e+01
3.322577e+01
3.320887e+01
3.318760e+01
3.316194e+01
3.312932e+01
3.309154e+01
3.305502e+01
3.302676e+01
3.301266e+01
3.301509e+01
3.302803e+01
3.304729e+01
3.307048e+01
3.309500e+01
3.311839e+01
3.314027e+01
3.316021e+01
3.317694e+01
3.319003e+01
3.319960e+01
3.320606e+01
3.320983e+01
3.320951e+01
3.320548e+01
3.319862e+01
3.318968e+01
3.317928e+01
3.316805e+01
3.315697e+01
3.314663e+01
3.313771e+01
3.313085e+01
3.312670e+01
3.312594e+01
3.312874e+01
3.313398e+01
3.314113e+01
3.314943e+01
3.315797e+01
3.316576e+01
3.317239e+01
3.317808e+01
3.318268e+01
3.318629e+01
3.318909e+01
3.319126e+01
3.319286e+01
3.319329e+01
3.319270e+01
3.319128e+01
3.318928e+01
3.318693e+01
3.318443e+01
3.318198e+01
3.317991e+01
3.317842e+01
3.317768e+01
3.317791e+01
3.317932e+01
3.318363e+01
3.318315e+01
3.354218e+01
3.354266e+01
3.354901e+01
3.355474e+01
3.355861e+01
3.355256e+01
3.350397e+01
3.327599e+01
3.255982e+01
3.263336e+01
3.272912e+01
3.275488e+01
3.276474e+01
3.277005e+01
3.277183e+01
3.277777e+01
3.277647e+01
3.275103e+01
3.271314e+01
3.268811e+01
3.268529e+01
3.270322e+01
3.273054e+01
3.276007e+01
3.278646e+01
3.280865e+01
3.282929e+01
3.284919e+01
3.287033e+01
3.289415e+01
3.292153e+01
3.295251e+01
3.298632e+01
3.302150e+01
3.305606e+01
3.309035e+01
3.312365e+01
3.315515e+01
3.318303e+01
3.320125e+01
3.320358e+01
3.319157e+01
3.317552e+01
3.315913e+01
3.314216e+01
3.312172e+01
3.309702e+01
3.307156e+01
3.305046e+01
3.303861e+01
3.303870e+01
3.304767e+01
3.306207e+01
3.308006e+01
3.309956e+01
3.311852e+01
3.313643e+01
3.315340e+01
3.316829e+01
3.318050e+01
3.318987e+01
3.319641e+01
3.320029e+01
3.320000e+01
3.319617e+01
3.318990e+01
3.318203e+01
3.317311e+01
3.316369e+01
3.315454e+01
3.314615e+01
3.313907e+01
3.313393e+01
3.313138e+01
3.313212e+01
3.313559e+01
3.314082e+01
3.314717e+01
3.315389e+01
3.316022e+01
3.316551e+01
3.317014e+01
3.317409e+01
3.317744e+01
3.318029e+01
3.318275e+01
3.318484e+01
3.318638e+01
3.318690e+01
3.318649e+01
3.318534e+01
3.318368e+01
3.318173e+01
3.317966e+01
3.317763e+01
3.317592e+01
3.317466e+01
3.317395e+01
3.317394e+01
3.317471e+01
3.317721e+01
3.317672e+01
3.354364e+01
3.354412e+01
3.355870e+01
3.357577e+01
3.359904e+01
3.363219e+01
3.367551e+01
3.379322e+01
3.317604e+01
3.268910e+01
3.274581e+01
3.274254e+01
3.274279e+01
3.274498e+01
3.274731e+01
3.275501e+01
3.276001e+01
3.274609e+01
3.271584e+01
3.268873e+01
3.268488e+01
3.270278e+01
3.273382e+01
3.276812e+01
3.279851e+01
3.282152e+01
3.284192e+01
3.285868e+01
3.287555e+01
3.289425e+01
3.291626e+01
3.294209e+01
3.297124e+01
3.300232e+01
3.303325e+01
3.306180e+01
3.308870e+01
3.311954e+01
3.314578e+01
3.315882e+01
3.315650e+01
3.314830e+01
3.313953e+01
3.313211e+01
3.312571e+01
3.311808e+01
3.310657e+01
3.309184e+01
3.307765e+01
3.306821e+01
3.306638e+01
3.307130e+01
3.308070e+01
3.309326e+01
3.310736e+01
3.312137e+01
3.313471e+01
3.314786e+01
3.315990e+01
3.317019e+01
3.317833e+01
3.318408e+01
3.318746e+01
3.318713e+01
3.318402e+01
3.317920e+01
3.317336e+01
3.316688e+01
3.316013e+01
3.315362e+01
3.314770e+01
3.314287e+01
3.313972e+01
3.313888e+01
3.314068e+01
3.314410e+01
3.314848e+01
3.315319e+01
3.315764e+01
3.316136e+01
3.316437e+01
3.316699e+01
3.316933e+01
3.317151e+01
3.317356e+01
3.317549e+01
3.317723e+01
3.317855e+01
3.317914e+01
3.317904e+01
3.317840e+01
3.317736e+01
3.317608e+01
3.317469e+01
3.317333e+01
3.317218e+01
3.317130e+01
3.317076e+01
3.317059e+01
3.317080e+01
3.317143e+01
3.317094e+01
3.354505e+01
3.354553e+01
3.356612e+01
3.359131e+01
3.362788e+01
3.368625e+01
3.378339e+01
3.391449e+01
3.392950e+01
0.000000e+00
3.274656e+01
3.274704e+01
3.273856e+01
3.273101e+01
3.272433e+01
3.271880e+01
3.271450e+01
3.270317e+01
3.268707e+01
3.267726e+01
3.268301e+01
3.270717e+01
3.274302e+01
3.277961e+01
3.281578e+01
3.284303e+01
3.286397e+01
3.288006e+01
3.289400e+01
3.290730e+01
3.292265e+01
3.294112e+01
3.296239e+01
3.298502e+01
3.300693e+01
3.302529e+01
3.304807e+01
3.307119e+01
3.308605e+01
3.309285e+01
3.309768e+01
3.310255e+01
3.310711e+01
3.311154e+01
3.311606e+01
3.311975e+01
3.311981e+01
3.311487e+01
3.310676e+01
3.309956e+01
3.309621e+01
3.309731e+01
3.310179e+01
3.310881e+01
3.311722e+01
3.312580e+01
3.313404e+01
3.314256e+01
3.315068e+01
3.315784e+01
3.316357e+01
3.316764e+01
3.317006e+01
3.317020e+01
3.316890e+01
3.316677e+01
3.316418e+01
3.316120e+01
3.315800e+01
3.315477e+01
3.315178e+01
3.314947e+01
3.314835e+01
3.314885e+01
3.315088e+01
3.315352e+01
3.315628e+01
3.315873e+01
3.316057e+01
3.316172e+01
3.316250e+01
3.316318e+01
3.316393e+01
3.316484e+01
3.316587e+01
3.316695e+01
3.316803e+01
3.316904e+01
3.316984e+01
3.317035e+01
3.317058e+01
3.317055e+01
3.317032e+01
3.316993e+01
3.316949e+01
3.316908e+01
3.316873e+01
3.316845e+01
3.316823e+01
3.316796e+01
3.316696e+01
3.316648e+01
3.354590e+01
3.354638e+01
3.356961e+01
3.359766e+01
3.363681e+01
3.369441e+01
3.377803e+01
3.387671e+01
3.394548e+01
3.394500e+01
0.000000e+00
3.272847e+01
3.272895e+01
3.271490e+01
3.269773e+01
3.267962e+01
3.265985e+01
3.263754e+01
3.262320e+01
3.262747e+01
3.265409e+01
3.269891e+01
3.275164e+01
3.280208e+01
3.284481e+01
3.287647e+01
3.290083e+01
3.291751e+01
3.292968e+01
3.293793e+01
3.294613e+01
3.295586e+01
3.296692e+01
3.297801e+01
3.298739e+01
3.299504e+01
3.300220e+01
3.300773e+01
3.301360e+01
3.302350e+01
3.304226e+01
3.306336e+01
3.308296e+01
3.309977e+01
3.311419e+01
3.312661e+01
3.313544e+01
3.313865e+01
3.313637e+01
3.313116e+01
3.312653e+01
3.312426e+01
3.312412e+01
3.312567e+01
3.312822e+01
3.313100e+01
3.313360e+01
3.313658e+01
3.313956e+01
3.314222e+01
3.314436e+01
3.314593e+01
3.314740e+01
3.314908e+01
3.315108e+01
3.315323e+01
3.315526e+01
3.315688e+01
3.315793e+01
3.315843e+01
3.315860e+01
3.315881e+01
3.315944e+01
3.316060e+01
3.316206e+01
3.316325e+01
3.316382e+01
3.316362e+01
3.316284e+01
3.316166e+01
3.316029e+01
3.315901e+01
3.315799e+01
3.315731e+01
3.315695e+01
3.315686e+01
3.315698e+01
3.315771e+01
3.315896e+01
3.316052e+01
3.316214e+01
3.316363e+01
3.316487e+01
3.316582e+01
3.316651e+01
3.316698e+01
3.316723e+01
3.316725e+01
3.316699e+01
3.316628e+01
3.316408e+01
3.316360e+01
3.354598e+01
3.354646e+01
3.356899e+01
3.359530e+01
3.363028e+01
3.367847e+01
3.373984e+01
3.379313e+01
3.381753e+01
3.356248e+01
3.356200e+01
0.000000e+00
3.270522e+01
3.268244e+01
3.266798e+01
3.264338e+01
3.261261e+01
3.257898e+01
3.256243e+01
3.257661e+01
3.262044e+01
3.268525e+01
3.275818e+01
3.282812e+01
3.288745e+01
3.293124e+01
3.296074e+01
3.297906e+01
3.298906e+01
3.299189e+01
3.299294e+01
3.299347e+01
3.299283e+01
3.298950e+01
3.298313e+01
3.297263e+01
3.295939e+01
3.294681e+01
3.294321e+01
3.296380e+01
3.299843e+01
3.303591e+01
3.306970e+01
3.309744e+01
3.311945e+01
3.313777e+01
3.315242e+01
3.316156e+01
3.316405e+01
3.316129e+01
3.315615e+01
3.315111e+01
3.314681e+01
3.314318e+01
3.313988e+01
3.313651e+01
3.313288e+01
3.312928e+01
3.312577e+01
3.312257e+01
3.312014e+01
3.311896e+01
3.312050e+01
3.312539e+01
3.313246e+01
3.314034e+01
3.314800e+01
3.315464e+01
3.316003e+01
3.316427e+01
3.316751e+01
3.316996e+01
3.317169e+01
3.317254e+01
3.317270e+01
3.317195e+01
3.317023e+01
3.316772e+01
3.316473e+01
3.316153e+01
3.315818e+01
3.315498e+01
3.315211e+01
3.314967e+01
3.314770e+01
3.314620e+01
3.314515e+01
3.314568e+01
3.314761e+01
3.315052e+01
3.315387e+01
3.315720e+01
3.316020e+01
3.316263e+01
3.316449e+01
3.316581e+01
3.316662e+01
3.316687e+01
3.316649e+01
3.316531e+01
3.316230e+01
3.316182e+01
3.354547e+01
3.354595e+01
3.356529e+01
3.358697e+01
3.361330e+01
3.364418e+01
3.367234e+01
3.367569e+01
3.361149e+01
3.348736e+01
3.306530e+01
3.275448e+01
3.262228e+01
3.267183e+01
3.265269e+01
3.262342e+01
3.258828e+01
3.255060e+01
3.254031e+01
3.256471e+01
3.262070e+01
3.269798e+01
3.278286e+01
3.286349e+01
3.293411e+01
3.298862e+01
3.302779e+01
3.305494e+01
3.306886e+01
3.306566e+01
3.305729e+01
3.304463e+01
3.302779e+01
3.300787e+01
3.298644e+01
3.295706e+01
3.292379e+01
3.289397e+01
3.289062e+01
3.292292e+01
3.297212e+01
3.302333e+01
3.306827e+01
3.310312e+01
3.313017e+01
3.315198e+01
3.316975e+01
3.318261e+01
3.318882e+01
3.318838e+01
3.318330e+01
3.317653e+01
3.316888e+01
3.316058e+01
3.315161e+01
3.314204e+01
3.313206e+01
3.312168e+01
3.311152e+01
3.310242e+01
3.309534e+01
3.309094e+01
3.309331e+01
3.310230e+01
3.311532e+01
3.312967e+01
3.314335e+01
3.315486e+01
3.316418e+01
3.317156e+01
3.317719e+01
3.318111e+01
3.318315e+01
3.318330e+01
3.318215e+01
3.317968e+01
3.317605e+01
3.317156e+01
3.316664e+01
3.316160e+01
3.315639e+01
3.315128e+01
3.314651e+01
3.314221e+01
3.313853e+01
3.313554e+01
3.313328e+01
3.313370e+01
3.313647e+01
3.314092e+01
3.314623e+01
3.315164e+01
3.315655e+01
3.316046e+01
3.316340e+01
3.316545e+01
3.316663e+01
3.316694e+01
3.316630e+01
3.316462e+01
3.316103e+01
3.316054e+01
3.354473e+01
3.354521e+01
3.355953e+01
3.357440e+01
3.358991e+01
3.360301e+01
3.360424e+01
3.357348e+01
3.347387e+01
3.329611e+01
3.301709e+01
3.244461e+01
3.257368e+01
3.262652e+01
3.263580e+01
3.261706e+01
3.258207e+01
3.255463e+01
3.255563e+01
3.258935e+01
3.265122e+01
3.273135e+01
3.281696e+01
3.289806e+01
3.296919e+01
3.302879e+01
3.307336e+01
3.310668e+01
3.312808e+01
3.312251e+01
3.310566e+01
3.308270e+01
3.305489e+01
3.302418e+01
3.299027e+01
3.294535e+01
3.289507e+01
3.285471e+01
3.286138e+01
3.290526e+01
3.296561e+01
3.302618e+01
3.307652e+01
3.311513e+01
3.314469e+01
3.316787e+01
3.318655e+01
3.320095e+01
3.320966e+01
3.321151e+01
3.320724e+01
3.319949e+01
3.318914e+01
3.317675e+01
3.316270e+01
3.314756e+01
3.313180e+01
3.311508e+01
3.309854e+01
3.308363e+01
3.307181e+01
3.306425e+01
3.306839e+01
3.308214e+01
3.310150e+01
3.312244e+01
3.314180e+01
3.315754e+01
3.317001e+01
3.317968e+01
3.318683e+01
3.319149e+01
3.319344e+01
3.319293e+01
3.319070e+01
3.318687e+01
3.318170e+01
3.317555e+01
3.316891e+01
3.316217e+01
3.315517e+01
3.314819e+01
3.314150e+01
3.313534e+01
3.312994e+01
3.312548e+01
3.312221e+01
3.312263e+01
3.312631e+01
3.313237e+01
3.313969e+01
3.314721e+01
3.315395e+01
3.315923e+01
3.316310e+01
3.316567e+01
3.316703e+01
3.316721e+01
3.316622e+01
3.316405e+01
3.315990e+01
3.315942e+01
3.354375e+01
3.354423e+01
3.355279e+01
3.356047e+01
3.356596e+01
3.356521e+01
3.354971e+01
3.350467e+01
3.340736e+01
3.323877e+01
3.301349e+01
3.271069e+01
3.267451e+01
3.267133e+01
3.266286e+01
3.264227e+01
3.261216e+01
3.259537e+01
3.260347e+01
3.263900e+01
3.269761e+01
3.277182e+01
3.284582e+01
3.291344e+01
3.297259e+01
3.302346e+01
3.307094e+01
3.311426e+01
3.313796e+01
3.313588e+01
3.312207e+01
3.310013e+01
3.306964e+01
3.303384e+01
3.299156e+01
3.293639e+01
3.287541e+01
3.284089e+01
3.285846e+01
3.291127e+01
3.297765e+01
3.304142e+01
3.309232e+01
3.313143e+01
3.316118e+01
3.318412e+01
3.320221e+01
3.321634e+01
3.322587e+01
3.322918e+01
3.322659e+01
3.321899e+01
3.320714e+01
3.319175e+01
3.317361e+01
3.315379e+01
3.313292e+01
3.311049e+01
3.308810e+01
3.306772e+01
3.305128e+01
3.304210e+01
3.304852e+01
3.306714e+01
3.309256e+01
3.311953e+01
3.314347e+01
3.316247e+01
3.317709e+01
3.318807e+01
3.319592e+01
3.320075e+01
3.320246e+01
3.320150e+01
3.319855e+01
3.319378e+01
3.318747e+01
3.318001e+01
3.317186e+01
3.316351e+01
3.315482e+01
3.314603e+01
3.313746e+01
3.312948e+01
3.312246e+01
3.311672e+01
3.311269e+01
3.311324e+01
3.311784e+01
3.312541e+01
3.313459e+01
3.314405e+01
3.315238e+01
3.315883e+01
3.316341e+01
3.316628e+01
3.316762e+01
3.316754e+01
3.316612e+01
3.316347e+01
3.315870e+01
3.315822e+01
3.354281e+01
3.354329e+01
3.354624e+01
3.354742e+01
3.354486e+01
3.353466e+01
3.351025e+01
3.346193e+01
3.337692e+01
3.324204e+01
3.306134e+01
3.285829e+01
3.277244e+01
3.273254e+01
3.270555e+01
3.268007e+01
3.265549e+01
3.264549e+01
3.265680e+01
3.269050e+01
3.274280e+01
3.280624e+01
3.286940e+01
3.292881e+01
3.298302e+01
3.303171e+01
3.307380e+01
3.310567e+01
3.312102e+01
3.312228e+01
3.311376e+01
3.309496e+01
3.306710e+01
3.303409e+01
3.299121e+01
3.293412e+01
3.287370e+01
3.285424e+01
3.288117e+01
3.293765e+01
3.300390e+01
3.306429e+01
3.311258e+01
3.314974e+01
3.317797e+01
3.319956e+01
3.321634e+01
3.322928e+01
3.323822e+01
3.324199e+01
3.324076e+01
3.323416e+01
3.322224e+01
3.320545e+01
3.318464e+01
3.316125e+01
3.313614e+01
3.310877e+01
3.308124e+01
3.305609e+01
3.303591e+01
3.302662e+01
3.303578e+01
3.305895e+01
3.308950e+01
3.312122e+01
3.314832e+01
3.316935e+01
3.318505e+01
3.319642e+01
3.320424e+01
3.320885e+01
3.321030e+01
3.320910e+01
3.320576e+01
3.320046e+01
3.319344e+01
3.318505e+01
3.317570e+01
3.316586e+01
3.315560e+01
3.314508e+01
3.313472e+01
3.312501e+01
3.311650e+01
3.310971e+01
3.310525e+01
3.310606e+01
3.311152e+01
3.312041e+01
3.313113e+01
3.314215e+01
3.315175e+01
3.315909e+01
3.316415e+01
3.316714e+01
3.316830e+01
3.316786e+01
3.316599e+01
3.316286e+01
3.315743e+01
3.315695e+01
3.354212e+01
3.354260e+01
3.354060e+01
3.353639e+01
3.352782e+01
3.351148e+01
3.348252e+01
3.343462e+01
3.336046e+01
3.325224e+01
3.310898e+01
3.295039e+01
3.285077e+01
3.279052e+01
3.274963e+01
3.271885e+01
3.269706e+01
3.269056e+01
3.270287e+01
3.273364e+01
3.277914e+01
3.283288e+01
3.288754e+01
3.294001e+01
3.298870e+01
3.303218e+01
3.306756e+01
3.309218e+01
3.310437e+01
3.310571e+01
3.309799e+01
3.308153e+01
3.305745e+01
3.302917e+01
3.298922e+01
3.293805e+01
3.289316e+01
3.288708e+01
3.291915e+01
3.297417e+01
3.303538e+01
3.308980e+01
3.313377e+01
3.316779e+01
3.319366e+01
3.321337e+01
3.322855e+01
3.324003e+01
3.324775e+01
3.325144e+01
3.325077e+01
3.324526e+01
3.323428e+01
3.321761e+01
3.319574e+01
3.317006e+01
3.314168e+01
3.311028e+01
3.307849e+01
3.304957e+01
3.302705e+01
3.301900e+01
3.303111e+01
3.305813e+01
3.309246e+01
3.312720e+01
3.315594e+01
3.317779e+01
3.319359e+01
3.320460e+01
3.321185e+01
3.321594e+01
3.321712e+01
3.321581e+01
3.321234e+01
3.320683e+01
3.319949e+01
3.319055e+01
3.318034e+01
3.316928e+01
3.315761e+01
3.314548e+01
3.313342e+01
3.312209e+01
3.311223e+01
3.310462e+01
3.310004e+01
3.310120e+01
3.310744e+01
3.311740e+01
3.312929e+01
3.314143e+01
3.315191e+01
3.315986e+01
3.316523e+01
3.316820e+01
3.316909e+01
3.316823e+01
3.316588e+01
3.316228e+01
3.315622e+01
3.315574e+01
3.354171e+01
3.354218e+01
3.353618e+01
3.352779e+01
3.351491e+01
3.349462e+01
3.346323e+01
3.341639e+01
3.334951e+01
3.325813e+01
3.314126e+01
3.301175e+01
3.291048e+01
3.283852e+01
3.278800e+01
3.275273e+01
3.273145e+01
3.272632e+01
3.273849e+01
3.276647e+01
3.280649e+01
3.285322e+01
3.290154e+01
3.294851e+01
3.299220e+01
3.303069e+01
3.306143e+01
3.308268e+01
3.309375e+01
3.309521e+01
3.308788e+01
3.307237e+01
3.304990e+01
3.302199e+01
3.298512e+01
3.294332e+01
3.291563e+01
3.292087e+01
3.295626e+01
3.300843e+01
3.306373e+01
3.311276e+01
3.315266e+01
3.318364e+01
3.320720e+01
3.322509e+01
3.323870e+01
3.324886e+01
3.325572e+01
3.325906e+01
3.325872e+01
3.325411e+01
3.324432e+01
3.322860e+01
3.320685e+01
3.317998e+01
3.314921e+01
3.311465e+01
3.307948e+01
3.304787e+01
3.302464e+01
3.301881e+01
3.303379e+01
3.306371e+01
3.310034e+01
3.313636e+01
3.316552e+01
3.318726e+01
3.320248e+01
3.321261e+01
3.321893e+01
3.322230e+01
3.322317e+01
3.322177e+01
3.321826e+01
3.321275e+01
3.320534e+01
3.319618e+01
3.318547e+01
3.317352e+01
3.316066e+01
3.314710e+01
3.313348e+01
3.312061e+01
3.310951e+01
3.310123e+01
3.309679e+01
3.309836e+01
3.310529e+01
3.311609e+01
3.312883e+01
3.314168e+01
3.315270e+01
3.316104e+01
3.316657e+01
3.316947e+01
3.317007e+01
3.316876e+01
3.316592e+01
3.316184e+01
3.315527e+01
3.315479e+01
3.354154e+01
3.354201e+01
3.353302e+01
3.352160e+01
3.350578e+01
3.348300e+01
3.345027e+01
3.340432e+01
3.334196e+01
3.326054e+01
3.316000e+01
3.304916e+01
3.295184e+01
3.287545e+01
3.281913e+01
3.278045e+01
3.275853e+01
3.275345e+01
3.276472e+01
3.279013e+01
3.282599e+01
3.286787e+01
3.291169e+01
3.295454e+01
3.299435e+01
3.302917e+01
3.305702e+01
3.307656e+01
3.308720e+01
3.308898e+01
3.308216e+01
3.306712e+01
3.304474e+01
3.301579e+01
3.298065e+01
3.294742e+01
3.293280e+01
3.294652e+01
3.298430e+01
3.303433e+01
3.308523e+01
3.313030e+01
3.316706e+01
3.319564e+01
3.321735e+01
3.323379e+01
3.324631e+01
3.325576e+01
3.326233e+01
3.326570e+01
3.326585e+01
3.326216e+01
3.325361e+01
3.323911e+01
3.321803e+01
3.319063e+01
3.315795e+01
3.312074e+01
3.308273e+01
3.304919e+01
3.302655e+01
3.302335e+01
3.304087e+01
3.307284e+01
3.311066e+01
3.314671e+01
3.317566e+01
3.319693e+01
3.321136e+01
3.322043e+01
3.322566e+01
3.322818e+01
3.322868e+01
3.322707e+01
3.322350e+01
3.321803e+01
3.321068e+01
3.320150e+01
3.319056e+01
3.317805e+01
3.316427e+01
3.314952e+01
3.313451e+01
3.312024e+01
3.310797e+01
3.309910e+01
3.309492e+01
3.309692e+01
3.310446e+01
3.311593e+01
3.312929e+01
3.314254e+01
3.315388e+01
3.316246e+01
3.316811e+01
3.317095e+01
3.317131e+01
3.316961e+01
3.316628e+01
3.316169e+01
3.315471e+01
3.315423e+01
3.354151e+01
3.354199e+01
3.353102e+01
3.351767e+01
3.350003e+01
3.347580e+01
3.344239e+01
3.339711e+01
3.333744e+01
3.326164e+01
3.317032e+01
3.307028e+01
3.297698e+01
3.289936e+01
3.284022e+01
3.279953e+01
3.277686e+01
3.277140e+01
3.278177e+01
3.280535e+01
3.283852e+01
3.287733e+01
3.291819e+01
3.295832e+01
3.299556e+01
3.302803e+01
3.305419e+01
3.307282e+01
3.308331e+01
3.308539e+01
3.307902e+01
3.306426e+01
3.304139e+01
3.301122e+01
3.297728e+01
3.295054e+01
3.294457e+01
3.296393e+01
3.300289e+01
3.305109e+01
3.309918e+01
3.314175e+01
3.317655e+01
3.320361e+01
3.322409e+01
3.323951e+01
3.325121e+01
3.326016e+01
3.326677e+01
3.327072e+01
3.327182e+01
3.326926e+01
3.326195e+01
3.324869e+01
3.322847e+01
3.320092e+01
3.316664e+01
3.312702e+01
3.308630e+01
3.305106e+01
3.302939e+01
3.302843e+01
3.304792e+01
3.308125e+01
3.311967e+01
3.315553e+01
3.318428e+01
3.320496e+01
3.321846e+01
3.322646e+01
3.323066e+01
3.323240e+01
3.323255e+01
3.323080e+01
3.322730e+01
3.322202e+01
3.321491e+01
3.320590e+01
3.319497e+01
3.318217e+01
3.316773e+01
3.315206e+01
3.313592e+01
3.312044e+01
3.310714e+01
3.309772e+01
3.309379e+01
3.309616e+01
3.310418e+01
3.311618e+01
3.312999e+01
3.314350e+01
3.315505e+01
3.316382e+01
3.316951e+01
3.317226e+01
3.317243e+01
3.317045e+01
3.316674e+01
3.316167e+01
3.315426e+01
3.315378e+01
3.354156e+01
3.354203e+01
3.353009e+01
3.351580e+01
3.349734e+01
3.347250e+01
3.343891e+01
3.339410e+01
3.333584e+01
3.326273e+01
3.317563e+01
3.308048e+01
3.298931e+01
3.291136e+01
3.285098e+01
3.280932e+01
3.278614e+01
3.278035e+01
3.279014e+01
3.281274e+01
3.284455e+01
3.288182e+01
3.292120e+01
3.295995e+01
3.299589e+01
3.302722e+01
3.305254e+01
3.307079e+01
3.308129e+01
3.308364e+01
3.307765e+01
3.306313e+01
3.303988e+01
3.300901e+01
3.297625e+01
3.295336e+01
3.295121e+01
3.297236e+01
3.301117e+01
3.305817e+01
3.310484e+01
3.314634e+01
3.318041e+01
3.320699e+01
3.322711e+01
3.324220e+01
3.325360e+01
3.326231e+01
3.326882e+01
3.327315e+01
3.327497e+01
3.327341e+01
3.326728e+01
3.325521e+01
3.323598e+01
3.320872e+01
3.317336e+01
3.313160e+01
3.308825e+01
3.305121e+01
3.302971e+01
3.302975e+01
3.305035e+01
3.308471e+01
3.312358e+01
3.315935e+01
3.318805e+01
3.320865e+01
3.322198e+01
3.322967e+01
3.323351e+01
3.323489e+01
3.323458e+01
3.323272e+01
3.322930e+01
3.322424e+01
3.321739e+01
3.320860e+01
3.319781e+01
3.318499e+01
3.317027e+01
3.315409e+01
3.313720e+01
3.312084e+01
3.310676e+01
3.309693e+01
3.309301e+01
3.309556e+01
3.310388e+01
3.311618e+01
3.313021e+01
3.314379e+01
3.315538e+01
3.316419e+01
3.316992e+01
3.317270e+01
3.317287e+01
3.317082e+01
3.316697e+01
3.316163e+01
3.315327e+01
3.315279e+01
0.000000e+00
3.354156e+01
3.352961e+01
3.351532e+01
3.349686e+01
3.347202e+01
3.343843e+01
3.339362e+01
3.333536e+01
3.326226e+01
3.317515e+01
3.308000e+01
3.298883e+01
3.291088e+01
3.285050e+01
3.280884e+01
3.278566e+01
3.277987e+01
3.278966e+01
3.281226e+01
3.284407e+01
3.288134e+01
3.292073e+01
3.295947e+01
3.299541e+01
3.302675e+01
3.305206e+01
3.307031e+01
3.308081e+01
3.308317e+01
3.307717e+01
3.306265e+01
3.303940e+01
3.300854e+01
3.297577e+01
3.295288e+01
3.295073e+01
3.297188e+01
3.301069e+01
3.305769e+01
3.310436e+01
3.314586e+01
3.317993e+01
3.320651e+01
3.322663e+01
3.324172e+01
3.325312e+01
3.326183e+01
3.326834e+01
3.327267e+01
3.327449e+01
3.327293e+01
3.326680e+01
3.325473e+01
3.323550e+01
3.320824e+01
3.317288e+01
3.313112e+01
3.308777e+01
3.305073e+01
3.302923e+01