# vtk DataFile Version 3.0
Scalar Field
ASCII
DATASET RECTILINEAR_GRID
DIMENSIONS 102 22 1
X_COORDINATES 102 double
0.000000 0.100000 0.200000 0.300000 0.400000 0.500000 0.600000 0.700000 0.800000 0.900000 1.000000 1.100000 1.200000 1.300000 1.400000 1.500000 1.600000 1.700000 1.800000 1.900000 2.000000 2.100000 2.200000 2.300000 2.400000 2.500000 2.600000 2.700000 2.800000 2.900000 3.000000 3.100000 3.200000 3.300000 3.400000 3.500000 3.600000 3.700000 3.800000 3.900000 4.000000 4.100000 4.200000 4.300000 4.400000 4.500000 4.600000 4.700000 4.800000 4.900000 5.000000 5.100000 5.200000 5.300000 5.400000 5.500000 5.600000 5.700000 5.800000 5.900000 6.000000 6.100000 6.200000 6.300000 6.400000 6.500000 6.600000 6.700000 6.800000 6.900000 7.000000 7.100000 7.200000 7.300000 7.400000 7.500000 7.600000 7.700000 7.800000 7.900000 8.000000 8.100000 8.200000 8.300000 8.400000 8.500000 8.600000 8.700000 8.800000 8.900000 9.000000 9.100000 9.200000 9.300000 9.400000 9.500000 9.600000 9.700000 9.800000 9.900000 10.000000 10.100000 
Y_COORDINATES 22 double
0.000000 0.100000 0.200000 0.300000 0.400000 0.500000 0.600000 0.700000 0.800000 0.900000 1.000000 1.100000 1.200000 1.300000 1.400000 1.500000 1.600000 1.700000 1.800000 1.900000 2.000000 2.100000 
Z_COORDINATES 1 double
0.0
POINT_DATA 2244
SCALARS Pressure double 1
LOOKUP_TABLE default
0.000000e+00
5.939242e+01
5.936522e+01
5.933456e+01
5.929694e+01
5.924841e+01
5.918496e+01
5.910442e+01
5.900440e+01
5.890196e+01
5.881059e+01
5.873439e+01
5.867220e+01
5.862179e+01
5.858182e+01
5.855213e+01
5.853293e+01
5.852378e+01
5.852352e+01
5.853067e+01
5.854385e+01
5.856191e+01
5.858405e+01
5.860979e+01
5.863884e+01
5.867099e+01
5.870596e+01
5.874332e+01
5.878252e+01
5.882291e+01
5.886367e+01
5.890379e+01
5.894215e+01
5.897793e+01
5.901075e+01
5.904041e+01
5.906687e+01
5.908547e+01
5.908793e+01
5.906495e+01
5.901158e+01
5.893484e+01
5.885297e+01
5.878831e+01
5.875525e+01
5.875118e+01
5.876826e+01
5.879905e+01
5.883699e+01
5.887686e+01
5.891489e+01
5.894814e+01
5.897464e+01
5.899367e+01
5.900584e+01
5.901270e+01
5.901605e+01
5.901717e+01
5.901732e+01
5.901697e+01
5.901541e+01
5.901184e+01
5.900558e+01
5.899615e+01
5.898344e+01
5.896771e+01
5.894968e+01
5.893042e+01
5.891126e+01
5.889364e+01
5.887893e+01
5.886830e+01
5.886246e+01
5.886163e+01
5.886540e+01
5.887339e+01
5.888525e+01
5.890035e+01
5.891764e+01
5.893547e+01
5.895177e+01
5.896455e+01
5.897262e+01
5.897633e+01
5.897697e+01
5.897596e+01
5.897428e+01
5.897256e+01
5.897107e+01
5.896960e+01
5.896794e+01
5.896592e+01
5.896346e+01
5.896058e+01
5.895745e+01
5.895441e+01
5.895193e+01
5.895064e+01
5.895138e+01
5.895525e+01
5.896912e+01
0.000000e+00
5.939242e+01
5.939264e+01
5.936544e+01
5.933478e+01
5.929715e+01
5.924863e+01
5.918518e+01
5.910463e+01
5.900461e+01
5.890218e+01
5.881081e+01
5.873461e+01
5.867241e+01
5.862200e+01
5.858203e+01
5.855235e+01
5.853314e+01
5.852400e+01
5.852373e+01
5.853088e+01
5.854406e+01
5.856212e+01
5.858426e+01
5.861000e+01
5.863906e+01
5.867121e+01
5.870617e+01
5.874353e+01
5.878274e+01
5.882312e+01
5.886388e+01
5.890400e+01
5.894236e+01
5.897814e+01
5.901096e+01
5.904062e+01
5.906708e+01
5.908569e+01
5.908814e+01
5.906516e+01
5.901180e+01
5.893505e+01
5.885318e+01
5.878853e+01
5.875547e+01
5.875139e+01
5.876847e+01
5.879927e+01
5.883720e+01
5.887708e+01
5.891510e+01
5.894835e+01
5.897486e+01
5.899389e+01
5.900605e+01
5.901291e+01
5.901626e+01
5.901738e+01
5.901753e+01
5.901719e+01
5.901563e+01
5.901206e+01
5.900579e+01
5.899636e+01
5.898365e+01
5.896792e+01
5.894990e+01
5.893064e+01
5.891148e+01
5.889385e+01
5.887915e+01
5.886851e+01
5.886267e+01
5.886184e+01
5.886561e+01
5.887360e+01
5.888546e+01
5.890057e+01
5.891785e+01
5.893568e+01
5.895199e+01
5.896476e+01
5.897284e+01
5.897654e+01
5.897718e+01
5.897618e+01
5.897450e+01
5.897277e+01
5.897128e+01
5.896981e+01
5.896815e+01
5.896614e+01
5.896368e+01
5.896079e+01
5.895767e+01
5.895462e+01
5.895214e+01
5.895085e+01
5.895159e+01
5.895546e+01
5.896934e+01
5.896912e+01
5.939098e+01
5.939119e+01
5.936544e+01
5.933600e+01
5.929910e+01
5.925037e+01
5.918507e+01
5.910076e+01
5.899173e+01
5.888546e+01
5.879555e+01
5.872285e+01
5.866395e+01
5.861585e+01
5.857713e+01
5.854795e+01
5.852907e+01
5.852034e+01
5.852049e+01
5.852803e+01
5.854149e+01
5.855969e+01
5.858182e+01
5.860739e+01
5.863618e+01
5.866802e+01
5.870268e+01
5.873978e+01
5.877876e+01
5.881893e+01
5.885948e+01
5.889943e+01
5.893754e+01
5.897287e+01
5.900495e+01
5.903367e+01
5.905794e+01
5.907345e+01
5.907437e+01
5.905225e+01
5.900073e+01
5.892760e+01
5.884993e+01
5.878714e+01
5.875329e+01
5.874874e+01
5.876409e+01
5.879283e+01
5.882908e+01
5.886801e+01
5.890583e+01
5.893957e+01
5.896707e+01
5.898741e+01
5.900095e+01
5.900901e+01
5.901327e+01
5.901510e+01
5.901542e+01
5.901480e+01
5.901272e+01
5.900859e+01
5.900186e+01
5.899216e+01
5.897943e+01
5.896394e+01
5.894637e+01
5.892772e+01
5.890924e+01
5.889231e+01
5.887824e+01
5.886812e+01
5.886269e+01
5.886237e+01
5.886664e+01
5.887511e+01
5.888743e+01
5.890281e+01
5.891985e+01
5.893657e+01
5.895094e+01
5.896173e+01
5.896852e+01
5.897182e+01
5.897266e+01
5.897218e+01
5.897119e+01
5.897011e+01
5.896901e+01
5.896774e+01
5.896619e+01
5.896422e+01
5.896180e+01
5.895895e+01
5.895584e+01
5.895277e+01
5.895022e+01
5.894878e+01
5.894925e+01
5.895264e+01
5.896492e+01
5.896471e+01
5.938859e+01
5.938881e+01
5.936610e+01
5.933939e+01
5.930448e+01
5.925593e+01
5.918721e+01
5.909439e+01
5.896417e+01
5.885138e+01
5.876615e+01
5.870110e+01
5.864867e+01
5.860475e+01
5.856813e+01
5.853969e+01
5.852125e+01
5.851332e+01
5.851425e+01
5.852249e+01
5.853647e+01
5.855490e+01
5.857691e+01
5.860207e+01
5.863021e+01
5.866128e+01
5.869517e+01
5.873158e+01
5.876999e+01
5.880968e+01
5.884979e+01
5.888937e+01
5.892715e+01
5.896200e+01
5.899320e+01
5.902092e+01
5.904503e+01
5.906057e+01
5.906127e+01
5.904028e+01
5.899037e+01
5.891810e+01
5.884279e+01
5.878189e+01
5.874755e+01
5.874296e+01
5.875633e+01
5.878231e+01
5.881597e+01
5.885289e+01
5.888942e+01
5.892284e+01
5.895141e+01
5.897389e+01
5.899005e+01
5.900054e+01
5.900674e+01
5.900996e+01
5.901110e+01
5.901054e+01
5.900808e+01
5.900337e+01
5.899620e+01
5.898634e+01
5.897370e+01
5.895851e+01
5.894151e+01
5.892365e+01
5.890609e+01
5.889010e+01
5.887693e+01
5.886762e+01
5.886295e+01
5.886360e+01
5.886862e+01
5.887766e+01
5.889023e+01
5.890525e+01
5.892103e+01
5.893556e+01
5.894723e+01
5.895588e+01
5.896135e+01
5.896425e+01
5.896550e+01
5.896584e+01
5.896573e+01
5.896546e+01
5.896497e+01
5.896412e+01
5.896284e+01
5.896105e+01
5.895874e+01
5.895597e+01
5.895285e+01
5.894967e+01
5.894692e+01
5.894512e+01
5.894497e+01
5.894733e+01
5.895678e+01
5.895656e+01
5.938568e+01
5.938590e+01
5.936791e+01
5.934571e+01
5.931452e+01
5.926700e+01
5.919283e+01
5.908271e+01
5.891280e+01
5.879618e+01
5.872372e+01
5.867131e+01
5.862814e+01
5.858983e+01
5.855565e+01
5.852763e+01
5.850928e+01
5.850258e+01
5.850475e+01
5.851414e+01
5.852898e+01
5.854781e+01
5.856971e+01
5.859427e+01
5.862144e+01
5.865135e+01
5.868404e+01
5.871939e+01
5.875694e+01
5.879594e+01
5.883546e+01
5.887452e+01
5.891207e+01
5.894688e+01
5.897810e+01
5.900619e+01
5.903209e+01
5.904843e+01
5.904693e+01
5.902496e+01
5.897972e+01
5.891135e+01
5.884009e+01
5.878131e+01
5.874678e+01
5.873977e+01
5.875193e+01
5.877481e+01
5.880499e+01
5.883886e+01
5.887313e+01
5.890507e+01
5.893359e+01
5.895723e+01
5.897535e+01
5.898830e+01
5.899680e+01
5.900181e+01
5.900425e+01
5.900427e+01
5.900176e+01
5.899684e+01
5.898943e+01
5.897950e+01
5.896709e+01
5.895241e+01
5.893626e+01
5.891952e+01
5.890321e+01
5.888851e+01
5.887655e+01
5.886836e+01
5.886486e+01
5.886679e+01
5.887263e+01
5.888212e+01
5.889446e+01
5.890833e+01
5.892197e+01
5.893365e+01
5.894281e+01
5.894955e+01
5.895397e+01
5.895663e+01
5.895817e+01
5.895907e+01
5.895958e+01
5.895986e+01
5.895984e+01
5.895932e+01
5.895828e+01
5.895669e+01
5.895457e+01
5.895194e+01
5.894891e+01
5.894569e+01
5.894275e+01
5.894054e+01
5.893964e+01
5.894072e+01
5.894692e+01
5.894671e+01
5.938273e+01
5.938294e+01
5.937143e+01
5.935591e+01
5.933121e+01
5.928734e+01
5.920632e+01
5.906216e+01
5.882378e+01
5.871790e+01
5.867085e+01
5.863714e+01
5.860579e+01
5.857389e+01
5.854161e+01
5.851272e+01
5.849298e+01
5.848766e+01
5.849173e+01
5.850298e+01
5.851927e+01
5.853886e+01
5.856071e+01
5.858450e+01
5.861035e+01
5.863862e+01
5.866963e+01
5.870345e+01
5.873981e+01
5.877800e+01
5.881694e+01
5.885556e+01
5.889338e+01
5.892961e+01
5.896338e+01
5.899361e+01
5.901874e+01
5.903471e+01
5.902698e+01
5.900100e+01
5.896064e+01
5.890511e+01
5.884412e+01
5.879108e+01
5.875691e+01
5.874659e+01
5.875612e+01
5.877514e+01
5.880104e+01
5.883092e+01
5.886189e+01
5.889130e+01
5.891838e+01
5.894207e+01
5.896125e+01
5.897567e+01
5.898574e+01
5.899222e+01
5.899591e+01
5.899680e+01
5.899439e+01
5.898921e+01
5.898159e+01
5.897176e+01
5.895986e+01
5.894610e+01
5.893122e+01
5.891602e+01
5.890139e+01
5.888835e+01
5.887796e+01
5.887128e+01
5.886942e+01
5.887250e+01
5.887904e+01
5.888851e+01
5.889991e+01
5.891185e+01
5.892279e+01
5.893156e+01
5.893855e+01
5.894367e+01
5.894721e+01
5.894960e+01
5.895125e+01
5.895240e+01
5.895318e+01
5.895365e+01
5.895386e+01
5.895353e+01
5.895268e+01
5.895132e+01
5.894944e+01
5.894706e+01
5.894423e+01
5.894109e+01
5.893804e+01
5.893546e+01
5.893379e+01
5.893353e+01
5.893655e+01
5.893634e+01
5.938016e+01
5.938038e+01
5.937693e+01
5.937063e+01
5.935696e+01
5.932397e+01
5.924162e+01
5.903736e+01
5.866814e+01
5.861216e+01
5.861439e+01
5.860490e+01
5.858697e+01
5.856221e+01
5.853107e+01
5.849899e+01
5.847513e+01
5.846752e+01
5.847516e+01
5.848954e+01
5.850839e+01
5.852942e+01
5.855149e+01
5.857440e+01
5.859855e+01
5.862464e+01
5.865333e+01
5.868504e+01
5.871973e+01
5.875686e+01
5.879527e+01
5.883349e+01
5.887167e+01
5.891025e+01
5.894962e+01
5.898391e+01
5.900754e+01
5.901355e+01
5.899579e+01
5.896799e+01
5.893546e+01
5.889616e+01
5.885114e+01
5.880875e+01
5.877791e+01
5.876483e+01
5.876993e+01
5.878466e+01
5.880564e+01
5.883071e+01
5.885746e+01
5.888345e+01
5.890765e+01
5.892992e+01
5.894884e+01
5.896377e+01
5.897473e+01
5.898216e+01
5.898659e+01
5.898788e+01
5.898532e+01
5.897987e+01
5.897228e+01
5.896298e+01
5.895215e+01
5.893991e+01
5.892693e+01
5.891383e+01
5.890136e+01
5.889041e+01
5.888198e+01
5.887716e+01
5.887711e+01
5.888106e+01
5.888774e+01
5.889644e+01
5.890612e+01
5.891551e+01
5.892349e+01
5.892982e+01
5.893483e+01
5.893856e+01
5.894130e+01
5.894333e+01
5.894483e+01
5.894592e+01
5.894665e+01
5.894706e+01
5.894719e+01
5.894691e+01
5.894618e+01
5.894503e+01
5.894345e+01
5.894143e+01
5.893897e+01
5.893610e+01
5.893310e+01
5.893028e+01
5.892795e+01
5.892644e+01
5.892660e+01
5.892638e+01
5.937815e+01
5.937836e+01
5.938391e+01
5.938905e+01
5.939226e+01
5.938515e+01
5.933427e+01
5.910166e+01
5.838142e+01
5.847015e+01
5.856814e+01
5.858082e+01
5.857418e+01
5.855851e+01
5.853040e+01
5.849451e+01
5.846299e+01
5.844956e+01
5.845614e+01
5.847593e+01
5.849940e+01
5.852300e+01
5.854581e+01
5.856786e+01
5.858992e+01
5.861312e+01
5.863857e+01
5.866712e+01
5.869910e+01
5.873431e+01
5.877187e+01
5.881026e+01
5.884801e+01
5.888267e+01
5.891897e+01
5.895571e+01
5.897564e+01
5.896985e+01
5.895137e+01
5.893023e+01
5.890965e+01
5.888720e+01
5.885979e+01
5.883061e+01
5.880605e+01
5.879244e+01
5.879270e+01
5.880249e+01
5.881804e+01
5.883769e+01
5.885943e+01
5.888112e+01
5.890134e+01
5.892080e+01
5.893807e+01
5.895229e+01
5.896318e+01
5.897078e+01
5.897529e+01
5.897642e+01
5.897359e+01
5.896821e+01
5.896125e+01
5.895322e+01
5.894425e+01
5.893432e+01
5.892393e+01
5.891352e+01
5.890370e+01
5.889527e+01
5.888916e+01
5.888642e+01
5.888794e+01
5.889207e+01
5.889810e+01
5.890524e+01
5.891253e+01
5.891910e+01
5.892431e+01
5.892849e+01
5.893176e+01
5.893427e+01
5.893622e+01
5.893773e+01
5.893887e+01
5.893964e+01
5.894008e+01
5.894021e+01
5.894009e+01
5.893970e+01
5.893900e+01
5.893804e+01
5.893680e+01
5.893524e+01
5.893329e+01
5.893090e+01
5.892816e+01
5.892530e+01
5.892248e+01
5.891990e+01
5.891763e+01
5.891741e+01
5.937648e+01
5.937670e+01
5.939079e+01
5.940757e+01
5.943055e+01
5.946322e+01
5.950508e+01
5.961915e+01
5.900007e+01
5.853639e+01
5.860306e+01
5.857472e+01
5.855871e+01
5.855015e+01
5.853392e+01
5.850269e+01
5.846594e+01
5.844762e+01
5.845057e+01
5.847110e+01
5.849824e+01
5.852566e+01
5.855010e+01
5.857170e+01
5.859155e+01
5.861110e+01
5.863197e+01
5.865541e+01
5.868210e+01
5.871189e+01
5.874365e+01
5.877532e+01
5.880428e+01
5.883411e+01
5.887363e+01
5.890412e+01
5.891409e+01
5.891059e+01
5.890286e+01
5.889488e+01
5.888813e+01
5.888151e+01
5.887109e+01
5.885527e+01
5.883816e+01
5.882573e+01
5.882222e+01
5.882683e+01
5.883666e+01
5.885045e+01
5.886652e+01
5.888308e+01
5.889849e+01
5.891393e+01
5.892819e+01
5.894039e+01
5.894998e+01
5.895668e+01
5.896053e+01
5.896110e+01
5.895842e+01
5.895395e+01
5.894864e+01
5.894289e+01
5.893670e+01
5.892992e+01
5.892280e+01
5.891559e+01
5.890882e+01
5.890320e+01
5.889956e+01
5.889878e+01
5.890091e+01
5.890458e+01
5.890921e+01
5.891415e+01
5.891875e+01
5.892253e+01
5.892536e+01
5.892758e+01
5.892931e+01
5.893069e+01
5.893179e+01
5.893264e+01
5.893321e+01
5.893349e+01
5.893349e+01
5.893324e+01
5.893280e+01
5.893220e+01
5.893145e+01
5.893063e+01
5.892974e+01
5.892870e+01
5.892738e+01
5.892565e+01
5.892342e+01
5.892074e+01
5.891764e+01
5.891415e+01
5.890973e+01
5.890952e+01
5.937467e+01
5.937488e+01
5.939527e+01
5.942043e+01
5.945706e+01
5.951548e+01
5.961260e+01
5.974446e+01
5.976265e+01
0.000000e+00
5.856684e+01
5.856705e+01
5.854356e+01
5.852839e+01
5.851010e+01
5.848893e+01
5.846682e+01
5.845448e+01
5.845982e+01
5.847998e+01
5.850766e+01
5.853843e+01
5.856498e+01
5.858827e+01
5.860728e+01
5.862360e+01
5.863939e+01
5.865628e+01
5.867508e+01
5.869572e+01
5.871737e+01
5.873845e+01
5.875774e+01
5.878369e+01
5.880776e+01
5.882606e+01
5.883882e+01
5.885106e+01
5.886088e+01
5.886862e+01
5.887548e+01
5.888197e+01
5.888527e+01
5.888176e+01
5.887212e+01
5.886168e+01
5.885558e+01
5.885546e+01
5.885969e+01
5.886739e+01
5.887729e+01
5.888796e+01
5.889800e+01
5.890829e+01
5.891817e+01
5.892682e+01
5.893361e+01
5.893821e+01
5.894077e+01
5.894094e+01
5.893949e+01
5.893733e+01
5.893502e+01
5.893272e+01
5.893027e+01
5.892738e+01
5.892402e+01
5.892035e+01
5.891680e+01
5.891401e+01
5.891262e+01
5.891309e+01
5.891503e+01
5.891754e+01
5.892021e+01
5.892267e+01
5.892460e+01
5.892586e+01
5.892660e+01
5.892706e+01
5.892737e+01
5.892759e+01
5.892774e+01
5.892777e+01
5.892765e+01
5.892734e+01
5.892686e+01
5.892622e+01
5.892547e+01
5.892468e+01
5.892389e+01
5.892319e+01
5.892262e+01
5.892211e+01
5.892149e+01
5.892054e+01
5.891900e+01
5.891671e+01
5.891354e+01
5.890931e+01
5.890283e+01
5.890261e+01
5.937226e+01
5.937248e+01
5.939575e+01
5.942396e+01
5.946336e+01
5.952112e+01
5.960414e+01
5.970197e+01
5.978126e+01
5.978105e+01
0.000000e+00
5.852749e+01
5.852771e+01
5.850170e+01
5.847855e+01
5.845820e+01
5.844833e+01
5.845391e+01
5.847377e+01
5.850336e+01
5.853514e+01
5.856638e+01
5.859514e+01
5.862055e+01
5.864190e+01
5.865698e+01
5.866895e+01
5.867967e+01
5.869002e+01
5.870025e+01
5.871006e+01
5.871700e+01
5.872191e+01
5.872683e+01
5.873238e+01
5.874432e+01
5.877103e+01
5.880208e+01
5.883048e+01
5.885378e+01
5.887255e+01
5.888877e+01
5.890157e+01
5.890768e+01
5.890558e+01
5.889809e+01
5.889052e+01
5.888636e+01
5.888539e+01
5.888709e+01
5.889059e+01
5.889484e+01
5.889877e+01
5.890286e+01
5.890687e+01
5.891024e+01
5.891262e+01
5.891397e+01
5.891465e+01
5.891550e+01
5.891701e+01
5.891912e+01
5.892153e+01
5.892389e+01
5.892590e+01
5.892728e+01
5.892790e+01
5.892779e+01
5.892732e+01
5.892701e+01
5.892727e+01
5.892813e+01
5.892922e+01
5.893013e+01
5.893063e+01
5.893059e+01
5.893006e+01
5.892915e+01
5.892801e+01
5.892683e+01
5.892571e+01
5.892469e+01
5.892375e+01
5.892284e+01
5.892193e+01
5.892100e+01
5.892004e+01
5.891908e+01
5.891815e+01
5.891730e+01
5.891662e+01
5.891618e+01
5.891600e+01
5.891603e+01
5.891608e+01
5.891589e+01
5.891510e+01
5.891335e+01
5.891029e+01
5.890558e+01
5.889716e+01
5.889694e+01
5.936911e+01
5.936932e+01
5.939210e+01
5.941866e+01
5.945350e+01
5.950165e+01
5.956336e+01
5.961916e+01
5.964401e+01
5.938892e+01
5.938870e+01
0.000000e+00
5.849534e+01
5.846340e+01
5.844056e+01
5.841700e+01
5.841397e+01
5.843615e+01
5.847867e+01
5.852914e+01
5.857437e+01
5.861212e+01
5.864512e+01
5.867441e+01
5.869888e+01
5.871423e+01
5.872427e+01
5.872993e+01
5.873153e+01
5.872851e+01
5.872096e+01
5.871101e+01
5.869452e+01
5.867591e+01
5.866210e+01
5.867895e+01
5.872090e+01
5.876975e+01
5.881451e+01
5.885087e+01
5.887842e+01
5.890068e+01
5.891916e+01
5.893194e+01
5.893621e+01
5.893259e+01
5.892507e+01
5.891785e+01
5.891241e+01
5.890852e+01
5.890564e+01
5.890307e+01
5.890015e+01
5.889694e+01
5.889346e+01
5.888974e+01
5.888625e+01
5.888375e+01
5.888331e+01
5.888692e+01
5.889354e+01
5.890168e+01
5.890999e+01
5.891767e+01
5.892427e+01
5.892972e+01
5.893401e+01
5.893720e+01
5.893947e+01
5.894106e+01
5.894204e+01
5.894239e+01
5.894217e+01
5.894129e+01
5.893975e+01
5.893765e+01
5.893514e+01
5.893243e+01
5.892964e+01
5.892689e+01
5.892428e+01
5.892185e+01
5.891962e+01
5.891759e+01
5.891576e+01
5.891414e+01
5.891274e+01
5.891155e+01
5.891061e+01
5.891003e+01
5.890983e+01
5.890997e+01
5.891040e+01
5.891104e+01
5.891172e+01
5.891217e+01
5.891197e+01
5.891068e+01
5.890784e+01
5.890297e+01
5.889317e+01
5.889296e+01
5.936538e+01
5.936559e+01
5.938525e+01
5.940725e+01
5.943395e+01
5.946522e+01
5.949420e+01
5.949893e+01
5.943286e+01
5.930612e+01
5.888154e+01
5.855862e+01
5.839099e+01
5.843826e+01
5.841826e+01
5.839832e+01
5.840182e+01
5.843329e+01
5.848787e+01
5.855325e+01
5.860829e+01
5.865243e+01
5.869225e+01
5.872954e+01
5.876090e+01
5.877900e+01
5.878436e+01
5.878168e+01
5.877134e+01
5.875468e+01
5.873467e+01
5.870881e+01
5.867183e+01
5.863016e+01
5.861003e+01
5.863820e+01
5.869418e+01
5.875696e+01
5.881361e+01
5.885759e+01
5.889066e+01
5.891638e+01
5.893741e+01
5.895381e+01
5.896295e+01
5.896338e+01
5.895727e+01
5.894880e+01
5.893995e+01
5.893116e+01
5.892216e+01
5.891253e+01
5.890214e+01
5.889103e+01
5.887955e+01
5.886856e+01
5.885921e+01
5.885252e+01
5.885158e+01
5.885895e+01
5.887180e+01
5.888691e+01
5.890176e+01
5.891484e+01
5.892563e+01
5.893452e+01
5.894175e+01
5.894740e+01
5.895151e+01
5.895410e+01
5.895508e+01
5.895473e+01
5.895336e+01
5.895104e+01
5.894792e+01
5.894419e+01
5.894008e+01
5.893581e+01
5.893153e+01
5.892726e+01
5.892311e+01
5.891918e+01
5.891553e+01
5.891223e+01
5.890934e+01
5.890690e+01
5.890496e+01
5.890352e+01
5.890262e+01
5.890265e+01
5.890341e+01
5.890465e+01
5.890612e+01
5.890761e+01
5.890894e+01
5.890984e+01
5.890996e+01
5.890889e+01
5.890620e+01
5.890146e+01
5.889134e+01
5.889113e+01
5.936157e+01
5.936178e+01
5.937668e+01
5.939206e+01
5.940800e+01
5.942154e+01
5.942331e+01
5.939297e+01
5.929254e+01
5.911087e+01
5.882641e+01
5.823613e+01
5.834415e+01
5.840892e+01
5.841860e+01
5.840962e+01
5.842067e+01
5.845662e+01
5.851339e+01
5.857962e+01
5.863455e+01
5.868030e+01
5.872564e+01
5.876954e+01
5.880633e+01
5.882854e+01
5.882852e+01
5.881855e+01
5.879932e+01
5.877359e+01
5.874483e+01
5.870598e+01
5.865317e+01
5.859678e+01
5.858635e+01
5.862583e+01
5.869202e+01
5.876315e+01
5.882454e+01
5.887152e+01
5.890694e+01
5.893398e+01
5.895542e+01
5.897271e+01
5.898471e+01
5.898902e+01
5.898531e+01
5.897702e+01
5.896600e+01
5.895304e+01
5.893832e+01
5.892206e+01
5.890497e+01
5.888651e+01
5.886741e+01
5.884928e+01
5.883392e+01
5.882275e+01
5.882249e+01
5.883454e+01
5.885419e+01
5.887650e+01
5.889782e+01
5.891561e+01
5.892987e+01
5.894132e+01
5.895051e+01
5.895765e+01
5.896275e+01
5.896571e+01
5.896641e+01
5.896546e+01
5.896321e+01
5.895984e+01
5.895553e+01
5.895054e+01
5.894509e+01
5.893944e+01
5.893376e+01
5.892802e+01
5.892233e+01
5.891683e+01
5.891165e+01
5.890694e+01
5.890282e+01
5.889941e+01
5.889678e+01
5.889493e+01
5.889416e+01
5.889507e+01
5.889722e+01
5.890008e+01
5.890314e+01
5.890584e+01
5.890790e+01
5.890914e+01
5.890932e+01
5.890818e+01
5.890542e+01
5.890115e+01
5.889250e+01
5.889228e+01
5.935784e+01
5.935806e+01
5.936732e+01
5.937559e+01
5.938150e+01
5.938106e+01
5.936577e+01
5.932070e+01
5.922291e+01
5.905273e+01
5.882344e+01
5.851168e+01
5.846622e+01
5.846753e+01
5.846364e+01
5.845620e+01
5.846600e+01
5.849684e+01
5.854510e+01
5.859964e+01
5.864831e+01
5.869455e+01
5.874032e+01
5.878289e+01
5.881511e+01
5.883317e+01
5.883408e+01
5.882432e+01
5.880571e+01
5.877910e+01
5.874776e+01
5.870123e+01
5.863786e+01
5.858770e+01
5.859178e+01
5.864069e+01
5.871142e+01
5.878396e+01
5.884386e+01
5.889008e+01
5.892509e+01
5.895169e+01
5.897235e+01
5.898875e+01
5.900105e+01
5.900754e+01
5.900670e+01
5.900015e+01
5.898857e+01
5.897285e+01
5.895370e+01
5.893201e+01
5.890927e+01
5.888425e+01
5.885824e+01
5.883348e+01
5.881245e+01
5.879729e+01
5.879924e+01
5.881651e+01
5.884283e+01
5.887178e+01
5.889853e+01
5.891994e+01
5.893663e+01
5.894963e+01
5.895976e+01
5.896746e+01
5.897281e+01
5.897574e+01
5.897615e+01
5.897483e+01
5.897203e+01
5.896795e+01
5.896284e+01
5.895690e+01
5.895038e+01
5.894352e+01
5.893653e+01
5.892939e+01
5.892218e+01
5.891508e+01
5.890829e+01
5.890205e+01
5.889656e+01
5.889203e+01
5.888857e+01
5.888620e+01
5.888567e+01
5.888760e+01
5.889132e+01
5.889605e+01
5.890096e+01
5.890505e+01
5.890801e+01
5.890964e+01
5.890983e+01
5.890853e+01
5.890585e+01
5.890234e+01
5.889775e+01
5.889754e+01
5.935444e+01
5.935465e+01
5.935838e+01
5.936017e+01
5.935799e+01
5.934797e+01
5.932356e+01
5.927503e+01
5.918970e+01
5.905450e+01
5.887228e+01
5.866564e+01
5.857715e+01
5.854110e+01
5.852157e+01
5.851096e+01
5.851643e+01
5.853992e+01
5.857794e+01
5.862233e+01
5.866527e+01
5.870695e+01
5.874650e+01
5.878001e+01
5.880458e+01
5.881752e+01
5.881922e+01
5.881162e+01
5.879538e+01
5.877238e+01
5.874533e+01
5.870030e+01
5.864069e+01
5.860942e+01
5.862518e+01
5.867725e+01
5.874555e+01
5.881237e+01
5.886739e+01
5.891038e+01
5.894319e+01
5.896820e+01
5.898752e+01
5.900260e+01
5.901381e+01
5.902011e+01
5.902138e+01
5.901682e+01
5.900623e+01
5.898977e+01
5.896815e+01
5.894267e+01
5.891546e+01
5.888491e+01
5.885291e+01
5.882237e+01
5.879653e+01
5.877969e+01
5.878458e+01
5.880694e+01
5.883906e+01
5.887338e+01
5.890374e+01
5.892747e+01
5.894544e+01
5.895894e+01
5.896910e+01
5.897658e+01
5.898163e+01
5.898423e+01
5.898447e+01
5.898296e+01
5.897989e+01
5.897547e+01
5.896990e+01
5.896337e+01
5.895608e+01
5.894823e+01
5.894005e+01
5.893163e+01
5.892297e+01
5.891430e+01
5.890588e+01
5.889802e+01
5.889106e+01
5.888529e+01
5.888092e+01
5.887801e+01
5.887782e+01
5.888080e+01
5.888603e+01
5.889249e+01
5.889902e+01
5.890433e+01
5.890809e+01
5.891015e+01
5.891053e+01
5.890941e+01
5.890718e+01
5.890450e+01
5.890279e+01
5.890258e+01
5.935159e+01
5.935181e+01
5.935064e+01
5.934705e+01
5.933882e+01
5.932258e+01
5.929351e+01
5.924536e+01
5.917096e+01
5.906285e+01
5.891979e+01
5.876124e+01
5.866253e+01
5.860758e+01
5.857609e+01
5.856026e+01
5.856080e+01
5.857724e+01
5.860618e+01
5.864161e+01
5.867802e+01
5.871375e+01
5.874674e+01
5.877395e+01
5.879317e+01
5.880312e+01
5.880399e+01
5.879676e+01
5.878253e+01
5.876363e+01
5.873831e+01
5.869998e+01
5.865824e+01
5.864497e+01
5.866875e+01
5.871986e+01
5.878205e+01
5.884115e+01
5.889054e+01
5.892958e+01
5.895964e+01
5.898267e+01
5.900045e+01
5.901411e+01
5.902397e+01
5.902975e+01
5.903128e+01
5.902801e+01
5.901893e+01
5.900334e+01
5.898130e+01
5.895389e+01
5.892350e+01
5.888865e+01
5.885181e+01
5.881666e+01
5.878745e+01
5.877157e+01
5.877978e+01
5.880656e+01
5.884301e+01
5.888079e+01
5.891294e+01
5.893759e+01
5.895573e+01
5.896884e+01
5.897830e+01
5.898497e+01
5.898931e+01
5.899142e+01
5.899150e+01
5.898990e+01
5.898678e+01
5.898229e+01
5.897659e+01
5.896980e+01
5.896208e+01
5.895356e+01
5.894444e+01
5.893491e+01
5.892494e+01
5.891478e+01
5.890476e+01
5.889527e+01
5.888677e+01
5.887969e+01
5.887440e+01
5.887106e+01
5.887130e+01
5.887522e+01
5.888172e+01
5.888955e+01
5.889731e+01
5.890356e+01
5.890797e+01
5.891045e+01
5.891113e+01
5.891032e+01
5.890852e+01
5.890641e+01
5.890573e+01
5.890552e+01
5.934940e+01
5.934962e+01
5.934447e+01
5.933670e+01
5.932414e+01
5.930391e+01
5.927239e+01
5.922533e+01
5.915834e+01
5.906733e+01
5.895159e+01
5.882438e+01
5.872691e+01
5.866177e+01
5.862129e+01
5.860017e+01
5.859600e+01
5.860665e+01
5.862860e+01
5.865707e+01
5.868779e+01
5.871827e+01
5.874614e+01
5.876898e+01
5.878503e+01
5.879330e+01
5.879366e+01
5.878663e+01
5.877324e+01
5.875529e+01
5.873098e+01
5.870013e+01
5.867551e+01
5.867636e+01
5.870600e+01
5.875564e+01
5.881221e+01
5.886531e+01
5.891012e+01
5.894583e+01
5.897348e+01
5.899469e+01
5.901099e+01
5.902338e+01
5.903226e+01
5.903755e+01
5.903915e+01
5.903662e+01
5.902885e+01
5.901466e+01
5.899338e+01
5.896545e+01
5.893293e+01
5.889492e+01
5.885440e+01
5.881600e+01
5.878542e+01
5.877223e+01
5.878385e+01
5.881404e+01
5.885315e+01
5.889244e+01
5.892491e+01
5.894939e+01
5.896684e+01
5.897892e+01
5.898719e+01
5.899269e+01
5.899608e+01
5.899762e+01
5.899744e+01
5.899575e+01
5.899266e+01
5.898827e+01
5.898266e+01
5.897590e+01
5.896806e+01
5.895922e+01
5.894950e+01
5.893909e+01
5.892805e+01
5.891658e+01
5.890506e+01
5.889398e+01
5.888392e+01
5.887552e+01
5.886935e+01
5.886579e+01
5.886649e+01
5.887120e+01
5.887866e+01
5.888743e+01
5.889598e+01
5.890288e+01
5.890780e+01
5.891066e+01
5.891165e+01
5.891111e+01
5.890956e+01
5.890765e+01
5.890654e+01
5.890633e+01
5.934786e+01
5.934807e+01
5.933995e+01
5.932916e+01
5.931365e+01
5.929091e+01
5.925806e+01
5.921196e+01
5.914964e+01
5.906886e+01
5.897006e+01
5.886272e+01
5.877087e+01
5.870250e+01
5.865679e+01
5.863102e+01
5.862256e+01
5.862850e+01
5.864525e+01
5.866867e+01
5.869502e+01
5.872150e+01
5.874575e+01
5.876566e+01
5.877969e+01
5.878687e+01
5.878689e+01
5.877996e+01
5.876679e+01
5.874842e+01
5.872498e+01
5.870077e+01
5.868825e+01
5.869887e+01
5.873289e+01
5.878149e+01
5.883415e+01
5.888316e+01
5.892471e+01
5.895797e+01
5.898376e+01
5.900357e+01
5.901882e+01
5.903048e+01
5.903902e+01
5.904426e+01
5.904627e+01
5.904457e+01
5.903805e+01
5.902529e+01
5.900518e+01
5.897739e+01
5.894318e+01
5.890259e+01
5.885903e+01
5.881829e+01
5.878799e+01
5.877821e+01
5.879301e+01
5.882567e+01
5.886615e+01
5.890556e+01
5.893762e+01
5.896144e+01
5.897787e+01
5.898858e+01
5.899533e+01
5.899950e+01
5.900193e+01
5.900298e+01
5.900247e+01
5.900063e+01
5.899756e+01
5.899330e+01
5.898787e+01
5.898128e+01
5.897353e+01
5.896463e+01
5.895464e+01
5.894367e+01
5.893183e+01
5.891931e+01
5.890650e+01
5.889396e+01
5.888242e+01
5.887273e+01
5.886574e+01
5.886218e+01
5.886333e+01
5.886867e+01
5.887682e+01
5.888617e+01
5.889516e+01
5.890247e+01
5.890776e+01
5.891094e+01
5.891219e+01
5.891184e+01
5.891035e+01
5.890824e+01
5.890593e+01
5.890572e+01
5.934690e+01
5.934712e+01
5.933703e+01
5.932430e+01
5.930697e+01
5.928278e+01
5.924926e+01
5.920387e+01
5.914437e+01
5.906944e+01
5.898026e+01
5.888437e+01
5.879745e+01
5.872859e+01
5.868025e+01
5.865156e+01
5.864017e+01
5.864295e+01
5.865631e+01
5.867640e+01
5.869978e+01
5.872360e+01
5.874553e+01
5.876362e+01
5.877639e+01
5.878291e+01
5.878271e+01
5.877580e+01
5.876250e+01
5.874355e+01
5.872099e+01
5.870193e+01
5.869745e+01
5.871412e+01
5.875019e+01
5.879781e+01
5.884807e+01
5.889464e+01
5.893419e+01
5.896591e+01
5.899052e+01
5.900936e+01
5.902380e+01
5.903493e+01
5.904348e+01
5.904925e+01
5.905218e+01
5.905160e+01
5.904637e+01
5.903503e+01
5.901615e+01
5.898880e+01
5.895322e+01
5.891021e+01
5.886367e+01
5.882081e+01
5.879128e+01
5.878449e+01
5.880185e+01
5.883620e+01
5.887744e+01
5.891656e+01
5.894822e+01
5.897120e+01
5.898648e+01
5.899590e+01
5.900139e+01
5.900446e+01
5.900608e+01
5.900667e+01
5.900595e+01
5.900410e+01
5.900117e+01
5.899713e+01
5.899194e+01
5.898556e+01
5.897797e+01
5.896915e+01
5.895910e+01
5.894785e+01
5.893551e+01
5.892224e+01
5.890843e+01
5.889469e+01
5.888186e+01
5.887100e+01
5.886329e+01
5.885988e+01
5.886143e+01
5.886727e+01
5.887591e+01
5.888562e+01
5.889482e+01
5.890240e+01
5.890793e+01
5.891136e+01
5.891282e+01
5.891261e+01
5.891107e+01
5.890852e+01
5.890460e+01
5.890439e+01
5.934647e+01
5.934668e+01
5.933561e+01
5.932195e+01
5.930379e+01
5.927899e+01
5.924528e+01
5.920039e+01
5.914235e+01
5.907021e+01
5.898544e+01
5.889472e+01
5.881035e+01
5.874151e+01
5.869204e+01
5.866190e+01
5.864901e+01
5.865020e+01
5.866185e+01
5.868025e+01
5.870211e+01
5.872457e+01
5.874531e+01
5.876247e+01
5.877464e+01
5.878086e+01
5.878062e+01
5.877376e+01
5.876035e+01
5.874112e+01
5.871950e+01
5.870350e+01
5.870256e+01
5.872144e+01
5.875788e+01
5.880468e+01
5.885369e+01
5.889914e+01
5.893793e+01
5.896915e+01
5.899342e+01
5.901197e+01
5.902615e+01
5.903709e+01
5.904550e+01
5.905158e+01
5.905520e+01
5.905561e+01
5.905160e+01
5.904161e+01
5.902399e+01
5.899737e+01
5.896107e+01
5.891593e+01
5.886642e+01
5.882126e+01
5.879173e+01
5.878631e+01
5.880511e+01
5.884074e+01
5.888248e+01
5.892143e+01
5.895293e+01
5.897574e+01
5.899074e+01
5.899976e+01
5.900475e+01
5.900729e+01
5.900842e+01
5.900854e+01
5.900769e+01
5.900590e+01
5.900312e+01
5.899928e+01
5.899431e+01
5.898813e+01
5.898072e+01
5.897203e+01
5.896204e+01
5.895072e+01
5.893813e+01
5.892444e+01
5.891000e+01
5.889539e+01
5.888154e+01
5.886973e+01
5.886151e+01
5.885814e+01
5.886001e+01
5.886629e+01
5.887535e+01
5.888532e+01
5.889462e+01
5.890230e+01
5.890794e+01
5.891145e+01
5.891301e+01
5.891285e+01
5.891126e+01
5.890838e+01
5.890237e+01
5.890215e+01
0.000000e+00
5.934647e+01
5.933540e+01
5.932174e+01
5.930357e+01
5.927878e+01
5.924507e+01
5.920018e+01
5.914214e+01
5.907000e+01
5.898523e+01
5.889451e+01
5.881013e+01
5.874130e+01
5.869182e+01
5.866169e+01
5.864880e+01
5.864998e+01
5.866163e+01
5.868004e+01
5.870190e+01
5.872435e+01
5.874510e+01
5.876226e+01
5.877443e+01
5.878065e+01
5.878040e+01
5.877354e+01
5.876014e+01
5.874091e+01
5.871929e+01
5.870329e+01
5.870235e+01
5.872123e+01
5.875767e+01
5.880446e+01
5.885348e+01
5.889893e+01
5.893771e+01
5.896894e+01
5.899321e+01
5.901176e+01
5.902594e+01
5.903687e+01
5.904529e+01
5.905137e+01
5.905498e+01
5.905540e+01
5.905139e+01
5.904140e+01
5.902377e+01
5.899716e+01
5.896085e+01
5.891571e+01
5.886621e+01
5.882104e+01
5.879152e+01
5.878609e+01
5.880489e+01
5.884053e+01
5.888227e+01