# vtk DataFile Version 3.0
Scalar Field
ASCII
DATASET RECTILINEAR_GRID
DIMENSIONS 102 22 1
X_COORDINATES 102 double
0.000000 0.100000 0.200000 0.300000 0.400000 0.500000 0.600000 0.700000 0.800000 0.900000 1.000000 1.100000 1.200000 1.300000 1.400000 1.500000 1.600000 1.700000 1.800000 1.900000 2.000000 2.100000 2.200000 2.300000 2.400000 2.500000 2.600000 2.700000 2.800000 2.900000 3.000000 3.100000 3.200000 3.300000 3.400000 3.500000 3.600000 3.700000 3.800000 3.900000 4.000000 4.100000 4.200000 4.300000 4.400000 4.500000 4.600000 4.700000 4.800000 4.900000 5.000000 5.100000 5.200000 5.300000 5.400000 5.500000 5.600000 5.700000 5.800000 5.900000 6.000000 6.100000 6.200000 6.300000 6.400000 6.500000 6.600000 6.700000 6.800000 6.900000 7.000000 7.100000 7.200000 7.300000 7.400000 7.500000 7.600000 7.700000 7.800000 7.900000 8.000000 8.100000 8.200000 8.300000 8.400000 8.500000 8.600000 8.700000 8.800000 8.900000 9.000000 9.100000 9.200000 9.300000 9.400000 9.500000 9.600000 9.700000 9.800000 9.900000 10.000000 10.100000 
Y_COORDINATES 22 double
0.000000 0.100000 0.200000 0.300000 0.400000 0.500000 0.600000 0.700000 0.800000 0.900000 1.000000 1.100000 1.200000 1.300000 1.400000 1.500000 1.600000 1.700000 1.800000 1.900000 2.000000 2.100000 
Z_COORDINATES 1 double
0.0
POINT_DATA 2244
SCALARS Pressure double 1
LOOKUP_TABLE default
0.000000e+00
6.043514e+01
6.040630e+01
6.037385e+01
6.033415e+01
6.028310e+01
6.021650e+01
6.013207e+01
6.002722e+01
5.991991e+01
5.982456e+01
5.974602e+01
5.968370e+01
5.963579e+01
5.960093e+01
5.957818e+01
5.956630e+01
5.956367e+01
5.956867e+01
5.957989e+01
5.959625e+01
5.961695e+01
5.964150e+01
5.966959e+01
5.970095e+01
5.973530e+01
5.977232e+01
5.981158e+01
5.985259e+01
5.989462e+01
5.993661e+01
5.997747e+01
6.001632e+01
6.005232e+01
6.008473e+01
6.010873e+01
6.011514e+01
6.009414e+01
6.004153e+01
5.996541e+01
5.988471e+01
5.982120e+01
5.978769e+01
5.978163e+01
5.979567e+01
5.982273e+01
5.985717e+01
5.989473e+01
5.993218e+01
5.996683e+01
5.999638e+01
6.001936e+01
6.003548e+01
6.004559e+01
6.005123e+01
6.005388e+01
6.005459e+01
6.005468e+01
6.005342e+01
6.004987e+01
6.004318e+01
6.003285e+01
6.001891e+01
6.000194e+01
5.998303e+01
5.996366e+01
5.994541e+01
5.992983e+01
5.991825e+01
5.991158e+01
5.991016e+01
5.991376e+01
5.992157e+01
5.993306e+01
5.994744e+01
5.996358e+01
5.997991e+01
5.999452e+01
6.000558e+01
6.001190e+01
6.001338e+01
6.001091e+01
6.000556e+01
5.999848e+01
5.999051e+01
5.998215e+01
5.997381e+01
5.996581e+01
5.995839e+01
5.995174e+01
5.994593e+01
5.994097e+01
5.993678e+01
5.993322e+01
5.993008e+01
5.992715e+01
5.992417e+01
5.992091e+01
5.991712e+01
5.991253e+01
5.990553e+01
0.000000e+00
6.043514e+01
6.043526e+01
6.040640e+01
6.037396e+01
6.033425e+01
6.028319e+01
6.021658e+01
6.013213e+01
6.002727e+01
5.991995e+01
5.982459e+01
5.974604e+01
5.968370e+01
5.963576e+01
5.960090e+01
5.957815e+01
5.956629e+01
5.956366e+01
5.956866e+01
5.957989e+01
5.959625e+01
5.961696e+01
5.964152e+01
5.966962e+01
5.970098e+01
5.973535e+01
5.977237e+01
5.981164e+01
5.985266e+01
5.989469e+01
5.993667e+01
5.997753e+01
6.001638e+01
6.005237e+01
6.008478e+01
6.010877e+01
6.011517e+01
6.009415e+01
6.004154e+01
5.996542e+01
5.988471e+01
5.982121e+01
5.978770e+01
5.978164e+01
5.979568e+01
5.982275e+01
5.985719e+01
5.989476e+01
5.993221e+01
5.996686e+01
5.999641e+01
6.001939e+01
6.003551e+01
6.004562e+01
6.005126e+01
6.005391e+01
6.005462e+01
6.005471e+01
6.005345e+01
6.004989e+01
6.004320e+01
6.003286e+01
6.001892e+01
6.000195e+01
5.998305e+01
5.996367e+01
5.994542e+01
5.992984e+01
5.991827e+01
5.991160e+01
5.991018e+01
5.991379e+01
5.992160e+01
5.993309e+01
5.994747e+01
5.996361e+01
5.997994e+01
5.999455e+01
6.000561e+01
6.001193e+01
6.001340e+01
6.001094e+01
6.000559e+01
5.999851e+01
5.999053e+01
5.998217e+01
5.997384e+01
5.996584e+01
5.995842e+01
5.995176e+01
5.994596e+01
5.994100e+01
5.993681e+01
5.993325e+01
5.993011e+01
5.992718e+01
5.992420e+01
5.992094e+01
5.991715e+01
5.991256e+01
5.990556e+01
5.990553e+01
6.043361e+01
6.043371e+01
6.040633e+01
6.037511e+01
6.033614e+01
6.028486e+01
6.021640e+01
6.012819e+01
6.001417e+01
5.990299e+01
5.980916e+01
5.973407e+01
5.967485e+01
5.962899e+01
5.959535e+01
5.957343e+01
5.956223e+01
5.956013e+01
5.956556e+01
5.957709e+01
5.959359e+01
5.961428e+01
5.963869e+01
5.966654e+01
5.969761e+01
5.973169e+01
5.976843e+01
5.980742e+01
5.984810e+01
5.988984e+01
5.993148e+01
5.997188e+01
6.001006e+01
6.004537e+01
6.007646e+01
6.009840e+01
6.010419e+01
6.008490e+01
6.003462e+01
5.996186e+01
5.988414e+01
5.982057e+01
5.978497e+01
5.977753e+01
5.978980e+01
5.981552e+01
5.984925e+01
5.988656e+01
5.992400e+01
5.995903e+01
5.998923e+01
6.001318e+01
6.003043e+01
6.004163e+01
6.004817e+01
6.005149e+01
6.005257e+01
6.005238e+01
6.005054e+01
6.004630e+01
6.003904e+01
6.002837e+01
6.001438e+01
5.999767e+01
5.997928e+01
5.996057e+01
5.994304e+01
5.992820e+01
5.991730e+01
5.991120e+01
5.991033e+01
5.991459e+01
5.992300e+01
5.993508e+01
5.994993e+01
5.996613e+01
5.998180e+01
5.999503e+01
6.000457e+01
6.000972e+01
6.001077e+01
6.000841e+01
6.000342e+01
5.999671e+01
5.998902e+01
5.998091e+01
5.997282e+01
5.996504e+01
5.995783e+01
5.995137e+01
5.994575e+01
5.994097e+01
5.993694e+01
5.993353e+01
5.993055e+01
5.992779e+01
5.992502e+01
5.992193e+01
5.991829e+01
5.991383e+01
5.990651e+01
5.990647e+01
6.043106e+01
6.043116e+01
6.040687e+01
6.037844e+01
6.034148e+01
6.029039e+01
6.021847e+01
6.012170e+01
5.998602e+01
5.986830e+01
5.977925e+01
5.971174e+01
5.965864e+01
5.961661e+01
5.958500e+01
5.956439e+01
5.955443e+01
5.955332e+01
5.955954e+01
5.957159e+01
5.958830e+01
5.960888e+01
5.963290e+01
5.966014e+01
5.969051e+01
5.972386e+01
5.975992e+01
5.979827e+01
5.983832e+01
5.987941e+01
5.992048e+01
5.996026e+01
5.999755e+01
6.003182e+01
6.006344e+01
6.008747e+01
6.009557e+01
6.007920e+01
6.003015e+01
5.995647e+01
5.987898e+01
5.981547e+01
5.977786e+01
5.976947e+01
5.977991e+01
5.980356e+01
5.983556e+01
5.987171e+01
5.990852e+01
5.994335e+01
5.997425e+01
5.999981e+01
6.001928e+01
6.003276e+01
6.004127e+01
6.004604e+01
6.004813e+01
6.004815e+01
6.004592e+01
6.004103e+01
6.003320e+01
6.002228e+01
6.000832e+01
5.999188e+01
5.997406e+01
5.995617e+01
5.993962e+01
5.992579e+01
5.991587e+01
5.991072e+01
5.991094e+01
5.991621e+01
5.992549e+01
5.993820e+01
5.995318e+01
5.996873e+01
5.998277e+01
5.999407e+01
6.000197e+01
6.000605e+01
6.000670e+01
6.000468e+01
6.000029e+01
5.999426e+01
5.998715e+01
5.997945e+01
5.997164e+01
5.996411e+01
5.995715e+01
5.995093e+01
5.994556e+01
5.994104e+01
5.993728e+01
5.993416e+01
5.993151e+01
5.992913e+01
5.992672e+01
5.992398e+01
5.992061e+01
5.991630e+01
5.990843e+01
5.990840e+01
6.042795e+01
6.042804e+01
6.040857e+01
6.038472e+01
6.035153e+01
6.030146e+01
6.022396e+01
6.010955e+01
5.993328e+01
5.981190e+01
5.973603e+01
5.968104e+01
5.963659e+01
5.959945e+01
5.957008e+01
5.955081e+01
5.954266e+01
5.954302e+01
5.955048e+01
5.956339e+01
5.958049e+01
5.960094e+01
5.962437e+01
5.965071e+01
5.967998e+01
5.971220e+01
5.974722e+01
5.978465e+01
5.982385e+01
5.986406e+01
5.990447e+01
5.994395e+01
5.998117e+01
6.001570e+01
6.004860e+01
6.007675e+01
6.008656e+01
6.007154e+01
6.002750e+01
5.995390e+01
5.987647e+01
5.981238e+01
5.977343e+01
5.976246e+01
5.977212e+01
5.979325e+01
5.982244e+01
5.985623e+01
5.989144e+01
5.992533e+01
5.995613e+01
5.998268e+01
6.000395e+01
6.001982e+01
6.003069e+01
6.003740e+01
6.004091e+01
6.004182e+01
6.003964e+01
6.003451e+01
6.002639e+01
6.001530e+01
6.000146e+01
5.998547e+01
5.996850e+01
5.995174e+01
5.993648e+01
5.992398e+01
5.991537e+01
5.991153e+01
5.991332e+01
5.991972e+01
5.992981e+01
5.994274e+01
5.995709e+01
5.997100e+01
5.998264e+01
5.999206e+01
5.999845e+01
6.000176e+01
6.000250e+01
6.000105e+01
5.999736e+01
5.999196e+01
5.998533e+01
5.997796e+01
5.997043e+01
5.996318e+01
5.995650e+01
5.995058e+01
5.994553e+01
5.994135e+01
5.993797e+01
5.993529e+01
5.993316e+01
5.993133e+01
5.992943e+01
5.992718e+01
5.992424e+01
5.992015e+01
5.991188e+01
5.991185e+01
6.042479e+01
6.042487e+01
6.041201e+01
6.039497e+01
6.036835e+01
6.032189e+01
6.023722e+01
6.008781e+01
5.984171e+01
5.973183e+01
5.968209e+01
5.964558e+01
5.961190e+01
5.957981e+01
5.955176e+01
5.953277e+01
5.952665e+01
5.952902e+01
5.953840e+01
5.955269e+01
5.957045e+01
5.959082e+01
5.961349e+01
5.963857e+01
5.966632e+01
5.969695e+01
5.973050e+01
5.976671e+01
5.980496e+01
5.984433e+01
5.988436e+01
5.992467e+01
5.996420e+01
6.000131e+01
6.003459e+01
6.006189e+01
6.007035e+01
6.005072e+01
6.001023e+01
5.995025e+01
5.988095e+01
5.982046e+01
5.978030e+01
5.976552e+01
5.977283e+01
5.979070e+01
5.981604e+01
5.984624e+01
5.987855e+01
5.991036e+01
5.993975e+01
5.996633e+01
5.998869e+01
6.000615e+01
6.001878e+01
6.002716e+01
6.003214e+01
6.003431e+01
6.003241e+01
6.002702e+01
6.001860e+01
6.000751e+01
5.999411e+01
5.997897e+01
5.996328e+01
5.994808e+01
5.993451e+01
5.992371e+01
5.991676e+01
5.991469e+01
5.991815e+01
5.992543e+01
5.993580e+01
5.994811e+01
5.996078e+01
5.997207e+01
5.998156e+01
5.998905e+01
5.999416e+01
5.999708e+01
5.999825e+01
5.999740e+01
5.999439e+01
5.998959e+01
5.998345e+01
5.997645e+01
5.996927e+01
5.996239e+01
5.995608e+01
5.995055e+01
5.994591e+01
5.994217e+01
5.993929e+01
5.993721e+01
5.993580e+01
5.993461e+01
5.993335e+01
5.993171e+01
5.992926e+01
5.992546e+01
5.991749e+01
5.991746e+01
6.042205e+01
6.042212e+01
6.041751e+01
6.040988e+01
6.039445e+01
6.035890e+01
6.027249e+01
6.006118e+01
5.968159e+01
5.962401e+01
5.962544e+01
5.961314e+01
5.959122e+01
5.956337e+01
5.953416e+01
5.951241e+01
5.950586e+01
5.951125e+01
5.952385e+01
5.954036e+01
5.955934e+01
5.957979e+01
5.960157e+01
5.962504e+01
5.965074e+01
5.967920e+01
5.971074e+01
5.974531e+01
5.978245e+01
5.982108e+01
5.986071e+01
5.990217e+01
5.994627e+01
5.998947e+01
6.002287e+01
6.004437e+01
6.003915e+01
6.001183e+01
5.997685e+01
5.993609e+01
5.988689e+01
5.983862e+01
5.980142e+01
5.978318e+01
5.978488e+01
5.979878e+01
5.981932e+01
5.984479e+01
5.987296e+01
5.990147e+01
5.992807e+01
5.995311e+01
5.997520e+01
5.999327e+01
6.000698e+01
6.001658e+01
6.002255e+01
6.002542e+01
6.002347e+01
6.001775e+01
6.000927e+01
5.999867e+01
5.998635e+01
5.997278e+01
5.995904e+01
5.994598e+01
5.993457e+01
5.992587e+01
5.992093e+01
5.992092e+01
5.992551e+01
5.993311e+01
5.994283e+01
5.995344e+01
5.996346e+01
5.997201e+01
5.997933e+01
5.998507e+01
5.998923e+01
5.999202e+01
5.999367e+01
5.999336e+01
5.999098e+01
5.998681e+01
5.998127e+01
5.997484e+01
5.996822e+01
5.996188e+01
5.995612e+01
5.995112e+01
5.994701e+01
5.994385e+01
5.994164e+01
5.994036e+01
5.993969e+01
5.993919e+01
5.993858e+01
5.993747e+01
5.993539e+01
5.993191e+01
5.992498e+01
5.992495e+01
6.041993e+01
6.041999e+01
6.042464e+01
6.042872e+01
6.043050e+01
6.042115e+01
6.036629e+01
6.012603e+01
5.938840e+01
5.948012e+01
5.958204e+01
5.959279e+01
5.958163e+01
5.955907e+01
5.952651e+01
5.949735e+01
5.948496e+01
5.949021e+01
5.950904e+01
5.952900e+01
5.955021e+01
5.957112e+01
5.959191e+01
5.961332e+01
5.963630e+01
5.966170e+01
5.969022e+01
5.972218e+01
5.975745e+01
5.979526e+01
5.983426e+01
5.987256e+01
5.990783e+01
5.994878e+01
5.998651e+01
5.999808e+01
5.998393e+01
5.996157e+01
5.993938e+01
5.991788e+01
5.989170e+01
5.986068e+01
5.983151e+01
5.981266e+01
5.980872e+01
5.981725e+01
5.983211e+01
5.985196e+01
5.987493e+01
5.989892e+01
5.992177e+01
5.994363e+01
5.996386e+01
5.998117e+01
5.999490e+01
6.000484e+01
6.001104e+01
6.001384e+01
6.001155e+01
6.000578e+01
5.999792e+01
5.998871e+01
5.997844e+01
5.996741e+01
5.995642e+01
5.994611e+01
5.993734e+01
5.993107e+01
5.992835e+01
5.993017e+01
5.993505e+01
5.994198e+01
5.994997e+01
5.995795e+01
5.996487e+01
5.997089e+01
5.997605e+01
5.998029e+01
5.998371e+01
5.998638e+01
5.998828e+01
5.998838e+01
5.998662e+01
5.998324e+01
5.997857e+01
5.997306e+01
5.996733e+01
5.996186e+01
5.995689e+01
5.995264e+01
5.994925e+01
5.994682e+01
5.994544e+01
5.994501e+01
5.994499e+01
5.994506e+01
5.994487e+01
5.994402e+01
5.994206e+01
5.993890e+01
5.993326e+01
5.993323e+01
6.041823e+01
6.041828e+01
6.043177e+01
6.044787e+01
6.046995e+01
6.050121e+01
6.054027e+01
6.065058e+01
6.001948e+01
5.955226e+01
5.962441e+01
5.959112e+01
5.957416e+01
5.956446e+01
5.953431e+01
5.949900e+01
5.948055e+01
5.948250e+01
5.950098e+01
5.952500e+01
5.955012e+01
5.957195e+01
5.959178e+01
5.961070e+01
5.963000e+01
5.965083e+01
5.967412e+01
5.970032e+01
5.972908e+01
5.975915e+01
5.978893e+01
5.981687e+01
5.985302e+01
5.989497e+01
5.992064e+01
5.992514e+01
5.992192e+01
5.991546e+01
5.990927e+01
5.990455e+01
5.989806e+01
5.988463e+01
5.986575e+01
5.984917e+01
5.984114e+01
5.984392e+01
5.985272e+01
5.986638e+01
5.988336e+01
5.990184e+01
5.991990e+01
5.993726e+01
5.995409e+01
5.996913e+01
5.998143e+01
5.999038e+01
5.999579e+01
5.999782e+01
5.999541e+01
5.999054e+01
5.998453e+01
5.997799e+01
5.997095e+01
5.996350e+01
5.995603e+01
5.994904e+01
5.994327e+01
5.993962e+01
5.993898e+01
5.994153e+01
5.994582e+01
5.995105e+01
5.995644e+01
5.996128e+01
5.996525e+01
5.996878e+01
5.997193e+01
5.997480e+01
5.997740e+01
5.997967e+01
5.998144e+01
5.998185e+01
5.998085e+01
5.997857e+01
5.997523e+01
5.997112e+01
5.996678e+01
5.996258e+01
5.995875e+01
5.995552e+01
5.995306e+01
5.995152e+01
5.995100e+01
5.995117e+01
5.995156e+01
5.995188e+01
5.995175e+01
5.995080e+01
5.994886e+01
5.994597e+01
5.994136e+01
5.994133e+01
6.041645e+01
6.041649e+01
6.043658e+01
6.046147e+01
6.049780e+01
6.055592e+01
6.065270e+01
6.078557e+01
6.080661e+01
0.000000e+00
5.957832e+01
5.957834e+01
5.955653e+01
5.954598e+01
5.952561e+01
5.950193e+01
5.948850e+01
5.949136e+01
5.950853e+01
5.953391e+01
5.956113e+01
5.958525e+01
5.960543e+01
5.962271e+01
5.963861e+01
5.965437e+01
5.967102e+01
5.968909e+01
5.970822e+01
5.972751e+01
5.974591e+01
5.976716e+01
5.979210e+01
5.981441e+01
5.983379e+01
5.985168e+01
5.986757e+01
5.988004e+01
5.989018e+01
5.989969e+01
5.990793e+01
5.990928e+01
5.990152e+01
5.988877e+01
5.987891e+01
5.987623e+01
5.987905e+01
5.988627e+01
5.989672e+01
5.990889e+01
5.992120e+01
5.993293e+01
5.994486e+01
5.995584e+01
5.996486e+01
5.997122e+01
5.997481e+01
5.997583e+01
5.997446e+01
5.997215e+01
5.996966e+01
5.996726e+01
5.996470e+01
5.996174e+01
5.995841e+01
5.995510e+01
5.995244e+01
5.995119e+01
5.995184e+01
5.995408e+01
5.995684e+01
5.995962e+01
5.996194e+01
5.996360e+01
5.996478e+01
5.996588e+01
5.996707e+01
5.996841e+01
5.996987e+01
5.997132e+01
5.997260e+01
5.997333e+01
5.997336e+01
5.997266e+01
5.997124e+01
5.996917e+01
5.996679e+01
5.996436e+01
5.996207e+01
5.996016e+01
5.995881e+01
5.995817e+01
5.995825e+01
5.995866e+01
5.995907e+01
5.995921e+01
5.995880e+01
5.995760e+01
5.995564e+01
5.995295e+01
5.994898e+01
5.994895e+01
6.041408e+01
6.041412e+01
6.043738e+01
6.046569e+01
6.050524e+01
6.056345e+01
6.064679e+01
6.074516e+01
6.082767e+01
6.082767e+01
0.000000e+00
5.954862e+01
5.954863e+01
5.952771e+01
5.950976e+01
5.949678e+01
5.949663e+01
5.951081e+01
5.953480e+01
5.956207e+01
5.958924e+01
5.961493e+01
5.963708e+01
5.965496e+01
5.966967e+01
5.968186e+01
5.969261e+01
5.970276e+01
5.971183e+01
5.971840e+01
5.972236e+01
5.972463e+01
5.972754e+01
5.973405e+01
5.975548e+01
5.979085e+01
5.982713e+01
5.985822e+01
5.988305e+01
5.990369e+01
5.992167e+01
5.993376e+01
5.993585e+01
5.992886e+01
5.991853e+01
5.991167e+01
5.990901e+01
5.990994e+01
5.991362e+01
5.991890e+01
5.992452e+01
5.992954e+01
5.993494e+01
5.993981e+01
5.994348e+01
5.994568e+01
5.994664e+01
5.994734e+01
5.994887e+01
5.995139e+01
5.995456e+01
5.995781e+01
5.996065e+01
5.996269e+01
5.996383e+01
5.996423e+01
5.996444e+01
5.996497e+01
5.996594e+01
5.996698e+01
5.996753e+01
5.996733e+01
5.996649e+01
5.996522e+01
5.996372e+01
5.996235e+01
5.996136e+01
5.996084e+01
5.996071e+01
5.996089e+01
5.996146e+01
5.996260e+01
5.996407e+01
5.996555e+01
5.996675e+01
5.996744e+01
5.996765e+01
5.996747e+01
5.996708e+01
5.996671e+01
5.996653e+01
5.996660e+01
5.996686e+01
5.996712e+01
5.996715e+01
5.996679e+01
5.996592e+01
5.996447e+01
5.996249e+01
5.995999e+01
5.995636e+01
5.995634e+01
6.041096e+01
6.041099e+01
6.043401e+01
6.046097e+01
6.049623e+01
6.054464e+01
6.060730e+01
6.066562e+01
6.069095e+01
6.044622e+01
6.044622e+01
0.000000e+00
5.952439e+01
5.950019e+01
5.948219e+01
5.947467e+01
5.948893e+01
5.952359e+01
5.956724e+01
5.960619e+01
5.963761e+01
5.966527e+01
5.969027e+01
5.970940e+01
5.972400e+01
5.973433e+01
5.973971e+01
5.973910e+01
5.973288e+01
5.972400e+01
5.971008e+01
5.968902e+01
5.966621e+01
5.966226e+01
5.969709e+01
5.975021e+01
5.980452e+01
5.985105e+01
5.988689e+01
5.991471e+01
5.993810e+01
5.995689e+01
5.996692e+01
5.996607e+01
5.995779e+01
5.994811e+01
5.994092e+01
5.993610e+01
5.993312e+01
5.993113e+01
5.992915e+01
5.992642e+01
5.992350e+01
5.992003e+01
5.991630e+01
5.991320e+01
5.991181e+01
5.991473e+01
5.992180e+01
5.993129e+01
5.994147e+01
5.995114e+01
5.995945e+01
5.996622e+01
5.997145e+01
5.997522e+01
5.997774e+01
5.997907e+01
5.997928e+01
5.997849e+01
5.997660e+01
5.997372e+01
5.997021e+01
5.996647e+01
5.996254e+01
5.995879e+01
5.995549e+01
5.995278e+01
5.995070e+01
5.994928e+01
5.994898e+01
5.995062e+01
5.995381e+01
5.995792e+01
5.996225e+01
5.996623e+01
5.996943e+01
5.997184e+01
5.997359e+01
5.997484e+01
5.997568e+01
5.997610e+01
5.997611e+01
5.997587e+01
5.997531e+01
5.997439e+01
5.997318e+01
5.997166e+01
5.996980e+01
5.996761e+01
5.996439e+01
5.996437e+01
6.040724e+01
6.040725e+01
6.042732e+01
6.044977e+01
6.047713e+01
6.050951e+01
6.054004e+01
6.054678e+01
6.048282e+01
6.036056e+01
5.994329e+01
5.961978e+01
5.943547e+01
5.947663e+01
5.946425e+01
5.946498e+01
5.948953e+01
5.953663e+01
5.959573e+01
5.964332e+01
5.967878e+01
5.971025e+01
5.974007e+01
5.976447e+01
5.977839e+01
5.978422e+01
5.978140e+01
5.977011e+01
5.975237e+01
5.973231e+01
5.970107e+01
5.965893e+01
5.961570e+01
5.961868e+01
5.966618e+01
5.973336e+01
5.980070e+01
5.985669e+01
5.989876e+01
5.993072e+01
5.995637e+01
5.997789e+01
5.999327e+01
5.999855e+01
5.999397e+01
5.998407e+01
5.997369e+01
5.996406e+01
5.995488e+01
5.994546e+01
5.993517e+01
5.992382e+01
5.991167e+01
5.989942e+01
5.988839e+01
5.988003e+01
5.987639e+01
5.988287e+01
5.989673e+01
5.991419e+01
5.993202e+01
5.994807e+01
5.996130e+01
5.997202e+01
5.998044e+01
5.998661e+01
5.999046e+01
5.999176e+01
5.999098e+01
5.998853e+01
5.998456e+01
5.997943e+01
5.997362e+01
5.996769e+01
5.996152e+01
5.995545e+01
5.994981e+01
5.994485e+01
5.994075e+01
5.993766e+01
5.993649e+01
5.993871e+01
5.994376e+01
5.995066e+01
5.995831e+01
5.996572e+01
5.997192e+01
5.997684e+01
5.998057e+01
5.998322e+01
5.998485e+01
5.998543e+01
5.998514e+01
5.998444e+01
5.998339e+01
5.998210e+01
5.998072e+01
5.997929e+01
5.997772e+01
5.997602e+01
5.997353e+01
5.997351e+01
6.040326e+01
6.040327e+01
6.041877e+01
6.043493e+01
6.045179e+01
6.046655e+01
6.046989e+01
6.044151e+01
6.034394e+01
6.016526e+01
5.988455e+01
5.929628e+01
5.939434e+01
5.946583e+01
5.947825e+01
5.948573e+01
5.951444e+01
5.956330e+01
5.962254e+01
5.966733e+01
5.970243e+01
5.973897e+01
5.977556e+01
5.980589e+01
5.982019e+01
5.982092e+01
5.981082e+01
5.979158e+01
5.976582e+01
5.973719e+01
5.969176e+01
5.963229e+01
5.958978e+01
5.960536e+01
5.966370e+01
5.973936e+01
5.981290e+01
5.987145e+01
5.991586e+01
5.994943e+01
5.997544e+01
5.999671e+01
6.001391e+01
6.002406e+01
6.002448e+01
6.001669e+01
6.000543e+01
5.999209e+01
5.997704e+01
5.996024e+01
5.994203e+01
5.992270e+01
5.990191e+01
5.988124e+01
5.986283e+01
5.984866e+01
5.984439e+01
5.985539e+01
5.987661e+01
5.990215e+01
5.992740e+01
5.994884e+01
5.996599e+01
5.997956e+01
5.999005e+01
5.999758e+01
6.000199e+01
6.000297e+01
6.000134e+01
5.999757e+01
5.999198e+01
5.998499e+01
5.997720e+01
5.996923e+01
5.996096e+01
5.995267e+01
5.994474e+01
5.993757e+01
5.993151e+01
5.992684e+01
5.992492e+01
5.992780e+01
5.993472e+01
5.994438e+01
5.995529e+01
5.996592e+01
5.997487e+01
5.998200e+01
5.998738e+01
5.999116e+01
5.999341e+01
5.999417e+01
5.999371e+01
5.999276e+01
5.999144e+01
5.998997e+01
5.998857e+01
5.998739e+01
5.998629e+01
5.998530e+01
5.998412e+01
5.998410e+01
6.039948e+01
6.039948e+01
6.040948e+01
6.041864e+01
6.042557e+01
6.042635e+01
6.041253e+01
6.036927e+01
6.027393e+01
6.010679e+01
5.988048e+01
5.957055e+01
5.952337e+01
5.952863e+01
5.952964e+01
5.953338e+01
5.955481e+01
5.959347e+01
5.964001e+01
5.968008e+01
5.971807e+01
5.975545e+01
5.978818e+01
5.981279e+01
5.982483e+01
5.982385e+01
5.981330e+01
5.979430e+01
5.976829e+01
5.973609e+01
5.968297e+01
5.961872e+01
5.959339e+01
5.962188e+01
5.968658e+01
5.976410e+01
5.983548e+01
5.989205e+01
5.993543e+01
5.996840e+01
5.999371e+01
6.001361e+01
6.002953e+01
6.004086e+01
6.004464e+01
6.004113e+01
6.003132e+01
6.001630e+01
5.999706e+01
5.997448e+01
5.994992e+01
5.992371e+01
5.989526e+01
5.986699e+01
5.984181e+01
5.982241e+01
5.981933e+01
5.983552e+01
5.986389e+01
5.989669e+01
5.992803e+01
5.995336e+01
5.997312e+01
5.998830e+01
5.999970e+01
6.000766e+01
6.001210e+01
6.001272e+01
6.001057e+01
6.000595e+01
5.999920e+01
5.999080e+01
5.998133e+01
5.997149e+01
5.996127e+01
5.995086e+01
5.994076e+01
5.993149e+01
5.992362e+01
5.991763e+01
5.991520e+01
5.991878e+01
5.992746e+01
5.993962e+01
5.995341e+01
5.996682e+01
5.997806e+01
5.998694e+01
5.999358e+01
5.999819e+01
6.000094e+01
6.000199e+01
6.000159e+01
6.000064e+01
5.999933e+01
5.999790e+01
5.999665e+01
5.999585e+01
5.999538e+01
5.999536e+01
5.999613e+01
5.999611e+01
6.039598e+01
6.039597e+01
6.040052e+01
6.040326e+01
6.040212e+01
6.039329e+01
6.037026e+01
6.032338e+01
6.024013e+01
6.010770e+01
5.992838e+01
5.972416e+01
5.963704e+01
5.960439e+01
5.958963e+01
5.958652e+01
5.959902e+01
5.962631e+01
5.966168e+01
5.969601e+01
5.972904e+01
5.975963e+01
5.978521e+01
5.980325e+01
5.981147e+01
5.981042e+01
5.980110e+01
5.978468e+01
5.976364e+01
5.973329e+01
5.968333e+01
5.963476e+01
5.962691e+01
5.966283e+01
5.972658e+01
5.979879e+01
5.986311e+01
5.991495e+01
5.995521e+01
5.998609e+01
6.000990e+01
6.002850e+01
6.004293e+01
6.005290e+01
6.005779e+01
6.005683e+01
6.004929e+01
6.003488e+01
6.001406e+01
5.998806e+01
5.995896e+01
5.992722e+01
5.989241e+01
5.985774e+01
5.982700e+01
5.980394e+01
5.980395e+01
5.982552e+01
5.986006e+01
5.989855e+01
5.993358e+01
5.996121e+01
5.998218e+01
5.999777e+01
6.000909e+01
6.001673e+01
6.002081e+01
6.002121e+01
6.001880e+01
6.001376e+01
6.000637e+01
5.999704e+01
5.998629e+01
5.997480e+01
5.996281e+01
5.995042e+01
5.993827e+01
5.992707e+01
5.991760e+01
5.991060e+01
5.990795e+01
5.991226e+01
5.992246e+01
5.993670e+01
5.995279e+01
5.996832e+01
5.998129e+01
5.999145e+01
5.999895e+01
6.000411e+01
6.000725e+01
6.000865e+01
6.000856e+01
6.000786e+01
6.000679e+01
6.000564e+01
6.000473e+01
6.000441e+01
6.000471e+01
6.000584e+01
6.000907e+01
6.000905e+01
6.039300e+01
6.039299e+01
6.039269e+01
6.039009e+01
6.038291e+01
6.036783e+01
6.034009e+01
6.029350e+01
6.022099e+01
6.011533e+01
5.997521e+01
5.981961e+01
5.972344e+01
5.967183e+01
5.964446e+01
5.963366e+01
5.963808e+01
5.965562e+01
5.968123e+01
5.970858e+01
5.973555e+01
5.976009e+01
5.978017e+01
5.979363e+01
5.979930e+01
5.979732e+01
5.978848e+01
5.977427e+01
5.975607e+01
5.972879e+01
5.969012e+01
5.966315e+01
5.966940e+01
5.970898e+01
5.976855e+01
5.983273e+01
5.988974e+01
5.993645e+01
5.997317e+01
6.000160e+01
6.002364e+01
6.004080e+01
6.005376e+01
6.006230e+01
6.006672e+01
6.006645e+01
6.006051e+01
6.004770e+01
6.002747e+01
6.000046e+01
5.996880e+01
5.993312e+01
5.989349e+01
5.985395e+01
5.981940e+01
5.979601e+01
5.979981e+01
5.982611e+01
5.986513e+01
5.990703e+01
5.994350e+01
5.997175e+01
5.999261e+01
6.000761e+01
6.001810e+01
6.002492e+01
6.002840e+01
6.002865e+01
6.002616e+01
6.002102e+01
6.001343e+01
6.000364e+01
5.999206e+01
5.997928e+01
5.996573e+01
5.995155e+01
5.993750e+01
5.992451e+01
5.991364e+01
5.990595e+01
5.990337e+01
5.990840e+01
5.991986e+01
5.993566e+01
5.995337e+01
5.997032e+01
5.998445e+01
5.999545e+01
6.000349e+01
6.000899e+01
6.001239e+01
6.001411e+01
6.001447e+01
6.001417e+01
6.001352e+01
6.001281e+01
6.001239e+01
6.001265e+01
6.001381e+01
6.001619e+01
6.002208e+01
6.002206e+01
6.039068e+01
6.039066e+01
6.038641e+01
6.037965e+01
6.036815e+01
6.034907e+01
6.031886e+01
6.027333e+01
6.020817e+01
6.011949e+01
6.000662e+01
5.988256e+01
5.978818e+01
5.972634e+01
5.968938e+01
5.967157e+01
5.966932e+01
5.967936e+01
5.969736e+01
5.971863e+01
5.974039e+01
5.976033e+01
5.977642e+01
5.978699e+01
5.979103e+01
5.978844e+01
5.977978e+01
5.976629e+01
5.974846e+01
5.972436e+01
5.969821e+01
5.968789e+01
5.970473e+01
5.974662e+01
5.980246e+01
5.986020e+01
5.991176e+01
5.995437e+01
5.998812e+01
6.001439e+01
6.003478e+01
6.005056e+01
6.006236e+01
6.007018e+01
6.007409e+01
6.007398e+01
6.006893e+01
6.005754e+01
6.003862e+01
6.001198e+01
5.997910e+01
5.994076e+01
5.989775e+01
5.985493e+01
5.981861e+01
5.979814e+01
5.980573e+01
5.983561e+01
5.987714e+01
5.992015e+01
5.995638e+01
5.998398e+01
6.000382e+01
6.001754e+01
6.002674e+01
6.003244e+01
6.003523e+01
6.003526e+01
6.003273e+01
6.002768e+01
6.002017e+01
6.001032e+01
5.999835e+01
5.998470e+01
5.996987e+01
5.995411e+01
5.993832e+01
5.992368e+01
5.991155e+01
5.990339e+01
5.990113e+01
5.990685e+01
5.991931e+01
5.993621e+01
5.995491e+01
5.997267e+01
5.998749e+01
5.999899e+01
6.000734e+01
6.001301e+01
6.001656e+01
6.001853e+01
6.001933e+01
6.001948e+01
6.001929e+01
6.001908e+01
6.001921e+01
6.002009e+01
6.002210e+01
6.002570e+01
6.003418e+01
6.003416e+01
6.038902e+01
6.038899e+01
6.038178e+01
6.037202e+01
6.035757e+01
6.033599e+01
6.030445e+01
6.025989e+01
6.019942e+01
6.012094e+01
6.002498e+01
5.992084e+01
5.983223e+01
5.976706e+01
5.972427e+01
5.970069e+01
5.969289e+01
5.969724e+01
5.970971e+01
5.972635e+01
5.974415e+01
5.976073e+01
5.977409e+01
5.978270e+01
5.978563e+01
5.978257e+01
5.977386e+01
5.976029e+01
5.974235e+01
5.972138e+01
5.970493e+01
5.970575e+01
5.973004e+01
5.977360e+01
5.982676e+01
5.988020e+01
5.992799e+01
5.996766e+01
5.999922e+01
6.002385e+01
6.004301e+01
6.005788e+01
6.006906e+01
6.007668e+01
6.008080e+01
6.008125e+01
6.007714e+01
6.006704e+01
6.004949e+01
6.002359e+01
5.998990e+01
5.994929e+01
5.990349e+01
5.985832e+01
5.982204e+01
5.980571e+01
5.981693e+01
5.984938e+01
5.989205e+01
5.993468e+01
5.996992e+01
5.999642e+01
6.001491e+01
6.002707e+01
6.003467e+01
6.003916e+01
6.004131e+01
6.004114e+01
6.003857e+01
6.003365e+01
6.002636e+01
6.001665e+01
6.000462e+01
5.999047e+01
5.997467e+01
5.995759e+01
5.994026e+01
5.992407e+01
5.991077e+01
5.990223e+01
5.990044e+01
5.990681e+01
5.992005e+01
5.993771e+01
5.995696e+01
5.997510e+01
5.999030e+01
6.000210e+01
6.001065e+01
6.001644e+01
6.002006e+01
6.002216e+01
6.002328e+01
6.002379e+01
6.002398e+01
6.002421e+01
6.002482e+01
6.002625e+01
6.002900e+01
6.003367e+01
6.004450e+01
6.004448e+01
6.038797e+01
6.038794e+01
6.037877e+01
6.036707e+01
6.035082e+01
6.032779e+01
6.029559e+01
6.025176e+01
6.019414e+01
6.012153e+01
6.003518e+01
5.994250e+01
5.985886e+01
5.979308e+01
5.974728e+01
5.972010e+01
5.970862e+01
5.970922e+01
5.971808e+01
5.973159e+01
5.974674e+01
5.976112e+01
5.977273e+01
5.978010e+01
5.978230e+01
5.977895e+01
5.977008e+01
5.975614e+01
5.973816e+01
5.971994e+01
5.971027e+01
5.971820e+01
5.974652e+01
5.979059e+01
5.984203e+01
5.989292e+01
5.993842e+01
5.997628e+01
6.000645e+01
6.002998e+01
6.004824e+01
6.006242e+01
6.007338e+01
6.008133e+01
6.008622e+01
6.008768e+01
6.008474e+01
6.007599e+01
6.005979e+01
6.003477e+01
6.000048e+01
5.995762e+01
5.990891e+01
5.986141e+01
5.982567e+01
5.981302e+01
5.982720e+01
5.986147e+01
5.990470e+01
5.994665e+01
5.998106e+01
6.000637e+01
6.002344e+01
6.003416e+01
6.004047e+01
6.004393e+01
6.004555e+01
6.004519e+01
6.004275e+01
6.003819e+01
6.003132e+01
6.002199e+01
6.001011e+01
5.999576e+01
5.997927e+01
5.996116e+01
5.994252e+01
5.992497e+01
5.991057e+01
5.990165e+01
5.990030e+01
5.990720e+01
5.992103e+01
5.993922e+01
5.995880e+01
5.997714e+01
5.999261e+01
6.000466e+01
6.001337e+01
6.001920e+01
6.002284e+01
6.002498e+01
6.002623e+01
6.002698e+01
6.002743e+01
6.002796e+01
6.002892e+01
6.003075e+01
6.003400e+01
6.003946e+01
6.005226e+01
6.005224e+01
6.038748e+01
6.038745e+01
6.037731e+01
6.036468e+01
6.034759e+01
6.032395e+01
6.029157e+01
6.024823e+01
6.019209e+01
6.012228e+01
6.004035e+01
5.995285e+01
5.987178e+01
5.980597e+01
5.975884e+01
5.972989e+01
5.971655e+01
5.971528e+01
5.972234e+01
5.973424e+01
5.974802e+01
5.976124e+01
5.977196e+01
5.977874e+01
5.978062e+01
5.977715e+01
5.976822e+01
5.975402e+01
5.973625e+01
5.971995e+01
5.971361e+01
5.972445e+01
5.975408e+01
5.979793e+01
5.984831e+01
5.989797e+01
5.994250e+01
5.997972e+01
6.000946e+01
6.003266e+01
6.005061e+01
6.006454e+01
6.007533e+01
6.008342e+01
6.008886e+01
6.009118e+01
6.008938e+01
6.008193e+01
6.006707e+01
6.004310e+01
6.000876e+01
5.996404e+01
5.991231e+01
5.986215e+01
5.982616e+01
5.981523e+01
5.983124e+01
5.986684e+01
5.991043e+01
5.995194e+01
5.998597e+01
6.001093e+01
6.002761e+01
6.003786e+01
6.004367e+01
6.004667e+01
6.004779e+01
6.004723e+01
6.004494e+01
6.004071e+01
6.003425e+01
6.002530e+01
6.001370e+01
5.999942e+01
5.998263e+01
5.996392e+01
5.994435e+01
5.992569e+01
5.991035e+01
5.990103e+01
5.989977e+01
5.990698e+01
5.992122e+01
5.993976e+01
5.995950e+01
5.997788e+01
5.999344e+01
6.000560e+01
6.001442e+01
6.002040e+01
6.002419e+01
6.002647e+01
6.002782e+01
6.002863e+01
6.002922e+01
6.002993e+01
6.003111e+01
6.003319e+01
6.003675e+01
6.004269e+01
6.005702e+01
6.005700e+01
0.000000e+00
6.038748e+01
6.037734e+01
6.036471e+01
6.034762e+01
6.032398e+01
6.029159e+01
6.024825e+01
6.019210e+01
6.012229e+01
6.004035e+01
5.995284e+01
5.987176e+01
5.980595e+01
5.975881e+01
5.972986e+01
5.971652e+01
5.971525e+01
5.972230e+01
5.973421e+01
5.974799e+01
5.976122e+01
5.977194e+01
5.977872e+01
5.978060e+01
5.977714e+01
5.976821e+01
5.975402e+01
5.973626e+01
5.971996e+01
5.971362e+01
5.972445e+01
5.975407e+01
5.979792e+01
5.984830e+01
5.989795e+01
5.994248e+01
5.997969e+01
6.000942e+01
6.003262e+01
6.005057e+01
6.006449e+01
6.007529e+01
6.008337e+01
6.008881e+01
6.009114e+01
6.008934e+01
6.008190e+01
6.006704e+01
6.004307e+01
6.000874e+01
5.996403e+01
5.991230e+01
5.986214e+01
5.982615e+01
5.981522e+01
5.983123e+01
5.986683e+01
5.991041e+01
5.995192e+01
5.998595e+01