# vtk DataFile Version 3.0
Scalar Field
ASCII
DATASET RECTILINEAR_GRID
DIMENSIONS 102 22 1
X_COORDINATES 102 double
0.000000 0.100000 0.200000 0.300000 0.400000 0.500000 0.600000 0.700000 0.800000 0.900000 1.000000 1.100000 1.200000 1.300000 1.400000 1.500000 1.600000 1.700000 1.800000 1.900000 2.000000 2.100000 2.200000 2.300000 2.400000 2.500000 2.600000 2.700000 2.800000 2.900000 3.000000 3.100000 3.200000 3.300000 3.400000 3.500000 3.600000 3.700000 3.800000 3.900000 4.000000 4.100000 4.200000 4.300000 4.400000 4.500000 4.600000 4.700000 4.800000 4.900000 5.000000 5.100000 5.200000 5.300000 5.400000 5.500000 5.600000 5.700000 5.800000 5.900000 6.000000 6.100000 6.200000 6.300000 6.400000 6.500000 6.600000 6.700000 6.800000 6.900000 7.000000 7.100000 7.200000 7.300000 7.400000 7.500000 7.600000 7.700000 7.800000 7.900000 8.000000 8.100000 8.200000 8.300000 8.400000 8.500000 8.600000 8.700000 8.800000 8.900000 9.000000 9.100000 9.200000 9.300000 9.400000 9.500000 9.600000 9.700000 9.800000 9.900000 10.000000 10.100000 
Y_COORDINATES 22 double
0.000000 0.100000 0.200000 0.300000 0.400000 0.500000 0.600000 0.700000 0.800000 0.900000 1.000000 1.100000 1.200000 1.300000 1.400000 1.500000 1.600000 1.700000 1.800000 1.900000 2.000000 2.100000 
Z_COORDINATES 1 double
0.0
POINT_DATA 2244
SCALARS Pressure double 1
LOOKUP_TABLE default
0.000000e+00
6.449306e+01
6.446032e+01
6.442301e+01
6.437725e+01
6.431906e+01
6.424469e+01
6.415283e+01
6.404325e+01
6.393745e+01
6.385219e+01
6.379234e+01
6.375544e+01
6.373653e+01
6.373101e+01
6.373534e+01
6.374707e+01
6.376452e+01
6.378658e+01
6.381257e+01
6.384214e+01
6.387502e+01
6.391063e+01
6.394764e+01
6.398355e+01
6.401485e+01
6.403637e+01
6.404344e+01
6.403495e+01
6.401475e+01
6.398966e+01
6.396654e+01
6.395019e+01
6.394277e+01
6.394442e+01
6.395473e+01
6.397290e+01
6.399780e+01
6.402792e+01
6.406141e+01
6.409621e+01
6.413025e+01
6.416147e+01
6.418799e+01
6.420877e+01
6.422383e+01
6.423428e+01
6.424172e+01
6.424756e+01
6.425335e+01
6.425932e+01
6.426453e+01
6.426747e+01
6.426612e+01
6.425828e+01
6.424216e+01
6.421711e+01
6.418434e+01
6.414659e+01
6.410775e+01
6.407228e+01
6.404430e+01
6.402664e+01
6.402016e+01
6.402292e+01
6.403241e+01
6.404748e+01
6.406681e+01
6.408867e+01
6.411088e+01
6.413108e+01
6.414738e+01
6.415888e+01
6.416602e+01
6.416995e+01
6.417192e+01
6.417289e+01
6.417344e+01
6.417390e+01
6.417438e+01
6.417490e+01
6.417547e+01
6.417606e+01
6.417663e+01
6.417719e+01
6.417772e+01
6.417821e+01
6.417866e+01
6.417909e+01
6.417949e+01
6.417987e+01
6.418023e+01
6.418059e+01
6.418096e+01
6.418133e+01
6.418172e+01
6.418211e+01
6.418248e+01
6.418279e+01
6.418297e+01
6.418319e+01
0.000000e+00
6.449306e+01
6.449267e+01
6.445993e+01
6.442262e+01
6.437686e+01
6.431868e+01
6.424430e+01
6.415245e+01
6.404286e+01
6.393706e+01
6.385180e+01
6.379195e+01
6.375506e+01
6.373614e+01
6.373062e+01
6.373495e+01
6.374668e+01
6.376413e+01
6.378619e+01
6.381218e+01
6.384176e+01
6.387464e+01
6.391024e+01
6.394726e+01
6.398316e+01
6.401446e+01
6.403598e+01
6.404306e+01
6.403457e+01
6.401437e+01
6.398927e+01
6.396615e+01
6.394981e+01
6.394238e+01
6.394404e+01
6.395435e+01
6.397252e+01
6.399742e+01
6.402754e+01
6.406102e+01
6.409583e+01
6.412986e+01
6.416108e+01
6.418761e+01
6.420838e+01
6.422345e+01
6.423390e+01
6.424134e+01
6.424718e+01
6.425297e+01
6.425893e+01
6.426415e+01
6.426709e+01
6.426573e+01
6.425789e+01
6.424177e+01
6.421672e+01
6.418396e+01
6.414621e+01
6.410736e+01
6.407189e+01
6.404392e+01
6.402626e+01
6.401978e+01
6.402254e+01
6.403203e+01
6.404709e+01
6.406642e+01
6.408829e+01
6.411049e+01
6.413069e+01
6.414699e+01
6.415849e+01
6.416563e+01
6.416957e+01
6.417154e+01
6.417250e+01
6.417306e+01
6.417351e+01
6.417399e+01
6.417452e+01
6.417509e+01
6.417567e+01
6.417625e+01
6.417680e+01
6.417733e+01
6.417782e+01
6.417828e+01
6.417870e+01
6.417910e+01
6.417948e+01
6.417985e+01
6.418021e+01
6.418057e+01
6.418095e+01
6.418133e+01
6.418172e+01
6.418209e+01
6.418240e+01
6.418259e+01
6.418280e+01
6.418319e+01
6.449226e+01
6.449187e+01
6.446064e+01
6.442457e+01
6.437954e+01
6.432108e+01
6.424471e+01
6.414888e+01
6.402943e+01
6.391907e+01
6.383492e+01
6.377846e+01
6.374502e+01
6.372878e+01
6.372501e+01
6.373041e+01
6.374275e+01
6.376051e+01
6.378263e+01
6.380844e+01
6.383762e+01
6.386992e+01
6.390496e+01
6.394188e+01
6.397891e+01
6.401255e+01
6.403742e+01
6.404791e+01
6.404142e+01
6.402130e+01
6.399446e+01
6.396848e+01
6.394956e+01
6.394063e+01
6.394139e+01
6.395115e+01
6.396889e+01
6.399340e+01
6.402318e+01
6.405635e+01
6.409085e+01
6.412460e+01
6.415584e+01
6.418257e+01
6.420373e+01
6.421924e+01
6.423002e+01
6.423762e+01
6.424349e+01
6.424875e+01
6.425372e+01
6.425762e+01
6.425911e+01
6.425670e+01
6.424839e+01
6.423238e+01
6.420779e+01
6.417603e+01
6.413980e+01
6.410279e+01
6.406918e+01
6.404276e+01
6.402616e+01
6.402038e+01
6.402414e+01
6.403411e+01
6.404928e+01
6.406819e+01
6.408886e+01
6.410908e+01
6.412697e+01
6.414163e+01
6.415257e+01
6.416003e+01
6.416474e+01
6.416766e+01
6.416955e+01
6.417090e+01
6.417197e+01
6.417291e+01
6.417378e+01
6.417459e+01
6.417534e+01
6.417604e+01
6.417667e+01
6.417725e+01
6.417778e+01
6.417826e+01
6.417869e+01
6.417909e+01
6.417947e+01
6.417984e+01
6.418020e+01
6.418056e+01
6.418093e+01
6.418132e+01
6.418172e+01
6.418212e+01
6.418249e+01
6.418278e+01
6.418294e+01
6.418333e+01
6.449134e+01
6.449095e+01
6.446286e+01
6.442961e+01
6.438655e+01
6.432809e+01
6.424781e+01
6.414273e+01
6.399949e+01
6.388061e+01
6.380047e+01
6.375181e+01
6.372567e+01
6.371478e+01
6.371433e+01
6.372168e+01
6.373509e+01
6.375335e+01
6.377555e+01
6.380105e+01
6.382948e+01
6.386069e+01
6.389458e+01
6.393092e+01
6.396930e+01
6.400793e+01
6.404044e+01
6.405850e+01
6.405545e+01
6.403480e+01
6.400479e+01
6.397397e+01
6.394996e+01
6.393780e+01
6.393661e+01
6.394516e+01
6.396196e+01
6.398553e+01
6.401427e+01
6.404644e+01
6.408008e+01
6.411324e+01
6.414422e+01
6.417131e+01
6.419332e+01
6.420993e+01
6.422175e+01
6.423002e+01
6.423613e+01
6.424115e+01
6.424519e+01
6.424768e+01
6.424795e+01
6.424456e+01
6.423587e+01
6.422027e+01
6.419679e+01
6.416655e+01
6.413251e+01
6.409804e+01
6.406693e+01
6.404263e+01
6.402756e+01
6.402280e+01
6.402772e+01
6.403799e+01
6.405267e+01
6.407024e+01
6.408882e+01
6.410649e+01
6.412184e+01
6.413480e+01
6.414495e+01
6.415251e+01
6.415806e+01
6.416212e+01
6.416514e+01
6.416749e+01
6.416939e+01
6.417099e+01
6.417237e+01
6.417356e+01
6.417461e+01
6.417553e+01
6.417633e+01
6.417702e+01
6.417763e+01
6.417816e+01
6.417862e+01
6.417904e+01
6.417943e+01
6.417979e+01
6.418014e+01
6.418050e+01
6.418087e+01
6.418126e+01
6.418169e+01
6.418214e+01
6.418259e+01
6.418301e+01
6.418325e+01
6.418364e+01
6.449073e+01
6.449035e+01
6.446716e+01
6.443857e+01
6.439921e+01
6.434140e+01
6.425462e+01
6.413028e+01
6.394129e+01
6.381481e+01
6.374752e+01
6.371336e+01
6.369856e+01
6.369528e+01
6.369928e+01
6.370919e+01
6.372400e+01
6.374292e+01
6.376521e+01
6.379029e+01
6.381781e+01
6.384770e+01
6.388021e+01
6.391579e+01
6.395507e+01
6.399877e+01
6.404223e+01
6.407344e+01
6.407793e+01
6.405571e+01
6.402019e+01
6.398265e+01
6.395174e+01
6.393379e+01
6.392960e+01
6.393633e+01
6.395181e+01
6.397414e+01
6.400166e+01
6.403270e+01
6.406538e+01
6.409781e+01
6.412828e+01
6.415550e+01
6.417837e+01
6.419632e+01
6.420954e+01
6.421891e+01
6.422556e+01
6.423041e+01
6.423395e+01
6.423540e+01
6.423437e+01
6.423009e+01
6.422136e+01
6.420682e+01
6.418547e+01
6.415784e+01
6.412703e+01
6.409599e+01
6.406807e+01
6.404638e+01
6.403311e+01
6.402934e+01
6.403495e+01
6.404508e+01
6.405871e+01
6.407444e+01
6.409060e+01
6.410568e+01
6.411874e+01
6.413012e+01
6.413946e+01
6.414688e+01
6.415272e+01
6.415733e+01
6.416104e+01
6.416409e+01
6.416663e+01
6.416880e+01
6.417065e+01
6.417223e+01
6.417358e+01
6.417474e+01
6.417571e+01
6.417654e+01
6.417724e+01
6.417784e+01
6.417835e+01
6.417879e+01
6.417919e+01
6.417956e+01
6.417992e+01
6.418027e+01
6.418065e+01
6.418106e+01
6.418152e+01
6.418204e+01
6.418262e+01
6.418324e+01
6.418386e+01
6.418425e+01
6.449095e+01
6.449056e+01
6.447416e+01
6.445254e+01
6.441973e+01
6.436497e+01
6.426931e+01
6.410571e+01
6.383647e+01
6.371876e+01
6.367798e+01
6.366480e+01
6.366501e+01
6.367111e+01
6.368033e+01
6.369322e+01
6.370970e+01
6.372941e+01
6.375184e+01
6.377650e+01
6.380309e+01
6.383164e+01
6.386298e+01
6.389810e+01
6.393807e+01
6.398335e+01
6.403342e+01
6.408394e+01
6.410489e+01
6.408517e+01
6.404134e+01
6.399380e+01
6.395540e+01
6.393094e+01
6.392229e+01
6.392689e+01
6.394074e+01
6.396155e+01
6.398758e+01
6.401723e+01
6.404877e+01
6.408033e+01
6.411014e+01
6.413722e+01
6.416069e+01
6.417972e+01
6.419427e+01
6.420494e+01
6.421249e+01
6.421752e+01
6.422049e+01
6.422074e+01
6.421838e+01
6.421347e+01
6.420530e+01
6.419270e+01
6.417459e+01
6.415083e+01
6.412433e+01
6.409759e+01
6.407351e+01
6.405481e+01
6.404350e+01
6.404056e+01
6.404583e+01
6.405525e+01
6.406732e+01
6.408083e+01
6.409445e+01
6.410703e+01
6.411804e+01
6.412788e+01
6.413628e+01
6.414331e+01
6.414913e+01
6.415398e+01
6.415805e+01
6.416149e+01
6.416443e+01
6.416695e+01
6.416910e+01
6.417094e+01
6.417250e+01
6.417382e+01
6.417492e+01
6.417584e+01
6.417661e+01
6.417726e+01
6.417781e+01
6.417828e+01
6.417870e+01
6.417909e+01
6.417946e+01
6.417984e+01
6.418024e+01
6.418068e+01
6.418119e+01
6.418180e+01
6.418253e+01
6.418342e+01
6.418469e+01
6.418508e+01
6.449242e+01
6.449204e+01
6.448423e+01
6.447238e+01
6.445097e+01
6.440669e+01
6.430692e+01
6.407282e+01
6.365330e+01
6.358318e+01
6.359586e+01
6.361135e+01
6.362869e+01
6.364414e+01
6.365848e+01
6.367444e+01
6.369272e+01
6.371336e+01
6.373602e+01
6.376023e+01
6.378581e+01
6.381301e+01
6.384296e+01
6.387734e+01
6.391756e+01
6.396410e+01
6.401540e+01
6.406665e+01
6.410670e+01
6.410195e+01
6.406260e+01
6.400700e+01
6.396334e+01
6.393447e+01
6.392203e+01
6.392337e+01
6.393527e+01
6.395365e+01
6.397721e+01
6.400463e+01
6.403429e+01
6.406436e+01
6.409296e+01
6.411919e+01
6.414278e+01
6.416264e+01
6.417842e+01
6.419025e+01
6.419836e+01
6.420300e+01
6.420462e+01
6.420331e+01
6.419960e+01
6.419441e+01
6.418756e+01
6.417797e+01
6.416431e+01
6.414585e+01
6.412471e+01
6.410300e+01
6.408319e+01
6.406766e+01
6.405817e+01
6.405561e+01
6.405974e+01
6.406773e+01
6.407773e+01
6.408876e+01
6.409981e+01
6.411005e+01
6.411914e+01
6.412749e+01
6.413490e+01
6.414137e+01
6.414697e+01
6.415181e+01
6.415600e+01
6.415962e+01
6.416275e+01
6.416545e+01
6.416776e+01
6.416972e+01
6.417138e+01
6.417278e+01
6.417394e+01
6.417492e+01
6.417573e+01
6.417641e+01
6.417699e+01
6.417750e+01
6.417795e+01
6.417837e+01
6.417878e+01
6.417919e+01
6.417963e+01
6.418012e+01
6.418069e+01
6.418139e+01
6.418228e+01
6.418346e+01
6.418556e+01
6.418594e+01
6.449531e+01
6.449492e+01
6.449691e+01
6.449748e+01
6.449409e+01
6.447666e+01
6.440778e+01
6.413877e+01
6.332849e+01
6.340465e+01
6.352348e+01
6.356797e+01
6.359634e+01
6.361784e+01
6.363552e+01
6.365412e+01
6.367404e+01
6.369565e+01
6.371856e+01
6.374212e+01
6.376604e+01
6.379077e+01
6.381750e+01
6.384687e+01
6.387880e+01
6.391279e+01
6.395542e+01
6.401414e+01
6.405760e+01
6.405765e+01
6.403943e+01
6.401062e+01
6.397859e+01
6.395273e+01
6.393736e+01
6.393485e+01
6.394286e+01
6.395759e+01
6.397702e+01
6.400051e+01
6.402671e+01
6.405388e+01
6.408006e+01
6.410402e+01
6.412647e+01
6.414618e+01
6.416238e+01
6.417456e+01
6.418238e+01
6.418592e+01
6.418588e+01
6.418282e+01
6.417812e+01
6.417331e+01
6.416857e+01
6.416298e+01
6.415485e+01
6.414286e+01
6.412792e+01
6.411171e+01
6.409630e+01
6.408379e+01
6.407577e+01
6.407305e+01
6.407555e+01
6.408151e+01
6.408908e+01
6.409750e+01
6.410603e+01
6.411410e+01
6.412141e+01
6.412833e+01
6.413475e+01
6.414059e+01
6.414584e+01
6.415052e+01
6.415465e+01
6.415828e+01
6.416144e+01
6.416416e+01
6.416649e+01
6.416847e+01
6.417014e+01
6.417155e+01
6.417273e+01
6.417372e+01
6.417456e+01
6.417528e+01
6.417590e+01
6.417645e+01
6.417695e+01
6.417743e+01
6.417790e+01
6.417838e+01
6.417887e+01
6.417941e+01
6.418003e+01
6.418080e+01
6.418182e+01
6.418322e+01
6.418609e+01
6.418648e+01
6.449927e+01
6.449889e+01
6.451046e+01
6.452415e+01
6.454273e+01
6.456855e+01
6.459804e+01
6.469746e+01
6.401336e+01
6.347864e+01
6.355186e+01
6.356383e+01
6.358127e+01
6.360266e+01
6.362026e+01
6.364040e+01
6.366032e+01
6.368134e+01
6.370282e+01
6.372349e+01
6.374245e+01
6.375981e+01
6.377762e+01
6.379632e+01
6.381685e+01
6.384458e+01
6.387768e+01
6.391431e+01
6.394273e+01
6.396189e+01
6.397806e+01
6.399113e+01
6.399437e+01
6.398468e+01
6.397098e+01
6.396324e+01
6.396547e+01
6.397495e+01
6.398886e+01
6.400690e+01
6.402801e+01
6.405063e+01
6.407291e+01
6.409309e+01
6.411260e+01
6.413042e+01
6.414531e+01
6.415621e+01
6.416255e+01
6.416460e+01
6.416338e+01
6.415946e+01
6.415496e+01
6.415147e+01
6.414958e+01
6.414850e+01
6.414655e+01
6.414173e+01
6.413351e+01
6.412294e+01
6.411176e+01
6.410189e+01
6.409486e+01
6.409155e+01
6.409211e+01
6.409572e+01
6.410070e+01
6.410651e+01
6.411263e+01
6.411867e+01
6.412440e+01
6.412996e+01
6.413538e+01
6.414054e+01
6.414534e+01
6.414972e+01
6.415367e+01
6.415716e+01
6.416021e+01
6.416286e+01
6.416512e+01
6.416705e+01
6.416867e+01
6.417005e+01
6.417122e+01
6.417222e+01
6.417308e+01
6.417383e+01
6.417451e+01
6.417512e+01
6.417569e+01
6.417623e+01
6.417676e+01
6.417730e+01
6.417787e+01
6.417848e+01
6.417918e+01
6.418002e+01
6.418110e+01
6.418261e+01
6.418580e+01
6.418619e+01
6.450360e+01
6.450322e+01
6.452227e+01
6.454605e+01
6.458101e+01
6.463763e+01
6.473337e+01
6.486719e+01
6.490013e+01
0.000000e+00
6.357616e+01
6.357577e+01
6.359030e+01
6.361071e+01
6.362469e+01
6.364309e+01
6.366226e+01
6.368163e+01
6.370027e+01
6.371681e+01
6.373035e+01
6.374129e+01
6.375031e+01
6.375634e+01
6.376031e+01
6.376662e+01
6.377906e+01
6.380936e+01
6.385433e+01
6.390132e+01
6.394471e+01
6.398293e+01
6.401370e+01
6.402540e+01
6.401941e+01
6.400754e+01
6.400151e+01
6.400411e+01
6.401166e+01
6.402311e+01
6.403779e+01
6.405432e+01
6.407103e+01
6.408623e+01
6.410047e+01
6.411397e+01
6.412523e+01
6.413304e+01
6.413696e+01
6.413772e+01
6.413642e+01
6.413375e+01
6.413179e+01
6.413159e+01
6.413340e+01
6.413682e+01
6.414052e+01
6.414246e+01
6.414094e+01
6.413584e+01
6.412851e+01
6.412084e+01
6.411437e+01
6.411019e+01
6.410875e+01
6.410984e+01
6.411223e+01
6.411553e+01
6.411940e+01
6.412353e+01
6.412776e+01
6.413199e+01
6.413638e+01
6.414076e+01
6.414500e+01
6.414898e+01
6.415263e+01
6.415590e+01
6.415878e+01
6.416129e+01
6.416344e+01
6.416528e+01
6.416681e+01
6.416813e+01
6.416928e+01
6.417029e+01
6.417115e+01
6.417194e+01
6.417268e+01
6.417340e+01
6.417410e+01
6.417478e+01
6.417546e+01
6.417613e+01
6.417682e+01
6.417752e+01
6.417829e+01
6.417915e+01
6.418021e+01
6.418162e+01
6.418438e+01
6.418476e+01
6.450753e+01
6.450715e+01
6.453023e+01
6.455865e+01
6.459865e+01
6.465821e+01
6.474370e+01
6.484697e+01
6.493230e+01
6.493269e+01
0.000000e+00
6.364153e+01
6.364114e+01
6.365038e+01
6.366141e+01
6.367500e+01
6.369182e+01
6.370876e+01
6.372362e+01
6.373481e+01
6.374129e+01
6.374251e+01
6.373804e+01
6.372903e+01
6.371503e+01
6.370239e+01
6.369922e+01
6.373582e+01
6.380072e+01
6.387168e+01
6.393562e+01
6.398842e+01
6.403299e+01
6.406296e+01
6.407073e+01
6.406214e+01
6.404961e+01
6.404384e+01
6.404390e+01
6.404789e+01
6.405508e+01
6.406421e+01
6.407373e+01
6.408200e+01
6.408895e+01
6.409571e+01
6.410083e+01
6.410358e+01
6.410423e+01
6.410407e+01
6.410436e+01
6.410653e+01
6.411027e+01
6.411531e+01
6.412164e+01
6.412928e+01
6.413755e+01
6.414487e+01
6.414906e+01
6.414907e+01
6.414542e+01
6.413962e+01
6.413350e+01
6.412845e+01
6.412514e+01
6.412372e+01
6.412361e+01
6.412453e+01
6.412621e+01
6.412843e+01
6.413104e+01
6.413392e+01
6.413719e+01
6.414071e+01
6.414431e+01
6.414784e+01
6.415116e+01
6.415421e+01
6.415689e+01
6.415924e+01
6.416130e+01
6.416310e+01
6.416461e+01
6.416590e+01
6.416707e+01
6.416812e+01
6.416910e+01
6.417006e+01
6.417099e+01
6.417190e+01
6.417277e+01
6.417362e+01
6.417443e+01
6.417522e+01
6.417598e+01
6.417673e+01
6.417749e+01
6.417829e+01
6.417918e+01
6.418028e+01
6.418203e+01
6.418242e+01
6.451062e+01
6.451023e+01
6.453382e+01
6.456192e+01
6.459891e+01
6.464923e+01
6.471606e+01
6.478169e+01
6.481015e+01
6.459032e+01
6.459071e+01
0.000000e+00
6.366869e+01
6.369547e+01
6.370000e+01
6.371592e+01
6.373319e+01
6.374673e+01
6.375508e+01
6.375800e+01
6.375551e+01
6.374744e+01
6.373390e+01
6.371318e+01
6.368345e+01
6.364951e+01
6.364465e+01
6.369532e+01
6.377790e+01
6.386692e+01
6.394554e+01
6.400442e+01
6.405187e+01
6.409169e+01
6.411438e+01
6.411609e+01
6.410431e+01
6.409160e+01
6.408406e+01
6.408037e+01
6.407956e+01
6.408026e+01
6.408100e+01
6.408033e+01
6.407831e+01
6.407537e+01
6.407129e+01
6.406714e+01
6.406466e+01
6.406484e+01
6.407030e+01
6.408012e+01
6.409186e+01
6.410380e+01
6.411526e+01
6.412657e+01
6.413791e+01
6.414852e+01
6.415663e+01
6.416065e+01
6.416027e+01
6.415658e+01
6.415123e+01
6.414563e+01
6.414074e+01
6.413712e+01
6.413469e+01
6.413329e+01
6.413275e+01
6.413295e+01
6.413377e+01
6.413517e+01
6.413719e+01
6.413975e+01
6.414270e+01
6.414580e+01
6.414896e+01
6.415201e+01
6.415468e+01
6.415697e+01
6.415902e+01
6.416076e+01
6.416229e+01
6.416370e+01
6.416502e+01
6.416630e+01
6.416752e+01
6.416871e+01
6.416985e+01
6.417094e+01
6.417197e+01
6.417294e+01
6.417384e+01
6.417468e+01
6.417544e+01
6.417615e+01
6.417682e+01
6.417745e+01
6.417807e+01
6.417870e+01
6.417934e+01
6.417972e+01
6.451279e+01
6.451241e+01
6.453368e+01
6.455796e+01
6.458782e+01
6.462431e+01
6.466053e+01
6.467481e+01
6.462044e+01
6.451386e+01
6.412889e+01
6.383229e+01
6.367537e+01
6.371041e+01
6.372255e+01
6.374542e+01
6.376264e+01
6.377263e+01
6.377737e+01
6.377666e+01
6.376942e+01
6.375537e+01
6.373536e+01
6.370335e+01
6.365718e+01
6.361415e+01
6.362428e+01
6.368905e+01
6.378370e+01
6.388293e+01
6.396595e+01
6.402854e+01
6.407572e+01
6.411438e+01
6.414576e+01
6.416047e+01
6.415740e+01
6.414427e+01
6.413079e+01
6.412022e+01
6.411153e+01
6.410318e+01
6.409374e+01
6.408255e+01
6.406959e+01
6.405560e+01
6.404206e+01
6.403105e+01
6.402433e+01
6.402561e+01
6.403827e+01
6.405734e+01
6.407818e+01
6.409775e+01
6.411430e+01
6.412852e+01
6.414130e+01
6.415295e+01
6.416270e+01
6.416902e+01
6.417094e+01
6.416898e+01
6.416464e+01
6.415923e+01
6.415355e+01
6.414852e+01
6.414423e+01
6.414074e+01
6.413810e+01
6.413629e+01
6.413531e+01
6.413514e+01
6.413588e+01
6.413753e+01
6.414005e+01
6.414293e+01
6.414606e+01
6.414911e+01
6.415188e+01
6.415437e+01
6.415660e+01
6.415861e+01
6.416044e+01
6.416214e+01
6.416374e+01
6.416525e+01
6.416669e+01
6.416806e+01
6.416937e+01
6.417058e+01
6.417169e+01
6.417271e+01
6.417363e+01
6.417444e+01
6.417516e+01
6.417577e+01
6.417628e+01
6.417669e+01
6.417697e+01
6.417708e+01
6.417671e+01
6.417710e+01
6.451423e+01
6.451384e+01
6.453093e+01
6.454960e+01
6.457000e+01
6.458954e+01
6.459914e+01
6.457894e+01
6.449294e+01
6.433144e+01
6.407553e+01
6.353491e+01
6.363956e+01
6.371171e+01
6.374208e+01
6.376742e+01
6.377937e+01
6.378738e+01
6.379194e+01
6.379005e+01
6.378019e+01
6.376264e+01
6.373789e+01
6.369564e+01
6.364048e+01
6.361100e+01
6.363836e+01
6.371355e+01
6.381238e+01
6.391041e+01
6.398977e+01
6.405154e+01
6.409844e+01
6.413433e+01
6.416440e+01
6.418770e+01
6.419667e+01
6.419140e+01
6.417842e+01
6.416331e+01
6.414691e+01
6.412870e+01
6.410863e+01
6.408772e+01
6.406438e+01
6.403986e+01
6.401688e+01
6.399838e+01
6.398672e+01
6.399174e+01
6.401252e+01
6.404100e+01
6.407066e+01
6.409644e+01
6.411712e+01
6.413370e+01
6.414717e+01
6.415829e+01
6.416725e+01
6.417337e+01
6.417582e+01
6.417490e+01
6.417172e+01
6.416732e+01
6.416206e+01
6.415638e+01
6.415082e+01
6.414573e+01
6.414140e+01
6.413794e+01
6.413527e+01
6.413349e+01
6.413291e+01
6.413352e+01
6.413564e+01
6.413867e+01
6.414222e+01
6.414588e+01
6.414929e+01
6.415235e+01
6.415504e+01
6.415742e+01
6.415956e+01
6.416153e+01
6.416334e+01
6.416502e+01
6.416659e+01
6.416806e+01
6.416941e+01
6.417065e+01
6.417177e+01
6.417277e+01
6.417365e+01
6.417439e+01
6.417501e+01
6.417549e+01
6.417583e+01
6.417599e+01
6.417594e+01
6.417558e+01
6.417431e+01
6.417469e+01
6.451521e+01
6.451483e+01
6.452690e+01
6.453906e+01
6.454993e+01
6.455578e+01
6.454836e+01
6.451319e+01
6.442853e+01
6.427625e+01
6.407010e+01
6.378732e+01
6.375240e+01
6.376393e+01
6.377559e+01
6.378685e+01
6.379390e+01
6.379939e+01
6.379927e+01
6.379328e+01
6.378168e+01
6.376517e+01
6.374011e+01
6.369562e+01
6.365177e+01
6.364354e+01
6.368356e+01
6.376093e+01
6.385510e+01
6.394301e+01
6.401515e+01
6.407227e+01
6.411676e+01
6.415068e+01
6.417577e+01
6.419536e+01
6.420983e+01
6.421450e+01
6.420890e+01
6.419524e+01
6.417526e+01
6.415056e+01
6.412284e+01
6.409451e+01
6.406234e+01
6.402868e+01
6.399710e+01
6.397104e+01
6.395664e+01
6.396757e+01
6.399635e+01
6.403295e+01
6.406937e+01
6.409900e+01
6.412229e+01
6.414036e+01
6.415422e+01
6.416445e+01
6.417111e+01
6.417416e+01
6.417446e+01
6.417377e+01
6.417240e+01
6.416984e+01
6.416567e+01
6.416024e+01
6.415424e+01
6.414825e+01
6.414279e+01
6.413793e+01
6.413361e+01
6.412997e+01
6.412773e+01
6.412801e+01
6.413058e+01
6.413460e+01
6.413919e+01
6.414376e+01
6.414790e+01
6.415156e+01
6.415467e+01
6.415734e+01
6.415969e+01
6.416178e+01
6.416368e+01
6.416542e+01
6.416701e+01
6.416847e+01
6.416980e+01
6.417100e+01
6.417207e+01
6.417300e+01
6.417380e+01
6.417444e+01
6.417494e+01
6.417528e+01
6.417543e+01
6.417536e+01
6.417500e+01
6.417425e+01
6.417228e+01
6.417267e+01
6.451597e+01
6.451559e+01
6.452244e+01
6.452841e+01
6.453142e+01
6.452776e+01
6.451107e+01
6.447194e+01
6.439825e+01
6.427799e+01
6.411411e+01
6.392790e+01
6.385182e+01
6.382558e+01
6.381572e+01
6.381212e+01
6.380979e+01
6.380747e+01
6.380258e+01
6.379457e+01
6.378295e+01
6.376740e+01
6.374384e+01
6.371017e+01
6.368737e+01
6.369613e+01
6.374217e+01
6.381513e+01
6.389869e+01
6.397503e+01
6.403920e+01
6.409084e+01
6.413150e+01
6.416315e+01
6.418756e+01
6.420563e+01
6.421824e+01
6.422421e+01
6.422239e+01
6.421205e+01
6.419312e+01
6.416668e+01
6.413507e+01
6.410188e+01
6.406314e+01
6.402240e+01
6.398395e+01
6.395191e+01
6.393970e+01
6.395639e+01
6.399164e+01
6.403397e+01
6.407326e+01
6.410460e+01
6.412875e+01
6.414695e+01
6.416025e+01
6.416937e+01
6.417476e+01
6.417688e+01
6.417689e+01
6.417566e+01
6.417332e+01
6.416975e+01
6.416503e+01
6.415959e+01
6.415393e+01
6.414800e+01
6.414209e+01
6.413628e+01
6.413067e+01
6.412523e+01
6.412271e+01
6.412367e+01
6.412726e+01
6.413235e+01
6.413793e+01
6.414333e+01
6.414806e+01
6.415204e+01
6.415536e+01
6.415816e+01
6.416057e+01
6.416267e+01
6.416455e+01
6.416624e+01
6.416777e+01
6.416916e+01
6.417040e+01
6.417151e+01
6.417248e+01
6.417331e+01
6.417399e+01
6.417452e+01
6.417489e+01
6.417507e+01
6.417505e+01
6.417478e+01
6.417419e+01
6.417316e+01
6.417078e+01
6.417117e+01
6.451653e+01
6.451615e+01
6.451829e+01
6.451904e+01
6.451610e+01
6.450622e+01
6.448474e+01
6.444560e+01
6.438192e+01
6.428672e+01
6.415889e+01
6.401630e+01
6.392939e+01
6.388237e+01
6.385550e+01
6.383897e+01
6.382732e+01
6.381778e+01
6.380810e+01
6.379721e+01
6.378461e+01
6.376970e+01
6.375026e+01
6.373035e+01
6.372481e+01
6.374592e+01
6.379484e+01
6.386226e+01
6.393517e+01
6.400226e+01
6.405948e+01
6.410628e+01
6.414373e+01
6.417343e+01
6.419654e+01
6.421303e+01
6.422346e+01
6.422818e+01
6.422700e+01
6.421869e+01
6.420195e+01
6.417663e+01
6.414441e+01
6.410898e+01
6.406643e+01
6.402124e+01
6.397858e+01
6.394412e+01
6.393710e+01
6.395882e+01
6.399788e+01
6.404244e+01
6.408159e+01
6.411260e+01
6.413616e+01
6.415349e+01
6.416575e+01
6.417385e+01
6.417848e+01
6.418024e+01
6.418000e+01
6.417822e+01
6.417503e+01
6.417054e+01
6.416502e+01
6.415898e+01
6.415283e+01
6.414640e+01
6.413984e+01
6.413325e+01
6.412675e+01
6.412125e+01
6.411954e+01
6.412151e+01
6.412613e+01
6.413215e+01
6.413854e+01
6.414440e+01
6.414938e+01
6.415350e+01
6.415688e+01
6.415966e+01
6.416201e+01
6.416401e+01
6.416577e+01
6.416733e+01
6.416873e+01
6.416998e+01
6.417109e+01
6.417206e+01
6.417290e+01
6.417360e+01
6.417416e+01
6.417456e+01
6.417480e+01
6.417485e+01
6.417468e+01
6.417427e+01
6.417352e+01
6.417235e+01
6.416981e+01
6.417020e+01
6.451700e+01
6.451662e+01
6.451488e+01
6.451155e+01
6.450434e+01
6.449047e+01
6.446644e+01
6.442818e+01
6.437143e+01
6.429228e+01
6.418982e+01
6.407557e+01
6.398808e+01
6.392906e+01
6.389018e+01
6.386352e+01
6.384395e+01
6.382827e+01
6.381422e+01
6.380051e+01
6.378655e+01
6.377198e+01
6.375718e+01
6.374824e+01
6.375501e+01
6.378432e+01
6.383465e+01
6.389762e+01
6.396315e+01
6.402356e+01
6.407550e+01
6.411846e+01
6.415333e+01
6.418133e+01
6.420314e+01
6.421868e+01
6.422841e+01
6.423271e+01
6.423149e+01
6.422383e+01
6.420841e+01
6.418440e+01
6.415252e+01
6.411547e+01
6.407091e+01
6.402347e+01
6.397942e+01
6.394765e+01
6.394625e+01
6.397144e+01
6.401171e+01
6.405535e+01
6.409268e+01
6.412213e+01
6.414420e+01
6.416010e+01
6.417106e+01
6.417814e+01
6.418212e+01
6.418364e+01
6.418319e+01
6.418108e+01
6.417744e+01
6.417244e+01
6.416633e+01
6.415950e+01
6.415239e+01
6.414491e+01
6.413727e+01
6.412975e+01
6.412288e+01
6.411829e+01
6.411778e+01
6.412094e+01
6.412659e+01
6.413341e+01
6.414028e+01
6.414637e+01
6.415146e+01
6.415561e+01
6.415894e+01
6.416162e+01
6.416380e+01
6.416562e+01
6.416718e+01
6.416853e+01
6.416973e+01
6.417080e+01
6.417174e+01
6.417256e+01
6.417325e+01
6.417382e+01
6.417425e+01
6.417453e+01
6.417465e+01
6.417459e+01
6.417432e+01
6.417380e+01
6.417298e+01
6.417178e+01
6.416939e+01
6.416978e+01
6.451741e+01
6.451703e+01
6.451237e+01
6.450608e+01
6.449595e+01
6.447957e+01
6.445417e+01
6.441676e+01
6.436445e+01
6.429496e+01
6.420831e+01
6.411227e+01
6.402887e+01
6.396474e+01
6.391784e+01
6.388360e+01
6.385784e+01
6.383734e+01
6.381973e+01
6.380358e+01
6.378830e+01
6.377414e+01
6.376338e+01
6.376210e+01
6.377740e+01
6.381208e+01
6.386284e+01
6.392240e+01
6.398296e+01
6.403882e+01
6.408715e+01
6.412746e+01
6.416044e+01
6.418704e+01
6.420793e+01
6.422326e+01
6.423331e+01
6.423823e+01
6.423770e+01
6.423084e+01
6.421639e+01
6.419324e+01
6.416130e+01
6.412213e+01
6.407535e+01
6.402601e+01
6.398225e+01
6.395628e+01
6.395976e+01
6.398741e+01
6.402758e+01
6.406893e+01
6.410420e+01
6.413181e+01
6.415217e+01
6.416651e+01
6.417613e+01
6.418218e+01
6.418552e+01
6.418676e+01
6.418610e+01
6.418380e+01
6.417999e+01
6.417478e+01
6.416834e+01
6.416086e+01
6.415268e+01
6.414388e+01
6.413487e+01
6.412635e+01
6.411949e+01
6.411601e+01
6.411681e+01
6.412121e+01
6.412782e+01
6.413526e+01
6.414245e+01
6.414870e+01
6.415384e+01
6.415792e+01
6.416110e+01
6.416358e+01
6.416554e+01
6.416713e+01
6.416846e+01
6.416960e+01
6.417060e+01
6.417148e+01
6.417226e+01
6.417293e+01
6.417349e+01
6.417393e+01
6.417425e+01
6.417443e+01
6.417446e+01
6.417431e+01
6.417397e+01
6.417340e+01
6.417256e+01
6.417143e+01
6.416947e+01
6.416985e+01
6.451773e+01
6.451734e+01
6.451075e+01
6.450255e+01
6.449061e+01
6.447278e+01
6.444671e+01
6.440996e+01
6.436034e+01
6.429641e+01
6.421877e+01
6.413333e+01
6.405392e+01
6.398805e+01
6.393677e+01
6.389778e+01
6.386786e+01
6.384400e+01
6.382385e+01
6.380589e+01
6.378962e+01
6.377599e+01
6.376836e+01
6.377217e+01
6.379229e+01
6.382960e+01
6.388030e+01
6.393777e+01
6.399539e+01
6.404845e+01
6.409449e+01
6.413307e+01
6.416479e+01
6.419055e+01
6.421106e+01
6.422662e+01
6.423732e+01
6.424316e+01
6.424369e+01
6.423794e+01
6.422459e+01
6.420232e+01
6.417027e+01
6.412881e+01
6.407909e+01
6.402732e+01
6.398433e+01
6.396344e+01
6.397086e+01
6.400034e+01
6.404018e+01
6.407982e+01
6.411336e+01
6.413925e+01
6.415806e+01
6.417107e+01
6.417966e+01
6.418495e+01
6.418782e+01
6.418885e+01
6.418809e+01
6.418578e+01
6.418201e+01
6.417685e+01
6.417032e+01
6.416245e+01
6.415332e+01
6.414323e+01
6.413286e+01
6.412344e+01
6.411676e+01
6.411424e+01
6.411618e+01
6.412164e+01
6.412909e+01
6.413700e+01
6.414436e+01
6.415068e+01
6.415580e+01
6.415980e+01
6.416286e+01
6.416519e+01
6.416697e+01
6.416837e+01
6.416950e+01
6.417046e+01
6.417128e+01
6.417200e+01
6.417264e+01
6.417318e+01
6.417363e+01
6.417398e+01
6.417421e+01
6.417432e+01
6.417428e+01
6.417408e+01
6.417370e+01
6.417310e+01
6.417227e+01
6.417123e+01
6.416988e+01
6.417027e+01
6.451791e+01
6.451752e+01
6.450997e+01
6.450084e+01
6.448808e+01
6.446963e+01
6.444335e+01
6.440707e+01
6.435886e+01
6.429760e+01
6.422413e+01
6.414355e+01
6.406631e+01
6.399988e+01
6.394660e+01
6.390528e+01
6.387324e+01
6.384763e+01
6.382613e+01
6.380720e+01
6.379046e+01
6.377727e+01
6.377126e+01
6.377737e+01
6.379940e+01
6.383751e+01
6.388786e+01
6.394422e+01
6.400046e+01
6.405231e+01
6.409743e+01
6.413534e+01
6.416657e+01
6.419196e+01
6.421225e+01
6.422790e+01
6.423912e+01
6.424577e+01
6.424725e+01
6.424254e+01
6.423029e+01
6.420901e+01
6.417727e+01
6.413419e+01
6.408155e+01
6.402704e+01
6.398433e+01
6.396641e+01
6.397627e+01
6.400672e+01
6.404611e+01
6.408473e+01
6.411743e+01
6.414263e+01
6.416081e+01
6.417328e+01
6.418142e+01
6.418638e+01
6.418903e+01
6.418984e+01
6.418902e+01
6.418674e+01
6.418307e+01
6.417802e+01
6.417155e+01
6.416355e+01
6.415391e+01
6.414306e+01
6.413191e+01
6.412211e+01
6.411561e+01
6.411363e+01
6.411617e+01
6.412211e+01
6.412984e+01
6.413786e+01
6.414526e+01
6.415162e+01
6.415676e+01
6.416076e+01
6.416378e+01
6.416605e+01
6.416775e+01
6.416906e+01
6.417009e+01
6.417094e+01
6.417167e+01
6.417230e+01
6.417285e+01
6.417333e+01
6.417372e+01
6.417401e+01
6.417420e+01
6.417427e+01
6.417419e+01
6.417396e+01
6.417355e+01
6.417294e+01
6.417213e+01
6.417112e+01
6.417017e+01
6.417055e+01
0.000000e+00
6.451791e+01
6.451035e+01
6.450123e+01
6.448846e+01
6.447002e+01
6.444374e+01
6.440746e+01
6.435924e+01
6.429799e+01
6.422452e+01
6.414393e+01
6.406669e+01
6.400026e+01
6.394699e+01
6.390567e+01
6.387362e+01
6.384802e+01
6.382651e+01
6.380759e+01
6.379084e+01
6.377765e+01
6.377165e+01
6.377776e+01
6.379978e+01
6.383790e+01
6.388825e+01
6.394461e+01
6.400085e+01
6.405270e+01
6.409782e+01
6.413573e+01
6.416696e+01
6.419235e+01
6.421264e+01
6.422829e+01
6.423951e+01
6.424615e+01
6.424763e+01
6.424293e+01
6.423068e+01
6.420940e+01
6.417765e+01
6.413458e+01
6.408194e+01
6.402743e+01
6.398472e+01
6.396679e+01
6.397665e+01
6.400710e+01
6.404649e+01
6.408512e+01
6.411782e+01
6.414302e+01
6.416120e+01
6.417367e+01
6.418180e+01
6.418677e+01
6.418941e+01
6.419022e+01
6.418941e+01