# vtk DataFile Version 3.0
Scalar Field
ASCII
DATASET RECTILINEAR_GRID
DIMENSIONS 102 22 1
X_COORDINATES 102 double
0.000000 0.100000 0.200000 0.300000 0.400000 0.500000 0.600000 0.700000 0.800000 0.900000 1.000000 1.100000 1.200000 1.300000 1.400000 1.500000 1.600000 1.700000 1.800000 1.900000 2.000000 2.100000 2.200000 2.300000 2.400000 2.500000 2.600000 2.700000 2.800000 2.900000 3.000000 3.100000 3.200000 3.300000 3.400000 3.500000 3.600000 3.700000 3.800000 3.900000 4.000000 4.100000 4.200000 4.300000 4.400000 4.500000 4.600000 4.700000 4.800000 4.900000 5.000000 5.100000 5.200000 5.300000 5.400000 5.500000 5.600000 5.700000 5.800000 5.900000 6.000000 6.100000 6.200000 6.300000 6.400000 6.500000 6.600000 6.700000 6.800000 6.900000 7.000000 7.100000 7.200000 7.300000 7.400000 7.500000 7.600000 7.700000 7.800000 7.900000 8.000000 8.100000 8.200000 8.300000 8.400000 8.500000 8.600000 8.700000 8.800000 8.900000 9.000000 9.100000 9.200000 9.300000 9.400000 9.500000 9.600000 9.700000 9.800000 9.900000 10.000000 10.100000 
Y_COORDINATES 22 double
0.000000 0.100000 0.200000 0.300000 0.400000 0.500000 0.600000 0.700000 0.800000 0.900000 1.000000 1.100000 1.200000 1.300000 1.400000 1.500000 1.600000 1.700000 1.800000 1.900000 2.000000 2.100000 
Z_COORDINATES 1 double
0.0
POINT_DATA 2244
SCALARS Pressure double 1
LOOKUP_TABLE default
0.000000e+00
7.512164e+01
7.509201e+01
7.505766e+01
7.501514e+01
7.496080e+01
7.489128e+01
7.480564e+01
7.470434e+01
7.460740e+01
7.453008e+01
7.447645e+01
7.444390e+01
7.442771e+01
7.442346e+01
7.442781e+01
7.443827e+01
7.445288e+01
7.446961e+01
7.448597e+01
7.449882e+01
7.450568e+01
7.450647e+01
7.450403e+01
7.450233e+01
7.450408e+01
7.450985e+01
7.451897e+01
7.453063e+01
7.454466e+01
7.456147e+01
7.458172e+01
7.460595e+01
7.463438e+01
7.466670e+01
7.470205e+01
7.473917e+01
7.477654e+01
7.481256e+01
7.484563e+01
7.487430e+01
7.489777e+01
7.491608e+01
7.493010e+01
7.494097e+01
7.495013e+01
7.495831e+01
7.496401e+01
7.496464e+01
7.495690e+01
7.493774e+01
7.490613e+01
7.486407e+01
7.481665e+01
7.477131e+01
7.473607e+01
7.471708e+01
7.471669e+01
7.473094e+01
7.475779e+01
7.479381e+01
7.483397e+01
7.487198e+01
7.490203e+01
7.492082e+01
7.492952e+01
7.493150e+01
7.492978e+01
7.492609e+01
7.492181e+01
7.491640e+01
7.490948e+01
7.490099e+01
7.489124e+01
7.488074e+01
7.487012e+01
7.486005e+01
7.485115e+01
7.484395e+01
7.483885e+01
7.483606e+01
7.483564e+01
7.483746e+01
7.484124e+01
7.484678e+01
7.485382e+01
7.486205e+01
7.487110e+01
7.488053e+01
7.488981e+01
7.489839e+01
7.490579e+01
7.491172e+01
7.491618e+01
7.491940e+01
7.492179e+01
7.492374e+01
7.492577e+01
7.492838e+01
7.493199e+01
7.493921e+01
0.000000e+00
7.512164e+01
7.512157e+01
7.509193e+01
7.505757e+01
7.501505e+01
7.496071e+01
7.489122e+01
7.480562e+01
7.470433e+01
7.460742e+01
7.453010e+01
7.447649e+01
7.444395e+01
7.442776e+01
7.442352e+01
7.442787e+01
7.443833e+01
7.445293e+01
7.446967e+01
7.448601e+01
7.449886e+01
7.450570e+01
7.450647e+01
7.450403e+01
7.450231e+01
7.450404e+01
7.450980e+01
7.451890e+01
7.453056e+01
7.454460e+01
7.456143e+01
7.458168e+01
7.460592e+01
7.463436e+01
7.466668e+01
7.470204e+01
7.473917e+01
7.477655e+01
7.481257e+01
7.484565e+01
7.487433e+01
7.489780e+01
7.491611e+01
7.493013e+01
7.494100e+01
7.495016e+01
7.495833e+01
7.496403e+01
7.496464e+01
7.495690e+01
7.493774e+01
7.490612e+01
7.486405e+01
7.481663e+01
7.477130e+01
7.473606e+01
7.471707e+01
7.471668e+01
7.473094e+01
7.475779e+01
7.479382e+01
7.483398e+01
7.487199e+01
7.490205e+01
7.492084e+01
7.492954e+01
7.493151e+01
7.492980e+01
7.492610e+01
7.492182e+01
7.491641e+01
7.490948e+01
7.490099e+01
7.489124e+01
7.488073e+01
7.487011e+01
7.486004e+01
7.485114e+01
7.484395e+01
7.483884e+01
7.483606e+01
7.483564e+01
7.483745e+01
7.484124e+01
7.484678e+01
7.485382e+01
7.486205e+01
7.487111e+01
7.488053e+01
7.488981e+01
7.489839e+01
7.490579e+01
7.491172e+01
7.491618e+01
7.491941e+01
7.492179e+01
7.492374e+01
7.492578e+01
7.492838e+01
7.493199e+01
7.493921e+01
7.493921e+01
7.512128e+01
7.512120e+01
7.509301e+01
7.505986e+01
7.501807e+01
7.496353e+01
7.489216e+01
7.480265e+01
7.469188e+01
7.459036e+01
7.451382e+01
7.446323e+01
7.443384e+01
7.442013e+01
7.441754e+01
7.442286e+01
7.443385e+01
7.444884e+01
7.446623e+01
7.448376e+01
7.449827e+01
7.450672e+01
7.450837e+01
7.450601e+01
7.450389e+01
7.450519e+01
7.451087e+01
7.451999e+01
7.453143e+01
7.454498e+01
7.456111e+01
7.458055e+01
7.460398e+01
7.463167e+01
7.466337e+01
7.469824e+01
7.473501e+01
7.477212e+01
7.480800e+01
7.484119e+01
7.487011e+01
7.489393e+01
7.491255e+01
7.492673e+01
7.493759e+01
7.494611e+01
7.495277e+01
7.495628e+01
7.495448e+01
7.494483e+01
7.492503e+01
7.489372e+01
7.485305e+01
7.480800e+01
7.476547e+01
7.473279e+01
7.471566e+01
7.471714e+01
7.473234e+01
7.475930e+01
7.479423e+01
7.483166e+01
7.486576e+01
7.489295e+01
7.491132e+01
7.492132e+01
7.492511e+01
7.492517e+01
7.492294e+01
7.491933e+01
7.491416e+01
7.490732e+01
7.489890e+01
7.488926e+01
7.487893e+01
7.486854e+01
7.485875e+01
7.485014e+01
7.484324e+01
7.483840e+01
7.483583e+01
7.483559e+01
7.483763e+01
7.484163e+01
7.484736e+01
7.485459e+01
7.486300e+01
7.487215e+01
7.488149e+01
7.489047e+01
7.489857e+01
7.490539e+01
7.491076e+01
7.491478e+01
7.491771e+01
7.491998e+01
7.492195e+01
7.492404e+01
7.492667e+01
7.493029e+01
7.493740e+01
7.493740e+01
7.512121e+01
7.512113e+01
7.509596e+01
7.506556e+01
7.502575e+01
7.497128e+01
7.489618e+01
7.479768e+01
7.466403e+01
7.455377e+01
7.448049e+01
7.443699e+01
7.441428e+01
7.440555e+01
7.440615e+01
7.441332e+01
7.442526e+01
7.444076e+01
7.445904e+01
7.447875e+01
7.449675e+01
7.450880e+01
7.451225e+01
7.451006e+01
7.450736e+01
7.450799e+01
7.451339e+01
7.452259e+01
7.453360e+01
7.454612e+01
7.456082e+01
7.457861e+01
7.460034e+01
7.462636e+01
7.465651e+01
7.469009e+01
7.472587e+01
7.476230e+01
7.479781e+01
7.483100e+01
7.486038e+01
7.488500e+01
7.490453e+01
7.491945e+01
7.493067e+01
7.493899e+01
7.494421e+01
7.494528e+01
7.494105e+01
7.492966e+01
7.490918e+01
7.487852e+01
7.483980e+01
7.479790e+01
7.475901e+01
7.472971e+01
7.471531e+01
7.471902e+01
7.473486e+01
7.476074e+01
7.479283e+01
7.482604e+01
7.485559e+01
7.487999e+01
7.489768e+01
7.490888e+01
7.491507e+01
7.491755e+01
7.491747e+01
7.491508e+01
7.491057e+01
7.490412e+01
7.489597e+01
7.488653e+01
7.487642e+01
7.486631e+01
7.485685e+01
7.484860e+01
7.484207e+01
7.483758e+01
7.483535e+01
7.483547e+01
7.483795e+01
7.484229e+01
7.484834e+01
7.485584e+01
7.486440e+01
7.487348e+01
7.488247e+01
7.489074e+01
7.489793e+01
7.490384e+01
7.490842e+01
7.491185e+01
7.491450e+01
7.491678e+01
7.491888e+01
7.492111e+01
7.492385e+01
7.492743e+01
7.493393e+01
7.493393e+01
7.512180e+01
7.512172e+01
7.510128e+01
7.507542e+01
7.503928e+01
7.498562e+01
7.490445e+01
7.478757e+01
7.460971e+01
7.449088e+01
7.442895e+01
7.439894e+01
7.438674e+01
7.438520e+01
7.439019e+01
7.440001e+01
7.441337e+01
7.442959e+01
7.444847e+01
7.447056e+01
7.449340e+01
7.451140e+01
7.451827e+01
7.451613e+01
7.451259e+01
7.451256e+01
7.451749e+01
7.452683e+01
7.453727e+01
7.454817e+01
7.456063e+01
7.457585e+01
7.459501e+01
7.461863e+01
7.464665e+01
7.467846e+01
7.471288e+01
7.474837e+01
7.478331e+01
7.481627e+01
7.484608e+01
7.487167e+01
7.489247e+01
7.490858e+01
7.492062e+01
7.492919e+01
7.493353e+01
7.493264e+01
7.492607e+01
7.491304e+01
7.489240e+01
7.486333e+01
7.482769e+01
7.479003e+01
7.475574e+01
7.473058e+01
7.471936e+01
7.472504e+01
7.474088e+01
7.476483e+01
7.479333e+01
7.482210e+01
7.484736e+01
7.486917e+01
7.488600e+01
7.489771e+01
7.490515e+01
7.490935e+01
7.491118e+01
7.491012e+01
7.490641e+01
7.490040e+01
7.489252e+01
7.488328e+01
7.487344e+01
7.486370e+01
7.485468e+01
7.484692e+01
7.484088e+01
7.483689e+01
7.483516e+01
7.483588e+01
7.483889e+01
7.484370e+01
7.485013e+01
7.485783e+01
7.486631e+01
7.487493e+01
7.488300e+01
7.489009e+01
7.489616e+01
7.490106e+01
7.490489e+01
7.490791e+01
7.491046e+01
7.491284e+01
7.491505e+01
7.491738e+01
7.492015e+01
7.492366e+01
7.492976e+01
7.492976e+01
7.512347e+01
7.512340e+01
7.510948e+01
7.509040e+01
7.506074e+01
7.501035e+01
7.492112e+01
7.476713e+01
7.451095e+01
7.439850e+01
7.436099e+01
7.435098e+01
7.435286e+01
7.436023e+01
7.437052e+01
7.438373e+01
7.439924e+01
7.441671e+01
7.443621e+01
7.445853e+01
7.448509e+01
7.451153e+01
7.452578e+01
7.452446e+01
7.451963e+01
7.451934e+01
7.452478e+01
7.453338e+01
7.454332e+01
7.455198e+01
7.456136e+01
7.457313e+01
7.458900e+01
7.460956e+01
7.463485e+01
7.466439e+01
7.469707e+01
7.473138e+01
7.476562e+01
7.479817e+01
7.482833e+01
7.485498e+01
7.487734e+01
7.489521e+01
7.490874e+01
7.491799e+01
7.492182e+01
7.491856e+01
7.490963e+01
7.489556e+01
7.487579e+01
7.484955e+01
7.481832e+01
7.478605e+01
7.475723e+01
7.473678e+01
7.472891e+01
7.473569e+01
7.475075e+01
7.477210e+01
7.479664e+01
7.482096e+01
7.484227e+01
7.486140e+01
7.487689e+01
7.488846e+01
7.489658e+01
7.490192e+01
7.490503e+01
7.490491e+01
7.490176e+01
7.489611e+01
7.488853e+01
7.487962e+01
7.487019e+01
7.486100e+01
7.485261e+01
7.484551e+01
7.484014e+01
7.483680e+01
7.483576e+01
7.483731e+01
7.484090e+01
7.484617e+01
7.485283e+01
7.486040e+01
7.486828e+01
7.487581e+01
7.488239e+01
7.488821e+01
7.489310e+01
7.489710e+01
7.490038e+01
7.490318e+01
7.490575e+01
7.490818e+01
7.491045e+01
7.491283e+01
7.491560e+01
7.491911e+01
7.492515e+01
7.492515e+01
7.512654e+01
7.512647e+01
7.512078e+01
7.511116e+01
7.509269e+01
7.505286e+01
7.496059e+01
7.474000e+01
7.433741e+01
7.426674e+01
7.427922e+01
7.429777e+01
7.431641e+01
7.433247e+01
7.434821e+01
7.436521e+01
7.438354e+01
7.440285e+01
7.442329e+01
7.444551e+01
7.447094e+01
7.449909e+01
7.452480e+01
7.453286e+01
7.452794e+01
7.452839e+01
7.453585e+01
7.454567e+01
7.455428e+01
7.455950e+01
7.456532e+01
7.457294e+01
7.458518e+01
7.460225e+01
7.462428e+01
7.465096e+01
7.468135e+01
7.471399e+01
7.474712e+01
7.477882e+01
7.480889e+01
7.483656e+01
7.486084e+01
7.488102e+01
7.489627e+01
7.490567e+01
7.490759e+01
7.490133e+01
7.489051e+01
7.487667e+01
7.485945e+01
7.483779e+01
7.481259e+01
7.478687e+01
7.476423e+01
7.474876e+01
7.474392e+01
7.475076e+01
7.476413e+01
7.478221e+01
7.480247e+01
7.482224e+01
7.483982e+01
7.485597e+01
7.486960e+01
7.488043e+01
7.488864e+01
7.489453e+01
7.489836e+01
7.489882e+01
7.489610e+01
7.489086e+01
7.488378e+01
7.487551e+01
7.486685e+01
7.485854e+01
7.485107e+01
7.484489e+01
7.484039e+01
7.483792e+01
7.483785e+01
7.484021e+01
7.484429e+01
7.484977e+01
7.485620e+01
7.486302e+01
7.486962e+01
7.487545e+01
7.488058e+01
7.488506e+01
7.488889e+01
7.489218e+01
7.489508e+01
7.489775e+01
7.490032e+01
7.490271e+01
7.490497e+01
7.490736e+01
7.491019e+01
7.491381e+01
7.492008e+01
7.492009e+01
7.513105e+01
7.513098e+01
7.513461e+01
7.513692e+01
7.513592e+01
7.512241e+01
7.506110e+01
7.480856e+01
7.402739e+01
7.409027e+01
7.420183e+01
7.425273e+01
7.428206e+01
7.430397e+01
7.432392e+01
7.434437e+01
7.436580e+01
7.438731e+01
7.440786e+01
7.442756e+01
7.444903e+01
7.447679e+01
7.450322e+01
7.452014e+01
7.452553e+01
7.453224e+01
7.454588e+01
7.455832e+01
7.456815e+01
7.457336e+01
7.457667e+01
7.458019e+01
7.458898e+01
7.460232e+01
7.462044e+01
7.464332e+01
7.467032e+01
7.470016e+01
7.473110e+01
7.476106e+01
7.478978e+01
7.481762e+01
7.484327e+01
7.486495e+01
7.488052e+01
7.488832e+01
7.488671e+01
7.487840e+01
7.486782e+01
7.485653e+01
7.484399e+01
7.482875e+01
7.481096e+01
7.479256e+01
7.477641e+01
7.476574e+01
7.476328e+01
7.476927e+01
7.478015e+01
7.479440e+01
7.481009e+01
7.482522e+01
7.483895e+01
7.485184e+01
7.486318e+01
7.487273e+01
7.488044e+01
7.488629e+01
7.489030e+01
7.489104e+01
7.488877e+01
7.488423e+01
7.487812e+01
7.487102e+01
7.486367e+01
7.485672e+01
7.485057e+01
7.484562e+01
7.484225e+01
7.484085e+01
7.484187e+01
7.484480e+01
7.484904e+01
7.485418e+01
7.485970e+01
7.486508e+01
7.486984e+01
7.487394e+01
7.487759e+01
7.488083e+01
7.488376e+01
7.488646e+01
7.488902e+01
7.489149e+01
7.489395e+01
7.489622e+01
7.489845e+01
7.490089e+01
7.490385e+01
7.490771e+01
7.491438e+01
7.491439e+01
7.513659e+01
7.513654e+01
7.514919e+01
7.516395e+01
7.518398e+01
7.521215e+01
7.524649e+01
7.535406e+01
7.469073e+01
7.415117e+01
7.421210e+01
7.423537e+01
7.426088e+01
7.428266e+01
7.430230e+01
7.432213e+01
7.434321e+01
7.436442e+01
7.438311e+01
7.440125e+01
7.441581e+01
7.443093e+01
7.444680e+01
7.446064e+01
7.447516e+01
7.449703e+01
7.452647e+01
7.455573e+01
7.457689e+01
7.459006e+01
7.459554e+01
7.459886e+01
7.460422e+01
7.461412e+01
7.462768e+01
7.464553e+01
7.466758e+01
7.469288e+01
7.471988e+01
7.474672e+01
7.477177e+01
7.479696e+01
7.482102e+01
7.484148e+01
7.485484e+01
7.485970e+01
7.485601e+01
7.484927e+01
7.484236e+01
7.483636e+01
7.483054e+01
7.482320e+01
7.481364e+01
7.480279e+01
7.479286e+01
7.478641e+01
7.478546e+01
7.478992e+01
7.479772e+01
7.480775e+01
7.481866e+01
7.482911e+01
7.483879e+01
7.484814e+01
7.485677e+01
7.486446e+01
7.487098e+01
7.487615e+01
7.487983e+01
7.488072e+01
7.487924e+01
7.487600e+01
7.487157e+01
7.486639e+01
7.486104e+01
7.485602e+01
7.485164e+01
7.484826e+01
7.484627e+01
7.484611e+01
7.484792e+01
7.485095e+01
7.485474e+01
7.485883e+01
7.486278e+01
7.486623e+01
7.486903e+01
7.487147e+01
7.487368e+01
7.487578e+01
7.487784e+01
7.487992e+01
7.488202e+01
7.488415e+01
7.488634e+01
7.488850e+01
7.489078e+01
7.489341e+01
7.489663e+01
7.490083e+01
7.490791e+01
7.490791e+01
7.514244e+01
7.514239e+01
7.516195e+01
7.518611e+01
7.522147e+01
7.527850e+01
7.537495e+01
7.550704e+01
7.554033e+01
0.000000e+00
7.424714e+01
7.424716e+01
7.427042e+01
7.428763e+01
7.430127e+01
7.431614e+01
7.433195e+01
7.434673e+01
7.435757e+01
7.436294e+01
7.436386e+01
7.436040e+01
7.435484e+01
7.435038e+01
7.436058e+01
7.439664e+01
7.445465e+01
7.451923e+01
7.457643e+01
7.461201e+01
7.462672e+01
7.463080e+01
7.463282e+01
7.463809e+01
7.464706e+01
7.465881e+01
7.467432e+01
7.469308e+01
7.471377e+01
7.473457e+01
7.475302e+01
7.477169e+01
7.479084e+01
7.480615e+01
7.481449e+01
7.481625e+01
7.481549e+01
7.481539e+01
7.481663e+01
7.481867e+01
7.482089e+01
7.482198e+01
7.482067e+01
7.481695e+01
7.481248e+01
7.480932e+01
7.480893e+01
7.481146e+01
7.481587e+01
7.482149e+01
7.482753e+01
7.483327e+01
7.483870e+01
7.484420e+01
7.484960e+01
7.485470e+01
7.485925e+01
7.486305e+01
7.486597e+01
7.486728e+01
7.486726e+01
7.486622e+01
7.486442e+01
7.486204e+01
7.485947e+01
7.485696e+01
7.485478e+01
7.485327e+01
7.485278e+01
7.485362e+01
7.485565e+01
7.485820e+01
7.486085e+01
7.486329e+01
7.486523e+01
7.486660e+01
7.486753e+01
7.486830e+01
7.486910e+01
7.487002e+01
7.487111e+01
7.487237e+01
7.487380e+01
7.487540e+01
7.487727e+01
7.487943e+01
7.488196e+01
7.488496e+01
7.488863e+01
7.489325e+01
7.490062e+01
7.490063e+01
7.514785e+01
7.514782e+01
7.517089e+01
7.519910e+01
7.523875e+01
7.529745e+01
7.538220e+01
7.548371e+01
7.557361e+01
7.557361e+01
0.000000e+00
7.430021e+01
7.430024e+01
7.431492e+01
7.432501e+01
7.433332e+01
7.433980e+01
7.434257e+01
7.433985e+01
7.433067e+01
7.431394e+01
7.429027e+01
7.426529e+01
7.424961e+01
7.427411e+01
7.433670e+01
7.441961e+01
7.450796e+01
7.458817e+01
7.464682e+01
7.467733e+01
7.468326e+01
7.467945e+01
7.467735e+01
7.467981e+01
7.468416e+01
7.469164e+01
7.470187e+01
7.471362e+01
7.472507e+01
7.473369e+01
7.474350e+01
7.475170e+01
7.475628e+01
7.475867e+01
7.476274e+01
7.477158e+01
7.478295e+01
7.479491e+01
7.480629e+01
7.481663e+01
7.482522e+01
7.483113e+01
7.483387e+01
7.483402e+01
7.483317e+01
7.483264e+01
7.483298e+01
7.483389e+01
7.483510e+01
7.483631e+01
7.483732e+01
7.483827e+01
7.483948e+01
7.484096e+01
7.484263e+01
7.484438e+01
7.484618e+01
7.484818e+01
7.485047e+01
7.485289e+01
7.485520e+01
7.485715e+01
7.485854e+01
7.485945e+01
7.485996e+01
7.486031e+01
7.486078e+01
7.486167e+01
7.486299e+01
7.486461e+01
7.486606e+01
7.486702e+01
7.486735e+01
7.486713e+01
7.486654e+01
7.486568e+01
7.486481e+01
7.486411e+01
7.486367e+01
7.486353e+01
7.486372e+01
7.486424e+01
7.486512e+01
7.486673e+01
7.486909e+01
7.487212e+01
7.487574e+01
7.487999e+01
7.488498e+01
7.489234e+01
7.489235e+01
7.515242e+01
7.515239e+01
7.517554e+01
7.520297e+01
7.523918e+01
7.528944e+01
7.535507e+01
7.541681e+01
7.544904e+01
7.521441e+01
7.521440e+01
0.000000e+00
7.432141e+01
7.434262e+01
7.434629e+01
7.434885e+01
7.434723e+01
7.434061e+01
7.432824e+01
7.431006e+01
7.428220e+01
7.424692e+01
7.420958e+01
7.420128e+01
7.424288e+01
7.432403e+01
7.442429e+01
7.452548e+01
7.461510e+01
7.468835e+01
7.473349e+01
7.475006e+01
7.474591e+01
7.473462e+01
7.472796e+01
7.472378e+01
7.472208e+01
7.472213e+01
7.472258e+01
7.472192e+01
7.471829e+01
7.471293e+01
7.470656e+01
7.470091e+01
7.469921e+01
7.471113e+01
7.473227e+01
7.475665e+01
7.478009e+01
7.480068e+01
7.481796e+01
7.483237e+01
7.484371e+01
7.485132e+01
7.485513e+01
7.485602e+01
7.485496e+01
7.485317e+01
7.485080e+01
7.484792e+01
7.484460e+01
7.484100e+01
7.483730e+01
7.483374e+01
7.483058e+01
7.482805e+01
7.482638e+01
7.482575e+01
7.482713e+01
7.483123e+01
7.483721e+01
7.484399e+01
7.485064e+01
7.485645e+01
7.486116e+01
7.486490e+01
7.486785e+01
7.487019e+01
7.487195e+01
7.487299e+01
7.487354e+01
7.487339e+01
7.487245e+01
7.487081e+01
7.486869e+01
7.486639e+01
7.486388e+01
7.486140e+01
7.485915e+01
7.485722e+01
7.485569e+01
7.485462e+01
7.485404e+01
7.485402e+01
7.485541e+01
7.485806e+01
7.486169e+01
7.486604e+01
7.487083e+01
7.487597e+01
7.488279e+01
7.488280e+01
7.515607e+01
7.515606e+01
7.517652e+01
7.519995e+01
7.522898e+01
7.526385e+01
7.529786e+01
7.530939e+01
7.525392e+01
7.514172e+01
7.474587e+01
7.445261e+01
7.432140e+01
7.436106e+01
7.436405e+01
7.436147e+01
7.435387e+01
7.434178e+01
7.432457e+01
7.430045e+01
7.426486e+01
7.421996e+01
7.418350e+01
7.419206e+01
7.425067e+01
7.434460e+01
7.445278e+01
7.455503e+01
7.463906e+01
7.471232e+01
7.477320e+01
7.480635e+01
7.481309e+01
7.480613e+01
7.479211e+01
7.477902e+01
7.476759e+01
7.475614e+01
7.474287e+01
7.472718e+01
7.470881e+01
7.468757e+01
7.466641e+01
7.464918e+01
7.464751e+01
7.466914e+01
7.470316e+01
7.474007e+01
7.477394e+01
7.480180e+01
7.482423e+01
7.484260e+01
7.485739e+01
7.486817e+01
7.487443e+01
7.487632e+01
7.487469e+01
7.487108e+01
7.486590e+01
7.485946e+01
7.485211e+01
7.484431e+01
7.483625e+01
7.482804e+01
7.482025e+01
7.481342e+01
7.480811e+01
7.480473e+01
7.480567e+01
7.481201e+01
7.482211e+01
7.483395e+01
7.484576e+01
7.485605e+01
7.486442e+01
7.487106e+01
7.487616e+01
7.487980e+01
7.488187e+01
7.488229e+01
7.488171e+01
7.488008e+01
7.487747e+01
7.487411e+01
7.487031e+01
7.486642e+01
7.486234e+01
7.485827e+01
7.485441e+01
7.485089e+01
7.484784e+01
7.484538e+01
7.484357e+01
7.484263e+01
7.484380e+01
7.484676e+01
7.485102e+01
7.485607e+01
7.486123e+01
7.486620e+01
7.487183e+01
7.487184e+01
7.515903e+01
7.515902e+01
7.517511e+01
7.519255e+01
7.521147e+01
7.522918e+01
7.523651e+01
7.521354e+01
7.512398e+01
7.495925e+01
7.469883e+01
7.415938e+01
7.428177e+01
7.434770e+01
7.436597e+01
7.436557e+01
7.435813e+01
7.434534e+01
7.432660e+01
7.429865e+01
7.425681e+01
7.421176e+01
7.419115e+01
7.421754e+01
7.428803e+01
7.438665e+01
7.449457e+01
7.458843e+01
7.466532e+01
7.472715e+01
7.477997e+01
7.482633e+01
7.485124e+01
7.485865e+01
7.485112e+01
7.483341e+01
7.481233e+01
7.478865e+01
7.476233e+01
7.473530e+01
7.470369e+01
7.466813e+01
7.463355e+01
7.460615e+01
7.461042e+01
7.464250e+01
7.468803e+01
7.473518e+01
7.477634e+01
7.480884e+01
7.483443e+01
7.485489e+01
7.487128e+01
7.488361e+01
7.489126e+01
7.489378e+01
7.489194e+01
7.488703e+01
7.487961e+01
7.487017e+01
7.485930e+01
7.484771e+01
7.483562e+01
7.482303e+01
7.481077e+01
7.479972e+01
7.479076e+01
7.478455e+01
7.478554e+01
7.479449e+01
7.480897e+01
7.482601e+01
7.484299e+01
7.485739e+01
7.486891e+01
7.487784e+01
7.488447e+01
7.488887e+01
7.489093e+01
7.489075e+01
7.488922e+01
7.488639e+01
7.488243e+01
7.487762e+01
7.487231e+01
7.486690e+01
7.486131e+01
7.485566e+01
7.485015e+01
7.484498e+01
7.484036e+01
7.483645e+01
7.483338e+01
7.483159e+01
7.483254e+01
7.483574e+01
7.484049e+01
7.484606e+01
7.485128e+01
7.485565e+01
7.485938e+01
7.485939e+01
7.516153e+01
7.516153e+01
7.517223e+01
7.518287e+01
7.519212e+01
7.519613e+01
7.518657e+01
7.514880e+01
7.506060e+01
7.490399e+01
7.469401e+01
7.441036e+01
7.438027e+01
7.438689e+01
7.438744e+01
7.438110e+01
7.437031e+01
7.435527e+01
7.433506e+01
7.430659e+01
7.426774e+01
7.423620e+01
7.423409e+01
7.427188e+01
7.434444e+01
7.443810e+01
7.453318e+01
7.461682e+01
7.468726e+01
7.474453e+01
7.478835e+01
7.481801e+01
7.484469e+01
7.487001e+01
7.487398e+01
7.486234e+01
7.484111e+01
7.481206e+01
7.477798e+01
7.474315e+01
7.470110e+01
7.465433e+01
7.460866e+01
7.458017e+01
7.459264e+01
7.463418e+01
7.468817e+01
7.474175e+01
7.478607e+01
7.482062e+01
7.484734e+01
7.486822e+01
7.488469e+01
7.489720e+01
7.490530e+01
7.490816e+01
7.490657e+01
7.490107e+01
7.489219e+01
7.488051e+01
7.486675e+01
7.485185e+01
7.483613e+01
7.481952e+01
7.480309e+01
7.478808e+01
7.477575e+01
7.476710e+01
7.476863e+01
7.478035e+01
7.479910e+01
7.482098e+01
7.484256e+01
7.486035e+01
7.487426e+01
7.488475e+01
7.489224e+01
7.489695e+01
7.489890e+01
7.489831e+01
7.489613e+01
7.489245e+01
7.488750e+01
7.488154e+01
7.487494e+01
7.486808e+01
7.486104e+01
7.485382e+01
7.484667e+01
7.483985e+01
7.483365e+01
7.482832e+01
7.482407e+01
7.482154e+01
7.482224e+01
7.482553e+01
7.483052e+01
7.483624e+01
7.484110e+01
7.484441e+01
7.484553e+01
7.484554e+01
7.516355e+01
7.516355e+01
7.516886e+01
7.517320e+01
7.517455e+01
7.516911e+01
7.515044e+01
7.510893e+01
7.503208e+01
7.490742e+01
7.473907e+01
7.454969e+01
7.447231e+01
7.444055e+01
7.442077e+01
7.440344e+01
7.438615e+01
7.436774e+01
7.434699e+01
7.432129e+01
7.429360e+01
7.427883e+01
7.429049e+01
7.433352e+01
7.440216e+01
7.448524e+01
7.456654e+01
7.463944e+01
7.470172e+01
7.475316e+01
7.479425e+01
7.482608e+01
7.485182e+01
7.486855e+01
7.487243e+01
7.486605e+01
7.484870e+01
7.482118e+01
7.478615e+01
7.474858e+01
7.470070e+01
7.464761e+01
7.459681e+01
7.457517e+01
7.459596e+01
7.464415e+01
7.470235e+01
7.475721e+01
7.480140e+01
7.483558e+01
7.486166e+01
7.488167e+01
7.489717e+01
7.490890e+01
7.491664e+01
7.491971e+01
7.491849e+01
7.491307e+01
7.490367e+01
7.489071e+01
7.487490e+01
7.485731e+01
7.483844e+01
7.481823e+01
7.479804e+01
7.477948e+01
7.476430e+01
7.475398e+01
7.475652e+01
7.477095e+01
7.479347e+01
7.481942e+01
7.484444e+01
7.486471e+01
7.488020e+01
7.489148e+01
7.489924e+01
7.490392e+01
7.490572e+01
7.490494e+01
7.490241e+01
7.489826e+01
7.489267e+01
7.488591e+01
7.487828e+01
7.487014e+01
7.486174e+01
7.485301e+01
7.484425e+01
7.483581e+01
7.482805e+01
7.482138e+01
7.481610e+01
7.481297e+01
7.481337e+01
7.481656e+01
7.482145e+01
7.482688e+01
7.483092e+01
7.483275e+01
7.483063e+01
7.483064e+01
7.516525e+01
7.516526e+01
7.516576e+01
7.516482e+01
7.516022e+01
7.514862e+01
7.512526e+01
7.508391e+01
7.501738e+01
7.491822e+01
7.478557e+01
7.463825e+01
7.454692e+01
7.449310e+01
7.445667e+01
7.442833e+01
7.440401e+01
7.438173e+01
7.436025e+01
7.433853e+01
7.432179e+01
7.431994e+01
7.434102e+01
7.438631e+01
7.444999e+01
7.452250e+01
7.459341e+01
7.465768e+01
7.471331e+01
7.476007e+01
7.479857e+01
7.482891e+01
7.485079e+01
7.486278e+01
7.486534e+01
7.485965e+01
7.484483e+01
7.482033e+01
7.478790e+01
7.475075e+01
7.470242e+01
7.464905e+01
7.460089e+01
7.459024e+01
7.461760e+01
7.466828e+01
7.472600e+01
7.477804e+01
7.481983e+01
7.485195e+01
7.487618e+01
7.489450e+01
7.490847e+01
7.491890e+01
7.492578e+01
7.492882e+01
7.492797e+01
7.492308e+01
7.491398e+01
7.490076e+01
7.488389e+01
7.486435e+01
7.484290e+01
7.481957e+01
7.479606e+01
7.477444e+01
7.475706e+01
7.474614e+01
7.475002e+01
7.476691e+01
7.479242e+01
7.482131e+01
7.484851e+01
7.487026e+01
7.488651e+01
7.489796e+01
7.490553e+01
7.490990e+01
7.491150e+01
7.491068e+01
7.490803e+01
7.490367e+01
7.489778e+01
7.489055e+01
7.488222e+01
7.487306e+01
7.486345e+01
7.485332e+01
7.484303e+01
7.483301e+01
7.482377e+01
7.481584e+01
7.480969e+01
7.480609e+01
7.480617e+01
7.480908e+01
7.481357e+01
7.481828e+01
7.482113e+01
7.482113e+01
7.481532e+01
7.481533e+01
7.516670e+01
7.516672e+01
7.516328e+01
7.515823e+01
7.514935e+01
7.513380e+01
7.510796e+01
7.506757e+01
7.500814e+01
7.492531e+01
7.481804e+01
7.469804e+01
7.460431e+01
7.453763e+01
7.448914e+01
7.445154e+01
7.442078e+01
7.439474e+01
7.437244e+01
7.435451e+01
7.434576e+01
7.435276e+01
7.437979e+01
7.442589e+01
7.448534e+01
7.455037e+01
7.461385e+01
7.467174e+01
7.472246e+01
7.476573e+01
7.480174e+01
7.482995e+01
7.484960e+01
7.486039e+01
7.486267e+01
7.485687e+01
7.484256e+01
7.481930e+01
7.478827e+01
7.475064e+01
7.470379e+01
7.465412e+01
7.461699e+01
7.461585e+01
7.464742e+01
7.469766e+01
7.475201e+01
7.479988e+01
7.483837e+01
7.486778e+01
7.488975e+01
7.490611e+01
7.491839e+01
7.492745e+01
7.493351e+01
7.493634e+01
7.493582e+01
7.493162e+01
7.492330e+01
7.491056e+01
7.489350e+01
7.487278e+01
7.484932e+01
7.482336e+01
7.479695e+01
7.477273e+01
7.475379e+01
7.474346e+01
7.474881e+01
7.476775e+01
7.479539e+01
7.482605e+01
7.485428e+01
7.487666e+01
7.489305e+01
7.490425e+01
7.491131e+01
7.491518e+01
7.491651e+01
7.491567e+01
7.491299e+01
7.490859e+01
7.490261e+01
7.489517e+01
7.488643e+01
7.487658e+01
7.486593e+01
7.485460e+01
7.484292e+01
7.483142e+01
7.482077e+01
7.481167e+01
7.480479e+01
7.480086e+01
7.480063e+01
7.480316e+01
7.480706e+01
7.481079e+01
7.481222e+01
7.481023e+01
7.480052e+01
7.480053e+01
7.516789e+01
7.516791e+01
7.516153e+01
7.515349e+01
7.514170e+01
7.512366e+01
7.509648e+01
7.505697e+01
7.500202e+01
7.492898e+01
7.483755e+01
7.473535e+01
7.464474e+01
7.457215e+01
7.451546e+01
7.447066e+01
7.443461e+01
7.440541e+01
7.438251e+01
7.436748e+01
7.436440e+01
7.437739e+01
7.440802e+01
7.445398e+01
7.451001e+01
7.456990e+01
7.462829e+01
7.468185e+01
7.472910e+01
7.476973e+01
7.480364e+01
7.483038e+01
7.484933e+01
7.486028e+01
7.486324e+01
7.485809e+01
7.484432e+01
7.482141e+01
7.478989e+01
7.475037e+01
7.470371e+01
7.465875e+01
7.463287e+01
7.463988e+01
7.467458e+01
7.472367e+01
7.477439e+01
7.481865e+01
7.485394e+01
7.488068e+01
7.490044e+01
7.491505e+01
7.492598e+01
7.493418e+01
7.493998e+01
7.494281e+01
7.494269e+01
7.493923e+01
7.493184e+01
7.491995e+01
7.490324e+01
7.488196e+01
7.485694e+01
7.482878e+01
7.479982e+01
7.477334e+01
7.475335e+01
7.474425e+01
7.475111e+01
7.477168e+01
7.480073e+01
7.483224e+01
7.486076e+01
7.488328e+01
7.489955e+01
7.491036e+01
7.491684e+01
7.492010e+01
7.492103e+01
7.492009e+01
7.491734e+01
7.491293e+01
7.490694e+01
7.489944e+01
7.489050e+01
7.488022e+01
7.486882e+01
7.485649e+01
7.484361e+01
7.483079e+01
7.481885e+01
7.480869e+01
7.480118e+01
7.479705e+01
7.479658e+01
7.479876e+01
7.480207e+01
7.480477e+01
7.480481e+01
7.480091e+01
7.478739e+01
7.478740e+01
7.516876e+01
7.516878e+01
7.516044e+01
7.515048e+01
7.513689e+01
7.511741e+01
7.508956e+01
7.505074e+01
7.499849e+01
7.493104e+01
7.484862e+01
7.475687e+01
7.466980e+01
7.459498e+01
7.453370e+01
7.448428e+01
7.444458e+01
7.441318e+01
7.439004e+01
7.437707e+01
7.437738e+01
7.439362e+01
7.442595e+01
7.447155e+01
7.452542e+01
7.458217e+01
7.463737e+01
7.468816e+01
7.473322e+01
7.477215e+01
7.480474e+01
7.483072e+01
7.484952e+01
7.486095e+01
7.486476e+01
7.486053e+01
7.484754e+01
7.482497e+01
7.479242e+01
7.475036e+01
7.470272e+01
7.466162e+01
7.464377e+01
7.465655e+01
7.469354e+01
7.474179e+01
7.478983e+01
7.483147e+01
7.486457e+01
7.488951e+01
7.490778e+01
7.492113e+01
7.493106e+01
7.493860e+01
7.494423e+01
7.494742e+01
7.494807e+01
7.494561e+01
7.493925e+01
7.492826e+01
7.491212e+01
7.489070e+01
7.486450e+01
7.483449e+01
7.480325e+01
7.477470e+01
7.475388e+01
7.474600e+01
7.475411e+01
7.477588e+01
7.480581e+01
7.483771e+01
7.486634e+01
7.488897e+01
7.490510e+01
7.491544e+01
7.492129e+01
7.492395e+01
7.492447e+01
7.492338e+01
7.492058e+01
7.491621e+01
7.491031e+01
7.490288e+01
7.489392e+01
7.488344e+01
7.487154e+01
7.485847e+01
7.484464e+01
7.483074e+01
7.481771e+01
7.480664e+01
7.479863e+01
7.479439e+01
7.479379e+01
7.479576e+01
7.479866e+01
7.480055e+01
7.479953e+01
7.479411e+01
7.477737e+01
7.477738e+01
7.516923e+01
7.516925e+01
7.515994e+01
7.514906e+01
7.513464e+01
7.511456e+01
7.508653e+01
7.504819e+01
7.499737e+01
7.493262e+01
7.485438e+01
7.476744e+01
7.468234e+01
7.460671e+01
7.454328e+01
7.449154e+01
7.444994e+01
7.441739e+01
7.439418e+01
7.438216e+01
7.438396e+01
7.440146e+01
7.443431e+01
7.447951e+01
7.453224e+01
7.458749e+01
7.464123e+01
7.469077e+01
7.473484e+01
7.477295e+01
7.480488e+01
7.483042e+01
7.484930e+01
7.486121e+01
7.486574e+01
7.486233e+01
7.485014e+01
7.482808e+01
7.479489e+01
7.475082e+01
7.470217e+01
7.466357e+01
7.464997e+01
7.466536e+01
7.470266e+01
7.474979e+01
7.479635e+01
7.483683e+01
7.486910e+01
7.489343e+01
7.491122e+01
7.492413e+01
7.493366e+01
7.494088e+01
7.494624e+01
7.494969e+01
7.495092e+01
7.494926e+01
7.494383e+01
7.493376e+01
7.491833e+01
7.489713e+01
7.487026e+01
7.483882e+01
7.480555e+01
7.477508e+01
7.475337e+01
7.474586e+01
7.475460e+01
7.477714e+01
7.480777e+01
7.483995e+01
7.486864e+01
7.489136e+01
7.490755e+01
7.491788e+01
7.492364e+01
7.492614e+01
7.492645e+01
7.492511e+01
7.492225e+01
7.491796e+01
7.491219e+01
7.490490e+01
7.489603e+01
7.488555e+01
7.487348e+01
7.486003e+01
7.484565e+01
7.483106e+01
7.481730e+01
7.480566e+01
7.479735e+01
7.479301e+01
7.479234e+01
7.479422e+01
7.479688e+01
7.479828e+01
7.479658e+01
7.479012e+01
7.477109e+01
7.477110e+01
0.000000e+00
7.516923e+01
7.515992e+01
7.514903e+01
7.513461e+01
7.511453e+01
7.508650e+01
7.504817e+01
7.499735e+01
7.493260e+01
7.485436e+01
7.476743e+01
7.468233e+01
7.460672e+01
7.454330e+01
7.449156e+01
7.444997e+01
7.441743e+01
7.439422e+01
7.438220e+01
7.438399e+01
7.440148e+01
7.443433e+01
7.447951e+01
7.453224e+01
7.458747e+01
7.464120e+01
7.469074e+01
7.473480e+01
7.477291e+01
7.480484e+01
7.483039e+01
7.484927e+01
7.486119e+01
7.486573e+01
7.486232e+01
7.485013e+01
7.482808e+01
7.479489e+01
7.475083e+01
7.470219e+01
7.466360e+01
7.465000e+01
7.466538e+01
7.470269e+01
7.474981e+01
7.479637e+01
7.483685e+01
7.486910e+01
7.489343e+01
7.491121e+01
7.492411e+01
7.493364e+01
7.494086e+01
7.494622e+01
7.494966e+01
7.495090e+01
7.494924e+01
7.494382e+01
7.493374e+01
7.491832e+01