# vtk DataFile Version 3.0
Scalar Field
ASCII
DATASET RECTILINEAR_GRID
DIMENSIONS 102 22 1
X_COORDINATES 102 double
0.000000 0.100000 0.200000 0.300000 0.400000 0.500000 0.600000 0.700000 0.800000 0.900000 1.000000 1.100000 1.200000 1.300000 1.400000 1.500000 1.600000 1.700000 1.800000 1.900000 2.000000 2.100000 2.200000 2.300000 2.400000 2.500000 2.600000 2.700000 2.800000 2.900000 3.000000 3.100000 3.200000 3.300000 3.400000 3.500000 3.600000 3.700000 3.800000 3.900000 4.000000 4.100000 4.200000 4.300000 4.400000 4.500000 4.600000 4.700000 4.800000 4.900000 5.000000 5.100000 5.200000 5.300000 5.400000 5.500000 5.600000 5.700000 5.800000 5.900000 6.000000 6.100000 6.200000 6.300000 6.400000 6.500000 6.600000 6.700000 6.800000 6.900000 7.000000 7.100000 7.200000 7.300000 7.400000 7.500000 7.600000 7.700000 7.800000 7.900000 8.000000 8.100000 8.200000 8.300000 8.400000 8.500000 8.600000 8.700000 8.800000 8.900000 9.000000 9.100000 9.200000 9.300000 9.400000 9.500000 9.600000 9.700000 9.800000 9.900000 10.000000 10.100000 
Y_COORDINATES 22 double
0.000000 0.100000 0.200000 0.300000 0.400000 0.500000 0.600000 0.700000 0.800000 0.900000 1.000000 1.100000 1.200000 1.300000 1.400000 1.500000 1.600000 1.700000 1.800000 1.900000 2.000000 2.100000 
Z_COORDINATES 1 double
0.0
POINT_DATA 2244
SCALARS Pressure double 1
LOOKUP_TABLE default
0.000000e+00
6.319069e+01
6.316466e+01
6.313512e+01
6.309872e+01
6.305167e+01
6.299017e+01
6.291228e+01
6.281607e+01
6.271827e+01
6.263185e+01
6.256039e+01
6.250207e+01
6.245384e+01
6.241352e+01
6.238055e+01
6.235574e+01
6.234011e+01
6.233380e+01
6.233590e+01
6.234505e+01
6.235986e+01
6.237917e+01
6.240220e+01
6.242851e+01
6.245790e+01
6.249024e+01
6.252532e+01
6.256273e+01
6.260188e+01
6.264201e+01
6.268224e+01
6.272151e+01
6.275863e+01
6.279270e+01
6.282343e+01
6.285103e+01
6.287629e+01
6.289805e+01
6.291127e+01
6.290759e+01
6.287842e+01
6.281981e+01
6.274006e+01
6.265793e+01
6.259546e+01
6.256624e+01
6.256610e+01
6.258711e+01
6.262167e+01
6.266284e+01
6.270482e+01
6.274331e+01
6.277533e+01
6.279930e+01
6.281525e+01
6.282451e+01
6.282905e+01
6.283060e+01
6.283019e+01
6.282925e+01
6.282708e+01
6.282286e+01
6.281598e+01
6.280620e+01
6.279370e+01
6.277908e+01
6.276325e+01
6.274734e+01
6.273254e+01
6.271994e+01
6.271046e+01
6.270470e+01
6.270292e+01
6.270499e+01
6.271036e+01
6.271854e+01
6.272900e+01
6.274104e+01
6.275369e+01
6.276579e+01
6.277602e+01
6.278321e+01
6.278671e+01
6.278655e+01
6.278339e+01
6.277801e+01
6.277138e+01
6.276420e+01
6.275697e+01
6.275005e+01
6.274366e+01
6.273796e+01
6.273300e+01
6.272878e+01
6.272522e+01
6.272221e+01
6.271966e+01
6.271746e+01
6.271558e+01
6.271430e+01
0.000000e+00
6.319069e+01
6.319103e+01
6.316500e+01
6.313546e+01
6.309906e+01
6.305201e+01
6.299052e+01
6.291262e+01
6.281641e+01
6.271862e+01
6.263219e+01
6.256073e+01
6.250242e+01
6.245418e+01
6.241386e+01
6.238089e+01
6.235608e+01
6.234045e+01
6.233414e+01
6.233624e+01
6.234539e+01
6.236020e+01
6.237952e+01
6.240254e+01
6.242885e+01
6.245824e+01
6.249058e+01
6.252566e+01
6.256307e+01
6.260222e+01
6.264235e+01
6.268258e+01
6.272186e+01
6.275897e+01
6.279304e+01
6.282377e+01
6.285137e+01
6.287664e+01
6.289839e+01
6.291161e+01
6.290793e+01
6.287876e+01
6.282016e+01
6.274041e+01
6.265827e+01
6.259580e+01
6.256658e+01
6.256644e+01
6.258745e+01
6.262201e+01
6.266318e+01
6.270516e+01
6.274366e+01
6.277567e+01
6.279964e+01
6.281559e+01
6.282485e+01
6.282940e+01
6.283094e+01
6.283053e+01
6.282959e+01
6.282742e+01
6.282320e+01
6.281633e+01
6.280654e+01
6.279404e+01
6.277942e+01
6.276359e+01
6.274769e+01
6.273288e+01
6.272029e+01
6.271080e+01
6.270504e+01
6.270326e+01
6.270533e+01
6.271070e+01
6.271888e+01
6.272935e+01
6.274138e+01
6.275403e+01
6.276613e+01
6.277636e+01
6.278355e+01
6.278705e+01
6.278689e+01
6.278374e+01
6.277835e+01
6.277173e+01
6.276454e+01
6.275731e+01
6.275039e+01
6.274401e+01
6.273830e+01
6.273335e+01
6.272912e+01
6.272556e+01
6.272256e+01
6.272000e+01
6.271780e+01
6.271592e+01
6.271465e+01
6.271430e+01
6.318947e+01
6.318981e+01
6.316521e+01
6.313686e+01
6.310118e+01
6.305392e+01
6.299057e+01
6.290888e+01
6.280373e+01
6.270199e+01
6.261687e+01
6.254886e+01
6.249398e+01
6.244838e+01
6.240966e+01
6.237737e+01
6.235263e+01
6.233702e+01
6.233097e+01
6.233341e+01
6.234291e+01
6.235799e+01
6.237744e+01
6.240043e+01
6.242654e+01
6.245562e+01
6.248759e+01
6.252230e+01
6.255941e+01
6.259832e+01
6.263825e+01
6.267828e+01
6.271744e+01
6.275441e+01
6.278821e+01
6.281838e+01
6.284515e+01
6.286888e+01
6.288759e+01
6.289731e+01
6.289217e+01
6.286360e+01
6.280668e+01
6.273088e+01
6.265347e+01
6.259367e+01
6.256451e+01
6.256451e+01
6.258392e+01
6.261616e+01
6.265501e+01
6.269537e+01
6.273344e+01
6.276605e+01
6.279134e+01
6.280894e+01
6.281980e+01
6.282564e+01
6.282816e+01
6.282844e+01
6.282746e+01
6.282494e+01
6.282026e+01
6.281300e+01
6.280300e+01
6.279051e+01
6.277610e+01
6.276067e+01
6.274529e+01
6.273105e+01
6.271901e+01
6.271003e+01
6.270470e+01
6.270330e+01
6.270585e+01
6.271168e+01
6.272032e+01
6.273122e+01
6.274356e+01
6.275617e+01
6.276770e+01
6.277696e+01
6.278310e+01
6.278578e+01
6.278527e+01
6.278209e+01
6.277682e+01
6.277035e+01
6.276333e+01
6.275626e+01
6.274953e+01
6.274332e+01
6.273778e+01
6.273298e+01
6.272890e+01
6.272546e+01
6.272255e+01
6.272004e+01
6.271785e+01
6.271594e+01
6.271442e+01
6.271408e+01
6.318749e+01
6.318783e+01
6.316621e+01
6.314056e+01
6.310683e+01
6.305972e+01
6.299293e+01
6.290271e+01
6.277653e+01
6.266803e+01
6.258726e+01
6.252685e+01
6.247876e+01
6.243802e+01
6.240214e+01
6.237091e+01
6.234611e+01
6.233039e+01
6.232485e+01
6.232795e+01
6.233811e+01
6.235369e+01
6.237335e+01
6.239620e+01
6.242183e+01
6.245017e+01
6.248126e+01
6.251508e+01
6.255139e+01
6.258966e+01
6.262907e+01
6.266870e+01
6.270754e+01
6.274431e+01
6.277788e+01
6.280753e+01
6.283344e+01
6.285634e+01
6.287419e+01
6.288227e+01
6.287552e+01
6.284760e+01
6.279244e+01
6.271921e+01
6.264567e+01
6.258883e+01
6.255999e+01
6.256024e+01
6.257753e+01
6.260656e+01
6.264222e+01
6.268001e+01
6.271629e+01
6.274861e+01
6.277533e+01
6.279550e+01
6.280929e+01
6.281768e+01
6.282211e+01
6.282380e+01
6.282345e+01
6.282089e+01
6.281587e+01
6.280830e+01
6.279819e+01
6.278573e+01
6.277155e+01
6.275657e+01
6.274179e+01
6.272827e+01
6.271698e+01
6.270875e+01
6.270413e+01
6.270347e+01
6.270692e+01
6.271347e+01
6.272276e+01
6.273410e+01
6.274645e+01
6.275845e+01
6.276866e+01
6.277656e+01
6.278151e+01
6.278340e+01
6.278263e+01
6.277952e+01
6.277458e+01
6.276851e+01
6.276185e+01
6.275505e+01
6.274854e+01
6.274254e+01
6.273720e+01
6.273259e+01
6.272868e+01
6.272541e+01
6.272263e+01
6.272021e+01
6.271803e+01
6.271598e+01
6.271381e+01
6.271346e+01
6.318514e+01
6.318548e+01
6.316851e+01
6.314729e+01
6.311722e+01
6.307113e+01
6.299892e+01
6.289152e+01
6.272586e+01
6.261288e+01
6.254436e+01
6.249657e+01
6.245837e+01
6.242441e+01
6.239224e+01
6.236200e+01
6.233652e+01
6.232007e+01
6.231531e+01
6.231956e+01
6.233084e+01
6.234731e+01
6.236735e+01
6.239004e+01
6.241497e+01
6.244221e+01
6.247198e+01
6.250444e+01
6.253953e+01
6.257681e+01
6.261550e+01
6.265456e+01
6.269290e+01
6.272948e+01
6.276311e+01
6.279290e+01
6.281894e+01
6.284226e+01
6.286122e+01
6.286668e+01
6.285601e+01
6.282744e+01
6.277811e+01
6.271102e+01
6.264357e+01
6.259016e+01
6.256151e+01
6.255990e+01
6.257533e+01
6.260075e+01
6.263249e+01
6.266684e+01
6.270048e+01
6.273122e+01
6.275806e+01
6.277956e+01
6.279542e+01
6.280624e+01
6.281291e+01
6.281639e+01
6.281732e+01
6.281523e+01
6.281034e+01
6.280272e+01
6.279257e+01
6.278024e+01
6.276640e+01
6.275204e+01
6.273810e+01
6.272554e+01
6.271526e+01
6.270802e+01
6.270441e+01
6.270495e+01
6.270941e+01
6.271680e+01
6.272662e+01
6.273797e+01
6.274958e+01
6.276001e+01
6.276859e+01
6.277500e+01
6.277885e+01
6.278027e+01
6.277966e+01
6.277686e+01
6.277239e+01
6.276674e+01
6.276039e+01
6.275383e+01
6.274754e+01
6.274176e+01
6.273665e+01
6.273226e+01
6.272859e+01
6.272553e+01
6.272296e+01
6.272070e+01
6.271857e+01
6.271637e+01
6.271322e+01
6.271288e+01
6.318288e+01
6.318322e+01
6.317260e+01
6.315796e+01
6.313431e+01
6.309185e+01
6.301291e+01
6.287190e+01
6.263784e+01
6.253439e+01
6.249037e+01
6.246131e+01
6.243586e+01
6.241023e+01
6.238231e+01
6.235237e+01
6.232469e+01
6.230587e+01
6.230162e+01
6.230798e+01
6.232113e+01
6.233915e+01
6.235998e+01
6.238258e+01
6.240663e+01
6.243236e+01
6.246027e+01
6.249082e+01
6.252417e+01
6.256009e+01
6.259785e+01
6.263631e+01
6.267414e+01
6.271080e+01
6.274538e+01
6.277724e+01
6.280576e+01
6.283009e+01
6.284758e+01
6.284807e+01
6.283127e+01
6.280185e+01
6.276027e+01
6.270518e+01
6.264855e+01
6.260134e+01
6.257352e+01
6.256894e+01
6.258143e+01
6.260262e+01
6.262981e+01
6.265997e+01
6.269022e+01
6.271814e+01
6.274381e+01
6.276554e+01
6.278254e+01
6.279487e+01
6.280310e+01
6.280805e+01
6.281037e+01
6.280883e+01
6.280397e+01
6.279627e+01
6.278619e+01
6.277421e+01
6.276101e+01
6.274762e+01
6.273485e+01
6.272357e+01
6.271459e+01
6.270863e+01
6.270634e+01
6.270839e+01
6.271379e+01
6.272175e+01
6.273153e+01
6.274202e+01
6.275190e+01
6.276025e+01
6.276714e+01
6.277215e+01
6.277521e+01
6.277662e+01
6.277631e+01
6.277402e+01
6.277008e+01
6.276489e+01
6.275889e+01
6.275264e+01
6.274664e+01
6.274115e+01
6.273632e+01
6.273222e+01
6.272884e+01
6.272609e+01
6.272382e+01
6.272185e+01
6.271992e+01
6.271769e+01
6.271344e+01
6.271309e+01
6.318107e+01
6.318142e+01
6.317871e+01
6.317316e+01
6.316043e+01
6.312880e+01
6.304870e+01
6.284840e+01
6.248398e+01
6.242758e+01
6.243118e+01
6.242617e+01
6.241478e+01
6.239877e+01
6.237651e+01
6.234671e+01
6.231453e+01
6.229053e+01
6.228297e+01
6.229336e+01
6.230953e+01
6.233047e+01
6.235283e+01
6.237566e+01
6.239870e+01
6.242252e+01
6.244798e+01
6.247592e+01
6.250688e+01
6.254088e+01
6.257736e+01
6.261514e+01
6.265244e+01
6.268921e+01
6.272526e+01
6.276131e+01
6.279436e+01
6.281910e+01
6.283095e+01
6.282117e+01
6.279918e+01
6.277236e+01
6.274062e+01
6.270074e+01
6.265797e+01
6.261996e+01
6.259486e+01
6.258738e+01
6.259623e+01
6.261271e+01
6.263483e+01
6.266018e+01
6.268623e+01
6.271066e+01
6.273375e+01
6.275431e+01
6.277122e+01
6.278414e+01
6.279329e+01
6.279917e+01
6.280224e+01
6.280094e+01
6.279604e+01
6.278842e+01
6.277879e+01
6.276768e+01
6.275570e+01
6.274381e+01
6.273269e+01
6.272309e+01
6.271574e+01
6.271137e+01
6.271079e+01
6.271412e+01
6.272005e+01
6.272787e+01
6.273666e+01
6.274529e+01
6.275270e+01
6.275912e+01
6.276429e+01
6.276814e+01
6.277077e+01
6.277241e+01
6.277247e+01
6.277072e+01
6.276736e+01
6.276273e+01
6.275724e+01
6.275147e+01
6.274593e+01
6.274086e+01
6.273644e+01
6.273273e+01
6.272975e+01
6.272742e+01
6.272561e+01
6.272412e+01
6.272260e+01
6.272045e+01
6.271532e+01
6.271498e+01
6.317987e+01
6.318021e+01
6.318633e+01
6.319202e+01
6.319596e+01
6.319000e+01
6.314129e+01
6.291291e+01
6.220038e+01
6.228391e+01
6.238000e+01
6.239703e+01
6.239562e+01
6.238800e+01
6.237542e+01
6.234980e+01
6.231298e+01
6.228138e+01
6.226837e+01
6.227679e+01
6.229778e+01
6.232471e+01
6.234966e+01
6.237340e+01
6.239547e+01
6.241702e+01
6.243932e+01
6.246371e+01
6.249119e+01
6.252218e+01
6.255640e+01
6.259286e+01
6.262989e+01
6.266681e+01
6.270150e+01
6.273514e+01
6.276854e+01
6.279174e+01
6.279428e+01
6.277983e+01
6.276072e+01
6.274162e+01
6.272214e+01
6.269843e+01
6.267069e+01
6.264336e+01
6.262279e+01
6.261392e+01
6.261831e+01
6.262985e+01
6.264656e+01
6.266656e+01
6.268774e+01
6.270800e+01
6.272741e+01
6.274547e+01
6.276101e+01
6.277346e+01
6.278266e+01
6.278871e+01
6.279185e+01
6.279050e+01
6.278573e+01
6.277873e+01
6.277028e+01
6.276084e+01
6.275089e+01
6.274119e+01
6.273226e+01
6.272476e+01
6.271936e+01
6.271683e+01
6.271793e+01
6.272188e+01
6.272759e+01
6.273429e+01
6.274109e+01
6.274711e+01
6.275222e+01
6.275663e+01
6.276028e+01
6.276323e+01
6.276558e+01
6.276735e+01
6.276773e+01
6.276652e+01
6.276385e+01
6.276001e+01
6.275533e+01
6.275034e+01
6.274553e+01
6.274113e+01
6.273730e+01
6.273415e+01
6.273172e+01
6.272996e+01
6.272877e+01
6.272791e+01
6.272679e+01
6.272478e+01
6.271948e+01
6.271913e+01
6.317902e+01
6.317937e+01
6.319382e+01
6.321093e+01
6.323434e+01
6.326769e+01
6.331102e+01
6.342753e+01
6.281361e+01
6.234529e+01
6.240735e+01
6.238847e+01
6.237835e+01
6.236821e+01
6.236335e+01
6.235000e+01
6.232005e+01
6.228456e+01
6.226798e+01
6.227341e+01
6.229610e+01
6.232615e+01
6.235502e+01
6.238139e+01
6.240295e+01
6.242245e+01
6.244111e+01
6.246078e+01
6.248306e+01
6.250879e+01
6.253793e+01
6.256946e+01
6.260145e+01
6.263167e+01
6.265753e+01
6.269242e+01
6.272415e+01
6.274008e+01
6.273792e+01
6.273017e+01
6.272153e+01
6.271408e+01
6.270767e+01
6.269957e+01
6.268664e+01
6.266999e+01
6.265470e+01
6.264572e+01
6.264590e+01
6.265239e+01
6.266349e+01
6.267774e+01
6.269344e+01
6.270881e+01
6.272366e+01
6.273808e+01
6.275101e+01
6.276176e+01
6.276988e+01
6.277518e+01
6.277780e+01
6.277644e+01
6.277248e+01
6.276708e+01
6.276088e+01
6.275414e+01
6.274716e+01
6.274037e+01
6.273417e+01
6.272913e+01
6.272593e+01
6.272525e+01
6.272733e+01
6.273100e+01
6.273551e+01
6.274016e+01
6.274434e+01
6.274767e+01
6.275055e+01
6.275308e+01
6.275537e+01
6.275748e+01
6.275938e+01
6.276098e+01
6.276155e+01
6.276096e+01
6.275924e+01
6.275655e+01
6.275312e+01
6.274936e+01
6.274567e+01
6.274225e+01
6.273929e+01
6.273690e+01
6.273517e+01
6.273409e+01
6.273356e+01
6.273315e+01
6.273229e+01
6.273038e+01
6.272565e+01
6.272531e+01
6.317804e+01
6.317838e+01
6.319893e+01
6.322419e+01
6.326091e+01
6.331944e+01
6.341674e+01
6.354805e+01
6.356324e+01
0.000000e+00
6.238643e+01
6.238677e+01
6.236525e+01
6.234895e+01
6.233411e+01
6.231908e+01
6.230056e+01
6.228192e+01
6.227233e+01
6.228163e+01
6.230578e+01
6.233610e+01
6.236956e+01
6.239837e+01
6.242140e+01
6.244120e+01
6.245703e+01
6.247173e+01
6.248757e+01
6.250574e+01
6.252630e+01
6.254830e+01
6.257009e+01
6.258893e+01
6.261267e+01
6.263661e+01
6.265377e+01
6.266432e+01
6.267403e+01
6.268233e+01
6.268911e+01
6.269499e+01
6.270075e+01
6.270541e+01
6.270521e+01
6.269864e+01
6.268844e+01
6.268004e+01
6.267687e+01
6.267854e+01
6.268402e+01
6.269228e+01
6.270202e+01
6.271186e+01
6.272138e+01
6.273107e+01
6.274007e+01
6.274767e+01
6.275338e+01
6.275704e+01
6.275873e+01
6.275810e+01
6.275624e+01
6.275384e+01
6.275119e+01
6.274828e+01
6.274514e+01
6.274190e+01
6.273885e+01
6.273649e+01
6.273540e+01
6.273598e+01
6.273805e+01
6.274057e+01
6.274308e+01
6.274511e+01
6.274647e+01
6.274730e+01
6.274798e+01
6.274873e+01
6.274962e+01
6.275066e+01
6.275176e+01
6.275282e+01
6.275353e+01
6.275374e+01
6.275334e+01
6.275233e+01
6.275072e+01
6.274872e+01
6.274661e+01
6.274456e+01
6.274275e+01
6.274133e+01
6.274039e+01
6.273992e+01
6.273976e+01
6.273949e+01
6.273866e+01
6.273683e+01
6.273295e+01
6.273261e+01
6.317645e+01
6.317680e+01
6.320005e+01
6.322816e+01
6.326739e+01
6.332494e+01
6.340789e+01
6.350605e+01
6.357911e+01
6.357876e+01
0.000000e+00
6.234666e+01
6.234700e+01
6.232176e+01
6.229845e+01
6.227571e+01
6.225715e+01
6.225107e+01
6.226198e+01
6.228843e+01
6.232443e+01
6.236207e+01
6.239771e+01
6.242862e+01
6.245521e+01
6.247695e+01
6.249228e+01
6.250309e+01
6.251269e+01
6.252256e+01
6.253287e+01
6.254304e+01
6.255188e+01
6.255838e+01
6.256358e+01
6.256926e+01
6.257613e+01
6.259215e+01
6.261775e+01
6.264413e+01
6.266716e+01
6.268600e+01
6.270193e+01
6.271565e+01
6.272487e+01
6.272692e+01
6.272235e+01
6.271486e+01
6.270918e+01
6.270658e+01
6.270672e+01
6.270898e+01
6.271245e+01
6.271617e+01
6.271964e+01
6.272342e+01
6.272695e+01
6.272981e+01
6.273179e+01
6.273298e+01
6.273401e+01
6.273542e+01
6.273740e+01
6.273975e+01
6.274212e+01
6.274411e+01
6.274548e+01
6.274619e+01
6.274644e+01
6.274666e+01
6.274725e+01
6.274825e+01
6.274936e+01
6.275000e+01
6.274990e+01
6.274912e+01
6.274788e+01
6.274635e+01
6.274485e+01
6.274366e+01
6.274288e+01
6.274248e+01
6.274239e+01
6.274263e+01
6.274350e+01
6.274478e+01
6.274620e+01
6.274745e+01
6.274830e+01
6.274866e+01
6.274860e+01
6.274828e+01
6.274786e+01
6.274751e+01
6.274731e+01
6.274718e+01
6.274700e+01
6.274653e+01
6.274554e+01
6.274381e+01
6.274069e+01
6.274035e+01
6.317413e+01
6.317447e+01
6.319707e+01
6.322341e+01
6.325817e+01
6.330614e+01
6.336738e+01
6.342128e+01
6.344506e+01
6.318703e+01
6.318669e+01
0.000000e+00
6.231473e+01
6.228315e+01
6.226106e+01
6.223126e+01
6.220742e+01
6.220832e+01
6.223602e+01
6.228438e+01
6.234142e+01
6.239460e+01
6.244012e+01
6.247824e+01
6.251012e+01
6.253486e+01
6.255151e+01
6.255965e+01
6.256400e+01
6.256573e+01
6.256445e+01
6.255933e+01
6.255124e+01
6.253805e+01
6.252104e+01
6.250506e+01
6.250464e+01
6.253382e+01
6.257657e+01
6.262003e+01
6.265750e+01
6.268698e+01
6.271013e+01
6.272946e+01
6.274470e+01
6.275323e+01
6.275372e+01
6.274844e+01
6.274127e+01
6.273518e+01
6.273054e+01
6.272703e+01
6.272411e+01
6.272119e+01
6.271784e+01
6.271440e+01
6.271080e+01
6.270730e+01
6.270452e+01
6.270312e+01
6.270496e+01
6.271045e+01
6.271823e+01
6.272682e+01
6.273512e+01
6.274230e+01
6.274814e+01
6.275267e+01
6.275604e+01
6.275840e+01
6.275979e+01
6.276015e+01
6.275962e+01
6.275806e+01
6.275554e+01
6.275237e+01
6.274895e+01
6.274530e+01
6.274175e+01
6.273858e+01
6.273591e+01
6.273380e+01
6.273223e+01
6.273147e+01
6.273250e+01
6.273503e+01
6.273855e+01
6.274246e+01
6.274619e+01
6.274928e+01
6.275161e+01
6.275325e+01
6.275435e+01
6.275503e+01
6.275534e+01
6.275520e+01
6.275467e+01
6.275386e+01
6.275274e+01
6.275124e+01
6.274893e+01
6.274858e+01
6.317123e+01
6.317158e+01
6.319099e+01
6.321269e+01
6.323897e+01
6.326970e+01
6.329777e+01
6.330117e+01
6.323473e+01
6.310733e+01
6.268094e+01
6.236159e+01
6.220974e+01
6.225987e+01
6.223955e+01
6.220852e+01
6.218690e+01
6.219392e+01
6.223085e+01
6.229082e+01
6.236104e+01
6.242569e+01
6.247957e+01
6.252666e+01
6.256811e+01
6.260217e+01
6.262373e+01
6.262743e+01
6.262384e+01
6.261376e+01
6.259785e+01
6.257784e+01
6.255588e+01
6.252343e+01
6.248523e+01
6.245072e+01
6.245599e+01
6.249802e+01
6.255535e+01
6.261213e+01
6.265969e+01
6.269574e+01
6.272346e+01
6.274576e+01
6.276399e+01
6.277668e+01
6.278154e+01
6.277890e+01
6.277174e+01
6.276350e+01
6.275494e+01
6.274615e+01
6.273685e+01
6.272681e+01
6.271618e+01
6.270502e+01
6.269399e+01
6.268411e+01
6.267652e+01
6.267210e+01
6.267582e+01
6.268646e+01
6.270101e+01
6.271656e+01
6.273110e+01
6.274316e+01
6.275291e+01
6.276057e+01
6.276625e+01
6.276990e+01
6.277130e+01
6.277073e+01
6.276866e+01
6.276519e+01
6.276062e+01
6.275540e+01
6.275003e+01
6.274444e+01
6.273891e+01
6.273374e+01
6.272913e+01
6.272523e+01
6.272216e+01
6.272038e+01
6.272162e+01
6.272549e+01
6.273123e+01
6.273791e+01
6.274466e+01
6.275049e+01
6.275514e+01
6.275865e+01
6.276112e+01
6.276266e+01
6.276332e+01
6.276312e+01
6.276231e+01
6.276128e+01
6.276019e+01
6.275908e+01
6.275773e+01
6.275739e+01
6.316828e+01
6.316862e+01
6.318310e+01
6.319803e+01
6.321346e+01
6.322637e+01
6.322731e+01
6.319603e+01
6.309474e+01
6.291315e+01
6.262889e+01
6.204293e+01
6.216029e+01
6.221842e+01
6.222992e+01
6.220874e+01
6.219729e+01
6.221219e+01
6.225431e+01
6.231726e+01
6.238920e+01
6.245535e+01
6.251160e+01
6.256358e+01
6.261092e+01
6.265047e+01
6.267669e+01
6.267831e+01
6.266742e+01
6.264808e+01
6.262242e+01
6.259281e+01
6.255905e+01
6.251125e+01
6.245514e+01
6.241800e+01
6.243434e+01
6.248766e+01
6.255493e+01
6.261949e+01
6.267102e+01
6.271015e+01
6.273989e+01
6.276314e+01
6.278197e+01
6.279644e+01
6.280458e+01
6.280496e+01
6.279894e+01
6.278959e+01
6.277793e+01
6.276439e+01
6.274916e+01
6.273272e+01
6.271544e+01
6.269705e+01
6.267887e+01
6.266259e+01
6.264984e+01
6.264314e+01
6.264959e+01
6.266601e+01
6.268767e+01
6.271027e+01
6.273038e+01
6.274659e+01
6.275936e+01
6.276918e+01
6.277625e+01
6.278048e+01
6.278157e+01
6.278018e+01
6.277688e+01
6.277191e+01
6.276566e+01
6.275865e+01
6.275147e+01
6.274407e+01
6.273662e+01
6.272948e+01
6.272295e+01
6.271733e+01
6.271285e+01
6.271020e+01
6.271172e+01
6.271693e+01
6.272484e+01
6.273419e+01
6.274380e+01
6.275214e+01
6.275885e+01
6.276396e+01
6.276757e+01
6.276981e+01
6.277080e+01
6.277067e+01
6.276976e+01
6.276871e+01
6.276779e+01
6.276719e+01
6.276702e+01
6.276667e+01
6.316529e+01
6.316563e+01
6.317440e+01
6.318215e+01
6.318752e+01
6.318648e+01
6.317051e+01
6.312473e+01
6.302614e+01
6.285529e+01
6.262603e+01
6.231612e+01
6.227385e+01
6.227217e+01
6.226578e+01
6.224834e+01
6.224174e+01
6.225770e+01
6.229620e+01
6.235220e+01
6.241399e+01
6.247036e+01
6.252261e+01
6.257271e+01
6.262073e+01
6.266005e+01
6.268335e+01
6.268631e+01
6.267690e+01
6.265888e+01
6.263222e+01
6.259947e+01
6.255859e+01
6.250167e+01
6.243685e+01
6.241261e+01
6.244060e+01
6.250146e+01
6.257281e+01
6.263781e+01
6.268896e+01
6.272796e+01
6.275753e+01
6.278029e+01
6.279828e+01
6.281240e+01
6.282176e+01
6.282433e+01
6.282070e+01
6.281177e+01
6.279839e+01
6.278133e+01
6.276134e+01
6.273956e+01
6.271645e+01
6.269157e+01
6.266683e+01
6.264453e+01
6.262684e+01
6.261945e+01
6.262922e+01
6.265145e+01
6.267976e+01
6.270860e+01
6.273310e+01
6.275231e+01
6.276701e+01
6.277796e+01
6.278557e+01
6.278984e+01
6.279059e+01
6.278867e+01
6.278455e+01
6.277851e+01
6.277098e+01
6.276247e+01
6.275362e+01
6.274452e+01
6.273524e+01
6.272621e+01
6.271786e+01
6.271064e+01
6.270497e+01
6.270166e+01
6.270354e+01
6.271001e+01
6.271986e+01
6.273157e+01
6.274366e+01
6.275408e+01
6.276247e+01
6.276881e+01
6.277329e+01
6.277609e+01
6.277743e+01
6.277756e+01
6.277680e+01
6.277594e+01
6.277533e+01
6.277531e+01
6.277642e+01
6.277607e+01
6.316257e+01
6.316291e+01
6.316609e+01
6.316732e+01
6.316461e+01
6.315405e+01
6.312907e+01
6.307995e+01
6.299391e+01
6.285776e+01
6.267488e+01
6.246839e+01
6.238007e+01
6.234148e+01
6.231794e+01
6.229930e+01
6.229366e+01
6.230737e+01
6.233975e+01
6.238647e+01
6.243801e+01
6.248790e+01
6.253571e+01
6.258096e+01
6.262066e+01
6.265051e+01
6.266716e+01
6.267091e+01
6.266495e+01
6.264953e+01
6.262574e+01
6.259700e+01
6.255683e+01
6.249948e+01
6.244534e+01
6.243654e+01
6.247215e+01
6.253394e+01
6.260248e+01
6.266252e+01
6.271024e+01
6.274688e+01
6.277473e+01
6.279610e+01
6.281276e+01
6.282564e+01
6.283441e+01
6.283797e+01
6.283620e+01
6.282866e+01
6.281533e+01
6.279665e+01
6.277358e+01
6.274777e+01
6.271983e+01
6.268940e+01
6.265897e+01
6.263151e+01
6.261000e+01
6.260343e+01
6.261691e+01
6.264442e+01
6.267821e+01
6.271171e+01
6.273903e+01
6.275995e+01
6.277546e+01
6.278659e+01
6.279402e+01
6.279800e+01
6.279847e+01
6.279628e+01
6.279173e+01
6.278508e+01
6.277669e+01
6.276705e+01
6.275674e+01
6.274608e+01
6.273508e+01
6.272426e+01
6.271420e+01
6.270555e+01
6.269895e+01
6.269528e+01
6.269757e+01
6.270514e+01
6.271661e+01
6.273019e+01
6.274417e+01
6.275618e+01
6.276580e+01
6.277304e+01
6.277812e+01
6.278135e+01
6.278304e+01
6.278353e+01
6.278316e+01
6.278268e+01
6.278251e+01
6.278308e+01
6.278538e+01
6.278504e+01
6.316034e+01
6.316068e+01
6.315893e+01
6.315477e+01
6.314602e+01
6.312927e+01
6.309970e+01
6.305101e+01
6.297594e+01
6.286686e+01
6.272262e+01
6.256291e+01
6.246298e+01
6.240512e+01
6.236923e+01
6.234697e+01
6.234001e+01
6.235036e+01
6.237657e+01
6.241463e+01
6.245763e+01
6.250101e+01
6.254310e+01
6.258209e+01
6.261475e+01
6.263845e+01
6.265161e+01
6.265468e+01
6.264896e+01
6.263519e+01
6.261490e+01
6.259012e+01
6.255384e+01
6.250628e+01
6.247183e+01
6.247569e+01
6.251451e+01
6.257277e+01
6.263445e+01
6.268809e+01
6.273129e+01
6.276473e+01
6.279028e+01
6.280989e+01
6.282504e+01
6.283648e+01
6.284401e+01
6.284758e+01
6.284665e+01
6.284053e+01
6.282838e+01
6.280991e+01
6.278567e+01
6.275732e+01
6.272573e+01
6.269084e+01
6.265578e+01
6.262440e+01
6.260075e+01
6.259638e+01
6.261361e+01
6.264541e+01
6.268306e+01
6.271903e+01
6.274767e+01
6.276907e+01
6.278439e+01
6.279495e+01
6.280171e+01
6.280514e+01
6.280540e+01
6.280310e+01
6.279841e+01
6.279152e+01
6.278271e+01
6.277233e+01
6.276088e+01
6.274886e+01
6.273628e+01
6.272379e+01
6.271214e+01
6.270220e+01
6.269488e+01
6.269114e+01
6.269389e+01
6.270239e+01
6.271509e+01
6.273001e+01
6.274524e+01
6.275833e+01
6.276880e+01
6.277663e+01
6.278211e+01
6.278564e+01
6.278763e+01
6.278850e+01
6.278863e+01
6.278864e+01
6.278899e+01
6.279013e+01
6.279341e+01
6.279307e+01
6.315867e+01
6.315901e+01
6.315326e+01
6.314492e+01
6.313184e+01
6.311112e+01
6.307911e+01
6.303151e+01
6.296382e+01
6.287181e+01
6.275464e+01
6.262556e+01
6.252580e+01
6.245738e+01
6.241264e+01
6.238630e+01
6.237695e+01
6.238396e+01
6.240512e+01
6.243653e+01
6.247306e+01
6.251094e+01
6.254788e+01
6.258163e+01
6.260954e+01
6.262972e+01
6.264115e+01
6.264381e+01
6.263826e+01
6.262526e+01
6.260626e+01
6.258191e+01
6.254942e+01
6.251413e+01
6.249728e+01
6.251144e+01
6.255205e+01
6.260638e+01
6.266169e+01
6.271011e+01
6.274939e+01
6.277999e+01
6.280341e+01
6.282134e+01
6.283506e+01
6.284529e+01
6.285211e+01
6.285533e+01
6.285479e+01
6.284971e+01
6.283895e+01
6.282159e+01
6.279751e+01
6.276785e+01
6.273366e+01
6.269537e+01
6.265679e+01
6.262287e+01
6.259925e+01
6.259783e+01
6.261838e+01
6.265316e+01
6.269289e+01
6.272948e+01
6.275820e+01
6.277915e+01
6.279359e+01
6.280307e+01
6.280882e+01
6.281155e+01
6.281161e+01
6.280923e+01
6.280454e+01
6.279766e+01
6.278873e+01
6.277799e+01
6.276578e+01
6.275264e+01
6.273869e+01
6.272468e+01
6.271153e+01
6.270040e+01
6.269249e+01
6.268893e+01
6.269215e+01
6.270141e+01
6.271501e+01
6.273081e+01
6.274674e+01
6.276047e+01
6.277147e+01
6.277968e+01
6.278542e+01
6.278914e+01
6.279135e+01
6.279254e+01
6.279314e+01
6.279365e+01
6.279451e+01
6.279619e+01
6.280023e+01
6.279989e+01
6.315753e+01
6.315788e+01
6.314914e+01
6.313777e+01
6.312174e+01
6.309852e+01
6.306518e+01
6.301851e+01
6.295544e+01
6.287357e+01
6.277317e+01
6.266359e+01
6.256892e+01
6.249704e+01
6.244726e+01
6.241722e+01
6.240508e+01
6.240892e+01
6.242601e+01
6.245258e+01
6.248444e+01
6.251814e+01
6.255111e+01
6.258108e+01
6.260590e+01
6.262397e+01
6.263439e+01
6.263683e+01
6.263146e+01
6.261878e+01
6.259977e+01
6.257494e+01
6.254556e+01
6.252081e+01
6.251599e+01
6.253741e+01
6.257954e+01
6.263099e+01
6.268191e+01
6.272659e+01
6.276300e+01
6.279141e+01
6.281316e+01
6.282981e+01
6.284259e+01
6.285222e+01
6.285877e+01
6.286213e+01
6.286217e+01
6.285813e+01
6.284872e+01
6.283271e+01
6.280935e+01
6.277902e+01
6.274273e+01
6.270161e+01
6.266017e+01
6.262473e+01
6.260286e+01
6.260449e+01
6.262774e+01
6.266439e+01
6.270484e+01
6.274106e+01
6.276923e+01
6.278938e+01
6.280273e+01
6.281095e+01
6.281552e+01
6.281748e+01
6.281725e+01
6.281471e+01
6.281003e+01
6.280324e+01
6.279438e+01
6.278353e+01
6.277091e+01
6.275691e+01
6.274184e+01
6.272648e+01
6.271196e+01
6.269969e+01
6.269122e+01
6.268797e+01
6.269166e+01
6.270154e+01
6.271580e+01
6.273215e+01
6.274840e+01
6.276250e+01
6.277383e+01
6.278230e+01
6.278824e+01
6.279209e+01
6.279444e+01
6.279583e+01
6.279677e+01
6.279768e+01
6.279895e+01
6.280105e+01
6.280579e+01
6.280545e+01
6.315686e+01
6.315720e+01
6.314649e+01
6.313318e+01
6.311534e+01
6.309066e+01
6.305664e+01
6.301066e+01
6.295036e+01
6.287425e+01
6.278334e+01
6.268502e+01
6.259502e+01
6.252255e+01
6.247033e+01
6.243794e+01
6.242374e+01
6.242533e+01
6.243968e+01
6.246313e+01
6.249191e+01
6.252279e+01
6.255312e+01
6.258067e+01
6.260360e+01
6.262042e+01
6.263023e+01
6.263258e+01
6.262736e+01
6.261476e+01
6.259526e+01
6.256993e+01
6.254318e+01
6.252592e+01
6.252902e+01
6.255478e+01
6.259719e+01
6.264664e+01
6.269490e+01
6.273729e+01
6.277191e+01
6.279894e+01
6.281959e+01
6.283531e+01
6.284735e+01
6.285663e+01
6.286339e+01
6.286746e+01
6.286853e+01
6.286565e+01
6.285758e+01
6.284290e+01
6.282045e+01
6.278983e+01
6.275168e+01
6.270788e+01
6.266366e+01
6.262699e+01
6.260725e+01
6.261138e+01
6.263665e+01
6.267445e+01
6.271508e+01
6.275090e+01
6.277853e+01
6.279772e+01
6.280988e+01
6.281688e+01
6.282041e+01
6.282169e+01
6.282118e+01
6.281863e+01
6.281413e+01
6.280762e+01
6.279902e+01
6.278830e+01
6.277551e+01
6.276093e+01
6.274499e+01
6.272852e+01
6.271280e+01
6.269948e+01
6.269046e+01
6.268751e+01
6.269158e+01
6.270194e+01
6.271670e+01
6.273342e+01
6.274983e+01
6.276419e+01
6.277577e+01
6.278446e+01
6.279051e+01
6.279445e+01
6.279687e+01
6.279836e+01
6.279947e+01
6.280064e+01
6.280217e+01
6.280456e+01
6.281004e+01
6.280970e+01
6.315657e+01
6.315692e+01
6.314523e+01
6.313098e+01
6.311230e+01
6.308702e+01
6.305281e+01
6.300732e+01
6.294845e+01
6.287509e+01
6.278853e+01
6.269528e+01
6.260772e+01
6.253523e+01
6.248196e+01
6.244841e+01
6.243311e+01
6.243352e+01
6.244647e+01
6.246834e+01
6.249556e+01
6.252498e+01
6.255396e+01
6.258031e+01
6.260228e+01
6.261851e+01
6.262808e+01
6.263044e+01
6.262538e+01
6.261286e+01
6.259298e+01
6.256759e+01
6.254287e+01
6.252948e+01
6.253578e+01
6.256285e+01
6.260487e+01
6.265311e+01
6.270009e+01
6.274152e+01
6.277550e+01
6.280213e+01
6.282245e+01
6.283787e+01
6.284965e+01
6.285873e+01
6.286552e+01
6.287007e+01
6.287194e+01
6.287015e+01
6.286334e+01
6.284996e+01
6.282854e+01
6.279810e+01
6.275859e+01
6.271228e+01
6.266525e+01
6.262713e+01
6.260820e+01
6.261357e+01
6.264011e+01
6.267883e+01
6.271959e+01
6.275523e+01
6.278268e+01
6.280166e+01
6.281351e+01
6.282011e+01
6.282321e+01
6.282407e+01
6.282320e+01
6.282065e+01
6.281635e+01
6.281013e+01
6.280183e+01
6.279133e+01
6.277862e+01
6.276382e+01
6.274741e+01
6.273021e+01
6.271358e+01
6.269943e+01
6.268994e+01
6.268699e+01
6.269126e+01
6.270192e+01
6.271699e+01
6.273391e+01
6.275033e+01
6.276476e+01
6.277644e+01
6.278524e+01
6.279142e+01
6.279551e+01
6.279808e+01
6.279974e+01
6.280098e+01
6.280224e+01
6.280391e+01
6.280647e+01
6.281268e+01
6.281234e+01
0.000000e+00
6.315657e+01
6.314489e+01
6.313064e+01
6.311196e+01
6.308668e+01
6.305247e+01
6.300697e+01
6.294811e+01
6.287475e+01
6.278819e+01
6.269494e+01
6.260738e+01
6.253489e+01
6.248162e+01
6.244806e+01
6.243277e+01
6.243317e+01
6.244612e+01
6.246800e+01
6.249522e+01
6.252464e+01
6.255362e+01
6.257997e+01
6.260194e+01
6.261817e+01
6.262774e+01
6.263010e+01
6.262504e+01
6.261252e+01
6.259264e+01
6.256725e+01
6.254252e+01
6.252913e+01
6.253543e+01
6.256250e+01
6.260452e+01
6.265277e+01
6.269975e+01
6.274117e+01
6.277516e+01
6.280178e+01
6.282211e+01
6.283752e+01
6.284931e+01
6.285838e+01
6.286518e+01
6.286973e+01
6.287159e+01
6.286980e+01
6.286300e+01
6.284961e+01
6.282820e+01
6.279776e+01
6.275825e+01
6.271194e+01
6.266491e+01
6.262678e+01
6.260785e+01
6.261323e+01
6.263977e+01