# vtk DataFile Version 3.0
Scalar Field
ASCII
DATASET RECTILINEAR_GRID
DIMENSIONS 102 22 1
X_COORDINATES 102 double
0.000000 0.100000 0.200000 0.300000 0.400000 0.500000 0.600000 0.700000 0.800000 0.900000 1.000000 1.100000 1.200000 1.300000 1.400000 1.500000 1.600000 1.700000 1.800000 1.900000 2.000000 2.100000 2.200000 2.300000 2.400000 2.500000 2.600000 2.700000 2.800000 2.900000 3.000000 3.100000 3.200000 3.300000 3.400000 3.500000 3.600000 3.700000 3.800000 3.900000 4.000000 4.100000 4.200000 4.300000 4.400000 4.500000 4.600000 4.700000 4.800000 4.900000 5.000000 5.100000 5.200000 5.300000 5.400000 5.500000 5.600000 5.700000 5.800000 5.900000 6.000000 6.100000 6.200000 6.300000 6.400000 6.500000 6.600000 6.700000 6.800000 6.900000 7.000000 7.100000 7.200000 7.300000 7.400000 7.500000 7.600000 7.700000 7.800000 7.900000 8.000000 8.100000 8.200000 8.300000 8.400000 8.500000 8.600000 8.700000 8.800000 8.900000 9.000000 9.100000 9.200000 9.300000 9.400000 9.500000 9.600000 9.700000 9.800000 9.900000 10.000000 10.100000 
Y_COORDINATES 22 double
0.000000 0.100000 0.200000 0.300000 0.400000 0.500000 0.600000 0.700000 0.800000 0.900000 1.000000 1.100000 1.200000 1.300000 1.400000 1.500000 1.600000 1.700000 1.800000 1.900000 2.000000 2.100000 
Z_COORDINATES 1 double
0.0
POINT_DATA 2244
SCALARS Pressure double 1
LOOKUP_TABLE default
0.000000e+00
6.199199e+01
6.196033e+01
6.192474e+01
6.188125e+01
6.182567e+01
6.175375e+01
6.166337e+01
6.155248e+01
6.144098e+01
6.134499e+01
6.127013e+01
6.121577e+01
6.117915e+01
6.115714e+01
6.114676e+01
6.114557e+01
6.115172e+01
6.116387e+01
6.118103e+01
6.120252e+01
6.122785e+01
6.125669e+01
6.128880e+01
6.132403e+01
6.136225e+01
6.140316e+01
6.144607e+01
6.148992e+01
6.153320e+01
6.157365e+01
6.160813e+01
6.162919e+01
6.162718e+01
6.159672e+01
6.154247e+01
6.147805e+01
6.142037e+01
6.138187e+01
6.136537e+01
6.136695e+01
6.138211e+01
6.140684e+01
6.143785e+01
6.147235e+01
6.150777e+01
6.154170e+01
6.157188e+01
6.159654e+01
6.161489e+01
6.162731e+01
6.163501e+01
6.163941e+01
6.164149e+01
6.164288e+01
6.164306e+01
6.164093e+01
6.163534e+01
6.162536e+01
6.161062e+01
6.159153e+01
6.156930e+01
6.154574e+01
6.152300e+01
6.150333e+01
6.148870e+01
6.148050e+01
6.147926e+01
6.148453e+01
6.149538e+01
6.151106e+01
6.153038e+01
6.155147e+01
6.157183e+01
6.158868e+01
6.159986e+01
6.160473e+01
6.160434e+01
6.160023e+01
6.159373e+01
6.158601e+01
6.157754e+01
6.156868e+01
6.155979e+01
6.155121e+01
6.154329e+01
6.153627e+01
6.153032e+01
6.152552e+01
6.152183e+01
6.151915e+01
6.151730e+01
6.151605e+01
6.151518e+01
6.151447e+01
6.151361e+01
6.151229e+01
6.151010e+01
6.150659e+01
6.150109e+01
6.148977e+01
0.000000e+00
6.199199e+01
6.199171e+01
6.196006e+01
6.192446e+01
6.188098e+01
6.182539e+01
6.175347e+01
6.166309e+01
6.155220e+01
6.144071e+01
6.134471e+01
6.126985e+01
6.121549e+01
6.117888e+01
6.115686e+01
6.114648e+01
6.114529e+01
6.115145e+01
6.116359e+01
6.118075e+01
6.120224e+01
6.122758e+01
6.125641e+01
6.128852e+01
6.132376e+01
6.136197e+01
6.140288e+01
6.144579e+01
6.148964e+01
6.153292e+01
6.157337e+01
6.160785e+01
6.162891e+01
6.162690e+01
6.159645e+01
6.154220e+01
6.147778e+01
6.142009e+01
6.138159e+01
6.136510e+01
6.136668e+01
6.138183e+01
6.140656e+01
6.143758e+01
6.147207e+01
6.150749e+01
6.154142e+01
6.157161e+01
6.159626e+01
6.161461e+01
6.162703e+01
6.163473e+01
6.163914e+01
6.164121e+01
6.164260e+01
6.164278e+01
6.164065e+01
6.163506e+01
6.162508e+01
6.161034e+01
6.159126e+01
6.156903e+01
6.154546e+01
6.152272e+01
6.150305e+01
6.148842e+01
6.148022e+01
6.147898e+01
6.148426e+01
6.149510e+01
6.151078e+01
6.153010e+01
6.155120e+01
6.157155e+01
6.158840e+01
6.159958e+01
6.160445e+01
6.160407e+01
6.159995e+01
6.159345e+01
6.158574e+01
6.157726e+01
6.156840e+01
6.155951e+01
6.155094e+01
6.154301e+01
6.153599e+01
6.153004e+01
6.152524e+01
6.152155e+01
6.151888e+01
6.151702e+01
6.151577e+01
6.151490e+01
6.151419e+01
6.151333e+01
6.151201e+01
6.150983e+01
6.150631e+01
6.150081e+01
6.148950e+01
6.148977e+01
6.199056e+01
6.199028e+01
6.196014e+01
6.192580e+01
6.188306e+01
6.182725e+01
6.175343e+01
6.165923e+01
6.153880e+01
6.142321e+01
6.132860e+01
6.125707e+01
6.120580e+01
6.117150e+01
6.115119e+01
6.114196e+01
6.114151e+01
6.114813e+01
6.116051e+01
6.117774e+01
6.119917e+01
6.122434e+01
6.125295e+01
6.128478e+01
6.131966e+01
6.135742e+01
6.139782e+01
6.144020e+01
6.148355e+01
6.152658e+01
6.156753e+01
6.160258e+01
6.162475e+01
6.162515e+01
6.159729e+01
6.154499e+01
6.148126e+01
6.142164e+01
6.137946e+01
6.136054e+01
6.136090e+01
6.137556e+01
6.140017e+01
6.143118e+01
6.146569e+01
6.150110e+01
6.153510e+01
6.156564e+01
6.159090e+01
6.161005e+01
6.162332e+01
6.163173e+01
6.163664e+01
6.163908e+01
6.164007e+01
6.163947e+01
6.163641e+01
6.162998e+01
6.161943e+01
6.160452e+01
6.158567e+01
6.156402e+01
6.154128e+01
6.151950e+01
6.150082e+01
6.148710e+01
6.147965e+01
6.147922e+01
6.148532e+01
6.149690e+01
6.151322e+01
6.153281e+01
6.155338e+01
6.157210e+01
6.158685e+01
6.159633e+01
6.160054e+01
6.160033e+01
6.159684e+01
6.159102e+01
6.158378e+01
6.157564e+01
6.156705e+01
6.155842e+01
6.155006e+01
6.154235e+01
6.153553e+01
6.152977e+01
6.152514e+01
6.152162e+01
6.151910e+01
6.151743e+01
6.151638e+01
6.151571e+01
6.151520e+01
6.151456e+01
6.151346e+01
6.151152e+01
6.150828e+01
6.150319e+01
6.149227e+01
6.149255e+01
6.198831e+01
6.198803e+01
6.196107e+01
6.192958e+01
6.188889e+01
6.183323e+01
6.175578e+01
6.165274e+01
6.150959e+01
6.138677e+01
6.129668e+01
6.123255e+01
6.118747e+01
6.115753e+01
6.114044e+01
6.113334e+01
6.113425e+01
6.114168e+01
6.115446e+01
6.117175e+01
6.119295e+01
6.121770e+01
6.124576e+01
6.127695e+01
6.131109e+01
6.134799e+01
6.138738e+01
6.142875e+01
6.147127e+01
6.151378e+01
6.155529e+01
6.159428e+01
6.162265e+01
6.162935e+01
6.160443e+01
6.155039e+01
6.148387e+01
6.142105e+01
6.137440e+01
6.135229e+01
6.135092e+01
6.136438e+01
6.138824e+01
6.141878e+01
6.145290e+01
6.148794e+01
6.152179e+01
6.155266e+01
6.157898e+01
6.159977e+01
6.161487e+01
6.162495e+01
6.163110e+01
6.163433e+01
6.163541e+01
6.163418e+01
6.163016e+01
6.162284e+01
6.161180e+01
6.159683e+01
6.157823e+01
6.155728e+01
6.153561e+01
6.151511e+01
6.149778e+01
6.148536e+01
6.147917e+01
6.148021e+01
6.148748e+01
6.149996e+01
6.151664e+01
6.153572e+01
6.155463e+01
6.157070e+01
6.158319e+01
6.159114e+01
6.159470e+01
6.159476e+01
6.159224e+01
6.158747e+01
6.158110e+01
6.157359e+01
6.156539e+01
6.155703e+01
6.154894e+01
6.154148e+01
6.153492e+01
6.152942e+01
6.152506e+01
6.152181e+01
6.151959e+01
6.151830e+01
6.151762e+01
6.151732e+01
6.151720e+01
6.151696e+01
6.151628e+01
6.151476e+01
6.151194e+01
6.150740e+01
6.149771e+01
6.149799e+01
6.198572e+01
6.198544e+01
6.196342e+01
6.193664e+01
6.189975e+01
6.184499e+01
6.176156e+01
6.164006e+01
6.145396e+01
6.132645e+01
6.124964e+01
6.119828e+01
6.116196e+01
6.113772e+01
6.112501e+01
6.112081e+01
6.112359e+01
6.113217e+01
6.114555e+01
6.116292e+01
6.118379e+01
6.120788e+01
6.123507e+01
6.126527e+01
6.129836e+01
6.133409e+01
6.137214e+01
6.141223e+01
6.145405e+01
6.149685e+01
6.153976e+01
6.158307e+01
6.162068e+01
6.163683e+01
6.161839e+01
6.156164e+01
6.148773e+01
6.141916e+01
6.136881e+01
6.134268e+01
6.133995e+01
6.135173e+01
6.137399e+01
6.140323e+01
6.143645e+01
6.147099e+01
6.150458e+01
6.153550e+01
6.156266e+01
6.158506e+01
6.160225e+01
6.161443e+01
6.162231e+01
6.162677e+01
6.162854e+01
6.162708e+01
6.162246e+01
6.161456e+01
6.160316e+01
6.158826e+01
6.157016e+01
6.155028e+01
6.153007e+01
6.151129e+01
6.149572e+01
6.148500e+01
6.148052e+01
6.148350e+01
6.149193e+01
6.150499e+01
6.152135e+01
6.153890e+01
6.155508e+01
6.156851e+01
6.157890e+01
6.158558e+01
6.158889e+01
6.158959e+01
6.158804e+01
6.158418e+01
6.157851e+01
6.157149e+01
6.156361e+01
6.155552e+01
6.154772e+01
6.154057e+01
6.153433e+01
6.152917e+01
6.152517e+01
6.152232e+01
6.152058e+01
6.151981e+01
6.151963e+01
6.151986e+01
6.152026e+01
6.152053e+01
6.152031e+01
6.151920e+01
6.151677e+01
6.151281e+01
6.150489e+01
6.150517e+01
6.198333e+01
6.198306e+01
6.196784e+01
6.194803e+01
6.191780e+01
6.186646e+01
6.177507e+01
6.161638e+01
6.135620e+01
6.124004e+01
6.118982e+01
6.115689e+01
6.113129e+01
6.111315e+01
6.110513e+01
6.110440e+01
6.110954e+01
6.111969e+01
6.113391e+01
6.115145e+01
6.117189e+01
6.119509e+01
6.122107e+01
6.124990e+01
6.128158e+01
6.131594e+01
6.135260e+01
6.139149e+01
6.143338e+01
6.147832e+01
6.152441e+01
6.156840e+01
6.160810e+01
6.163392e+01
6.162001e+01
6.157141e+01
6.149453e+01
6.142284e+01
6.136879e+01
6.133922e+01
6.133331e+01
6.134404e+01
6.136393e+01
6.139062e+01
6.142168e+01
6.145470e+01
6.148736e+01
6.151768e+01
6.154527e+01
6.156891e+01
6.158778e+01
6.160177e+01
6.161134e+01
6.161722e+01
6.162016e+01
6.161885e+01
6.161370e+01
6.160520e+01
6.159364e+01
6.157919e+01
6.156214e+01
6.154388e+01
6.152570e+01
6.150913e+01
6.149578e+01
6.148722e+01
6.148498e+01
6.148959e+01
6.149883e+01
6.151176e+01
6.152678e+01
6.154181e+01
6.155477e+01
6.156581e+01
6.157427e+01
6.157995e+01
6.158325e+01
6.158469e+01
6.158395e+01
6.158084e+01
6.157578e+01
6.156923e+01
6.156173e+01
6.155401e+01
6.154660e+01
6.153986e+01
6.153405e+01
6.152933e+01
6.152580e+01
6.152348e+01
6.152241e+01
6.152225e+01
6.152268e+01
6.152351e+01
6.152443e+01
6.152512e+01
6.152519e+01
6.152420e+01
6.152202e+01
6.151856e+01
6.151252e+01
6.151280e+01
6.198164e+01
6.198137e+01
6.197469e+01
6.196459e+01
6.194577e+01
6.190525e+01
6.181105e+01
6.158627e+01
6.118548e+01
6.112266e+01
6.112553e+01
6.111667e+01
6.110154e+01
6.108751e+01
6.108180e+01
6.108443e+01
6.109248e+01
6.110474e+01
6.112026e+01
6.113816e+01
6.115812e+01
6.118018e+01
6.120456e+01
6.123156e+01
6.126142e+01
6.129412e+01
6.132936e+01
6.136677e+01
6.140845e+01
6.145652e+01
6.150921e+01
6.155639e+01
6.159045e+01
6.160585e+01
6.158541e+01
6.154531e+01
6.149298e+01
6.143435e+01
6.138447e+01
6.135207e+01
6.134114e+01
6.134795e+01
6.136443e+01
6.138705e+01
6.141431e+01
6.144419e+01
6.147448e+01
6.150302e+01
6.152965e+01
6.155350e+01
6.157338e+01
6.158878e+01
6.159979e+01
6.160679e+01
6.161030e+01
6.160873e+01
6.160291e+01
6.159409e+01
6.158294e+01
6.156973e+01
6.155462e+01
6.153883e+01
6.152339e+01
6.150961e+01
6.149893e+01
6.149287e+01
6.149297e+01
6.149860e+01
6.150784e+01
6.151956e+01
6.153217e+01
6.154388e+01
6.155394e+01
6.156254e+01
6.156926e+01
6.157417e+01
6.157754e+01
6.157958e+01
6.157946e+01
6.157700e+01
6.157255e+01
6.156661e+01
6.155969e+01
6.155256e+01
6.154576e+01
6.153962e+01
6.153439e+01
6.153026e+01
6.152735e+01
6.152576e+01
6.152546e+01
6.152594e+01
6.152697e+01
6.152827e+01
6.152951e+01
6.153030e+01
6.153024e+01
6.152914e+01
6.152704e+01
6.152399e+01
6.151943e+01
6.151971e+01
6.198086e+01
6.198059e+01
6.198358e+01
6.198567e+01
6.198461e+01
6.197080e+01
6.190805e+01
6.165192e+01
6.087770e+01
6.096853e+01
6.107818e+01
6.109283e+01
6.108501e+01
6.107043e+01
6.106017e+01
6.106157e+01
6.107384e+01
6.108904e+01
6.110668e+01
6.112532e+01
6.114475e+01
6.116530e+01
6.118748e+01
6.121189e+01
6.123905e+01
6.126923e+01
6.130216e+01
6.133702e+01
6.137323e+01
6.141073e+01
6.144905e+01
6.150432e+01
6.154087e+01
6.153757e+01
6.151724e+01
6.149408e+01
6.147199e+01
6.144422e+01
6.141089e+01
6.138170e+01
6.136600e+01
6.136638e+01
6.137761e+01
6.139474e+01
6.141672e+01
6.144189e+01
6.146822e+01
6.149358e+01
6.151747e+01
6.153990e+01
6.155947e+01
6.157529e+01
6.158690e+01
6.159420e+01
6.159746e+01
6.159515e+01
6.158895e+01
6.158063e+01
6.157101e+01
6.156021e+01
6.154818e+01
6.153580e+01
6.152382e+01
6.151335e+01
6.150571e+01
6.150228e+01
6.150431e+01
6.150997e+01
6.151809e+01
6.152752e+01
6.153694e+01
6.154512e+01
6.155239e+01
6.155865e+01
6.156383e+01
6.156804e+01
6.157131e+01
6.157365e+01
6.157394e+01
6.157210e+01
6.156844e+01
6.156340e+01
6.155745e+01
6.155129e+01
6.154544e+01
6.154018e+01
6.153578e+01
6.153243e+01
6.153031e+01
6.152960e+01
6.152998e+01
6.153101e+01
6.153242e+01
6.153387e+01
6.153500e+01
6.153545e+01
6.153497e+01
6.153369e+01
6.153160e+01
6.152884e+01
6.152514e+01
6.152542e+01
6.198078e+01
6.198050e+01
6.199284e+01
6.200764e+01
6.202788e+01
6.205622e+01
6.208982e+01
6.219290e+01
6.153558e+01
6.104782e+01
6.112656e+01
6.109885e+01
6.108965e+01
6.107095e+01
6.105491e+01
6.105065e+01
6.106109e+01
6.108001e+01
6.110096e+01
6.112046e+01
6.113902e+01
6.115732e+01
6.117609e+01
6.119598e+01
6.121753e+01
6.124082e+01
6.126536e+01
6.129047e+01
6.131631e+01
6.134321e+01
6.138784e+01
6.142967e+01
6.145131e+01
6.145819e+01
6.145798e+01
6.145583e+01
6.145524e+01
6.145319e+01
6.144119e+01
6.142087e+01
6.140383e+01
6.139714e+01
6.140198e+01
6.141271e+01
6.142836e+01
6.144756e+01
6.146853e+01
6.148934e+01
6.150884e+01
6.152808e+01
6.154559e+01
6.156015e+01
6.157080e+01
6.157711e+01
6.157936e+01
6.157655e+01
6.157116e+01
6.156486e+01
6.155827e+01
6.155125e+01
6.154352e+01
6.153542e+01
6.152749e+01
6.152069e+01
6.151618e+01
6.151512e+01
6.151779e+01
6.152256e+01
6.152857e+01
6.153492e+01
6.154073e+01
6.154564e+01
6.155010e+01
6.155414e+01
6.155782e+01
6.156112e+01
6.156394e+01
6.156614e+01
6.156671e+01
6.156565e+01
6.156315e+01
6.155951e+01
6.155507e+01
6.155041e+01
6.154595e+01
6.154195e+01
6.153866e+01
6.153631e+01
6.153513e+01
6.153524e+01
6.153607e+01
6.153732e+01
6.153868e+01
6.153981e+01
6.154041e+01
6.154024e+01
6.153936e+01
6.153784e+01
6.153575e+01
6.153319e+01
6.152984e+01
6.153012e+01
6.198079e+01
6.198051e+01
6.200002e+01
6.202438e+01
6.206008e+01
6.211751e+01
6.221365e+01
6.234770e+01
6.237291e+01
0.000000e+00
6.108746e+01
6.108719e+01
6.107426e+01
6.107377e+01
6.106149e+01
6.105715e+01
6.106582e+01
6.108502e+01
6.110864e+01
6.112971e+01
6.114784e+01
6.116424e+01
6.117976e+01
6.119494e+01
6.121018e+01
6.122540e+01
6.124033e+01
6.125496e+01
6.126813e+01
6.128679e+01
6.131111e+01
6.133873e+01
6.136545e+01
6.139281e+01
6.141538e+01
6.143328e+01
6.144918e+01
6.146388e+01
6.146986e+01
6.146295e+01
6.144831e+01
6.143729e+01
6.143494e+01
6.143886e+01
6.144753e+01
6.145986e+01
6.147432e+01
6.148923e+01
6.150295e+01
6.151706e+01
6.153031e+01
6.154131e+01
6.154898e+01
6.155303e+01
6.155396e+01
6.155225e+01
6.154974e+01
6.154751e+01
6.154568e+01
6.154382e+01
6.154136e+01
6.153816e+01
6.153459e+01
6.153147e+01
6.152975e+01
6.153010e+01
6.153237e+01
6.153537e+01
6.153856e+01
6.154144e+01
6.154368e+01
6.154545e+01
6.154716e+01
6.154895e+01
6.155088e+01
6.155286e+01
6.155475e+01
6.155639e+01
6.155728e+01
6.155733e+01
6.155654e+01
6.155497e+01
6.155273e+01
6.155020e+01
6.154766e+01
6.154533e+01
6.154346e+01
6.154229e+01
6.154201e+01
6.154256e+01
6.154349e+01
6.154450e+01
6.154534e+01
6.154575e+01
6.154558e+01
6.154478e+01
6.154348e+01
6.154176e+01
6.153966e+01
6.153722e+01
6.153391e+01
6.153419e+01
6.198030e+01
6.198002e+01
6.200324e+01
6.203171e+01
6.207163e+01
6.213076e+01
6.221519e+01
6.231626e+01
6.239757e+01
6.239784e+01
0.000000e+00
6.108899e+01
6.108871e+01
6.108151e+01
6.107900e+01
6.108042e+01
6.109313e+01
6.111401e+01
6.113743e+01
6.115833e+01
6.117640e+01
6.119246e+01
6.120666e+01
6.121896e+01
6.122922e+01
6.123657e+01
6.123999e+01
6.124030e+01
6.123732e+01
6.123383e+01
6.123512e+01
6.125360e+01
6.129665e+01
6.134576e+01
6.138994e+01
6.142548e+01
6.145392e+01
6.147849e+01
6.149659e+01
6.150174e+01
6.149429e+01
6.148170e+01
6.147358e+01
6.147086e+01
6.147241e+01
6.147734e+01
6.148437e+01
6.149202e+01
6.149869e+01
6.150555e+01
6.151197e+01
6.151677e+01
6.151940e+01
6.152023e+01
6.152076e+01
6.152268e+01
6.152615e+01
6.153047e+01
6.153498e+01
6.153911e+01
6.154224e+01
6.154414e+01
6.154489e+01
6.154508e+01
6.154545e+01
6.154622e+01
6.154720e+01
6.154780e+01
6.154774e+01
6.154706e+01
6.154596e+01
6.154466e+01
6.154353e+01
6.154282e+01
6.154257e+01
6.154272e+01
6.154319e+01
6.154402e+01
6.154539e+01
6.154704e+01
6.154867e+01
6.154996e+01
6.155071e+01
6.155097e+01
6.155086e+01
6.155057e+01
6.155034e+01
6.155037e+01
6.155070e+01
6.155130e+01
6.155189e+01
6.155222e+01
6.155216e+01
6.155162e+01
6.155064e+01
6.154927e+01
6.154759e+01
6.154568e+01
6.154354e+01
6.154113e+01
6.153775e+01
6.153803e+01
6.197902e+01
6.197874e+01
6.200217e+01
6.202987e+01
6.206615e+01
6.211541e+01
6.218025e+01
6.224294e+01
6.226813e+01
6.204126e+01
6.204154e+01
0.000000e+00
6.109100e+01
6.109273e+01
6.108748e+01
6.109774e+01
6.112461e+01
6.115827e+01
6.118716e+01
6.120859e+01
6.122586e+01
6.124136e+01
6.125324e+01
6.126023e+01
6.126207e+01
6.125798e+01
6.124852e+01
6.123642e+01
6.121387e+01
6.118535e+01
6.116715e+01
6.119461e+01
6.125384e+01
6.132129e+01
6.138243e+01
6.143071e+01
6.146718e+01
6.149689e+01
6.152156e+01
6.153629e+01
6.153690e+01
6.152698e+01
6.151504e+01
6.150666e+01
6.150157e+01
6.149908e+01
6.149807e+01
6.149723e+01
6.149528e+01
6.149287e+01
6.148957e+01
6.148552e+01
6.148194e+01
6.148025e+01
6.148375e+01
6.149240e+01
6.150395e+01
6.151622e+01
6.152780e+01
6.153781e+01
6.154603e+01
6.155239e+01
6.155689e+01
6.155977e+01
6.156123e+01
6.156135e+01
6.156045e+01
6.155844e+01
6.155542e+01
6.155173e+01
6.154778e+01
6.154367e+01
6.153975e+01
6.153630e+01
6.153349e+01
6.153139e+01
6.153005e+01
6.152992e+01
6.153193e+01
6.153561e+01
6.154023e+01
6.154502e+01
6.154936e+01
6.155285e+01
6.155550e+01
6.155747e+01
6.155893e+01
6.155995e+01
6.156044e+01
6.156061e+01
6.156044e+01
6.155983e+01
6.155879e+01
6.155740e+01
6.155582e+01
6.155400e+01
6.155205e+01
6.155001e+01
6.154788e+01
6.154553e+01
6.154218e+01
6.154246e+01
6.197699e+01
6.197672e+01
6.199760e+01
6.202111e+01
6.204982e+01
6.208449e+01
6.211817e+01
6.212890e+01
6.206967e+01
6.195686e+01
6.155736e+01
6.124287e+01
6.105097e+01
6.107904e+01
6.108448e+01
6.110701e+01
6.114804e+01
6.119366e+01
6.122627e+01
6.124808e+01
6.126516e+01
6.128057e+01
6.129119e+01
6.129440e+01
6.128944e+01
6.127695e+01
6.125867e+01
6.123422e+01
6.119417e+01
6.114528e+01
6.112768e+01
6.116723e+01
6.123958e+01
6.131944e+01
6.139034e+01
6.144422e+01
6.148493e+01
6.151687e+01
6.154373e+01
6.156456e+01
6.157351e+01
6.156929e+01
6.155729e+01
6.154492e+01
6.153424e+01
6.152478e+01
6.151546e+01
6.150515e+01
6.149338e+01
6.148030e+01
6.146666e+01
6.145400e+01
6.144421e+01
6.144025e+01
6.144850e+01
6.146528e+01
6.148590e+01
6.150659e+01
6.152495e+01
6.154005e+01
6.155235e+01
6.156207e+01
6.156920e+01
6.157367e+01
6.157532e+01
6.157454e+01
6.157195e+01
6.156773e+01
6.156223e+01
6.155596e+01
6.154948e+01
6.154278e+01
6.153614e+01
6.152995e+01
6.152450e+01
6.152005e+01
6.151678e+01
6.151570e+01
6.151847e+01
6.152437e+01
6.153223e+01
6.154078e+01
6.154887e+01
6.155558e+01
6.156090e+01
6.156493e+01
6.156779e+01
6.156949e+01
6.156992e+01
6.156959e+01
6.156869e+01
6.156727e+01
6.156542e+01
6.156334e+01
6.156126e+01
6.155912e+01
6.155697e+01
6.155489e+01
6.155284e+01
6.155070e+01
6.154767e+01
6.154795e+01
6.197452e+01
6.197424e+01
6.199075e+01
6.200841e+01
6.202725e+01
6.204464e+01
6.205137e+01
6.202729e+01
6.193604e+01
6.176595e+01
6.149737e+01
6.092782e+01
6.102234e+01
6.108884e+01
6.111321e+01
6.113701e+01
6.117620e+01
6.122012e+01
6.124598e+01
6.126810e+01
6.129212e+01
6.131048e+01
6.132033e+01
6.131946e+01
6.130856e+01
6.128984e+01
6.126531e+01
6.123004e+01
6.117462e+01
6.112042e+01
6.111934e+01
6.117106e+01
6.125145e+01
6.133666e+01
6.140836e+01
6.146335e+01
6.150502e+01
6.153698e+01
6.156275e+01
6.158467e+01
6.159994e+01
6.160355e+01
6.159583e+01
6.158330e+01
6.156865e+01
6.155244e+01
6.153437e+01
6.151457e+01
6.149368e+01
6.147058e+01
6.144707e+01
6.142580e+01
6.140927e+01
6.140533e+01
6.141939e+01
6.144475e+01
6.147428e+01
6.150277e+01
6.152655e+01
6.154554e+01
6.156063e+01
6.157240e+01
6.158099e+01
6.158618e+01
6.158763e+01
6.158611e+01
6.158221e+01
6.157626e+01
6.156874e+01
6.156023e+01
6.155144e+01
6.154232e+01
6.153310e+01
6.152423e+01
6.151620e+01
6.150944e+01
6.150432e+01
6.150245e+01
6.150607e+01
6.151423e+01
6.152534e+01
6.153761e+01
6.154925e+01
6.155891e+01
6.156653e+01
6.157225e+01
6.157618e+01
6.157836e+01
6.157876e+01
6.157806e+01
6.157664e+01
6.157462e+01
6.157218e+01
6.156957e+01
6.156706e+01
6.156469e+01
6.156244e+01
6.156040e+01
6.155858e+01
6.155688e+01
6.155468e+01
6.155496e+01
6.197199e+01
6.197171e+01
6.198307e+01
6.199400e+01
6.200312e+01
6.200662e+01
6.199616e+01
6.195711e+01
6.186747e+01
6.170811e+01
6.149144e+01
6.119250e+01
6.114825e+01
6.115464e+01
6.116360e+01
6.117831e+01
6.120421e+01
6.123441e+01
6.125861e+01
6.128160e+01
6.130324e+01
6.131821e+01
6.132314e+01
6.131898e+01
6.130714e+01
6.128886e+01
6.126498e+01
6.122531e+01
6.116564e+01
6.112822e+01
6.114319e+01
6.120237e+01
6.128340e+01
6.136520e+01
6.143236e+01
6.148486e+01
6.152513e+01
6.155604e+01
6.158001e+01
6.159903e+01
6.161403e+01
6.162190e+01
6.162090e+01
6.161218e+01
6.159686e+01
6.157634e+01
6.155178e+01
6.152473e+01
6.149620e+01
6.146441e+01
6.143220e+01
6.140318e+01
6.138074e+01
6.137943e+01
6.140001e+01
6.143341e+01
6.147062e+01
6.150492e+01
6.153236e+01
6.155373e+01
6.157023e+01
6.158280e+01
6.159179e+01
6.159706e+01
6.159827e+01
6.159630e+01
6.159157e+01
6.158442e+01
6.157536e+01
6.156501e+01
6.155411e+01
6.154277e+01
6.153111e+01
6.151971e+01
6.150923e+01
6.150034e+01
6.149362e+01
6.149123e+01
6.149577e+01
6.150608e+01
6.152015e+01
6.153577e+01
6.155046e+01
6.156257e+01
6.157200e+01
6.157893e+01
6.158360e+01
6.158616e+01
6.158668e+01
6.158583e+01
6.158416e+01
6.158184e+01
6.157906e+01
6.157611e+01
6.157328e+01
6.157076e+01
6.156848e+01
6.156659e+01
6.156517e+01
6.156420e+01
6.156354e+01
6.156382e+01
6.196964e+01
6.196936e+01
6.197541e+01
6.198005e+01
6.198119e+01
6.197508e+01
6.195530e+01
6.191237e+01
6.183410e+01
6.170821e+01
6.153668e+01
6.134054e+01
6.125785e+01
6.122839e+01
6.121887e+01
6.122153e+01
6.123461e+01
6.125350e+01
6.127209e+01
6.128930e+01
6.130366e+01
6.131241e+01
6.131406e+01
6.130888e+01
6.129809e+01
6.128358e+01
6.126269e+01
6.122596e+01
6.118131e+01
6.116486e+01
6.119059e+01
6.125004e+01
6.132498e+01
6.139738e+01
6.145784e+01
6.150592e+01
6.154333e+01
6.157232e+01
6.159494e+01
6.161258e+01
6.162535e+01
6.163310e+01
6.163488e+01
6.162936e+01
6.161587e+01
6.159460e+01
6.156688e+01
6.153519e+01
6.150083e+01
6.146213e+01
6.142291e+01
6.138784e+01
6.136232e+01
6.136563e+01
6.139259e+01
6.143251e+01
6.147521e+01
6.151254e+01
6.154178e+01
6.156397e+01
6.158061e+01
6.159291e+01
6.160148e+01
6.160638e+01
6.160738e+01
6.160525e+01
6.160016e+01
6.159238e+01
6.158234e+01
6.157060e+01
6.155789e+01
6.154455e+01
6.153063e+01
6.151688e+01
6.150415e+01
6.149338e+01
6.148545e+01
6.148286e+01
6.148835e+01
6.150054e+01
6.151708e+01
6.153538e+01
6.155241e+01
6.156635e+01
6.157704e+01
6.158475e+01
6.158987e+01
6.159270e+01
6.159345e+01
6.159272e+01
6.159108e+01
6.158872e+01
6.158588e+01
6.158281e+01
6.157981e+01
6.157721e+01
6.157500e+01
6.157336e+01
6.157250e+01
6.157253e+01
6.157424e+01
6.157451e+01
6.196758e+01
6.196730e+01
6.196859e+01
6.196795e+01
6.196308e+01
6.195070e+01
6.192611e+01
6.188324e+01
6.181523e+01
6.171515e+01
6.158160e+01
6.143264e+01
6.134127e+01
6.129312e+01
6.126897e+01
6.126020e+01
6.126261e+01
6.127186e+01
6.128336e+01
6.129441e+01
6.130313e+01
6.130759e+01
6.130679e+01
6.130083e+01
6.129079e+01
6.127772e+01
6.125878e+01
6.123030e+01
6.120557e+01
6.120609e+01
6.123899e+01
6.129618e+01
6.136328e+01
6.142690e+01
6.148097e+01
6.152460e+01
6.155897e+01
6.158592e+01
6.160706e+01
6.162329e+01
6.163439e+01
6.164089e+01
6.164252e+01
6.163834e+01
6.162678e+01
6.160683e+01
6.157887e+01
6.154520e+01
6.150716e+01
6.146370e+01
6.141960e+01
6.138069e+01
6.135728e+01
6.136532e+01
6.139740e+01
6.144148e+01
6.148679e+01
6.152472e+01
6.155393e+01
6.157558e+01
6.159133e+01
6.160258e+01
6.161019e+01
6.161442e+01
6.161527e+01
6.161311e+01
6.160801e+01
6.160011e+01
6.158966e+01
6.157706e+01
6.156296e+01
6.154788e+01
6.153193e+01
6.151601e+01
6.150122e+01
6.148883e+01
6.148009e+01
6.147764e+01
6.148407e+01
6.149780e+01
6.151621e+01
6.153637e+01
6.155498e+01
6.157011e+01
6.158158e+01
6.158972e+01
6.159505e+01
6.159803e+01
6.159905e+01
6.159858e+01
6.159717e+01
6.159500e+01
6.159231e+01
6.158934e+01
6.158639e+01
6.158379e+01
6.158173e+01
6.158042e+01
6.158022e+01
6.158145e+01
6.158616e+01
6.158644e+01
6.196594e+01
6.196566e+01
6.196305e+01
6.195829e+01
6.194911e+01
6.193270e+01
6.190557e+01
6.186364e+01
6.180273e+01
6.171907e+01
6.161195e+01
6.149356e+01
6.140368e+01
6.134504e+01
6.131012e+01
6.129212e+01
6.128606e+01
6.128764e+01
6.129292e+01
6.129891e+01
6.130349e+01
6.130496e+01
6.130238e+01
6.129570e+01
6.128563e+01
6.127261e+01
6.125550e+01
6.123596e+01
6.122639e+01
6.123917e+01
6.127697e+01
6.133215e+01
6.139320e+01
6.145061e+01
6.149981e+01
6.153986e+01
6.157167e+01
6.159676e+01
6.161648e+01
6.163153e+01
6.164181e+01
6.164759e+01
6.164895e+01
6.164515e+01
6.163473e+01
6.161623e+01
6.158910e+01
6.155479e+01
6.151446e+01
6.146813e+01
6.142143e+01
6.138197e+01
6.136344e+01
6.137610e+01
6.141165e+01
6.145749e+01
6.150271e+01
6.153961e+01
6.156755e+01
6.158775e+01
6.160199e+01
6.161176e+01
6.161813e+01
6.162159e+01
6.162219e+01
6.162004e+01
6.161515e+01
6.160746e+01
6.159704e+01
6.158410e+01
6.156909e+01
6.155260e+01
6.153488e+01
6.151699e+01
6.150031e+01
6.148650e+01
6.147728e+01
6.147528e+01
6.148259e+01
6.149754e+01
6.151723e+01
6.153850e+01
6.155797e+01
6.157378e+01
6.158567e+01
6.159400e+01
6.159936e+01
6.160239e+01
6.160361e+01
6.160347e+01
6.160234e+01
6.160046e+01
6.159804e+01
6.159532e+01
6.159256e+01
6.159008e+01
6.158822e+01
6.158727e+01
6.158775e+01
6.159021e+01
6.159823e+01
6.159851e+01
6.196477e+01
6.196449e+01
6.195894e+01
6.195120e+01
6.193907e+01
6.192015e+01
6.189166e+01
6.185063e+01
6.179426e+01
6.172052e+01
6.162980e+01
6.153075e+01
6.144625e+01
6.138378e+01
6.134198e+01
6.131690e+01
6.130430e+01
6.130011e+01
6.130062e+01
6.130280e+01
6.130438e+01
6.130370e+01
6.129980e+01
6.129243e+01
6.128193e+01
6.126866e+01
6.125347e+01
6.124114e+01
6.124174e+01
6.126298e+01
6.130410e+01
6.135771e+01
6.141462e+01
6.146783e+01
6.151362e+01
6.155111e+01
6.158106e+01
6.160481e+01
6.162352e+01
6.163779e+01
6.164786e+01
6.165383e+01
6.165568e+01
6.165260e+01
6.164323e+01
6.162595e+01
6.159965e+01
6.156473e+01
6.152217e+01
6.147345e+01
6.142527e+01
6.138767e+01
6.137476e+01
6.139161e+01
6.142942e+01
6.147554e+01
6.151927e+01
6.155465e+01
6.158096e+01
6.159933e+01
6.161163e+01
6.161972e+01
6.162489e+01
6.162780e+01
6.162825e+01
6.162617e+01
6.162153e+01
6.161420e+01
6.160407e+01
6.159116e+01
6.157566e+01
6.155811e+01
6.153891e+01
6.151926e+01
6.150084e+01
6.148574e+01
6.147621e+01
6.147482e+01
6.148296e+01
6.149884e+01
6.151938e+01
6.154121e+01
6.156107e+01
6.157722e+01
6.158934e+01
6.159776e+01
6.160311e+01
6.160610e+01
6.160740e+01
6.160751e+01
6.160662e+01
6.160499e+01
6.160284e+01
6.160038e+01
6.159786e+01
6.159557e+01
6.159391e+01
6.159328e+01
6.159435e+01
6.159791e+01
6.160911e+01
6.160939e+01
6.196403e+01
6.196375e+01
6.195626e+01
6.194660e+01
6.193265e+01
6.191227e+01
6.188311e+01
6.184277e+01
6.178918e+01
6.172115e+01
6.163978e+01
6.155186e+01
6.147206e+01
6.140861e+01
6.136314e+01
6.133368e+01
6.131681e+01
6.130878e+01
6.130606e+01
6.130565e+01
6.130525e+01
6.130316e+01
6.129838e+01
6.129045e+01
6.127944e+01
6.126598e+01
6.125256e+01
6.124545e+01
6.125263e+01
6.127855e+01
6.132115e+01
6.137363e+01
6.142810e+01
6.147879e+01
6.152247e+01
6.155834e+01
6.158705e+01
6.160982e+01
6.162780e+01
6.164182e+01
6.165220e+01
6.165891e+01
6.166169e+01
6.165972e+01
6.165160e+01
6.163561e+01
6.161017e+01
6.157462e+01
6.152959e+01
6.147801e+01
6.142820e+01
6.139291e+01
6.138462e+01
6.140473e+01
6.144407e+01
6.149006e+01
6.153252e+01
6.156646e+01
6.159115e+01
6.160789e+01
6.161867e+01
6.162544e+01
6.162961e+01
6.163205e+01
6.163240e+01
6.163059e+01
6.162645e+01
6.161971e+01
6.161008e+01
6.159740e+01
6.158174e+01
6.156344e+01
6.154307e+01
6.152193e+01
6.150195e+01
6.148565e+01
6.147585e+01
6.147503e+01
6.148382e+01
6.150039e+01
6.152150e+01
6.154360e+01
6.156368e+01
6.158010e+01
6.159242e+01
6.160088e+01
6.160616e+01
6.160906e+01
6.161032e+01
6.161056e+01
6.160982e+01
6.160836e+01
6.160642e+01
6.160419e+01
6.160188e+01
6.159977e+01
6.159823e+01
6.159782e+01
6.159928e+01
6.160362e+01
6.161741e+01
6.161769e+01
6.196368e+01
6.196341e+01
6.195495e+01
6.194436e+01
6.192958e+01
6.190858e+01
6.187921e+01
6.183935e+01
6.178720e+01
6.172191e+01
6.164484e+01
6.156198e+01
6.148462e+01
6.142096e+01
6.137384e+01
6.134225e+01
6.132325e+01
6.131327e+01
6.130887e+01
6.130714e+01
6.130572e+01
6.130294e+01
6.129771e+01
6.128950e+01
6.127818e+01
6.126476e+01
6.125262e+01
6.124817e+01
6.125818e+01
6.128579e+01
6.132861e+01
6.138028e+01
6.143353e+01
6.148310e+01
6.152597e+01
6.156128e+01
6.158959e+01
6.161202e+01
6.162971e+01
6.164357e+01
6.165406e+01
6.166130e+01
6.166494e+01
6.166405e+01
6.165717e+01
6.164248e+01
6.161810e+01
6.158248e+01
6.153533e+01
6.148048e+01
6.142842e+01
6.139408e+01
6.138838e+01
6.141061e+01
6.145087e+01
6.149660e+01
6.153833e+01
6.157168e+01
6.159586e+01
6.161208e+01
6.162233e+01
6.162856e+01
6.163226e+01
6.163421e+01
6.163447e+01
6.163291e+01
6.162922e+01
6.162299e+01
6.161385e+01
6.160155e+01
6.158601e+01
6.156737e+01
6.154629e+01
6.152403e+01
6.150272e+01
6.148533e+01
6.147513e+01
6.147451e+01
6.148371e+01
6.150077e+01
6.152227e+01
6.154451e+01
6.156465e+01
6.158117e+01
6.159360e+01
6.160218e+01
6.160757e+01
6.161057e+01
6.161192e+01
6.161213e+01
6.161145e+01
6.161011e+01
6.160832e+01
6.160626e+01
6.160412e+01
6.160216e+01
6.160073e+01
6.160045e+01
6.160212e+01
6.160684e+01
6.162211e+01
6.162239e+01
0.000000e+00
6.196368e+01
6.195523e+01
6.194463e+01
6.192986e+01
6.190885e+01
6.187949e+01
6.183963e+01
6.178748e+01
6.172219e+01
6.164512e+01
6.156226e+01
6.148490e+01
6.142124e+01
6.137412e+01
6.134253e+01
6.132353e+01
6.131355e+01
6.130915e+01
6.130742e+01
6.130600e+01
6.130321e+01
6.129799e+01
6.128978e+01
6.127846e+01
6.126504e+01
6.125289e+01
6.124845e+01
6.125845e+01
6.128606e+01
6.132889e+01
6.138056e+01
6.143381e+01
6.148338e+01
6.152625e+01
6.156156e+01
6.158987e+01
6.161229e+01
6.162999e+01
6.164385e+01
6.165434e+01
6.166158e+01
6.166522e+01
6.166433e+01
6.165745e+01
6.164276e+01
6.161838e+01
6.158276e+01
6.153561e+01
6.148075e+01
6.142870e+01
6.139435e+01
6.138866e+01
6.141088e+01
6.145115e+01
6.149688e+01
6.153861e+01
6.157196e+01
6.159613e+01
6.161236e+01
6.162261e+01