# vtk DataFile Version 3.0
Scalar Field
ASCII
DATASET RECTILINEAR_GRID
DIMENSIONS 102 22 1
X_COORDINATES 102 double
0.000000 0.100000 0.200000 0.300000 0.400000 0.500000 0.600000 0.700000 0.800000 0.900000 1.000000 1.100000 1.200000 1.300000 1.400000 1.500000 1.600000 1.700000 1.800000 1.900000 2.000000 2.100000 2.200000 2.300000 2.400000 2.500000 2.600000 2.700000 2.800000 2.900000 3.000000 3.100000 3.200000 3.300000 3.400000 3.500000 3.600000 3.700000 3.800000 3.900000 4.000000 4.100000 4.200000 4.300000 4.400000 4.500000 4.600000 4.700000 4.800000 4.900000 5.000000 5.100000 5.200000 5.300000 5.400000 5.500000 5.600000 5.700000 5.800000 5.900000 6.000000 6.100000 6.200000 6.300000 6.400000 6.500000 6.600000 6.700000 6.800000 6.900000 7.000000 7.100000 7.200000 7.300000 7.400000 7.500000 7.600000 7.700000 7.800000 7.900000 8.000000 8.100000 8.200000 8.300000 8.400000 8.500000 8.600000 8.700000 8.800000 8.900000 9.000000 9.100000 9.200000 9.300000 9.400000 9.500000 9.600000 9.700000 9.800000 9.900000 10.000000 10.100000 
Y_COORDINATES 22 double
0.000000 0.100000 0.200000 0.300000 0.400000 0.500000 0.600000 0.700000 0.800000 0.900000 1.000000 1.100000 1.200000 1.300000 1.400000 1.500000 1.600000 1.700000 1.800000 1.900000 2.000000 2.100000 
Z_COORDINATES 1 double
0.0
POINT_DATA 2244
SCALARS Pressure double 1
LOOKUP_TABLE default
0.000000e+00
5.948834e+01
5.945752e+01
5.942192e+01
5.937800e+01
5.932207e+01
5.925071e+01
5.916304e+01
5.905954e+01
5.896112e+01
5.888365e+01
5.883137e+01
5.880140e+01
5.878867e+01
5.878853e+01
5.879743e+01
5.881292e+01
5.883322e+01
5.885685e+01
5.888208e+01
5.890648e+01
5.892685e+01
5.893991e+01
5.894408e+01
5.894083e+01
5.893391e+01
5.892743e+01
5.892419e+01
5.892543e+01
5.893134e+01
5.894179e+01
5.895652e+01
5.897504e+01
5.899671e+01
5.902071e+01
5.904608e+01
5.907184e+01
5.909698e+01
5.912050e+01
5.914151e+01
5.915945e+01
5.917409e+01
5.918558e+01
5.919430e+01
5.920076e+01
5.920549e+01
5.920893e+01
5.921147e+01
5.921337e+01
5.921484e+01
5.921601e+01
5.921697e+01
5.921780e+01
5.921851e+01
5.921916e+01
5.921974e+01
5.922027e+01
5.922077e+01
5.922123e+01
5.922166e+01
5.922207e+01
5.922246e+01
5.922284e+01
5.922319e+01
5.922353e+01
5.922386e+01
5.922418e+01
5.922450e+01
5.922480e+01
5.922510e+01
5.922538e+01
5.922566e+01
5.922593e+01
5.922620e+01
5.922645e+01
5.922669e+01
5.922692e+01
5.922714e+01
5.922735e+01
5.922755e+01
5.922774e+01
5.922791e+01
5.922807e+01
5.922822e+01
5.922835e+01
5.922847e+01
5.922857e+01
5.922866e+01
5.922874e+01
5.922880e+01
5.922885e+01
5.922888e+01
5.922890e+01
5.922891e+01
5.922891e+01
5.922889e+01
5.922886e+01
5.922880e+01
5.922872e+01
5.922858e+01
5.922857e+01
0.000000e+00
5.948834e+01
5.948830e+01
5.945748e+01
5.942188e+01
5.937796e+01
5.932202e+01
5.925067e+01
5.916300e+01
5.905950e+01
5.896107e+01
5.888360e+01
5.883133e+01
5.880136e+01
5.878863e+01
5.878849e+01
5.879739e+01
5.881287e+01
5.883317e+01
5.885681e+01
5.888204e+01
5.890643e+01
5.892681e+01
5.893987e+01
5.894404e+01
5.894078e+01
5.893387e+01
5.892739e+01
5.892415e+01
5.892539e+01
5.893130e+01
5.894175e+01
5.895648e+01
5.897500e+01
5.899667e+01
5.902066e+01
5.904604e+01
5.907180e+01
5.909694e+01
5.912045e+01
5.914147e+01
5.915941e+01
5.917405e+01
5.918554e+01
5.919426e+01
5.920072e+01
5.920544e+01
5.920889e+01
5.921142e+01
5.921333e+01
5.921479e+01
5.921597e+01
5.921693e+01
5.921775e+01
5.921847e+01
5.921911e+01
5.921970e+01
5.922023e+01
5.922072e+01
5.922119e+01
5.922162e+01
5.922203e+01
5.922242e+01
5.922280e+01
5.922315e+01
5.922349e+01
5.922382e+01
5.922414e+01
5.922445e+01
5.922476e+01
5.922505e+01
5.922534e+01
5.922562e+01
5.922589e+01
5.922615e+01
5.922641e+01
5.922665e+01
5.922688e+01
5.922710e+01
5.922731e+01
5.922751e+01
5.922770e+01
5.922787e+01
5.922803e+01
5.922817e+01
5.922831e+01
5.922842e+01
5.922853e+01
5.922862e+01
5.922869e+01
5.922876e+01
5.922881e+01
5.922884e+01
5.922886e+01
5.922887e+01
5.922887e+01
5.922885e+01
5.922882e+01
5.922876e+01
5.922868e+01
5.922854e+01
5.922853e+01
5.922857e+01
5.948803e+01
5.948799e+01
5.945865e+01
5.942428e+01
5.938110e+01
5.932493e+01
5.925162e+01
5.915995e+01
5.904672e+01
5.894358e+01
5.886692e+01
5.881777e+01
5.879106e+01
5.878083e+01
5.878234e+01
5.879222e+01
5.880818e+01
5.882863e+01
5.885232e+01
5.887800e+01
5.890373e+01
5.892631e+01
5.894195e+01
5.894812e+01
5.894551e+01
5.893789e+01
5.892992e+01
5.892530e+01
5.892574e+01
5.893111e+01
5.894119e+01
5.895564e+01
5.897393e+01
5.899540e+01
5.901922e+01
5.904444e+01
5.907006e+01
5.909510e+01
5.911862e+01
5.913972e+01
5.915783e+01
5.917268e+01
5.918439e+01
5.919332e+01
5.919996e+01
5.920485e+01
5.920842e+01
5.921107e+01
5.921305e+01
5.921459e+01
5.921581e+01
5.921681e+01
5.921766e+01
5.921839e+01
5.921905e+01
5.921963e+01
5.922017e+01
5.922066e+01
5.922112e+01
5.922156e+01
5.922196e+01
5.922235e+01
5.922272e+01
5.922308e+01
5.922342e+01
5.922375e+01
5.922408e+01
5.922439e+01
5.922470e+01
5.922500e+01
5.922529e+01
5.922557e+01
5.922584e+01
5.922610e+01
5.922636e+01
5.922660e+01
5.922684e+01
5.922706e+01
5.922727e+01
5.922747e+01
5.922766e+01
5.922783e+01
5.922800e+01
5.922814e+01
5.922827e+01
5.922839e+01
5.922850e+01
5.922859e+01
5.922866e+01
5.922873e+01
5.922877e+01
5.922881e+01
5.922883e+01
5.922884e+01
5.922883e+01
5.922882e+01
5.922879e+01
5.922874e+01
5.922868e+01
5.922861e+01
5.922860e+01
5.922864e+01
5.948803e+01
5.948799e+01
5.946171e+01
5.943011e+01
5.938889e+01
5.933272e+01
5.925553e+01
5.915465e+01
5.901797e+01
5.890589e+01
5.883263e+01
5.879090e+01
5.877115e+01
5.876596e+01
5.877066e+01
5.878241e+01
5.879929e+01
5.881996e+01
5.884358e+01
5.886964e+01
5.889761e+01
5.892467e+01
5.894600e+01
5.895654e+01
5.895533e+01
5.894651e+01
5.893573e+01
5.892804e+01
5.892664e+01
5.893087e+01
5.894018e+01
5.895405e+01
5.897184e+01
5.899285e+01
5.901623e+01
5.904103e+01
5.906628e+01
5.909102e+01
5.911440e+01
5.913564e+01
5.915408e+01
5.916940e+01
5.918162e+01
5.919104e+01
5.919813e+01
5.920338e+01
5.920726e+01
5.921015e+01
5.921234e+01
5.921404e+01
5.921538e+01
5.921647e+01
5.921739e+01
5.921817e+01
5.921885e+01
5.921945e+01
5.922000e+01
5.922050e+01
5.922096e+01
5.922139e+01
5.922180e+01
5.922219e+01
5.922257e+01
5.922293e+01
5.922328e+01
5.922362e+01
5.922395e+01
5.922428e+01
5.922459e+01
5.922490e+01
5.922519e+01
5.922548e+01
5.922576e+01
5.922604e+01
5.922630e+01
5.922655e+01
5.922679e+01
5.922702e+01
5.922724e+01
5.922744e+01
5.922763e+01
5.922781e+01
5.922797e+01
5.922812e+01
5.922825e+01
5.922837e+01
5.922848e+01
5.922857e+01
5.922865e+01
5.922871e+01
5.922876e+01
5.922879e+01
5.922881e+01
5.922882e+01
5.922881e+01
5.922880e+01
5.922877e+01
5.922873e+01
5.922869e+01
5.922864e+01
5.922865e+01
5.922869e+01
5.948870e+01
5.948866e+01
5.946717e+01
5.944014e+01
5.940257e+01
5.934706e+01
5.926349e+01
5.914376e+01
5.896167e+01
5.884075e+01
5.877926e+01
5.875171e+01
5.874320e+01
5.874519e+01
5.875421e+01
5.876853e+01
5.878679e+01
5.880794e+01
5.883157e+01
5.885780e+01
5.888738e+01
5.892023e+01
5.895047e+01
5.896922e+01
5.897097e+01
5.896041e+01
5.894545e+01
5.893285e+01
5.892766e+01
5.893014e+01
5.893831e+01
5.895145e+01
5.896864e+01
5.898906e+01
5.901189e+01
5.903622e+01
5.906107e+01
5.908547e+01
5.910860e+01
5.912993e+01
5.914874e+01
5.916462e+01
5.917749e+01
5.918757e+01
5.919527e+01
5.920107e+01
5.920540e+01
5.920866e+01
5.921113e+01
5.921305e+01
5.921456e+01
5.921578e+01
5.921679e+01
5.921764e+01
5.921837e+01
5.921902e+01
5.921959e+01
5.922012e+01
5.922061e+01
5.922106e+01
5.922150e+01
5.922191e+01
5.922230e+01
5.922268e+01
5.922306e+01
5.922341e+01
5.922376e+01
5.922410e+01
5.922443e+01
5.922475e+01
5.922507e+01
5.922537e+01
5.922567e+01
5.922595e+01
5.922623e+01
5.922649e+01
5.922674e+01
5.922698e+01
5.922720e+01
5.922742e+01
5.922761e+01
5.922779e+01
5.922796e+01
5.922811e+01
5.922825e+01
5.922837e+01
5.922848e+01
5.922857e+01
5.922864e+01
5.922870e+01
5.922875e+01
5.922878e+01
5.922880e+01
5.922881e+01
5.922880e+01
5.922878e+01
5.922876e+01
5.922872e+01
5.922869e+01
5.922866e+01
5.922866e+01
5.922870e+01
5.949050e+01
5.949045e+01
5.947557e+01
5.945538e+01
5.942427e+01
5.937183e+01
5.927967e+01
5.912158e+01
5.885901e+01
5.874459e+01
5.870862e+01
5.870219e+01
5.870861e+01
5.871935e+01
5.873360e+01
5.875116e+01
5.877137e+01
5.879347e+01
5.881751e+01
5.884396e+01
5.887408e+01
5.890904e+01
5.894970e+01
5.898277e+01
5.899376e+01
5.898118e+01
5.896014e+01
5.894102e+01
5.892972e+01
5.892914e+01
5.893583e+01
5.894829e+01
5.896498e+01
5.898486e+01
5.900714e+01
5.903099e+01
5.905544e+01
5.907948e+01
5.910226e+01
5.912364e+01
5.914287e+01
5.915937e+01
5.917293e+01
5.918369e+01
5.919201e+01
5.919833e+01
5.920310e+01
5.920670e+01
5.920945e+01
5.921158e+01
5.921326e+01
5.921462e+01
5.921574e+01
5.921669e+01
5.921752e+01
5.921824e+01
5.921890e+01
5.921949e+01
5.922004e+01
5.922056e+01
5.922104e+01
5.922150e+01
5.922194e+01
5.922235e+01
5.922276e+01
5.922314e+01
5.922352e+01
5.922389e+01
5.922424e+01
5.922459e+01
5.922493e+01
5.922525e+01
5.922557e+01
5.922587e+01
5.922616e+01
5.922644e+01
5.922670e+01
5.922695e+01
5.922719e+01
5.922741e+01
5.922761e+01
5.922780e+01
5.922797e+01
5.922813e+01
5.922827e+01
5.922839e+01
5.922849e+01
5.922858e+01
5.922866e+01
5.922872e+01
5.922876e+01
5.922879e+01
5.922881e+01
5.922881e+01
5.922880e+01
5.922878e+01
5.922875e+01
5.922872e+01
5.922868e+01
5.922866e+01
5.922866e+01
5.922870e+01
5.949375e+01
5.949371e+01
5.948719e+01
5.947656e+01
5.945667e+01
5.941465e+01
5.931874e+01
5.909161e+01
5.867900e+01
5.860719e+01
5.862281e+01
5.864682e+01
5.867028e+01
5.869002e+01
5.870978e+01
5.873099e+01
5.875372e+01
5.877723e+01
5.880188e+01
5.882843e+01
5.885868e+01
5.889373e+01
5.893493e+01
5.897768e+01
5.901517e+01
5.900894e+01
5.898044e+01
5.895297e+01
5.893603e+01
5.893068e+01
5.893488e+01
5.894695e+01
5.896330e+01
5.898266e+01
5.900430e+01
5.902751e+01
5.905140e+01
5.907495e+01
5.909704e+01
5.911815e+01
5.913751e+01
5.915440e+01
5.916846e+01
5.917973e+01
5.918852e+01
5.919524e+01
5.920035e+01
5.920423e+01
5.920721e+01
5.920953e+01
5.921139e+01
5.921290e+01
5.921418e+01
5.921528e+01
5.921625e+01
5.921712e+01
5.921791e+01
5.921863e+01
5.921929e+01
5.921991e+01
5.922047e+01
5.922100e+01
5.922149e+01
5.922196e+01
5.922241e+01
5.922284e+01
5.922326e+01
5.922366e+01
5.922406e+01
5.922443e+01
5.922480e+01
5.922515e+01
5.922549e+01
5.922582e+01
5.922613e+01
5.922642e+01
5.922670e+01
5.922696e+01
5.922721e+01
5.922743e+01
5.922764e+01
5.922784e+01
5.922801e+01
5.922817e+01
5.922831e+01
5.922843e+01
5.922853e+01
5.922862e+01
5.922869e+01
5.922875e+01
5.922879e+01
5.922881e+01
5.922882e+01
5.922882e+01
5.922881e+01
5.922878e+01
5.922875e+01
5.922871e+01
5.922868e+01
5.922864e+01
5.922863e+01
5.922867e+01
5.949854e+01
5.949849e+01
5.950147e+01
5.950298e+01
5.950078e+01
5.948522e+01
5.942005e+01
5.915915e+01
5.835949e+01
5.842335e+01
5.854083e+01
5.859803e+01
5.863278e+01
5.865940e+01
5.868372e+01
5.870834e+01
5.873387e+01
5.875921e+01
5.878354e+01
5.880777e+01
5.883449e+01
5.886228e+01
5.890220e+01
5.895016e+01
5.899828e+01
5.901339e+01
5.899790e+01
5.896722e+01
5.894925e+01
5.894154e+01
5.894368e+01
5.895325e+01
5.896893e+01
5.898710e+01
5.900730e+01
5.902907e+01
5.905164e+01
5.907398e+01
5.909494e+01
5.911485e+01
5.913360e+01
5.915026e+01
5.916433e+01
5.917574e+01
5.918473e+01
5.919167e+01
5.919700e+01
5.920109e+01
5.920426e+01
5.920677e+01
5.920882e+01
5.921054e+01
5.921203e+01
5.921336e+01
5.921455e+01
5.921566e+01
5.921668e+01
5.921758e+01
5.921839e+01
5.921913e+01
5.921980e+01
5.922043e+01
5.922102e+01
5.922157e+01
5.922208e+01
5.922258e+01
5.922305e+01
5.922350e+01
5.922394e+01
5.922435e+01
5.922475e+01
5.922513e+01
5.922549e+01
5.922584e+01
5.922616e+01
5.922647e+01
5.922676e+01
5.922703e+01
5.922728e+01
5.922751e+01
5.922772e+01
5.922792e+01
5.922809e+01
5.922825e+01
5.922838e+01
5.922850e+01
5.922860e+01
5.922869e+01
5.922875e+01
5.922880e+01
5.922884e+01
5.922885e+01
5.922886e+01
5.922885e+01
5.922883e+01
5.922879e+01
5.922875e+01
5.922871e+01
5.922866e+01
5.922862e+01
5.922859e+01
5.922863e+01
5.950445e+01
5.950441e+01
5.951666e+01
5.953091e+01
5.955017e+01
5.957704e+01
5.960881e+01
5.971283e+01
5.903620e+01
5.848550e+01
5.854757e+01
5.857842e+01
5.861023e+01
5.863759e+01
5.866204e+01
5.868609e+01
5.871120e+01
5.873521e+01
5.875573e+01
5.877161e+01
5.878753e+01
5.880581e+01
5.883888e+01
5.887720e+01
5.891185e+01
5.893839e+01
5.895999e+01
5.896679e+01
5.896706e+01
5.896546e+01
5.896619e+01
5.897248e+01
5.898453e+01
5.900071e+01
5.901835e+01
5.903748e+01
5.905755e+01
5.907759e+01
5.909653e+01
5.911414e+01
5.913124e+01
5.914678e+01
5.916015e+01
5.917121e+01
5.918009e+01
5.918710e+01
5.919259e+01
5.919690e+01
5.920031e+01
5.920308e+01
5.920540e+01
5.920740e+01
5.920921e+01
5.921087e+01
5.921236e+01
5.921372e+01
5.921497e+01
5.921612e+01
5.921719e+01
5.921816e+01
5.921905e+01
5.921986e+01
5.922060e+01
5.922127e+01
5.922189e+01
5.922246e+01
5.922300e+01
5.922350e+01
5.922397e+01
5.922442e+01
5.922484e+01
5.922524e+01
5.922562e+01
5.922597e+01
5.922630e+01
5.922661e+01
5.922690e+01
5.922717e+01
5.922742e+01
5.922765e+01
5.922786e+01
5.922805e+01
5.922822e+01
5.922837e+01
5.922850e+01
5.922861e+01
5.922870e+01
5.922878e+01
5.922884e+01
5.922888e+01
5.922890e+01
5.922891e+01
5.922891e+01
5.922889e+01
5.922886e+01
5.922881e+01
5.922876e+01
5.922871e+01
5.922865e+01
5.922859e+01
5.922854e+01
5.922858e+01
5.951073e+01
5.951069e+01
5.953010e+01
5.955409e+01
5.958923e+01
5.964600e+01
5.974218e+01
5.987490e+01
5.990965e+01
0.000000e+00
5.859123e+01
5.859119e+01
5.861859e+01
5.864231e+01
5.866099e+01
5.867975e+01
5.869911e+01
5.871718e+01
5.873058e+01
5.873702e+01
5.873823e+01
5.873760e+01
5.873976e+01
5.875000e+01
5.878247e+01
5.883761e+01
5.890135e+01
5.895636e+01
5.899062e+01
5.900333e+01
5.900498e+01
5.900632e+01
5.901215e+01
5.902354e+01
5.903734e+01
5.905257e+01
5.906887e+01
5.908540e+01
5.910115e+01
5.911550e+01
5.912988e+01
5.914331e+01
5.915524e+01
5.916545e+01
5.917395e+01
5.918092e+01
5.918658e+01
5.919120e+01
5.919492e+01
5.919800e+01
5.920067e+01
5.920296e+01
5.920510e+01
5.920714e+01
5.920908e+01
5.921095e+01
5.921271e+01
5.921435e+01
5.921584e+01
5.921719e+01
5.921839e+01
5.921946e+01
5.922040e+01
5.922123e+01
5.922197e+01
5.922262e+01
5.922322e+01
5.922376e+01
5.922426e+01
5.922471e+01
5.922514e+01
5.922554e+01
5.922591e+01
5.922625e+01
5.922658e+01
5.922688e+01
5.922716e+01
5.922741e+01
5.922765e+01
5.922787e+01
5.922806e+01
5.922824e+01
5.922840e+01
5.922854e+01
5.922865e+01
5.922875e+01
5.922884e+01
5.922890e+01
5.922895e+01
5.922898e+01
5.922899e+01
5.922899e+01
5.922897e+01
5.922894e+01
5.922889e+01
5.922884e+01
5.922878e+01
5.922870e+01
5.922863e+01
5.922855e+01
5.922847e+01
5.922851e+01
5.951660e+01
5.951656e+01
5.953973e+01
5.956808e+01
5.960793e+01
5.966708e+01
5.975232e+01
5.985499e+01
5.994431e+01
5.994435e+01
0.000000e+00
5.866286e+01
5.866282e+01
5.867979e+01
5.869347e+01
5.870618e+01
5.871683e+01
5.872246e+01
5.872126e+01
5.871327e+01
5.869771e+01
5.867677e+01
5.865545e+01
5.865605e+01
5.870220e+01
5.878326e+01
5.887711e+01
5.896255e+01
5.902233e+01
5.905189e+01
5.905924e+01
5.905528e+01
5.905284e+01
5.905635e+01
5.906406e+01
5.907389e+01
5.908508e+01
5.909673e+01
5.910799e+01
5.911822e+01
5.912881e+01
5.913910e+01
5.914873e+01
5.915753e+01
5.916535e+01
5.917215e+01
5.917801e+01
5.918319e+01
5.918747e+01
5.919133e+01
5.919470e+01
5.919779e+01
5.920072e+01
5.920349e+01
5.920611e+01
5.920857e+01
5.921086e+01
5.921295e+01
5.921485e+01
5.921654e+01
5.921803e+01
5.921933e+01
5.922046e+01
5.922144e+01
5.922229e+01
5.922302e+01
5.922367e+01
5.922424e+01
5.922475e+01
5.922521e+01
5.922563e+01
5.922601e+01
5.922636e+01
5.922668e+01
5.922698e+01
5.922726e+01
5.922751e+01
5.922775e+01
5.922796e+01
5.922816e+01
5.922833e+01
5.922849e+01
5.922863e+01
5.922875e+01
5.922885e+01
5.922893e+01
5.922900e+01
5.922905e+01
5.922908e+01
5.922909e+01
5.922909e+01
5.922908e+01
5.922905e+01
5.922900e+01
5.922894e+01
5.922887e+01
5.922879e+01
5.922870e+01
5.922861e+01
5.922851e+01
5.922839e+01
5.922844e+01
5.952161e+01
5.952157e+01
5.954502e+01
5.957285e+01
5.960949e+01
5.966000e+01
5.972646e+01
5.979029e+01
5.982186e+01
5.959300e+01
5.959304e+01
0.000000e+00
5.869210e+01
5.872131e+01
5.872705e+01
5.873370e+01
5.873517e+01
5.873008e+01
5.871943e+01
5.870282e+01
5.867576e+01
5.863993e+01
5.860166e+01
5.860375e+01
5.866584e+01
5.876788e+01
5.888142e+01
5.898075e+01
5.905359e+01
5.909714e+01
5.911343e+01
5.911171e+01
5.910309e+01
5.909780e+01
5.909762e+01
5.910080e+01
5.910557e+01
5.911096e+01
5.911640e+01
5.912156e+01
5.912722e+01
5.913321e+01
5.913956e+01
5.914633e+01
5.915344e+01
5.916105e+01
5.916792e+01
5.917430e+01
5.917990e+01
5.918495e+01
5.918954e+01
5.919370e+01
5.919750e+01
5.920099e+01
5.920418e+01
5.920712e+01
5.920980e+01
5.921220e+01
5.921435e+01
5.921626e+01
5.921793e+01
5.921939e+01
5.922066e+01
5.922176e+01
5.922270e+01
5.922352e+01
5.922421e+01
5.922482e+01
5.922534e+01
5.922580e+01
5.922621e+01
5.922657e+01
5.922690e+01
5.922720e+01
5.922747e+01
5.922771e+01
5.922794e+01
5.922814e+01
5.922833e+01
5.922850e+01
5.922864e+01
5.922878e+01
5.922889e+01
5.922899e+01
5.922907e+01
5.922913e+01
5.922918e+01
5.922921e+01
5.922923e+01
5.922923e+01
5.922921e+01
5.922918e+01
5.922913e+01
5.922907e+01
5.922900e+01
5.922891e+01
5.922881e+01
5.922870e+01
5.922859e+01
5.922847e+01
5.922831e+01
5.922835e+01
5.952566e+01
5.952562e+01
5.954655e+01
5.957041e+01
5.960005e+01
5.963591e+01
5.967125e+01
5.968456e+01
5.963025e+01
5.952077e+01
5.913184e+01
5.884133e+01
5.870641e+01
5.874415e+01
5.875146e+01
5.875405e+01
5.874975e+01
5.873962e+01
5.872347e+01
5.870091e+01
5.866467e+01
5.861561e+01
5.857356e+01
5.859001e+01
5.866731e+01
5.878282e+01
5.890666e+01
5.900306e+01
5.907451e+01
5.912563e+01
5.915241e+01
5.915572e+01
5.914716e+01
5.913892e+01
5.913351e+01
5.913058e+01
5.912820e+01
5.912628e+01
5.912504e+01
5.912453e+01
5.912467e+01
5.912589e+01
5.912878e+01
5.913386e+01
5.914031e+01
5.914868e+01
5.915738e+01
5.916587e+01
5.917354e+01
5.918024e+01
5.918607e+01
5.919123e+01
5.919579e+01
5.919983e+01
5.920343e+01
5.920665e+01
5.920952e+01
5.921208e+01
5.921434e+01
5.921633e+01
5.921809e+01
5.921962e+01
5.922096e+01
5.922212e+01
5.922312e+01
5.922398e+01
5.922472e+01
5.922535e+01
5.922590e+01
5.922637e+01
5.922678e+01
5.922713e+01
5.922744e+01
5.922772e+01
5.922797e+01
5.922819e+01
5.922838e+01
5.922856e+01
5.922872e+01
5.922886e+01
5.922898e+01
5.922909e+01
5.922918e+01
5.922925e+01
5.922931e+01
5.922935e+01
5.922938e+01
5.922939e+01
5.922939e+01
5.922937e+01
5.922934e+01
5.922929e+01
5.922922e+01
5.922915e+01
5.922905e+01
5.922895e+01
5.922883e+01
5.922870e+01
5.922856e+01
5.922841e+01
5.922822e+01
5.922826e+01
5.952890e+01
5.952885e+01
5.954553e+01
5.956368e+01
5.958345e+01
5.960227e+01
5.961100e+01
5.958980e+01
5.950240e+01
5.934038e+01
5.908412e+01
5.855073e+01
5.866858e+01
5.873727e+01
5.875976e+01
5.876257e+01
5.875826e+01
5.874797e+01
5.873030e+01
5.870355e+01
5.865979e+01
5.860572e+01
5.857920e+01
5.861207e+01
5.869921e+01
5.881815e+01
5.893446e+01
5.902507e+01
5.909061e+01
5.913591e+01
5.916462e+01
5.917326e+01
5.916774e+01
5.916298e+01
5.915896e+01
5.915343e+01
5.914552e+01
5.913767e+01
5.913120e+01
5.912595e+01
5.912116e+01
5.911765e+01
5.911663e+01
5.911935e+01
5.912671e+01
5.913758e+01
5.914930e+01
5.916026e+01
5.916983e+01
5.917787e+01
5.918460e+01
5.919036e+01
5.919534e+01
5.919968e+01
5.920349e+01
5.920685e+01
5.920981e+01
5.921242e+01
5.921472e+01
5.921673e+01
5.921849e+01
5.922003e+01
5.922137e+01
5.922254e+01
5.922354e+01
5.922442e+01
5.922517e+01
5.922581e+01
5.922637e+01
5.922685e+01
5.922726e+01
5.922762e+01
5.922792e+01
5.922819e+01
5.922842e+01
5.922863e+01
5.922881e+01
5.922896e+01
5.922909e+01
5.922921e+01
5.922931e+01
5.922939e+01
5.922946e+01
5.922951e+01
5.922955e+01
5.922957e+01
5.922958e+01
5.922957e+01
5.922955e+01
5.922952e+01
5.922946e+01
5.922940e+01
5.922932e+01
5.922922e+01
5.922911e+01
5.922899e+01
5.922885e+01
5.922870e+01
5.922853e+01
5.922836e+01
5.922813e+01
5.922817e+01
5.953166e+01
5.953162e+01
5.954305e+01
5.955451e+01
5.956469e+01
5.956984e+01
5.956164e+01
5.952554e+01
5.943949e+01
5.928574e+01
5.907920e+01
5.879924e+01
5.876910e+01
5.877783e+01
5.878121e+01
5.877775e+01
5.877019e+01
5.875792e+01
5.873943e+01
5.871224e+01
5.866874e+01
5.862794e+01
5.862161e+01
5.866502e+01
5.875088e+01
5.885983e+01
5.895884e+01
5.903826e+01
5.909703e+01
5.913595e+01
5.915568e+01
5.916045e+01
5.916228e+01
5.916665e+01
5.916650e+01
5.916067e+01
5.915176e+01
5.914229e+01
5.913375e+01
5.912537e+01
5.911661e+01
5.910826e+01
5.910387e+01
5.910738e+01
5.911781e+01
5.913157e+01
5.914567e+01
5.915834e+01
5.916881e+01
5.917746e+01
5.918464e+01
5.919069e+01
5.919585e+01
5.920028e+01
5.920413e+01
5.920749e+01
5.921042e+01
5.921300e+01
5.921525e+01
5.921723e+01
5.921896e+01
5.922047e+01
5.922179e+01
5.922294e+01
5.922394e+01
5.922480e+01
5.922555e+01
5.922620e+01
5.922676e+01
5.922724e+01
5.922766e+01
5.922801e+01
5.922832e+01
5.922859e+01
5.922881e+01
5.922901e+01
5.922917e+01
5.922931e+01
5.922943e+01
5.922953e+01
5.922961e+01
5.922968e+01
5.922973e+01
5.922976e+01
5.922978e+01
5.922978e+01
5.922977e+01
5.922975e+01
5.922971e+01
5.922966e+01
5.922959e+01
5.922951e+01
5.922941e+01
5.922930e+01
5.922917e+01
5.922902e+01
5.922887e+01
5.922869e+01
5.922850e+01
5.922830e+01
5.922803e+01
5.922807e+01
5.953391e+01
5.953387e+01
5.953997e+01
5.954518e+01
5.954750e+01
5.954318e+01
5.952581e+01
5.948585e+01
5.941095e+01
5.928889e+01
5.912359e+01
5.893725e+01
5.886144e+01
5.883174e+01
5.881439e+01
5.879956e+01
5.878480e+01
5.876846e+01
5.874903e+01
5.872386e+01
5.869153e+01
5.867028e+01
5.867941e+01
5.872681e+01
5.880505e+01
5.889640e+01
5.897916e+01
5.904665e+01
5.909675e+01
5.912974e+01
5.914810e+01
5.915660e+01
5.916152e+01
5.916410e+01
5.916243e+01
5.915697e+01
5.914942e+01
5.914157e+01
5.913333e+01
5.912358e+01
5.911252e+01
5.910125e+01
5.909776e+01
5.910368e+01
5.911611e+01
5.913142e+01
5.914636e+01
5.915919e+01
5.916984e+01
5.917860e+01
5.918583e+01
5.919186e+01
5.919695e+01
5.920130e+01
5.920505e+01
5.920831e+01
5.921114e+01
5.921362e+01
5.921579e+01
5.921769e+01
5.921936e+01
5.922082e+01
5.922211e+01
5.922323e+01
5.922422e+01
5.922508e+01
5.922583e+01
5.922648e+01
5.922705e+01
5.922754e+01
5.922796e+01
5.922833e+01
5.922864e+01
5.922890e+01
5.922913e+01
5.922932e+01
5.922948e+01
5.922961e+01
5.922972e+01
5.922981e+01
5.922987e+01
5.922992e+01
5.922996e+01
5.922998e+01
5.922998e+01
5.922997e+01
5.922994e+01
5.922990e+01
5.922985e+01
5.922978e+01
5.922970e+01
5.922960e+01
5.922949e+01
5.922936e+01
5.922922e+01
5.922906e+01
5.922888e+01
5.922868e+01
5.922847e+01
5.922824e+01
5.922794e+01
5.922798e+01
5.953577e+01
5.953573e+01
5.953707e+01
5.953702e+01
5.953340e+01
5.952290e+01
5.950079e+01
5.946091e+01
5.939618e+01
5.929931e+01
5.916943e+01
5.902499e+01
5.893586e+01
5.888425e+01
5.885011e+01
5.882398e+01
5.880166e+01
5.878088e+01
5.876018e+01
5.873808e+01
5.871745e+01
5.871119e+01
5.873084e+01
5.877914e+01
5.884854e+01
5.892489e+01
5.899476e+01
5.905242e+01
5.909585e+01
5.912552e+01
5.914383e+01
5.915415e+01
5.915976e+01
5.916144e+01
5.915912e+01
5.915367e+01
5.914659e+01
5.913908e+01
5.913031e+01
5.911988e+01
5.910804e+01
5.909860e+01
5.909797e+01
5.910591e+01
5.911939e+01
5.913494e+01
5.914937e+01
5.916180e+01
5.917214e+01
5.918062e+01
5.918759e+01
5.919336e+01
5.919822e+01
5.920236e+01
5.920593e+01
5.920902e+01
5.921173e+01
5.921411e+01
5.921619e+01
5.921803e+01
5.921965e+01
5.922107e+01
5.922233e+01
5.922343e+01
5.922441e+01
5.922526e+01
5.922601e+01
5.922667e+01
5.922724e+01
5.922774e+01
5.922817e+01
5.922854e+01
5.922886e+01
5.922913e+01
5.922936e+01
5.922955e+01
5.922971e+01
5.922984e+01
5.922994e+01
5.923003e+01
5.923009e+01
5.923013e+01
5.923015e+01
5.923016e+01
5.923015e+01
5.923013e+01
5.923009e+01
5.923004e+01
5.922997e+01
5.922989e+01
5.922980e+01
5.922969e+01
5.922956e+01
5.922942e+01
5.922926e+01
5.922908e+01
5.922889e+01
5.922867e+01
5.922843e+01
5.922818e+01
5.922784e+01
5.922788e+01
5.953733e+01
5.953729e+01
5.953471e+01
5.953056e+01
5.952266e+01
5.950819e+01
5.948358e+01
5.944461e+01
5.938688e+01
5.930617e+01
5.920146e+01
5.908423e+01
5.899301e+01
5.892871e+01
5.888248e+01
5.884691e+01
5.881779e+01
5.879278e+01
5.877066e+01
5.875147e+01
5.873955e+01
5.874340e+01
5.876954e+01
5.881748e+01
5.887982e+01
5.894580e+01
5.900629e+01
5.905668e+01
5.909538e+01
5.912291e+01
5.914117e+01
5.915240e+01
5.915850e+01
5.916018e+01
5.915789e+01
5.915245e+01
5.914506e+01
5.913655e+01
5.912650e+01
5.911517e+01
5.910413e+01
5.909823e+01
5.910071e+01
5.911045e+01
5.912438e+01
5.913928e+01
5.915301e+01
5.916482e+01
5.917464e+01
5.918271e+01
5.918932e+01
5.919480e+01
5.919940e+01
5.920331e+01
5.920668e+01
5.920961e+01
5.921218e+01
5.921444e+01
5.921644e+01
5.921821e+01
5.921978e+01
5.922117e+01
5.922241e+01
5.922351e+01
5.922448e+01
5.922534e+01
5.922610e+01
5.922676e+01
5.922734e+01
5.922785e+01
5.922829e+01
5.922868e+01
5.922900e+01
5.922928e+01
5.922952e+01
5.922971e+01
5.922987e+01
5.923000e+01
5.923011e+01
5.923019e+01
5.923024e+01
5.923028e+01
5.923030e+01
5.923030e+01
5.923028e+01
5.923025e+01
5.923020e+01
5.923014e+01
5.923007e+01
5.922998e+01
5.922987e+01
5.922975e+01
5.922962e+01
5.922946e+01
5.922929e+01
5.922910e+01
5.922889e+01
5.922865e+01
5.922839e+01
5.922811e+01
5.922775e+01
5.922779e+01
5.953859e+01
5.953854e+01
5.953302e+01
5.952590e+01
5.951508e+01
5.949811e+01
5.947214e+01
5.943404e+01
5.938075e+01
5.930974e+01
5.922073e+01
5.912122e+01
5.903325e+01
5.896315e+01
5.890874e+01
5.886587e+01
5.883124e+01
5.880269e+01
5.877939e+01
5.876254e+01
5.875656e+01
5.876720e+01
5.879718e+01
5.884406e+01
5.890111e+01
5.896015e+01
5.901434e+01
5.905977e+01
5.909525e+01
5.912133e+01
5.913944e+01
5.915119e+01
5.915772e+01
5.915971e+01
5.915766e+01
5.915223e+01
5.914422e+01
5.913423e+01
5.912256e+01
5.911060e+01
5.910136e+01
5.909877e+01
5.910387e+01
5.911489e+01
5.912885e+01
5.914313e+01
5.915617e+01
5.916737e+01
5.917672e+01
5.918441e+01
5.919073e+01
5.919596e+01
5.920034e+01
5.920406e+01
5.920726e+01
5.921004e+01
5.921248e+01
5.921464e+01
5.921656e+01
5.921827e+01
5.921980e+01
5.922117e+01
5.922239e+01
5.922349e+01
5.922446e+01
5.922533e+01
5.922609e+01
5.922677e+01
5.922737e+01
5.922789e+01
5.922834e+01
5.922874e+01
5.922907e+01
5.922936e+01
5.922960e+01
5.922981e+01
5.922997e+01
5.923011e+01
5.923021e+01
5.923029e+01
5.923035e+01
5.923038e+01
5.923039e+01
5.923039e+01
5.923037e+01
5.923033e+01
5.923028e+01
5.923022e+01
5.923014e+01
5.923004e+01
5.922993e+01
5.922980e+01
5.922966e+01
5.922949e+01
5.922931e+01
5.922911e+01
5.922888e+01
5.922863e+01
5.922834e+01
5.922804e+01
5.922765e+01
5.922769e+01
5.953948e+01
5.953944e+01
5.953197e+01
5.952293e+01
5.951031e+01
5.949189e+01
5.946524e+01
5.942781e+01
5.937721e+01
5.931174e+01
5.923168e+01
5.914258e+01
5.905819e+01
5.898593e+01
5.892696e+01
5.887943e+01
5.884098e+01
5.880991e+01
5.878591e+01
5.877088e+01
5.876859e+01
5.878285e+01
5.881452e+01
5.886038e+01
5.891414e+01
5.896894e+01
5.901917e+01
5.906158e+01
5.909517e+01
5.912038e+01
5.913836e+01
5.915042e+01
5.915729e+01
5.915960e+01
5.915781e+01
5.915236e+01
5.914366e+01
5.913226e+01
5.911924e+01
5.910718e+01
5.909982e+01
5.909968e+01
5.910664e+01
5.911838e+01
5.913214e+01
5.914590e+01
5.915841e+01
5.916917e+01
5.917817e+01
5.918559e+01
5.919171e+01
5.919677e+01
5.920100e+01
5.920458e+01
5.920766e+01
5.921033e+01
5.921267e+01
5.921475e+01
5.921660e+01
5.921827e+01
5.921976e+01
5.922111e+01
5.922232e+01
5.922341e+01
5.922439e+01
5.922526e+01
5.922604e+01
5.922673e+01
5.922734e+01
5.922787e+01
5.922833e+01
5.922874e+01
5.922909e+01
5.922938e+01
5.922963e+01
5.922984e+01
5.923001e+01
5.923015e+01
5.923026e+01
5.923034e+01
5.923040e+01
5.923043e+01
5.923044e+01
5.923044e+01
5.923042e+01
5.923038e+01
5.923033e+01
5.923026e+01
5.923017e+01
5.923007e+01
5.922996e+01
5.922982e+01
5.922968e+01
5.922951e+01
5.922932e+01
5.922911e+01
5.922887e+01
5.922860e+01
5.922829e+01
5.922795e+01
5.922756e+01
5.922760e+01
5.953996e+01
5.953992e+01
5.953148e+01
5.952151e+01
5.950806e+01
5.948904e+01
5.946219e+01
5.942524e+01
5.937606e+01
5.931327e+01
5.923736e+01
5.915305e+01
5.907066e+01
5.899765e+01
5.893656e+01
5.888668e+01
5.884623e+01
5.881384e+01
5.878955e+01
5.877540e+01
5.877474e+01
5.879041e+01
5.882251e+01
5.886762e+01
5.891971e+01
5.897251e+01
5.902094e+01
5.906201e+01
5.909478e+01
5.911963e+01
5.913759e+01
5.914972e+01
5.915680e+01
5.915939e+01
5.915786e+01
5.915248e+01
5.914338e+01
5.913117e+01
5.911760e+01
5.910593e+01
5.909974e+01
5.910077e+01
5.910838e+01
5.912024e+01
5.913375e+01
5.914720e+01
5.915942e+01
5.916997e+01
5.917880e+01
5.918611e+01
5.919213e+01
5.919713e+01
5.920130e+01
5.920482e+01
5.920784e+01
5.921047e+01
5.921277e+01
5.921481e+01
5.921664e+01
5.921827e+01
5.921975e+01
5.922108e+01
5.922229e+01
5.922337e+01
5.922434e+01
5.922522e+01
5.922599e+01
5.922669e+01
5.922730e+01
5.922784e+01
5.922831e+01
5.922872e+01
5.922907e+01
5.922937e+01
5.922963e+01
5.922984e+01
5.923002e+01
5.923016e+01
5.923027e+01
5.923035e+01
5.923041e+01
5.923044e+01
5.923046e+01
5.923046e+01
5.923043e+01
5.923039e+01
5.923034e+01
5.923027e+01
5.923018e+01
5.923008e+01
5.922997e+01
5.922983e+01
5.922968e+01
5.922951e+01
5.922932e+01
5.922910e+01
5.922886e+01
5.922858e+01
5.922824e+01
5.922784e+01
5.922745e+01
5.922749e+01
0.000000e+00
5.953996e+01
5.953153e+01
5.952155e+01
5.950810e+01
5.948908e+01
5.946224e+01
5.942528e+01
5.937610e+01
5.931331e+01
5.923740e+01
5.915309e+01
5.907070e+01
5.899769e+01
5.893660e+01
5.888672e+01
5.884628e+01
5.881388e+01
5.878959e+01
5.877544e+01
5.877478e+01
5.879045e+01
5.882256e+01
5.886767e+01
5.891975e+01
5.897255e+01
5.902098e+01
5.906205e+01
5.909482e+01
5.911968e+01
5.913763e+01
5.914976e+01
5.915684e+01
5.915943e+01
5.915790e+01
5.915252e+01
5.914342e+01
5.913121e+01
5.911764e+01
5.910598e+01
5.909978e+01
5.910081e+01
5.910842e+01
5.912028e+01
5.913379e+01
5.914724e+01
5.915947e+01
5.917001e+01
5.917884e+01
5.918615e+01
5.919218e+01
5.919717e+01
5.920134e+01
5.920486e+01
5.920789e+01
5.921051e+01
5.921281e+01
5.921485e+01
5.921668e+01
5.921832e+01
5.921979e+01