# vtk DataFile Version 3.0
Scalar Field
ASCII
DATASET RECTILINEAR_GRID
DIMENSIONS 102 22 1
X_COORDINATES 102 double
0.000000 0.100000 0.200000 0.300000 0.400000 0.500000 0.600000 0.700000 0.800000 0.900000 1.000000 1.100000 1.200000 1.300000 1.400000 1.500000 1.600000 1.700000 1.800000 1.900000 2.000000 2.100000 2.200000 2.300000 2.400000 2.500000 2.600000 2.700000 2.800000 2.900000 3.000000 3.100000 3.200000 3.300000 3.400000 3.500000 3.600000 3.700000 3.800000 3.900000 4.000000 4.100000 4.200000 4.300000 4.400000 4.500000 4.600000 4.700000 4.800000 4.900000 5.000000 5.100000 5.200000 5.300000 5.400000 5.500000 5.600000 5.700000 5.800000 5.900000 6.000000 6.100000 6.200000 6.300000 6.400000 6.500000 6.600000 6.700000 6.800000 6.900000 7.000000 7.100000 7.200000 7.300000 7.400000 7.500000 7.600000 7.700000 7.800000 7.900000 8.000000 8.100000 8.200000 8.300000 8.400000 8.500000 8.600000 8.700000 8.800000 8.900000 9.000000 9.100000 9.200000 9.300000 9.400000 9.500000 9.600000 9.700000 9.800000 9.900000 10.000000 10.100000 
Y_COORDINATES 22 double
0.000000 0.100000 0.200000 0.300000 0.400000 0.500000 0.600000 0.700000 0.800000 0.900000 1.000000 1.100000 1.200000 1.300000 1.400000 1.500000 1.600000 1.700000 1.800000 1.900000 2.000000 2.100000 
Z_COORDINATES 1 double
0.0
POINT_DATA 2244
SCALARS Pressure double 1
LOOKUP_TABLE default
0.000000e+00
4.973648e+01
4.971158e+01
4.968244e+01
4.964613e+01
4.959919e+01
4.953839e+01
4.946257e+01
4.937154e+01
4.928270e+01
4.920909e+01
4.915395e+01
4.911456e+01
4.908621e+01
4.906432e+01
4.904530e+01
4.902736e+01
4.901108e+01
4.899897e+01
4.899375e+01
4.899655e+01
4.900666e+01
4.902269e+01
4.904320e+01
4.906702e+01
4.909334e+01
4.912157e+01
4.915125e+01
4.918189e+01
4.921286e+01
4.924348e+01
4.927294e+01
4.930038e+01
4.932497e+01
4.934605e+01
4.936330e+01
4.937677e+01
4.938681e+01
4.939400e+01
4.939895e+01
4.940226e+01
4.940441e+01
4.940578e+01
4.940665e+01
4.940719e+01
4.940753e+01
4.940774e+01
4.940787e+01
4.940794e+01
4.940796e+01
4.940795e+01
4.940792e+01
4.940787e+01
4.940781e+01
4.940773e+01
4.940765e+01
4.940756e+01
4.940746e+01
4.940737e+01
4.940728e+01
4.940719e+01
4.940710e+01
4.940701e+01
4.940692e+01
4.940684e+01
4.940676e+01
4.940667e+01
4.940659e+01
4.940651e+01
4.940642e+01
4.940633e+01
4.940624e+01
4.940615e+01
4.940605e+01
4.940595e+01
4.940584e+01
4.940572e+01
4.940560e+01
4.940548e+01
4.940534e+01
4.940520e+01
4.940505e+01
4.940490e+01
4.940474e+01
4.940457e+01
4.940439e+01
4.940421e+01
4.940402e+01
4.940382e+01
4.940361e+01
4.940340e+01
4.940319e+01
4.940296e+01
4.940274e+01
4.940250e+01
4.940226e+01
4.940201e+01
4.940174e+01
4.940145e+01
4.940112e+01
4.940083e+01
0.000000e+00
4.973648e+01
4.973721e+01
4.971231e+01
4.968318e+01
4.964686e+01
4.959993e+01
4.953912e+01
4.946330e+01
4.937228e+01
4.928343e+01
4.920982e+01
4.915469e+01
4.911530e+01
4.908695e+01
4.906505e+01
4.904603e+01
4.902810e+01
4.901182e+01
4.899970e+01
4.899449e+01
4.899729e+01
4.900740e+01
4.902342e+01
4.904393e+01
4.906776e+01
4.909407e+01
4.912231e+01
4.915199e+01
4.918262e+01
4.921360e+01
4.924421e+01
4.927367e+01
4.930112e+01
4.932570e+01
4.934679e+01
4.936404e+01
4.937750e+01
4.938755e+01
4.939474e+01
4.939969e+01
4.940300e+01
4.940515e+01
4.940652e+01
4.940738e+01
4.940793e+01
4.940827e+01
4.940848e+01
4.940861e+01
4.940867e+01
4.940870e+01
4.940869e+01
4.940866e+01
4.940861e+01
4.940855e+01
4.940847e+01
4.940838e+01
4.940829e+01
4.940820e+01
4.940811e+01
4.940802e+01
4.940792e+01
4.940783e+01
4.940775e+01
4.940766e+01
4.940758e+01
4.940749e+01
4.940741e+01
4.940733e+01
4.940724e+01
4.940716e+01
4.940707e+01
4.940698e+01
4.940689e+01
4.940679e+01
4.940668e+01
4.940657e+01
4.940646e+01
4.940634e+01
4.940621e+01
4.940608e+01
4.940594e+01
4.940579e+01
4.940563e+01
4.940547e+01
4.940530e+01
4.940513e+01
4.940494e+01
4.940475e+01
4.940456e+01
4.940435e+01
4.940414e+01
4.940392e+01
4.940370e+01
4.940347e+01
4.940324e+01
4.940300e+01
4.940274e+01
4.940248e+01
4.940219e+01
4.940186e+01
4.940157e+01
4.940083e+01
4.973608e+01
4.973681e+01
4.971330e+01
4.968534e+01
4.964973e+01
4.960257e+01
4.953988e+01
4.946015e+01
4.936007e+01
4.926677e+01
4.919380e+01
4.914158e+01
4.910544e+01
4.907999e+01
4.906051e+01
4.904334e+01
4.902644e+01
4.901038e+01
4.899798e+01
4.899257e+01
4.899570e+01
4.900626e+01
4.902268e+01
4.904342e+01
4.906727e+01
4.909347e+01
4.912149e+01
4.915094e+01
4.918137e+01
4.921217e+01
4.924264e+01
4.927202e+01
4.929948e+01
4.932417e+01
4.934543e+01
4.936291e+01
4.937660e+01
4.938684e+01
4.939419e+01
4.939927e+01
4.940267e+01
4.940489e+01
4.940632e+01
4.940723e+01
4.940781e+01
4.940818e+01
4.940841e+01
4.940854e+01
4.940862e+01
4.940864e+01
4.940864e+01
4.940861e+01
4.940856e+01
4.940849e+01
4.940842e+01
4.940833e+01
4.940824e+01
4.940815e+01
4.940806e+01
4.940797e+01
4.940788e+01
4.940780e+01
4.940771e+01
4.940763e+01
4.940755e+01
4.940747e+01
4.940739e+01
4.940731e+01
4.940723e+01
4.940714e+01
4.940706e+01
4.940697e+01
4.940688e+01
4.940678e+01
4.940668e+01
4.940657e+01
4.940646e+01
4.940634e+01
4.940621e+01
4.940608e+01
4.940594e+01
4.940579e+01
4.940563e+01
4.940547e+01
4.940530e+01
4.940512e+01
4.940494e+01
4.940475e+01
4.940455e+01
4.940435e+01
4.940414e+01
4.940392e+01
4.940370e+01
4.940347e+01
4.940323e+01
4.940299e+01
4.940274e+01
4.940248e+01
4.940221e+01
4.940194e+01
4.940165e+01
4.940092e+01
4.973574e+01
4.973648e+01
4.971586e+01
4.969052e+01
4.965680e+01
4.960971e+01
4.954344e+01
4.945494e+01
4.933336e+01
4.923190e+01
4.916194e+01
4.911644e+01
4.908695e+01
4.906707e+01
4.905223e+01
4.903867e+01
4.902373e+01
4.900789e+01
4.899475e+01
4.898879e+01
4.899263e+01
4.900415e+01
4.902137e+01
4.904253e+01
4.906638e+01
4.909225e+01
4.911975e+01
4.914863e+01
4.917851e+01
4.920885e+01
4.923897e+01
4.926811e+01
4.929551e+01
4.932038e+01
4.934204e+01
4.936001e+01
4.937422e+01
4.938494e+01
4.939269e+01
4.939809e+01
4.940174e+01
4.940417e+01
4.940576e+01
4.940679e+01
4.940746e+01
4.940790e+01
4.940817e+01
4.940834e+01
4.940843e+01
4.940847e+01
4.940847e+01
4.940845e+01
4.940840e+01
4.940834e+01
4.940827e+01
4.940819e+01
4.940811e+01
4.940803e+01
4.940795e+01
4.940787e+01
4.940779e+01
4.940772e+01
4.940764e+01
4.940757e+01
4.940750e+01
4.940742e+01
4.940735e+01
4.940728e+01
4.940721e+01
4.940713e+01
4.940705e+01
4.940697e+01
4.940688e+01
4.940678e+01
4.940668e+01
4.940658e+01
4.940647e+01
4.940635e+01
4.940622e+01
4.940609e+01
4.940595e+01
4.940580e+01
4.940564e+01
4.940548e+01
4.940531e+01
4.940513e+01
4.940495e+01
4.940476e+01
4.940456e+01
4.940435e+01
4.940414e+01
4.940392e+01
4.940370e+01
4.940347e+01
4.940323e+01
4.940299e+01
4.940275e+01
4.940249e+01
4.940224e+01
4.940199e+01
4.940171e+01
4.940097e+01
4.973579e+01
4.973652e+01
4.972041e+01
4.969940e+01
4.966924e+01
4.962305e+01
4.955118e+01
4.944530e+01
4.928278e+01
4.917380e+01
4.911426e+01
4.908088e+01
4.906123e+01
4.904922e+01
4.904102e+01
4.903299e+01
4.902091e+01
4.900484e+01
4.898993e+01
4.898266e+01
4.898736e+01
4.900066e+01
4.901939e+01
4.904132e+01
4.906524e+01
4.909058e+01
4.911727e+01
4.914526e+01
4.917432e+01
4.920402e+01
4.923368e+01
4.926250e+01
4.928974e+01
4.931481e+01
4.933696e+01
4.935561e+01
4.937054e+01
4.938195e+01
4.939028e+01
4.939617e+01
4.940020e+01
4.940292e+01
4.940474e+01
4.940594e+01
4.940675e+01
4.940728e+01
4.940763e+01
4.940786e+01
4.940800e+01
4.940808e+01
4.940811e+01
4.940811e+01
4.940809e+01
4.940806e+01
4.940801e+01
4.940795e+01
4.940790e+01
4.940784e+01
4.940777e+01
4.940771e+01
4.940765e+01
4.940759e+01
4.940754e+01
4.940748e+01
4.940742e+01
4.940737e+01
4.940731e+01
4.940725e+01
4.940719e+01
4.940712e+01
4.940705e+01
4.940697e+01
4.940689e+01
4.940680e+01
4.940671e+01
4.940660e+01
4.940649e+01
4.940638e+01
4.940625e+01
4.940612e+01
4.940598e+01
4.940583e+01
4.940567e+01
4.940551e+01
4.940534e+01
4.940516e+01
4.940497e+01
4.940477e+01
4.940457e+01
4.940437e+01
4.940415e+01
4.940393e+01
4.940371e+01
4.940348e+01
4.940324e+01
4.940300e+01
4.940276e+01
4.940251e+01
4.940226e+01
4.940203e+01
4.940175e+01
4.940101e+01
4.973657e+01
4.973731e+01
4.972738e+01
4.971284e+01
4.968898e+01
4.964627e+01
4.956744e+01
4.942753e+01
4.919299e+01
4.908980e+01
4.905246e+01
4.903715e+01
4.903029e+01
4.902766e+01
4.902742e+01
4.902722e+01
4.901995e+01
4.900294e+01
4.898434e+01
4.897434e+01
4.897908e+01
4.899547e+01
4.901702e+01
4.904036e+01
4.906455e+01
4.908924e+01
4.911483e+01
4.914159e+01
4.916956e+01
4.919840e+01
4.922748e+01
4.925594e+01
4.928291e+01
4.930819e+01
4.933096e+01
4.935044e+01
4.936623e+01
4.937840e+01
4.938737e+01
4.939374e+01
4.939814e+01
4.940114e+01
4.940318e+01
4.940457e+01
4.940553e+01
4.940621e+01
4.940668e+01
4.940702e+01
4.940726e+01
4.940742e+01
4.940753e+01
4.940760e+01
4.940763e+01
4.940765e+01
4.940764e+01
4.940763e+01
4.940760e+01
4.940757e+01
4.940754e+01
4.940751e+01
4.940748e+01
4.940745e+01
4.940742e+01
4.940739e+01
4.940735e+01
4.940732e+01
4.940728e+01
4.940723e+01
4.940718e+01
4.940713e+01
4.940707e+01
4.940700e+01
4.940693e+01
4.940684e+01
4.940675e+01
4.940665e+01
4.940654e+01
4.940643e+01
4.940630e+01
4.940617e+01
4.940603e+01
4.940588e+01
4.940572e+01
4.940555e+01
4.940538e+01
4.940519e+01
4.940500e+01
4.940481e+01
4.940460e+01
4.940439e+01
4.940418e+01
4.940395e+01
4.940372e+01
4.940349e+01
4.940325e+01
4.940301e+01
4.940277e+01
4.940252e+01
4.940228e+01
4.940205e+01
4.940177e+01
4.940103e+01
4.973836e+01
4.973910e+01
4.973691e+01
4.973132e+01
4.971825e+01
4.968619e+01
4.960590e+01
4.940583e+01
4.903588e+01
4.897224e+01
4.898017e+01
4.898977e+01
4.899683e+01
4.900313e+01
4.900993e+01
4.901846e+01
4.902122e+01
4.900541e+01
4.898125e+01
4.896615e+01
4.896940e+01
4.898868e+01
4.901586e+01
4.904150e+01
4.906642e+01
4.909034e+01
4.911454e+01
4.913971e+01
4.916620e+01
4.919387e+01
4.922213e+01
4.925004e+01
4.927649e+01
4.930167e+01
4.932490e+01
4.934511e+01
4.936168e+01
4.937451e+01
4.938401e+01
4.939078e+01
4.939549e+01
4.939874e+01
4.940099e+01
4.940259e+01
4.940375e+01
4.940462e+01
4.940528e+01
4.940580e+01
4.940621e+01
4.940651e+01
4.940675e+01
4.940694e+01
4.940706e+01
4.940714e+01
4.940720e+01
4.940724e+01
4.940727e+01
4.940729e+01
4.940730e+01
4.940731e+01
4.940732e+01
4.940732e+01
4.940732e+01
4.940732e+01
4.940731e+01
4.940730e+01
4.940728e+01
4.940725e+01
4.940722e+01
4.940718e+01
4.940712e+01
4.940706e+01
4.940700e+01
4.940692e+01
4.940683e+01
4.940673e+01
4.940662e+01
4.940650e+01
4.940638e+01
4.940624e+01
4.940610e+01
4.940594e+01
4.940578e+01
4.940561e+01
4.940543e+01
4.940525e+01
4.940505e+01
4.940485e+01
4.940464e+01
4.940443e+01
4.940421e+01
4.940398e+01
4.940375e+01
4.940351e+01
4.940327e+01
4.940303e+01
4.940278e+01
4.940254e+01
4.940230e+01
4.940207e+01
4.940178e+01
4.940104e+01
4.974117e+01
4.974191e+01
4.974837e+01
4.975392e+01
4.975742e+01
4.975083e+01
4.970166e+01
4.947345e+01
4.875020e+01
4.881393e+01
4.891142e+01
4.894830e+01
4.896557e+01
4.897753e+01
4.898796e+01
4.899799e+01
4.901088e+01
4.900896e+01
4.898251e+01
4.896254e+01
4.896417e+01
4.898625e+01
4.901867e+01
4.904873e+01
4.907545e+01
4.909825e+01
4.912071e+01
4.914374e+01
4.916808e+01
4.919387e+01
4.922062e+01
4.924736e+01
4.927280e+01
4.929694e+01
4.931991e+01
4.934027e+01
4.935713e+01
4.937027e+01
4.938004e+01
4.938706e+01
4.939202e+01
4.939550e+01
4.939800e+01
4.939985e+01
4.940129e+01
4.940245e+01
4.940340e+01
4.940422e+01
4.940490e+01
4.940542e+01
4.940583e+01
4.940614e+01
4.940639e+01
4.940658e+01
4.940674e+01
4.940686e+01
4.940696e+01
4.940704e+01
4.940712e+01
4.940718e+01
4.940723e+01
4.940727e+01
4.940730e+01
4.940733e+01
4.940735e+01
4.940735e+01
4.940735e+01
4.940734e+01
4.940732e+01
4.940728e+01
4.940724e+01
4.940718e+01
4.940711e+01
4.940703e+01
4.940694e+01
4.940684e+01
4.940673e+01
4.940661e+01
4.940648e+01
4.940634e+01
4.940619e+01
4.940603e+01
4.940587e+01
4.940569e+01
4.940551e+01
4.940531e+01
4.940511e+01
4.940491e+01
4.940469e+01
4.940448e+01
4.940425e+01
4.940402e+01
4.940378e+01
4.940354e+01
4.940330e+01
4.940305e+01
4.940280e+01
4.940255e+01
4.940231e+01
4.940207e+01
4.940178e+01
4.940104e+01
4.974464e+01
4.974538e+01
4.976004e+01
4.977695e+01
4.979989e+01
4.983252e+01
4.987501e+01
4.999291e+01
4.937082e+01
4.886499e+01
4.891753e+01
4.892906e+01
4.893926e+01
4.894857e+01
4.895862e+01
4.896843e+01
4.898244e+01
4.898310e+01
4.896898e+01
4.895598e+01
4.896033e+01
4.898471e+01
4.902459e+01
4.906198e+01
4.909289e+01
4.911574e+01
4.913700e+01
4.915751e+01
4.917887e+01
4.920168e+01
4.922570e+01
4.925004e+01
4.927339e+01
4.929505e+01
4.931641e+01
4.933575e+01
4.935201e+01
4.936489e+01
4.937467e+01
4.938189e+01
4.938716e+01
4.939102e+01
4.939390e+01
4.939614e+01
4.939801e+01
4.939963e+01
4.940098e+01
4.940211e+01
4.940308e+01
4.940390e+01
4.940460e+01
4.940518e+01
4.940566e+01
4.940605e+01
4.940636e+01
4.940661e+01
4.940681e+01
4.940698e+01
4.940711e+01
4.940722e+01
4.940731e+01
4.940738e+01
4.940744e+01
4.940749e+01
4.940752e+01
4.940753e+01
4.940754e+01
4.940753e+01
4.940751e+01
4.940747e+01
4.940742e+01
4.940736e+01
4.940729e+01
4.940721e+01
4.940711e+01
4.940700e+01
4.940688e+01
4.940676e+01
4.940662e+01
4.940647e+01
4.940631e+01
4.940614e+01
4.940597e+01
4.940579e+01
4.940560e+01
4.940540e+01
4.940519e+01
4.940498e+01
4.940476e+01
4.940453e+01
4.940430e+01
4.940406e+01
4.940382e+01
4.940357e+01
4.940332e+01
4.940307e+01
4.940282e+01
4.940257e+01
4.940232e+01
4.940207e+01
4.940177e+01
4.940103e+01
4.974816e+01
4.974889e+01
4.976956e+01
4.979465e+01
4.983105e+01
4.988919e+01
4.998610e+01
5.011714e+01
5.013339e+01
0.000000e+00
4.893489e+01
4.893563e+01
4.893878e+01
4.893786e+01
4.893438e+01
4.893091e+01
4.892666e+01
4.891692e+01
4.889974e+01
4.889551e+01
4.892023e+01
4.897036e+01
4.902472e+01
4.907538e+01
4.911680e+01
4.914279e+01
4.916264e+01
4.918113e+01
4.919899e+01
4.921779e+01
4.923778e+01
4.925824e+01
4.927794e+01
4.929582e+01
4.931400e+01
4.933084e+01
4.934541e+01
4.935741e+01
4.936696e+01
4.937442e+01
4.938020e+01
4.938464e+01
4.938809e+01
4.939079e+01
4.939311e+01
4.939519e+01
4.939711e+01
4.939889e+01
4.940050e+01
4.940193e+01
4.940317e+01
4.940420e+01
4.940505e+01
4.940573e+01
4.940626e+01
4.940668e+01
4.940699e+01
4.940724e+01
4.940742e+01
4.940756e+01
4.940767e+01
4.940775e+01
4.940781e+01
4.940785e+01
4.940787e+01
4.940787e+01
4.940787e+01
4.940784e+01
4.940781e+01
4.940776e+01
4.940770e+01
4.940762e+01
4.940753e+01
4.940744e+01
4.940733e+01
4.940721e+01
4.940708e+01
4.940693e+01
4.940678e+01
4.940662e+01
4.940646e+01
4.940628e+01
4.940609e+01
4.940590e+01
4.940570e+01
4.940549e+01
4.940528e+01
4.940506e+01
4.940483e+01
4.940459e+01
4.940436e+01
4.940411e+01
4.940386e+01
4.940361e+01
4.940335e+01
4.940309e+01
4.940283e+01
4.940258e+01
4.940232e+01
4.940207e+01
4.940175e+01
4.940102e+01
4.975114e+01
4.975188e+01
4.977521e+01
4.980325e+01
4.984238e+01
4.990010e+01
4.998426e+01
5.008350e+01
5.015112e+01
5.015038e+01
0.000000e+00
4.893386e+01
4.893459e+01
4.892788e+01
4.891153e+01
4.889163e+01
4.886621e+01
4.883384e+01
4.879852e+01
4.879108e+01
4.883103e+01
4.891365e+01
4.901529e+01
4.910202e+01
4.915817e+01
4.918630e+01
4.920250e+01
4.921577e+01
4.922869e+01
4.924213e+01
4.925660e+01
4.927147e+01
4.928570e+01
4.929852e+01
4.931177e+01
4.932444e+01
4.933607e+01
4.934647e+01
4.935542e+01
4.936306e+01
4.936968e+01
4.937502e+01
4.937969e+01
4.938368e+01
4.938721e+01
4.939038e+01
4.939327e+01
4.939588e+01
4.939822e+01
4.940027e+01
4.940206e+01
4.940355e+01
4.940476e+01
4.940573e+01
4.940649e+01
4.940707e+01
4.940750e+01
4.940781e+01
4.940804e+01
4.940820e+01
4.940830e+01
4.940837e+01
4.940840e+01
4.940841e+01
4.940840e+01
4.940838e+01
4.940834e+01
4.940828e+01
4.940822e+01
4.940814e+01
4.940805e+01
4.940795e+01
4.940784e+01
4.940772e+01
4.940759e+01
4.940745e+01
4.940730e+01
4.940715e+01
4.940698e+01
4.940680e+01
4.940662e+01
4.940643e+01
4.940623e+01
4.940603e+01
4.940582e+01
4.940560e+01
4.940537e+01
4.940514e+01
4.940491e+01
4.940467e+01
4.940442e+01
4.940417e+01
4.940391e+01
4.940365e+01
4.940338e+01
4.940312e+01
4.940285e+01
4.940258e+01
4.940232e+01
4.940206e+01
4.940173e+01
4.940099e+01
4.975334e+01
4.975408e+01
4.977672e+01
4.980312e+01
4.983836e+01
4.988693e+01
4.994870e+01
5.000226e+01
5.002796e+01
4.977753e+01
4.977680e+01
0.000000e+00
4.891474e+01
4.889636e+01
4.888577e+01
4.886012e+01
4.882377e+01
4.877839e+01
4.873239e+01
4.873299e+01
4.879235e+01
4.889955e+01
4.902892e+01
4.914671e+01
4.921851e+01
4.925285e+01
4.926207e+01
4.926493e+01
4.926886e+01
4.927482e+01
4.928191e+01
4.928913e+01
4.929589e+01
4.930198e+01
4.930840e+01
4.931506e+01
4.932223e+01
4.933030e+01
4.933968e+01
4.934888e+01
4.935750e+01
4.936519e+01
4.937197e+01
4.937776e+01
4.938267e+01
4.938692e+01
4.939065e+01
4.939394e+01
4.939683e+01
4.939932e+01
4.940145e+01
4.940324e+01
4.940472e+01
4.940591e+01
4.940686e+01
4.940759e+01
4.940813e+01
4.940852e+01
4.940880e+01
4.940897e+01
4.940907e+01
4.940912e+01
4.940913e+01
4.940910e+01
4.940906e+01
4.940899e+01
4.940891e+01
4.940882e+01
4.940871e+01
4.940860e+01
4.940847e+01
4.940834e+01
4.940820e+01
4.940805e+01
4.940790e+01
4.940773e+01
4.940756e+01
4.940738e+01
4.940720e+01
4.940700e+01
4.940680e+01
4.940660e+01
4.940639e+01
4.940617e+01
4.940594e+01
4.940571e+01
4.940548e+01
4.940524e+01
4.940499e+01
4.940474e+01
4.940448e+01
4.940422e+01
4.940396e+01
4.940369e+01
4.940342e+01
4.940314e+01
4.940287e+01
4.940259e+01
4.940232e+01
4.940205e+01
4.940170e+01
4.940096e+01
4.975491e+01
4.975565e+01
4.977513e+01
4.979697e+01
4.982358e+01
4.985488e+01
4.988357e+01
4.988758e+01
4.982570e+01
4.970487e+01
4.928739e+01
4.898169e+01
4.885523e+01
4.890062e+01
4.888076e+01
4.884743e+01
4.880514e+01
4.875403e+01
4.871609e+01
4.873183e+01
4.880703e+01
4.892770e+01
4.906702e+01
4.919355e+01
4.927270e+01
4.930990e+01
4.931918e+01
4.931708e+01
4.931431e+01
4.931204e+01
4.931028e+01
4.930815e+01
4.930625e+01
4.930492e+01
4.930393e+01
4.930413e+01
4.930675e+01
4.931268e+01
4.932245e+01
4.933420e+01
4.934640e+01
4.935731e+01
4.936640e+01
4.937393e+01
4.938006e+01
4.938516e+01
4.938949e+01
4.939319e+01
4.939637e+01
4.939907e+01
4.940137e+01
4.940330e+01
4.940490e+01
4.940622e+01
4.940727e+01
4.940809e+01
4.940872e+01
4.940918e+01
4.940950e+01
4.940971e+01
4.940983e+01
4.940987e+01
4.940986e+01
4.940982e+01
4.940974e+01
4.940963e+01
4.940952e+01
4.940938e+01
4.940924e+01
4.940909e+01
4.940893e+01
4.940876e+01
4.940859e+01
4.940841e+01
4.940822e+01
4.940803e+01
4.940784e+01
4.940763e+01
4.940743e+01
4.940722e+01
4.940700e+01
4.940678e+01
4.940655e+01
4.940631e+01
4.940608e+01
4.940583e+01
4.940559e+01
4.940534e+01
4.940508e+01
4.940482e+01
4.940455e+01
4.940428e+01
4.940401e+01
4.940373e+01
4.940345e+01
4.940316e+01
4.940288e+01
4.940259e+01
4.940231e+01
4.940203e+01
4.940167e+01
4.940093e+01
4.975609e+01
4.975683e+01
4.977129e+01
4.978635e+01
4.980220e+01
4.981582e+01
4.981774e+01
4.978797e+01
4.969031e+01
4.951596e+01
4.924127e+01
4.867746e+01
4.881132e+01
4.886217e+01
4.886400e+01
4.884379e+01
4.880262e+01
4.875677e+01
4.873809e+01
4.877052e+01
4.885493e+01
4.897696e+01
4.910585e+01
4.920929e+01
4.928650e+01
4.933183e+01
4.934303e+01
4.934184e+01
4.934221e+01
4.933812e+01
4.933071e+01
4.932129e+01
4.931284e+01
4.930571e+01
4.929836e+01
4.929230e+01
4.928960e+01
4.929508e+01
4.930788e+01
4.932384e+01
4.933948e+01
4.935307e+01
4.936377e+01
4.937227e+01
4.937911e+01
4.938473e+01
4.938940e+01
4.939334e+01
4.939666e+01
4.939946e+01
4.940181e+01
4.940377e+01
4.940539e+01
4.940672e+01
4.940778e+01
4.940862e+01
4.940927e+01
4.940975e+01
4.941009e+01
4.941032e+01
4.941046e+01
4.941051e+01
4.941050e+01
4.941045e+01
4.941035e+01
4.941023e+01
4.941009e+01
4.940992e+01
4.940975e+01
4.940957e+01
4.940937e+01
4.940918e+01
4.940897e+01
4.940876e+01
4.940855e+01
4.940833e+01
4.940811e+01
4.940789e+01
4.940766e+01
4.940743e+01
4.940719e+01
4.940695e+01
4.940671e+01
4.940646e+01
4.940621e+01
4.940596e+01
4.940570e+01
4.940543e+01
4.940517e+01
4.940489e+01
4.940462e+01
4.940434e+01
4.940406e+01
4.940377e+01
4.940348e+01
4.940319e+01
4.940289e+01
4.940259e+01
4.940230e+01
4.940200e+01
4.940163e+01
4.940089e+01
4.975685e+01
4.975759e+01
4.976630e+01
4.977420e+01
4.978010e+01
4.977995e+01
4.976527e+01
4.972134e+01
4.962561e+01
4.945942e+01
4.923752e+01
4.893951e+01
4.890669e+01
4.890314e+01
4.889159e+01
4.886853e+01
4.883188e+01
4.880060e+01
4.879839e+01
4.883820e+01
4.891866e+01
4.902797e+01
4.913329e+01
4.921820e+01
4.927698e+01
4.930888e+01
4.932389e+01
4.933401e+01
4.934137e+01
4.933958e+01
4.933184e+01
4.932223e+01
4.931309e+01
4.930349e+01
4.929166e+01
4.927962e+01
4.927653e+01
4.928525e+01
4.930145e+01
4.932020e+01
4.933787e+01
4.935212e+01
4.936342e+01
4.937237e+01
4.937953e+01
4.938533e+01
4.939010e+01
4.939406e+01
4.939737e+01
4.940014e+01
4.940246e+01
4.940438e+01
4.940597e+01
4.940726e+01
4.940830e+01
4.940913e+01
4.940977e+01
4.941025e+01
4.941060e+01
4.941083e+01
4.941097e+01
4.941103e+01
4.941102e+01
4.941097e+01
4.941087e+01
4.941074e+01
4.941058e+01
4.941040e+01
4.941021e+01
4.941000e+01
4.940978e+01
4.940956e+01
4.940933e+01
4.940910e+01
4.940886e+01
4.940862e+01
4.940838e+01
4.940813e+01
4.940788e+01
4.940763e+01
4.940738e+01
4.940712e+01
4.940686e+01
4.940660e+01
4.940634e+01
4.940607e+01
4.940580e+01
4.940553e+01
4.940525e+01
4.940497e+01
4.940468e+01
4.940440e+01
4.940410e+01
4.940381e+01
4.940351e+01
4.940320e+01
4.940290e+01
4.940259e+01
4.940228e+01
4.940197e+01
4.940158e+01
4.940084e+01
4.975747e+01
4.975820e+01
4.976130e+01
4.976271e+01
4.976061e+01
4.975108e+01
4.972756e+01
4.968038e+01
4.959678e+01
4.946364e+01
4.928528e+01
4.908512e+01
4.900142e+01
4.896167e+01
4.893295e+01
4.890499e+01
4.887483e+01
4.885690e+01
4.886482e+01
4.890558e+01
4.897640e+01
4.906472e+01
4.914819e+01
4.921649e+01
4.926543e+01
4.929660e+01
4.931530e+01
4.932669e+01
4.933145e+01
4.932954e+01
4.932391e+01
4.931749e+01
4.931008e+01
4.929980e+01
4.928598e+01
4.927474e+01
4.927492e+01
4.928584e+01
4.930320e+01
4.932260e+01
4.933961e+01
4.935361e+01
4.936481e+01
4.937370e+01
4.938080e+01
4.938653e+01
4.939120e+01
4.939506e+01
4.939825e+01
4.940090e+01
4.940311e+01
4.940494e+01
4.940645e+01
4.940769e+01
4.940869e+01
4.940950e+01
4.941013e+01
4.941061e+01
4.941097e+01
4.941121e+01
4.941136e+01
4.941143e+01
4.941143e+01
4.941138e+01
4.941128e+01
4.941115e+01
4.941099e+01
4.941080e+01
4.941059e+01
4.941037e+01
4.941014e+01
4.940990e+01
4.940965e+01
4.940940e+01
4.940914e+01
4.940888e+01
4.940862e+01
4.940836e+01
4.940809e+01
4.940782e+01
4.940755e+01
4.940728e+01
4.940701e+01
4.940673e+01
4.940646e+01
4.940618e+01
4.940590e+01
4.940561e+01
4.940533e+01
4.940504e+01
4.940474e+01
4.940445e+01
4.940415e+01
4.940384e+01
4.940353e+01
4.940322e+01
4.940290e+01
4.940258e+01
4.940226e+01
4.940194e+01
4.940153e+01
4.940079e+01
4.975809e+01
4.975882e+01
4.975698e+01
4.975303e+01
4.974494e+01
4.972932e+01
4.970129e+01
4.965454e+01
4.958171e+01
4.947498e+01
4.933342e+01
4.917671e+01
4.907839e+01
4.901815e+01
4.897592e+01
4.894290e+01
4.891736e+01
4.890741e+01
4.892060e+01
4.895952e+01
4.901999e+01
4.909104e+01
4.915873e+01
4.921540e+01
4.925806e+01
4.928766e+01
4.930680e+01
4.931798e+01
4.932241e+01
4.932136e+01
4.931710e+01
4.931178e+01
4.930433e+01
4.929404e+01
4.928177e+01
4.927529e+01
4.927893e+01
4.929141e+01
4.930886e+01
4.932693e+01
4.934290e+01
4.935618e+01
4.936687e+01
4.937541e+01
4.938223e+01
4.938774e+01
4.939223e+01
4.939593e+01
4.939898e+01
4.940152e+01
4.940363e+01
4.940538e+01
4.940682e+01
4.940801e+01
4.940898e+01
4.940976e+01
4.941038e+01
4.941086e+01
4.941121e+01
4.941146e+01
4.941163e+01
4.941171e+01
4.941172e+01
4.941168e+01
4.941159e+01
4.941146e+01
4.941130e+01
4.941111e+01
4.941090e+01
4.941067e+01
4.941043e+01
4.941017e+01
4.940991e+01
4.940965e+01
4.940938e+01
4.940910e+01
4.940883e+01
4.940855e+01
4.940827e+01
4.940798e+01
4.940770e+01
4.940742e+01
4.940713e+01
4.940685e+01
4.940656e+01
4.940627e+01
4.940598e+01
4.940569e+01
4.940539e+01
4.940510e+01
4.940479e+01
4.940449e+01
4.940418e+01
4.940387e+01
4.940355e+01
4.940323e+01
4.940290e+01
4.940257e+01
4.940223e+01
4.940190e+01
4.940147e+01
4.940074e+01
4.975875e+01
4.975949e+01
4.975364e+01
4.974552e+01
4.973315e+01
4.971360e+01
4.968317e+01
4.963747e+01
4.957190e+01
4.948189e+01
4.936638e+01
4.923798e+01
4.913732e+01
4.906508e+01
4.901341e+01
4.897625e+01
4.895279e+01
4.894698e+01
4.896239e+01
4.899867e+01
4.905079e+01
4.910992e+01
4.916667e+01
4.921527e+01
4.925337e+01
4.928120e+01
4.930000e+01
4.931122e+01
4.931602e+01
4.931571e+01
4.931200e+01
4.930627e+01
4.929811e+01
4.928808e+01
4.927924e+01
4.927724e+01
4.928392e+01
4.929741e+01
4.931424e+01
4.933108e+01
4.934607e+01
4.935864e+01
4.936885e+01
4.937703e+01
4.938358e+01
4.938885e+01
4.939313e+01
4.939664e+01
4.939954e+01
4.940195e+01
4.940395e+01
4.940563e+01
4.940702e+01
4.940817e+01
4.940912e+01
4.940989e+01
4.941050e+01
4.941099e+01
4.941135e+01
4.941162e+01
4.941179e+01
4.941189e+01
4.941191e+01
4.941188e+01
4.941180e+01
4.941168e+01
4.941152e+01
4.941133e+01
4.941112e+01
4.941089e+01
4.941065e+01
4.941039e+01
4.941012e+01
4.940984e+01
4.940956e+01
4.940928e+01
4.940899e+01
4.940870e+01
4.940841e+01
4.940812e+01
4.940782e+01
4.940753e+01
4.940724e+01
4.940694e+01
4.940664e+01
4.940635e+01
4.940605e+01
4.940575e+01
4.940545e+01
4.940514e+01
4.940484e+01
4.940453e+01
4.940421e+01
4.940389e+01
4.940357e+01
4.940323e+01
4.940290e+01
4.940255e+01
4.940220e+01
4.940185e+01
4.940141e+01
4.940067e+01
4.975940e+01
4.976013e+01
4.975129e+01
4.974016e+01
4.972487e+01
4.970284e+01
4.967108e+01
4.962629e+01
4.956521e+01
4.948509e+01
4.938571e+01
4.927558e+01
4.917840e+01
4.910141e+01
4.904387e+01
4.900372e+01
4.898094e+01
4.897705e+01
4.899280e+01
4.902609e+01
4.907181e+01
4.912292e+01
4.917238e+01
4.921553e+01
4.925035e+01
4.927666e+01
4.929504e+01
4.930636e+01
4.931155e+01
4.931170e+01
4.930801e+01
4.930147e+01
4.929265e+01
4.928353e+01
4.927789e+01
4.927925e+01
4.928803e+01
4.930207e+01
4.931832e+01
4.933428e+01
4.934854e+01
4.936058e+01
4.937042e+01
4.937834e+01
4.938466e+01
4.938973e+01
4.939383e+01
4.939717e+01
4.939992e+01
4.940221e+01
4.940412e+01
4.940573e+01
4.940707e+01
4.940820e+01
4.940913e+01
4.940990e+01
4.941052e+01
4.941102e+01
4.941139e+01
4.941167e+01
4.941186e+01
4.941197e+01
4.941201e+01
4.941200e+01
4.941193e+01
4.941181e+01
4.941166e+01
4.941148e+01
4.941127e+01
4.941104e+01
4.941079e+01
4.941053e+01
4.941026e+01
4.940998e+01
4.940969e+01
4.940940e+01
4.940911e+01
4.940881e+01
4.940851e+01
4.940821e+01
4.940791e+01
4.940761e+01
4.940731e+01
4.940701e+01
4.940671e+01
4.940640e+01
4.940610e+01
4.940580e+01
4.940549e+01
4.940518e+01
4.940487e+01
4.940455e+01
4.940423e+01
4.940391e+01
4.940357e+01
4.940324e+01
4.940289e+01
4.940253e+01
4.940216e+01
4.940179e+01
4.940134e+01
4.940060e+01
4.975992e+01
4.976066e+01
4.974985e+01
4.973678e+01
4.971968e+01
4.969622e+01
4.966379e+01
4.961967e+01
4.956127e+01
4.948673e+01
4.939645e+01
4.929692e+01
4.920346e+01
4.912501e+01
4.906458e+01
4.902274e+01
4.900002e+01
4.899672e+01
4.901210e+01
4.904318e+01
4.908485e+01
4.913102e+01
4.917598e+01
4.921579e+01
4.924854e+01
4.927376e+01
4.929178e+01
4.930317e+01
4.930863e+01
4.930899e+01
4.930510e+01
4.929785e+01
4.928874e+01
4.928076e+01
4.927753e+01
4.928110e+01
4.929108e+01
4.930527e+01
4.932103e+01
4.933642e+01
4.935020e+01
4.936190e+01
4.937150e+01
4.937924e+01
4.938542e+01
4.939035e+01
4.939431e+01
4.939753e+01
4.940017e+01
4.940236e+01
4.940419e+01
4.940574e+01
4.940705e+01
4.940815e+01
4.940908e+01
4.940984e+01
4.941047e+01
4.941097e+01
4.941137e+01
4.941166e+01
4.941186e+01
4.941198e+01
4.941204e+01
4.941203e+01
4.941197e+01
4.941187e+01
4.941172e+01
4.941155e+01
4.941134e+01
4.941111e+01
4.941087e+01
4.941061e+01
4.941034e+01
4.941005e+01
4.940977e+01
4.940947e+01
4.940917e+01
4.940887e+01
4.940857e+01
4.940827e+01
4.940796e+01
4.940766e+01
4.940736e+01
4.940705e+01
4.940675e+01
4.940644e+01
4.940613e+01
4.940582e+01
4.940551e+01
4.940520e+01
4.940489e+01
4.940457e+01
4.940424e+01
4.940391e+01
4.940358e+01
4.940323e+01
4.940288e+01
4.940251e+01
4.940212e+01
4.940171e+01
4.940125e+01
4.940051e+01
4.976024e+01
4.976098e+01
4.974919e+01
4.973519e+01
4.971727e+01
4.969322e+01
4.966062e+01
4.961698e+01
4.956000e+01
4.948813e+01
4.940202e+01
4.930728e+01
4.921581e+01
4.913688e+01
4.907517e+01
4.903252e+01
4.900966e+01
4.900641e+01
4.902136e+01
4.905119e+01
4.909083e+01
4.913463e+01
4.917744e+01
4.921566e+01
4.924740e+01
4.927209e+01
4.928991e+01
4.930134e+01
4.930700e+01
4.930751e+01
4.930349e+01
4.929597e+01
4.928702e+01
4.927994e+01
4.927791e+01
4.928238e+01
4.929273e+01
4.930683e+01
4.932225e+01
4.933730e+01
4.935085e+01
4.936239e+01
4.937191e+01
4.937959e+01
4.938573e+01
4.939062e+01
4.939453e+01
4.939770e+01
4.940029e+01
4.940244e+01
4.940424e+01
4.940575e+01
4.940704e+01
4.940812e+01
4.940904e+01
4.940980e+01
4.941042e+01
4.941093e+01
4.941132e+01
4.941162e+01
4.941183e+01
4.941196e+01
4.941202e+01
4.941202e+01
4.941197e+01
4.941187e+01
4.941173e+01
4.941156e+01
4.941136e+01
4.941114e+01
4.941089e+01
4.941063e+01
4.941036e+01
4.941008e+01
4.940979e+01
4.940950e+01
4.940920e+01
4.940890e+01
4.940859e+01
4.940829e+01
4.940799e+01
4.940768e+01
4.940737e+01
4.940707e+01
4.940676e+01
4.940645e+01
4.940614e+01
4.940583e+01
4.940552e+01
4.940521e+01
4.940489e+01
4.940457e+01
4.940425e+01
4.940392e+01
4.940358e+01
4.940323e+01
4.940287e+01
4.940249e+01
4.940207e+01
4.940160e+01
4.940114e+01
4.940040e+01
0.000000e+00
4.976024e+01
4.974845e+01
4.973446e+01
4.971654e+01
4.969248e+01
4.965988e+01
4.961625e+01
4.955926e+01
4.948740e+01
4.940128e+01
4.930654e+01
4.921508e+01
4.913615e+01
4.907444e+01
4.903179e+01
4.900893e+01
4.900567e+01
4.902062e+01
4.905046e+01
4.909010e+01
4.913389e+01
4.917671e+01
4.921492e+01
4.924666e+01
4.927136e+01
4.928917e+01
4.930061e+01
4.930626e+01
4.930677e+01
4.930276e+01
4.929523e+01
4.928629e+01
4.927920e+01
4.927717e+01
4.928165e+01
4.929199e+01
4.930609e+01
4.932151e+01
4.933657e+01
4.935011e+01
4.936166e+01
4.937117e+01
4.937886e+01
4.938499e+01
4.938988e+01
4.939380e+01
4.939696e+01
4.939956e+01
4.940170e+01
4.940350e+01
4.940502e+01
4.940630e+01
4.940739e+01
4.940830e+01
4.940906e+01
4.940969e+01
4.941019e+01
4.941059e+01
4.941088e+01
4.941109e+01