# vtk DataFile Version 3.0
Scalar Field
ASCII
DATASET RECTILINEAR_GRID
DIMENSIONS 102 22 1
X_COORDINATES 102 double
0.000000 0.100000 0.200000 0.300000 0.400000 0.500000 0.600000 0.700000 0.800000 0.900000 1.000000 1.100000 1.200000 1.300000 1.400000 1.500000 1.600000 1.700000 1.800000 1.900000 2.000000 2.100000 2.200000 2.300000 2.400000 2.500000 2.600000 2.700000 2.800000 2.900000 3.000000 3.100000 3.200000 3.300000 3.400000 3.500000 3.600000 3.700000 3.800000 3.900000 4.000000 4.100000 4.200000 4.300000 4.400000 4.500000 4.600000 4.700000 4.800000 4.900000 5.000000 5.100000 5.200000 5.300000 5.400000 5.500000 5.600000 5.700000 5.800000 5.900000 6.000000 6.100000 6.200000 6.300000 6.400000 6.500000 6.600000 6.700000 6.800000 6.900000 7.000000 7.100000 7.200000 7.300000 7.400000 7.500000 7.600000 7.700000 7.800000 7.900000 8.000000 8.100000 8.200000 8.300000 8.400000 8.500000 8.600000 8.700000 8.800000 8.900000 9.000000 9.100000 9.200000 9.300000 9.400000 9.500000 9.600000 9.700000 9.800000 9.900000 10.000000 10.100000 
Y_COORDINATES 22 double
0.000000 0.100000 0.200000 0.300000 0.400000 0.500000 0.600000 0.700000 0.800000 0.900000 1.000000 1.100000 1.200000 1.300000 1.400000 1.500000 1.600000 1.700000 1.800000 1.900000 2.000000 2.100000 
Z_COORDINATES 1 double
0.0
POINT_DATA 2244
SCALARS Pressure double 1
LOOKUP_TABLE default
0.000000e+00
2.874598e+01
2.871837e+01
2.868603e+01
2.864582e+01
2.859422e+01
2.852805e+01
2.844644e+01
2.835004e+01
2.825807e+01
2.818507e+01
2.813483e+01
2.810467e+01
2.808991e+01
2.808597e+01
2.808897e+01
2.809550e+01
2.810223e+01
2.810626e+01
2.810626e+01
2.810345e+01
2.810087e+01
2.810147e+01
2.810655e+01
2.811591e+01
2.812884e+01
2.814481e+01
2.816357e+01
2.818494e+01
2.820871e+01
2.823452e+01
2.826183e+01
2.828993e+01
2.831798e+01
2.834511e+01
2.837039e+01
2.839297e+01
2.841226e+01
2.842801e+01
2.844034e+01
2.844963e+01
2.845642e+01
2.846129e+01
2.846473e+01
2.846717e+01
2.846893e+01
2.847022e+01
2.847121e+01
2.847200e+01
2.847265e+01
2.847321e+01
2.847369e+01
2.847412e+01
2.847452e+01
2.847488e+01
2.847521e+01
2.847552e+01
2.847581e+01
2.847608e+01
2.847634e+01
2.847658e+01
2.847682e+01
2.847705e+01
2.847728e+01
2.847750e+01
2.847771e+01
2.847792e+01
2.847813e+01
2.847832e+01
2.847851e+01
2.847870e+01
2.847887e+01
2.847904e+01
2.847920e+01
2.847935e+01
2.847949e+01
2.847961e+01
2.847973e+01
2.847983e+01
2.847993e+01
2.848000e+01
2.848007e+01
2.848012e+01
2.848016e+01
2.848018e+01
2.848019e+01
2.848019e+01
2.848017e+01
2.848014e+01
2.848010e+01
2.848004e+01
2.847996e+01
2.847988e+01
2.847978e+01
2.847967e+01
2.847954e+01
2.847940e+01
2.847924e+01
2.847904e+01
2.847879e+01
2.847861e+01
0.000000e+00
2.874598e+01
2.874639e+01
2.871879e+01
2.868645e+01
2.864623e+01
2.859464e+01
2.852846e+01
2.844686e+01
2.835045e+01
2.825849e+01
2.818549e+01
2.813524e+01
2.810509e+01
2.809032e+01
2.808638e+01
2.808939e+01
2.809592e+01
2.810265e+01
2.810668e+01
2.810668e+01
2.810387e+01
2.810129e+01
2.810188e+01
2.810697e+01
2.811633e+01
2.812925e+01
2.814523e+01
2.816398e+01
2.818535e+01
2.820912e+01
2.823494e+01
2.826225e+01
2.829035e+01
2.831840e+01
2.834553e+01
2.837081e+01
2.839339e+01
2.841268e+01
2.842843e+01
2.844075e+01
2.845005e+01
2.845684e+01
2.846171e+01
2.846515e+01
2.846759e+01
2.846935e+01
2.847064e+01
2.847163e+01
2.847242e+01
2.847307e+01
2.847362e+01
2.847411e+01
2.847454e+01
2.847493e+01
2.847529e+01
2.847563e+01
2.847594e+01
2.847623e+01
2.847650e+01
2.847676e+01
2.847700e+01
2.847724e+01
2.847747e+01
2.847770e+01
2.847792e+01
2.847813e+01
2.847834e+01
2.847854e+01
2.847874e+01
2.847893e+01
2.847912e+01
2.847929e+01
2.847946e+01
2.847962e+01
2.847977e+01
2.847991e+01
2.848003e+01
2.848015e+01
2.848025e+01
2.848035e+01
2.848042e+01
2.848049e+01
2.848054e+01
2.848058e+01
2.848060e+01
2.848061e+01
2.848061e+01
2.848059e+01
2.848056e+01
2.848052e+01
2.848046e+01
2.848038e+01
2.848030e+01
2.848020e+01
2.848009e+01
2.847996e+01
2.847982e+01
2.847966e+01
2.847946e+01
2.847921e+01
2.847903e+01
2.847861e+01
2.874586e+01
2.874627e+01
2.872009e+01
2.868895e+01
2.864947e+01
2.859765e+01
2.852959e+01
2.844407e+01
2.833832e+01
2.824169e+01
2.816922e+01
2.812174e+01
2.809454e+01
2.808215e+01
2.807997e+01
2.808439e+01
2.809236e+01
2.810075e+01
2.810642e+01
2.810756e+01
2.810511e+01
2.810232e+01
2.810255e+01
2.810756e+01
2.811700e+01
2.812986e+01
2.814562e+01
2.816403e+01
2.818502e+01
2.820842e+01
2.823391e+01
2.826096e+01
2.828885e+01
2.831674e+01
2.834376e+01
2.836905e+01
2.839173e+01
2.841119e+01
2.842715e+01
2.843970e+01
2.844919e+01
2.845616e+01
2.846117e+01
2.846473e+01
2.846727e+01
2.846909e+01
2.847044e+01
2.847148e+01
2.847230e+01
2.847297e+01
2.847354e+01
2.847403e+01
2.847447e+01
2.847487e+01
2.847523e+01
2.847556e+01
2.847587e+01
2.847616e+01
2.847643e+01
2.847669e+01
2.847694e+01
2.847718e+01
2.847741e+01
2.847764e+01
2.847786e+01
2.847808e+01
2.847829e+01
2.847850e+01
2.847870e+01
2.847889e+01
2.847907e+01
2.847925e+01
2.847942e+01
2.847958e+01
2.847974e+01
2.847988e+01
2.848001e+01
2.848012e+01
2.848023e+01
2.848032e+01
2.848040e+01
2.848047e+01
2.848052e+01
2.848056e+01
2.848058e+01
2.848059e+01
2.848059e+01
2.848057e+01
2.848054e+01
2.848049e+01
2.848043e+01
2.848036e+01
2.848027e+01
2.848017e+01
2.848006e+01
2.847994e+01
2.847980e+01
2.847964e+01
2.847947e+01
2.847928e+01
2.847911e+01
2.847869e+01
2.874616e+01
2.874658e+01
2.872336e+01
2.869492e+01
2.865736e+01
2.860561e+01
2.853387e+01
2.843943e+01
2.831121e+01
2.820570e+01
2.813603e+01
2.809514e+01
2.807422e+01
2.806657e+01
2.806767e+01
2.807460e+01
2.808519e+01
2.809684e+01
2.810604e+01
2.810961e+01
2.810787e+01
2.810471e+01
2.810422e+01
2.810894e+01
2.811856e+01
2.813129e+01
2.814657e+01
2.816425e+01
2.818442e+01
2.820701e+01
2.823176e+01
2.825817e+01
2.828554e+01
2.831302e+01
2.833976e+01
2.836494e+01
2.838777e+01
2.840760e+01
2.842405e+01
2.843711e+01
2.844709e+01
2.845447e+01
2.845983e+01
2.846367e+01
2.846643e+01
2.846844e+01
2.846993e+01
2.847107e+01
2.847197e+01
2.847270e+01
2.847331e+01
2.847383e+01
2.847428e+01
2.847469e+01
2.847505e+01
2.847539e+01
2.847570e+01
2.847599e+01
2.847627e+01
2.847654e+01
2.847680e+01
2.847705e+01
2.847729e+01
2.847753e+01
2.847776e+01
2.847798e+01
2.847820e+01
2.847842e+01
2.847863e+01
2.847883e+01
2.847902e+01
2.847921e+01
2.847938e+01
2.847955e+01
2.847971e+01
2.847985e+01
2.847998e+01
2.848010e+01
2.848021e+01
2.848031e+01
2.848039e+01
2.848046e+01
2.848051e+01
2.848055e+01
2.848057e+01
2.848058e+01
2.848058e+01
2.848056e+01
2.848053e+01
2.848048e+01
2.848042e+01
2.848035e+01
2.848026e+01
2.848016e+01
2.848005e+01
2.847992e+01
2.847979e+01
2.847964e+01
2.847948e+01
2.847932e+01
2.847916e+01
2.847874e+01
2.874722e+01
2.874764e+01
2.872904e+01
2.870504e+01
2.867110e+01
2.862018e+01
2.854254e+01
2.843012e+01
2.825853e+01
2.814406e+01
2.808486e+01
2.805670e+01
2.804568e+01
2.804484e+01
2.805043e+01
2.806062e+01
2.807450e+01
2.809059e+01
2.810522e+01
2.811306e+01
2.811240e+01
2.810859e+01
2.810703e+01
2.811096e+01
2.812086e+01
2.813345e+01
2.814800e+01
2.816457e+01
2.818352e+01
2.820491e+01
2.822859e+01
2.825411e+01
2.828080e+01
2.830779e+01
2.833415e+01
2.835912e+01
2.838210e+01
2.840237e+01
2.841943e+01
2.843318e+01
2.844383e+01
2.845183e+01
2.845769e+01
2.846195e+01
2.846504e+01
2.846731e+01
2.846900e+01
2.847029e+01
2.847130e+01
2.847212e+01
2.847279e+01
2.847336e+01
2.847386e+01
2.847429e+01
2.847469e+01
2.847505e+01
2.847538e+01
2.847570e+01
2.847600e+01
2.847629e+01
2.847657e+01
2.847684e+01
2.847710e+01
2.847735e+01
2.847760e+01
2.847784e+01
2.847808e+01
2.847831e+01
2.847854e+01
2.847875e+01
2.847896e+01
2.847916e+01
2.847934e+01
2.847952e+01
2.847968e+01
2.847984e+01
2.847997e+01
2.848010e+01
2.848021e+01
2.848031e+01
2.848039e+01
2.848046e+01
2.848052e+01
2.848056e+01
2.848058e+01
2.848059e+01
2.848058e+01
2.848056e+01
2.848053e+01
2.848048e+01
2.848042e+01
2.848034e+01
2.848026e+01
2.848015e+01
2.848004e+01
2.847992e+01
2.847978e+01
2.847964e+01
2.847949e+01
2.847934e+01
2.847918e+01
2.847876e+01
2.874940e+01
2.874981e+01
2.873758e+01
2.872021e+01
2.869267e+01
2.864508e+01
2.855979e+01
2.841137e+01
2.816277e+01
2.805343e+01
2.801748e+01
2.800841e+01
2.801077e+01
2.801875e+01
2.802977e+01
2.804337e+01
2.806001e+01
2.808038e+01
2.810179e+01
2.811716e+01
2.811930e+01
2.811462e+01
2.811176e+01
2.811471e+01
2.812402e+01
2.813670e+01
2.815029e+01
2.816540e+01
2.818282e+01
2.820275e+01
2.822512e+01
2.824957e+01
2.827545e+01
2.830187e+01
2.832783e+01
2.835247e+01
2.837559e+01
2.839638e+01
2.841418e+01
2.842871e+01
2.844009e+01
2.844870e+01
2.845508e+01
2.845974e+01
2.846315e+01
2.846566e+01
2.846755e+01
2.846900e+01
2.847015e+01
2.847109e+01
2.847187e+01
2.847254e+01
2.847312e+01
2.847364e+01
2.847410e+01
2.847453e+01
2.847492e+01
2.847528e+01
2.847563e+01
2.847595e+01
2.847626e+01
2.847657e+01
2.847686e+01
2.847714e+01
2.847742e+01
2.847768e+01
2.847795e+01
2.847820e+01
2.847844e+01
2.847868e+01
2.847890e+01
2.847912e+01
2.847932e+01
2.847951e+01
2.847968e+01
2.847984e+01
2.847999e+01
2.848012e+01
2.848023e+01
2.848034e+01
2.848042e+01
2.848049e+01
2.848055e+01
2.848058e+01
2.848061e+01
2.848062e+01
2.848061e+01
2.848059e+01
2.848055e+01
2.848050e+01
2.848043e+01
2.848035e+01
2.848026e+01
2.848016e+01
2.848004e+01
2.847992e+01
2.847978e+01
2.847964e+01
2.847950e+01
2.847936e+01
2.847919e+01
2.847877e+01
2.875296e+01
2.875338e+01
2.874915e+01
2.874103e+01
2.872449e+01
2.868747e+01
2.859967e+01
2.838689e+01
2.799457e+01
2.792428e+01
2.793632e+01
2.795476e+01
2.797358e+01
2.799036e+01
2.800720e+01
2.802495e+01
2.804426e+01
2.806517e+01
2.808838e+01
2.811246e+01
2.812701e+01
2.812359e+01
2.812011e+01
2.812246e+01
2.813122e+01
2.814239e+01
2.815491e+01
2.816839e+01
2.818415e+01
2.820249e+01
2.822341e+01
2.824659e+01
2.827146e+01
2.829714e+01
2.832256e+01
2.834656e+01
2.836952e+01
2.839063e+01
2.840898e+01
2.842414e+01
2.843611e+01
2.844522e+01
2.845201e+01
2.845700e+01
2.846067e+01
2.846340e+01
2.846549e+01
2.846713e+01
2.846846e+01
2.846958e+01
2.847053e+01
2.847136e+01
2.847209e+01
2.847274e+01
2.847333e+01
2.847386e+01
2.847434e+01
2.847477e+01
2.847518e+01
2.847556e+01
2.847592e+01
2.847627e+01
2.847660e+01
2.847692e+01
2.847724e+01
2.847754e+01
2.847783e+01
2.847811e+01
2.847838e+01
2.847864e+01
2.847888e+01
2.847911e+01
2.847933e+01
2.847953e+01
2.847971e+01
2.847988e+01
2.848003e+01
2.848017e+01
2.848029e+01
2.848039e+01
2.848048e+01
2.848055e+01
2.848060e+01
2.848064e+01
2.848066e+01
2.848066e+01
2.848065e+01
2.848063e+01
2.848059e+01
2.848053e+01
2.848046e+01
2.848038e+01
2.848028e+01
2.848017e+01
2.848005e+01
2.847992e+01
2.847979e+01
2.847964e+01
2.847950e+01
2.847936e+01
2.847918e+01
2.847876e+01
2.875792e+01
2.875834e+01
2.876314e+01
2.876662e+01
2.876719e+01
2.875609e+01
2.869922e+01
2.845642e+01
2.769364e+01
2.775010e+01
2.785823e+01
2.790782e+01
2.793735e+01
2.796035e+01
2.798203e+01
2.800418e+01
2.802638e+01
2.804622e+01
2.806835e+01
2.809304e+01
2.811429e+01
2.812584e+01
2.812820e+01
2.813143e+01
2.814136e+01
2.815376e+01
2.816595e+01
2.817746e+01
2.819155e+01
2.820821e+01
2.822744e+01
2.824887e+01
2.827212e+01
2.829640e+01
2.832064e+01
2.834355e+01
2.836542e+01
2.838610e+01
2.840441e+01
2.841971e+01
2.843190e+01
2.844126e+01
2.844829e+01
2.845351e+01
2.845741e+01
2.846037e+01
2.846269e+01
2.846456e+01
2.846614e+01
2.846752e+01
2.846872e+01
2.846982e+01
2.847081e+01
2.847166e+01
2.847240e+01
2.847307e+01
2.847366e+01
2.847420e+01
2.847470e+01
2.847516e+01
2.847560e+01
2.847601e+01
2.847640e+01
2.847677e+01
2.847713e+01
2.847747e+01
2.847779e+01
2.847810e+01
2.847839e+01
2.847867e+01
2.847893e+01
2.847917e+01
2.847940e+01
2.847961e+01
2.847980e+01
2.847997e+01
2.848013e+01
2.848026e+01
2.848038e+01
2.848048e+01
2.848057e+01
2.848063e+01
2.848068e+01
2.848072e+01
2.848073e+01
2.848073e+01
2.848072e+01
2.848068e+01
2.848064e+01
2.848058e+01
2.848050e+01
2.848041e+01
2.848031e+01
2.848020e+01
2.848007e+01
2.847994e+01
2.847980e+01
2.847965e+01
2.847950e+01
2.847935e+01
2.847917e+01
2.847875e+01
2.876385e+01
2.876426e+01
2.877776e+01
2.879327e+01
2.881426e+01
2.884385e+01
2.888074e+01
2.899212e+01
2.834246e+01
2.780344e+01
2.785762e+01
2.788487e+01
2.791129e+01
2.793307e+01
2.795354e+01
2.797562e+01
2.799752e+01
2.801779e+01
2.803352e+01
2.804785e+01
2.806308e+01
2.808039e+01
2.810014e+01
2.812234e+01
2.814254e+01
2.816559e+01
2.818285e+01
2.819551e+01
2.820833e+01
2.822300e+01
2.824037e+01
2.825924e+01
2.827982e+01
2.830158e+01
2.832353e+01
2.834442e+01
2.836395e+01
2.838301e+01
2.840026e+01
2.841493e+01
2.842683e+01
2.843616e+01
2.844332e+01
2.844880e+01
2.845299e+01
2.845627e+01
2.845891e+01
2.846113e+01
2.846308e+01
2.846485e+01
2.846640e+01
2.846778e+01
2.846903e+01
2.847016e+01
2.847118e+01
2.847209e+01
2.847291e+01
2.847364e+01
2.847430e+01
2.847488e+01
2.847542e+01
2.847591e+01
2.847637e+01
2.847679e+01
2.847718e+01
2.847755e+01
2.847790e+01
2.847823e+01
2.847854e+01
2.847882e+01
2.847909e+01
2.847934e+01
2.847956e+01
2.847977e+01
2.847996e+01
2.848013e+01
2.848028e+01
2.848041e+01
2.848052e+01
2.848062e+01
2.848070e+01
2.848076e+01
2.848080e+01
2.848082e+01
2.848083e+01
2.848082e+01
2.848080e+01
2.848076e+01
2.848071e+01
2.848064e+01
2.848056e+01
2.848046e+01
2.848035e+01
2.848023e+01
2.848010e+01
2.847996e+01
2.847981e+01
2.847965e+01
2.847949e+01
2.847934e+01
2.847914e+01
2.847872e+01
2.877002e+01
2.877044e+01
2.879049e+01
2.881497e+01
2.885066e+01
2.890799e+01
2.900470e+01
2.913621e+01
2.916412e+01
0.000000e+00
2.789558e+01
2.789600e+01
2.791844e+01
2.793240e+01
2.794304e+01
2.795579e+01
2.796746e+01
2.797348e+01
2.797391e+01
2.796813e+01
2.796053e+01
2.796176e+01
2.799122e+01
2.804932e+01
2.811734e+01
2.817404e+01
2.820931e+01
2.822705e+01
2.823767e+01
2.824868e+01
2.826274e+01
2.827804e+01
2.829479e+01
2.831276e+01
2.833109e+01
2.834862e+01
2.836469e+01
2.838086e+01
2.839586e+01
2.840901e+01
2.842009e+01
2.842914e+01
2.843640e+01
2.844224e+01
2.844686e+01
2.845056e+01
2.845366e+01
2.845624e+01
2.845858e+01
2.846077e+01
2.846283e+01
2.846479e+01
2.846661e+01
2.846828e+01
2.846978e+01
2.847111e+01
2.847227e+01
2.847327e+01
2.847414e+01
2.847489e+01
2.847554e+01
2.847612e+01
2.847663e+01
2.847708e+01
2.847750e+01
2.847788e+01
2.847823e+01
2.847855e+01
2.847885e+01
2.847913e+01
2.847939e+01
2.847962e+01
2.847984e+01
2.848003e+01
2.848021e+01
2.848036e+01
2.848050e+01
2.848062e+01
2.848072e+01
2.848080e+01
2.848087e+01
2.848091e+01
2.848094e+01
2.848096e+01
2.848096e+01
2.848094e+01
2.848090e+01
2.848086e+01
2.848079e+01
2.848072e+01
2.848062e+01
2.848052e+01
2.848040e+01
2.848027e+01
2.848013e+01
2.847998e+01
2.847982e+01
2.847965e+01
2.847949e+01
2.847932e+01
2.847910e+01
2.847868e+01
2.877575e+01
2.877616e+01
2.879941e+01
2.882757e+01
2.886708e+01
2.892536e+01
2.900982e+01
2.911119e+01
2.919286e+01
2.919244e+01
0.000000e+00
2.793938e+01
2.793980e+01
2.795051e+01
2.795497e+01
2.795500e+01
2.794988e+01
2.793787e+01
2.791687e+01
2.788751e+01
2.785716e+01
2.785326e+01
2.790116e+01
2.799280e+01
2.810040e+01
2.819548e+01
2.825382e+01
2.827871e+01
2.828516e+01
2.828880e+01
2.829573e+01
2.830544e+01
2.831686e+01
2.832959e+01
2.834276e+01
2.835540e+01
2.836694e+01
2.837885e+01
2.839031e+01
2.840094e+01
2.841058e+01
2.841903e+01
2.842629e+01
2.843267e+01
2.843802e+01
2.844266e+01
2.844666e+01
2.845023e+01
2.845353e+01
2.845661e+01
2.845947e+01
2.846213e+01
2.846456e+01
2.846676e+01
2.846873e+01
2.847045e+01
2.847194e+01
2.847320e+01
2.847427e+01
2.847518e+01
2.847595e+01
2.847660e+01
2.847715e+01
2.847763e+01
2.847806e+01
2.847843e+01
2.847876e+01
2.847907e+01
2.847934e+01
2.847959e+01
2.847982e+01
2.848003e+01
2.848021e+01
2.848038e+01
2.848053e+01
2.848067e+01
2.848078e+01
2.848088e+01
2.848096e+01
2.848103e+01
2.848107e+01
2.848111e+01
2.848112e+01
2.848112e+01
2.848110e+01
2.848107e+01
2.848103e+01
2.848097e+01
2.848089e+01
2.848080e+01
2.848070e+01
2.848059e+01
2.848046e+01
2.848032e+01
2.848017e+01
2.848000e+01
2.847983e+01
2.847966e+01
2.847948e+01
2.847929e+01
2.847905e+01
2.847863e+01
2.878062e+01
2.878104e+01
2.880410e+01
2.883116e+01
2.886707e+01
2.891710e+01
2.898183e+01
2.904061e+01
2.907151e+01
2.883459e+01
2.883418e+01
0.000000e+00
2.795094e+01
2.796292e+01
2.796158e+01
2.795341e+01
2.793853e+01
2.791670e+01
2.788415e+01
2.784327e+01
2.780098e+01
2.780652e+01
2.787328e+01
2.798612e+01
2.811519e+01
2.823075e+01
2.830334e+01
2.833822e+01
2.834736e+01
2.834342e+01
2.834022e+01
2.834131e+01
2.834575e+01
2.835164e+01
2.835795e+01
2.836407e+01
2.836982e+01
2.837598e+01
2.838245e+01
2.838935e+01
2.839692e+01
2.840527e+01
2.841355e+01
2.842152e+01
2.842856e+01
2.843484e+01
2.844044e+01
2.844537e+01
2.844976e+01
2.845369e+01
2.845724e+01
2.846046e+01
2.846336e+01
2.846592e+01
2.846818e+01
2.847015e+01
2.847186e+01
2.847331e+01
2.847455e+01
2.847559e+01
2.847646e+01
2.847718e+01
2.847779e+01
2.847830e+01
2.847873e+01
2.847910e+01
2.847941e+01
2.847969e+01
2.847993e+01
2.848015e+01
2.848034e+01
2.848052e+01
2.848067e+01
2.848081e+01
2.848093e+01
2.848103e+01
2.848112e+01
2.848119e+01
2.848124e+01
2.848129e+01
2.848131e+01
2.848132e+01
2.848132e+01
2.848130e+01
2.848127e+01
2.848122e+01
2.848116e+01
2.848109e+01
2.848100e+01
2.848090e+01
2.848079e+01
2.848066e+01
2.848052e+01
2.848037e+01
2.848020e+01
2.848003e+01
2.847985e+01
2.847966e+01
2.847946e+01
2.847926e+01
2.847900e+01
2.847858e+01
2.878461e+01
2.878502e+01
2.880521e+01
2.882823e+01
2.885661e+01
2.889043e+01
2.892286e+01
2.893202e+01
2.887579e+01
2.876269e+01
2.836179e+01
2.806698e+01
2.794176e+01
2.798229e+01
2.797540e+01
2.795852e+01
2.793717e+01
2.790864e+01
2.786845e+01
2.781794e+01
2.778149e+01
2.780343e+01
2.788673e+01
2.801173e+01
2.814776e+01
2.825708e+01
2.833746e+01
2.838323e+01
2.839730e+01
2.839306e+01
2.838565e+01
2.838059e+01
2.837825e+01
2.837624e+01
2.837434e+01
2.837297e+01
2.837225e+01
2.837208e+01
2.837307e+01
2.837609e+01
2.838188e+01
2.839013e+01
2.840002e+01
2.841050e+01
2.842032e+01
2.842887e+01
2.843612e+01
2.844235e+01
2.844767e+01
2.845228e+01
2.845632e+01
2.845987e+01
2.846300e+01
2.846574e+01
2.846814e+01
2.847022e+01
2.847202e+01
2.847357e+01
2.847489e+01
2.847601e+01
2.847695e+01
2.847773e+01
2.847838e+01
2.847892e+01
2.847937e+01
2.847974e+01
2.848006e+01
2.848032e+01
2.848054e+01
2.848073e+01
2.848089e+01
2.848103e+01
2.848115e+01
2.848126e+01
2.848134e+01
2.848142e+01
2.848147e+01
2.848152e+01
2.848155e+01
2.848156e+01
2.848157e+01
2.848156e+01
2.848153e+01
2.848150e+01
2.848145e+01
2.848138e+01
2.848131e+01
2.848122e+01
2.848112e+01
2.848100e+01
2.848088e+01
2.848074e+01
2.848058e+01
2.848042e+01
2.848025e+01
2.848006e+01
2.847986e+01
2.847966e+01
2.847945e+01
2.847923e+01
2.847894e+01
2.847852e+01
2.878804e+01
2.878846e+01
2.880405e+01
2.882072e+01
2.883875e+01
2.885526e+01
2.886102e+01
2.883615e+01
2.874487e+01
2.857874e+01
2.831579e+01
2.777301e+01
2.790207e+01
2.796164e+01
2.796953e+01
2.795902e+01
2.794013e+01
2.790966e+01
2.786388e+01
2.781517e+01
2.779779e+01
2.783715e+01
2.793024e+01
2.805764e+01
2.818152e+01
2.827728e+01
2.834627e+01
2.839379e+01
2.841575e+01
2.841441e+01
2.840963e+01
2.840693e+01
2.840245e+01
2.839463e+01
2.838614e+01
2.837898e+01
2.837300e+01
2.836725e+01
2.836282e+01
2.836124e+01
2.836550e+01
2.837560e+01
2.838914e+01
2.840295e+01
2.841533e+01
2.842574e+01
2.843417e+01
2.844116e+01
2.844702e+01
2.845202e+01
2.845632e+01
2.846005e+01
2.846329e+01
2.846610e+01
2.846854e+01
2.847065e+01
2.847246e+01
2.847402e+01
2.847534e+01
2.847647e+01
2.847742e+01
2.847822e+01
2.847889e+01
2.847945e+01
2.847991e+01
2.848029e+01
2.848061e+01
2.848087e+01
2.848108e+01
2.848126e+01
2.848140e+01
2.848152e+01
2.848161e+01
2.848169e+01
2.848175e+01
2.848180e+01
2.848183e+01
2.848185e+01
2.848185e+01
2.848184e+01
2.848183e+01
2.848179e+01
2.848175e+01
2.848169e+01
2.848163e+01
2.848155e+01
2.848146e+01
2.848135e+01
2.848124e+01
2.848111e+01
2.848097e+01
2.848082e+01
2.848065e+01
2.848047e+01
2.848029e+01
2.848009e+01
2.847988e+01
2.847966e+01
2.847943e+01
2.847919e+01
2.847888e+01
2.847846e+01
2.879087e+01
2.879128e+01
2.880134e+01
2.881109e+01
2.881934e+01
2.882217e+01
2.881118e+01
2.877178e+01
2.868172e+01
2.852294e+01
2.831053e+01
2.802438e+01
2.799498e+01
2.799731e+01
2.799138e+01
2.797716e+01
2.795604e+01
2.792597e+01
2.788395e+01
2.785091e+01
2.785202e+01
2.789987e+01
2.798904e+01
2.810300e+01
2.820604e+01
2.828860e+01
2.834777e+01
2.838316e+01
2.839742e+01
2.840223e+01
2.840876e+01
2.841168e+01
2.840731e+01
2.839879e+01
2.838925e+01
2.838050e+01
2.837150e+01
2.836150e+01
2.835148e+01
2.834790e+01
2.835427e+01
2.836778e+01
2.838420e+01
2.840034e+01
2.841396e+01
2.842505e+01
2.843403e+01
2.844139e+01
2.844749e+01
2.845263e+01
2.845699e+01
2.846073e+01
2.846395e+01
2.846672e+01
2.846912e+01
2.847119e+01
2.847297e+01
2.847450e+01
2.847580e+01
2.847692e+01
2.847786e+01
2.847866e+01
2.847933e+01
2.847989e+01
2.848036e+01
2.848074e+01
2.848106e+01
2.848132e+01
2.848153e+01
2.848170e+01
2.848184e+01
2.848194e+01
2.848202e+01
2.848208e+01
2.848212e+01
2.848215e+01
2.848216e+01
2.848215e+01
2.848214e+01
2.848211e+01
2.848207e+01
2.848202e+01
2.848196e+01
2.848188e+01
2.848180e+01
2.848170e+01
2.848160e+01
2.848148e+01
2.848135e+01
2.848121e+01
2.848106e+01
2.848089e+01
2.848071e+01
2.848053e+01
2.848032e+01
2.848011e+01
2.847989e+01
2.847965e+01
2.847941e+01
2.847915e+01
2.847882e+01
2.847840e+01
2.879320e+01
2.879362e+01
2.879819e+01
2.880158e+01
2.880190e+01
2.879532e+01
2.877534e+01
2.873234e+01
2.865372e+01
2.852680e+01
2.835590e+01
2.816395e+01
2.808504e+01
2.804987e+01
2.802526e+01
2.800206e+01
2.797757e+01
2.794938e+01
2.791877e+01
2.790268e+01
2.791634e+01
2.796598e+01
2.804560e+01
2.813833e+01
2.822274e+01
2.829115e+01
2.834052e+01
2.837166e+01
2.838880e+01
2.839822e+01
2.840413e+01
2.840491e+01
2.840080e+01
2.839405e+01
2.838690e+01
2.837895e+01
2.836884e+01
2.835643e+01
2.834519e+01
2.834381e+01
2.835257e+01
2.836777e+01
2.838538e+01
2.840157e+01
2.841517e+01
2.842628e+01
2.843528e+01
2.844262e+01
2.844867e+01
2.845372e+01
2.845798e+01
2.846162e+01
2.846473e+01
2.846740e+01
2.846971e+01
2.847169e+01
2.847340e+01
2.847488e+01
2.847615e+01
2.847724e+01
2.847817e+01
2.847897e+01
2.847965e+01
2.848021e+01
2.848069e+01
2.848109e+01
2.848141e+01
2.848168e+01
2.848189e+01
2.848206e+01
2.848219e+01
2.848229e+01
2.848236e+01
2.848241e+01
2.848244e+01
2.848245e+01
2.848244e+01
2.848242e+01
2.848239e+01
2.848235e+01
2.848229e+01
2.848222e+01
2.848215e+01
2.848206e+01
2.848196e+01
2.848185e+01
2.848173e+01
2.848160e+01
2.848145e+01
2.848130e+01
2.848114e+01
2.848096e+01
2.848077e+01
2.848057e+01
2.848036e+01
2.848013e+01
2.847989e+01
2.847964e+01
2.847938e+01
2.847911e+01
2.847875e+01
2.847833e+01
2.879521e+01
2.879563e+01
2.879534e+01
2.879342e+01
2.878778e+01
2.877507e+01
2.875047e+01
2.870769e+01
2.863947e+01
2.853816e+01
2.840288e+01
2.825275e+01
2.815899e+01
2.810202e+01
2.806184e+01
2.802946e+01
2.800102e+01
2.797475e+01
2.795404e+01
2.794991e+01
2.797122e+01
2.801968e+01
2.808871e+01
2.816484e+01
2.823492e+01
2.829257e+01
2.833546e+01
2.836448e+01
2.838266e+01
2.839341e+01
2.839882e+01
2.839914e+01
2.839544e+01
2.838956e+01
2.838299e+01
2.837474e+01
2.836427e+01
2.835209e+01
2.834416e+01
2.834597e+01
2.835655e+01
2.837238e+01
2.838941e+01
2.840481e+01
2.841783e+01
2.842850e+01
2.843716e+01
2.844421e+01
2.845001e+01
2.845484e+01
2.845892e+01
2.846239e+01
2.846537e+01
2.846794e+01
2.847016e+01
2.847207e+01
2.847373e+01
2.847516e+01
2.847640e+01
2.847747e+01
2.847839e+01
2.847918e+01
2.847985e+01
2.848043e+01
2.848091e+01
2.848132e+01
2.848165e+01
2.848193e+01
2.848215e+01
2.848233e+01
2.848246e+01
2.848256e+01
2.848263e+01
2.848267e+01
2.848269e+01
2.848270e+01
2.848268e+01
2.848265e+01
2.848260e+01
2.848255e+01
2.848248e+01
2.848240e+01
2.848231e+01
2.848221e+01
2.848209e+01
2.848197e+01
2.848184e+01
2.848170e+01
2.848155e+01
2.848138e+01
2.848121e+01
2.848102e+01
2.848082e+01
2.848061e+01
2.848039e+01
2.848015e+01
2.847989e+01
2.847963e+01
2.847935e+01
2.847906e+01
2.847867e+01
2.847825e+01
2.879695e+01
2.879737e+01
2.879311e+01
2.878706e+01
2.877714e+01
2.876048e+01
2.873342e+01
2.869162e+01
2.863050e+01
2.854556e+01
2.843566e+01
2.831268e+01
2.821604e+01
2.814627e+01
2.809470e+01
2.805453e+01
2.802235e+01
2.799741e+01
2.798326e+01
2.798665e+01
2.801212e+01
2.805856e+01
2.811923e+01
2.818400e+01
2.824387e+01
2.829389e+01
2.833231e+01
2.835977e+01
2.837817e+01
2.838949e+01
2.839507e+01
2.839566e+01
2.839231e+01
2.838647e+01
2.837910e+01
2.836980e+01
2.835893e+01
2.834881e+01
2.834509e+01
2.835004e+01
2.836203e+01
2.837771e+01
2.839376e+01
2.840826e+01
2.842058e+01
2.843072e+01
2.843899e+01
2.844572e+01
2.845125e+01
2.845585e+01
2.845973e+01
2.846303e+01
2.846586e+01
2.846831e+01
2.847043e+01
2.847228e+01
2.847388e+01
2.847528e+01
2.847650e+01
2.847756e+01
2.847848e+01
2.847928e+01
2.847996e+01
2.848055e+01
2.848104e+01
2.848146e+01
2.848181e+01
2.848209e+01
2.848232e+01
2.848251e+01
2.848265e+01
2.848275e+01
2.848282e+01
2.848286e+01
2.848288e+01
2.848288e+01
2.848286e+01
2.848282e+01
2.848277e+01
2.848270e+01
2.848262e+01
2.848253e+01
2.848243e+01
2.848232e+01
2.848220e+01
2.848207e+01
2.848193e+01
2.848178e+01
2.848162e+01
2.848145e+01
2.848127e+01
2.848107e+01
2.848086e+01
2.848064e+01
2.848041e+01
2.848016e+01
2.847989e+01
2.847961e+01
2.847931e+01
2.847900e+01
2.847860e+01
2.847818e+01
2.879837e+01
2.879879e+01
2.879157e+01
2.878251e+01
2.876968e+01
2.875053e+01
2.872212e+01
2.868120e+01
2.862453e+01
2.854936e+01
2.845528e+01
2.835001e+01
2.825626e+01
2.818060e+01
2.812130e+01
2.807506e+01
2.803985e+01
2.801586e+01
2.800600e+01
2.801405e+01
2.804144e+01
2.808549e+01
2.813994e+01
2.819710e+01
2.825014e+01
2.829501e+01
2.833037e+01
2.835661e+01
2.837494e+01
2.838661e+01
2.839255e+01
2.839351e+01
2.839038e+01
2.838416e+01
2.837556e+01
2.836504e+01
2.835432e+01
2.834693e+01
2.834658e+01
2.835389e+01
2.836675e+01
2.838207e+01
2.839732e+01
2.841107e+01
2.842280e+01
2.843251e+01
2.844045e+01
2.844693e+01
2.845224e+01
2.845665e+01
2.846035e+01
2.846349e+01
2.846619e+01
2.846853e+01
2.847057e+01
2.847235e+01
2.847392e+01
2.847529e+01
2.847650e+01
2.847756e+01
2.847848e+01
2.847929e+01
2.847998e+01
2.848058e+01
2.848109e+01
2.848152e+01
2.848188e+01
2.848218e+01
2.848242e+01
2.848261e+01
2.848276e+01
2.848287e+01
2.848294e+01
2.848299e+01
2.848301e+01
2.848300e+01
2.848298e+01
2.848294e+01
2.848288e+01
2.848281e+01
2.848273e+01
2.848263e+01
2.848253e+01
2.848241e+01
2.848228e+01
2.848214e+01
2.848200e+01
2.848184e+01
2.848167e+01
2.848150e+01
2.848131e+01
2.848111e+01
2.848089e+01
2.848066e+01
2.848042e+01
2.848016e+01
2.847988e+01
2.847958e+01
2.847926e+01
2.847893e+01
2.847851e+01
2.847809e+01
2.879940e+01
2.879982e+01
2.879063e+01
2.877965e+01
2.876501e+01
2.874442e+01
2.871534e+01
2.867509e+01
2.862110e+01
2.855148e+01
2.846638e+01
2.837150e+01
2.828113e+01
2.820323e+01
2.813964e+01
2.808964e+01
2.805253e+01
2.802912e+01
2.802156e+01
2.803187e+01
2.805984e+01
2.810207e+01
2.815266e+01
2.820514e+01
2.825395e+01
2.829572e+01
2.832923e+01
2.835466e+01
2.837286e+01
2.838473e+01
2.839095e+01
2.839222e+01
2.838917e+01
2.838242e+01
2.837270e+01
2.836134e+01
2.835123e+01
2.834611e+01
2.834819e+01
2.835699e+01
2.837019e+01
2.838510e+01
2.839977e+01
2.841299e+01
2.842432e+01
2.843374e+01
2.844146e+01
2.844777e+01
2.845294e+01
2.845721e+01
2.846078e+01
2.846381e+01
2.846640e+01
2.846865e+01
2.847062e+01
2.847235e+01
2.847388e+01
2.847524e+01
2.847643e+01
2.847749e+01
2.847842e+01
2.847923e+01
2.847994e+01
2.848055e+01
2.848107e+01
2.848151e+01
2.848188e+01
2.848219e+01
2.848244e+01
2.848264e+01
2.848280e+01
2.848292e+01
2.848300e+01
2.848304e+01
2.848307e+01
2.848306e+01
2.848304e+01
2.848300e+01
2.848294e+01
2.848287e+01
2.848278e+01
2.848269e+01
2.848258e+01
2.848246e+01
2.848233e+01
2.848219e+01
2.848204e+01
2.848188e+01
2.848170e+01
2.848152e+01
2.848133e+01
2.848113e+01
2.848091e+01
2.848068e+01
2.848043e+01
2.848016e+01
2.847987e+01
2.847956e+01
2.847922e+01
2.847885e+01
2.847842e+01
2.847800e+01
2.879996e+01
2.880038e+01
2.879022e+01
2.877831e+01
2.876285e+01
2.874166e+01
2.871240e+01
2.867262e+01
2.862006e+01
2.855312e+01
2.847218e+01
2.838205e+01
2.829357e+01
2.821482e+01
2.814921e+01
2.809732e+01
2.805926e+01
2.803606e+01
2.802941e+01
2.804050e+01
2.806844e+01
2.810960e+01
2.815826e+01
2.820852e+01
2.825536e+01
2.829571e+01
2.832837e+01
2.835343e+01
2.837154e+01
2.838349e+01
2.838995e+01
2.839147e+01
2.838851e+01
2.838146e+01
2.837116e+01
2.835965e+01
2.835026e+01
2.834639e+01
2.834949e+01
2.835876e+01
2.837194e+01
2.838652e+01
2.840085e+01
2.841381e+01
2.842494e+01
2.843424e+01
2.844188e+01
2.844812e+01
2.845324e+01
2.845746e+01
2.846098e+01
2.846396e+01
2.846651e+01
2.846872e+01
2.847066e+01
2.847236e+01
2.847387e+01
2.847521e+01
2.847639e+01
2.847744e+01
2.847837e+01
2.847918e+01
2.847989e+01
2.848051e+01
2.848103e+01
2.848148e+01
2.848186e+01
2.848218e+01
2.848244e+01
2.848264e+01
2.848280e+01
2.848292e+01
2.848301e+01
2.848306e+01
2.848308e+01
2.848308e+01
2.848306e+01
2.848302e+01
2.848296e+01
2.848289e+01
2.848280e+01
2.848271e+01
2.848260e+01
2.848247e+01
2.848234e+01
2.848220e+01
2.848205e+01
2.848189e+01
2.848172e+01
2.848153e+01
2.848134e+01
2.848113e+01
2.848091e+01
2.848068e+01
2.848043e+01
2.848016e+01
2.847986e+01
2.847954e+01
2.847917e+01
2.847873e+01
2.847831e+01
2.847789e+01
0.000000e+00
2.879996e+01
2.878980e+01
2.877790e+01
2.876243e+01
2.874124e+01
2.871198e+01
2.867221e+01
2.861964e+01
2.855271e+01
2.847176e+01
2.838163e+01
2.829315e+01
2.821441e+01
2.814880e+01
2.809691e+01
2.805884e+01
2.803564e+01
2.802899e+01
2.804008e+01
2.806802e+01
2.810918e+01
2.815785e+01
2.820810e+01
2.825494e+01
2.829529e+01
2.832796e+01
2.835301e+01
2.837112e+01
2.838308e+01
2.838953e+01
2.839105e+01
2.838809e+01
2.838104e+01
2.837075e+01
2.835923e+01
2.834985e+01
2.834597e+01
2.834907e+01
2.835834e+01
2.837153e+01
2.838610e+01
2.840044e+01
2.841339e+01
2.842453e+01
2.843382e+01
2.844146e+01
2.844770e+01
2.845282e+01
2.845704e+01
2.846056e+01
2.846354e+01
2.846609e+01
2.846830e+01
2.847024e+01
2.847194e+01
2.847345e+01
2.847479e+01
2.847598e+01
2.847703e+01
2.847795e+01