# vtk DataFile Version 3.0
Scalar Field
ASCII
DATASET RECTILINEAR_GRID
DIMENSIONS 102 22 1
X_COORDINATES 102 double
0.000000 0.100000 0.200000 0.300000 0.400000 0.500000 0.600000 0.700000 0.800000 0.900000 1.000000 1.100000 1.200000 1.300000 1.400000 1.500000 1.600000 1.700000 1.800000 1.900000 2.000000 2.100000 2.200000 2.300000 2.400000 2.500000 2.600000 2.700000 2.800000 2.900000 3.000000 3.100000 3.200000 3.300000 3.400000 3.500000 3.600000 3.700000 3.800000 3.900000 4.000000 4.100000 4.200000 4.300000 4.400000 4.500000 4.600000 4.700000 4.800000 4.900000 5.000000 5.100000 5.200000 5.300000 5.400000 5.500000 5.600000 5.700000 5.800000 5.900000 6.000000 6.100000 6.200000 6.300000 6.400000 6.500000 6.600000 6.700000 6.800000 6.900000 7.000000 7.100000 7.200000 7.300000 7.400000 7.500000 7.600000 7.700000 7.800000 7.900000 8.000000 8.100000 8.200000 8.300000 8.400000 8.500000 8.600000 8.700000 8.800000 8.900000 9.000000 9.100000 9.200000 9.300000 9.400000 9.500000 9.600000 9.700000 9.800000 9.900000 10.000000 10.100000 
Y_COORDINATES 22 double
0.000000 0.100000 0.200000 0.300000 0.400000 0.500000 0.600000 0.700000 0.800000 0.900000 1.000000 1.100000 1.200000 1.300000 1.400000 1.500000 1.600000 1.700000 1.800000 1.900000 2.000000 2.100000 
Z_COORDINATES 1 double
0.0
POINT_DATA 2244
SCALARS Pressure double 1
LOOKUP_TABLE default
0.000000e+00
6.130022e+01
6.127355e+01
6.124342e+01
6.120638e+01
6.115857e+01
6.109603e+01
6.101670e+01
6.091836e+01
6.081787e+01
6.072848e+01
6.065403e+01
6.059309e+01
6.054312e+01
6.050251e+01
6.047104e+01
6.044932e+01
6.043753e+01
6.043490e+01
6.044012e+01
6.045176e+01
6.046856e+01
6.048956e+01
6.051420e+01
6.054214e+01
6.057321e+01
6.060720e+01
6.064378e+01
6.068245e+01
6.072256e+01
6.076333e+01
6.080381e+01
6.084282e+01
6.087935e+01
6.091287e+01
6.094337e+01
6.097130e+01
6.099543e+01
6.101017e+01
6.100646e+01
6.097545e+01
6.091392e+01
6.083170e+01
6.074907e+01
6.068836e+01
6.066134e+01
6.066259e+01
6.068405e+01
6.071807e+01
6.075811e+01
6.079894e+01
6.083682e+01
6.086899e+01
6.089383e+01
6.091104e+01
6.092161e+01
6.092726e+01
6.092966e+01
6.092977e+01
6.092921e+01
6.092737e+01
6.092339e+01
6.091659e+01
6.090662e+01
6.089360e+01
6.087812e+01
6.086112e+01
6.084386e+01
6.082771e+01
6.081394e+01
6.080366e+01
6.079759e+01
6.079604e+01
6.079884e+01
6.080539e+01
6.081531e+01
6.082801e+01
6.084265e+01
6.085808e+01
6.087280e+01
6.088525e+01
6.089417e+01
6.089913e+01
6.090063e+01
6.089953e+01
6.089658e+01
6.089268e+01
6.088807e+01
6.088287e+01
6.087719e+01
6.087116e+01
6.086496e+01
6.085881e+01
6.085297e+01
6.084771e+01
6.084329e+01
6.083994e+01
6.083786e+01
6.083721e+01
6.083811e+01
6.084241e+01
0.000000e+00
6.130022e+01
6.130049e+01
6.127382e+01
6.124368e+01
6.120665e+01
6.115883e+01
6.109630e+01
6.101697e+01
6.091862e+01
6.081814e+01
6.072874e+01
6.065430e+01
6.059336e+01
6.054339e+01
6.050277e+01
6.047131e+01
6.044959e+01
6.043779e+01
6.043516e+01
6.044038e+01
6.045202e+01
6.046882e+01
6.048983e+01
6.051446e+01
6.054240e+01
6.057347e+01
6.060747e+01
6.064405e+01
6.068272e+01
6.072283e+01
6.076359e+01
6.080407e+01
6.084309e+01
6.087962e+01
6.091314e+01
6.094363e+01
6.097157e+01
6.099569e+01
6.101044e+01
6.100673e+01
6.097572e+01
6.091418e+01
6.083197e+01
6.074934e+01
6.068862e+01
6.066161e+01
6.066286e+01
6.068431e+01
6.071833e+01
6.075838e+01
6.079920e+01
6.083709e+01
6.086926e+01
6.089409e+01
6.091131e+01
6.092188e+01
6.092753e+01
6.092993e+01
6.093003e+01
6.092948e+01
6.092763e+01
6.092365e+01
6.091685e+01
6.090688e+01
6.089387e+01
6.087838e+01
6.086139e+01
6.084413e+01
6.082797e+01
6.081421e+01
6.080392e+01
6.079786e+01
6.079631e+01
6.079910e+01
6.080566e+01
6.081558e+01
6.082828e+01
6.084292e+01
6.085834e+01
6.087306e+01
6.088551e+01
6.089444e+01
6.089940e+01
6.090090e+01
6.089980e+01
6.089685e+01
6.089294e+01
6.088833e+01
6.088314e+01
6.087746e+01
6.087143e+01
6.086523e+01
6.085908e+01
6.085324e+01
6.084798e+01
6.084356e+01
6.084021e+01
6.083813e+01
6.083748e+01
6.083838e+01
6.084268e+01
6.084241e+01
6.129886e+01
6.129913e+01
6.127390e+01
6.124497e+01
6.120866e+01
6.116063e+01
6.109625e+01
6.101314e+01
6.090583e+01
6.080147e+01
6.071348e+01
6.064252e+01
6.058495e+01
6.053742e+01
6.049817e+01
6.046724e+01
6.044568e+01
6.043420e+01
6.043193e+01
6.043753e+01
6.044949e+01
6.046650e+01
6.048755e+01
6.051206e+01
6.053975e+01
6.057049e+01
6.060414e+01
6.064041e+01
6.067883e+01
6.071871e+01
6.075924e+01
6.079956e+01
6.083837e+01
6.087458e+01
6.090752e+01
6.093715e+01
6.096365e+01
6.098489e+01
6.099637e+01
6.099166e+01
6.096167e+01
6.090211e+01
6.082398e+01
6.074572e+01
6.068674e+01
6.065934e+01
6.066017e+01
6.067985e+01
6.071176e+01
6.074994e+01
6.078970e+01
6.082747e+01
6.086028e+01
6.088632e+01
6.090501e+01
6.091704e+01
6.092389e+01
6.092718e+01
6.092801e+01
6.092740e+01
6.092517e+01
6.092068e+01
6.091345e+01
6.090322e+01
6.089019e+01
6.087491e+01
6.085834e+01
6.084166e+01
6.082611e+01
6.081293e+01
6.080318e+01
6.079755e+01
6.079640e+01
6.079973e+01
6.080674e+01
6.081713e+01
6.083024e+01
6.084504e+01
6.086009e+01
6.087377e+01
6.088482e+01
6.089248e+01
6.089672e+01
6.089802e+01
6.089711e+01
6.089456e+01
6.089096e+01
6.088660e+01
6.088161e+01
6.087611e+01
6.087024e+01
6.086421e+01
6.085822e+01
6.085253e+01
6.084740e+01
6.084308e+01
6.083979e+01
6.083772e+01
6.083703e+01
6.083786e+01
6.084227e+01
6.084201e+01
6.129662e+01
6.129689e+01
6.127468e+01
6.124847e+01
6.121413e+01
6.116627e+01
6.109846e+01
6.100684e+01
6.087843e+01
6.076749e+01
6.068406e+01
6.062075e+01
6.056979e+01
6.052671e+01
6.048981e+01
6.045964e+01
6.043821e+01
6.042728e+01
6.042570e+01
6.043200e+01
6.044457e+01
6.046193e+01
6.048301e+01
6.050720e+01
6.053429e+01
6.056424e+01
6.059704e+01
6.063251e+01
6.067025e+01
6.070957e+01
6.074964e+01
6.078952e+01
6.082801e+01
6.086388e+01
6.089620e+01
6.092484e+01
6.095049e+01
6.097142e+01
6.098205e+01
6.097658e+01
6.094795e+01
6.088963e+01
6.081349e+01
6.073837e+01
6.068163e+01
6.065394e+01
6.065462e+01
6.067213e+01
6.070110e+01
6.073656e+01
6.077425e+01
6.081068e+01
6.084341e+01
6.087084e+01
6.089195e+01
6.090674e+01
6.091603e+01
6.092117e+01
6.092338e+01
6.092342e+01
6.092114e+01
6.091625e+01
6.090864e+01
6.089825e+01
6.088526e+01
6.087021e+01
6.085411e+01
6.083806e+01
6.082327e+01
6.081089e+01
6.080191e+01
6.079702e+01
6.079673e+01
6.080086e+01
6.080859e+01
6.081952e+01
6.083283e+01
6.084726e+01
6.086117e+01
6.087301e+01
6.088234e+01
6.088866e+01
6.089210e+01
6.089325e+01
6.089279e+01
6.089087e+01
6.088787e+01
6.088400e+01
6.087939e+01
6.087419e+01
6.086854e+01
6.086269e+01
6.085689e+01
6.085138e+01
6.084640e+01
6.084220e+01
6.083897e+01
6.083688e+01
6.083606e+01
6.083668e+01
6.084060e+01
6.084033e+01
6.129391e+01
6.129418e+01
6.127665e+01
6.125492e+01
6.122427e+01
6.117745e+01
6.110421e+01
6.099536e+01
6.082741e+01
6.071242e+01
6.064156e+01
6.059091e+01
6.054949e+01
6.051247e+01
6.047843e+01
6.044877e+01
6.042692e+01
6.041655e+01
6.041611e+01
6.042359e+01
6.043720e+01
6.045518e+01
6.047635e+01
6.050010e+01
6.052629e+01
6.055506e+01
6.058657e+01
6.062081e+01
6.065751e+01
6.069602e+01
6.073543e+01
6.077470e+01
6.081281e+01
6.084856e+01
6.088088e+01
6.090952e+01
6.093551e+01
6.095833e+01
6.096742e+01
6.095868e+01
6.092985e+01
6.087774e+01
6.080666e+01
6.073640e+01
6.068196e+01
6.065362e+01
6.065261e+01
6.066830e+01
6.069385e+01
6.072572e+01
6.076033e+01
6.079449e+01
6.082590e+01
6.085357e+01
6.087604e+01
6.089289e+01
6.090458e+01
6.091195e+01
6.091594e+01
6.091729e+01
6.091546e+01
6.091067e+01
6.090297e+01
6.089251e+01
6.087962e+01
6.086492e+01
6.084948e+01
6.083433e+01
6.082056e+01
6.080925e+01
6.080129e+01
6.079745e+01
6.079842e+01
6.080351e+01
6.081197e+01
6.082320e+01
6.083616e+01
6.084939e+01
6.086126e+01
6.087110e+01
6.087873e+01
6.088387e+01
6.088683e+01
6.088816e+01
6.088829e+01
6.088695e+01
6.088444e+01
6.088094e+01
6.087665e+01
6.087172e+01
6.086634e+01
6.086073e+01
6.085519e+01
6.084994e+01
6.084520e+01
6.084116e+01
6.083801e+01
6.083589e+01
6.083489e+01
6.083513e+01
6.083800e+01
6.083774e+01
6.129120e+01
6.129147e+01
6.128036e+01
6.126527e+01
6.124108e+01
6.119790e+01
6.111788e+01
6.097521e+01
6.073894e+01
6.063421e+01
6.058842e+01
6.055652e+01
6.052736e+01
6.049752e+01
6.046620e+01
6.043591e+01
6.041224e+01
6.040134e+01
6.040275e+01
6.041216e+01
6.042757e+01
6.044666e+01
6.046812e+01
6.049133e+01
6.051633e+01
6.054345e+01
6.057313e+01
6.060563e+01
6.064086e+01
6.067831e+01
6.071701e+01
6.075569e+01
6.079361e+01
6.083005e+01
6.086427e+01
6.089548e+01
6.092289e+01
6.094404e+01
6.094952e+01
6.093424e+01
6.090403e+01
6.086044e+01
6.080198e+01
6.074231e+01
6.069312e+01
6.066463e+01
6.066019e+01
6.067299e+01
6.069443e+01
6.072192e+01
6.075257e+01
6.078355e+01
6.081238e+01
6.083898e+01
6.086177e+01
6.087983e+01
6.089309e+01
6.090206e+01
6.090756e+01
6.091032e+01
6.090906e+01
6.090425e+01
6.089640e+01
6.088597e+01
6.087343e+01
6.085939e+01
6.084499e+01
6.083111e+01
6.081872e+01
6.080878e+01
6.080217e+01
6.079974e+01
6.080220e+01
6.080811e+01
6.081696e+01
6.082788e+01
6.083964e+01
6.085080e+01
6.086022e+01
6.086815e+01
6.087421e+01
6.087844e+01
6.088120e+01
6.088286e+01
6.088345e+01
6.088257e+01
6.088044e+01
6.087727e+01
6.087328e+01
6.086868e+01
6.086365e+01
6.085840e+01
6.085326e+01
6.084839e+01
6.084399e+01
6.084022e+01
6.083723e+01
6.083511e+01
6.083393e+01
6.083370e+01
6.083508e+01
6.083482e+01
6.128889e+01
6.128916e+01
6.128606e+01
6.128012e+01
6.126691e+01
6.123459e+01
6.115334e+01
6.095099e+01
6.058425e+01
6.052828e+01
6.053106e+01
6.052336e+01
6.050805e+01
6.048649e+01
6.045802e+01
6.042538e+01
6.039695e+01
6.038224e+01
6.038536e+01
6.039799e+01
6.041668e+01
6.043774e+01
6.045993e+01
6.048264e+01
6.050615e+01
6.053112e+01
6.055834e+01
6.058844e+01
6.062162e+01
6.065759e+01
6.069544e+01
6.073361e+01
6.077135e+01
6.080881e+01
6.084683e+01
6.088323e+01
6.091184e+01
6.092846e+01
6.092254e+01
6.090034e+01
6.087210e+01
6.083902e+01
6.079765e+01
6.075277e+01
6.071273e+01
6.068625e+01
6.067815e+01
6.068712e+01
6.070380e+01
6.072625e+01
6.075215e+01
6.077904e+01
6.080453e+01
6.082858e+01
6.085026e+01
6.086829e+01
6.088221e+01
6.089218e+01
6.089867e+01
6.090215e+01
6.090112e+01
6.089619e+01
6.088834e+01
6.087832e+01
6.086668e+01
6.085394e+01
6.084116e+01
6.082907e+01
6.081849e+01
6.081030e+01
6.080539e+01
6.080473e+01
6.080828e+01
6.081467e+01
6.082320e+01
6.083290e+01
6.084256e+01
6.085100e+01
6.085823e+01
6.086424e+01
6.086894e+01
6.087251e+01
6.087518e+01
6.087713e+01
6.087800e+01
6.087743e+01
6.087561e+01
6.087278e+01
6.086917e+01
6.086502e+01
6.086052e+01
6.085583e+01
6.085127e+01
6.084697e+01
6.084307e+01
6.083970e+01
6.083698e+01
6.083498e+01
6.083370e+01
6.083304e+01
6.083268e+01
6.083241e+01
6.128715e+01
6.128742e+01
6.129323e+01
6.129864e+01
6.130222e+01
6.129568e+01
6.124587e+01
6.101533e+01
6.029909e+01
6.038585e+01
6.048288e+01
6.049726e+01
6.049288e+01
6.048069e+01
6.045832e+01
6.042421e+01
6.038905e+01
6.036741e+01
6.036697e+01
6.038238e+01
6.040765e+01
6.043183e+01
6.045564e+01
6.047804e+01
6.049985e+01
6.052209e+01
6.054600e+01
6.057268e+01
6.060274e+01
6.063622e+01
6.067251e+01
6.071028e+01
6.074802e+01
6.078417e+01
6.081818e+01
6.085383e+01
6.088283e+01
6.089105e+01
6.087802e+01
6.085821e+01
6.083809e+01
6.081812e+01
6.079440e+01
6.076595e+01
6.073729e+01
6.071528e+01
6.070536e+01
6.070925e+01
6.072088e+01
6.073786e+01
6.075840e+01
6.078040e+01
6.080175e+01
6.082207e+01
6.084123e+01
6.085791e+01
6.087140e+01
6.088146e+01
6.088814e+01
6.089167e+01
6.089046e+01
6.088555e+01
6.087825e+01
6.086943e+01
6.085954e+01
6.084898e+01
6.083857e+01
6.082885e+01
6.082056e+01
6.081448e+01
6.081151e+01
6.081255e+01
6.081662e+01
6.082270e+01
6.082999e+01
6.083756e+01
6.084446e+01
6.085025e+01
6.085528e+01
6.085953e+01
6.086308e+01
6.086607e+01
6.086855e+01
6.087055e+01
6.087150e+01
6.087117e+01
6.086971e+01
6.086734e+01
6.086432e+01
6.086086e+01
6.085712e+01
6.085325e+01
6.084950e+01
6.084597e+01
6.084276e+01
6.083997e+01
6.083769e+01
6.083595e+01
6.083471e+01
6.083375e+01
6.083181e+01
6.083155e+01
6.128575e+01
6.128602e+01
6.130028e+01
6.131723e+01
6.134043e+01
6.137345e+01
6.141605e+01
6.153129e+01
6.091493e+01
6.044991e+01
6.051451e+01
6.048982e+01
6.047613e+01
6.046691e+01
6.045589e+01
6.043142e+01
6.039422e+01
6.036805e+01
6.036336e+01
6.037853e+01
6.040556e+01
6.043397e+01
6.046119e+01
6.048381e+01
6.050425e+01
6.052341e+01
6.054301e+01
6.056466e+01
6.058942e+01
6.061758e+01
6.064851e+01
6.068055e+01
6.071140e+01
6.073835e+01
6.077208e+01
6.080770e+01
6.082852e+01
6.082987e+01
6.082343e+01
6.081510e+01
6.080764e+01
6.080152e+01
6.079428e+01
6.078200e+01
6.076498e+01
6.074860e+01
6.073841e+01
6.073772e+01
6.074404e+01
6.075523e+01
6.076991e+01
6.078634e+01
6.080272e+01
6.081837e+01
6.083379e+01
6.084780e+01
6.085956e+01
6.086850e+01
6.087436e+01
6.087727e+01
6.087589e+01
6.087172e+01
6.086603e+01
6.085954e+01
6.085249e+01
6.084509e+01
6.083781e+01
6.083106e+01
6.082544e+01
6.082173e+01
6.082073e+01
6.082275e+01
6.082655e+01
6.083141e+01
6.083659e+01
6.084141e+01
6.084537e+01
6.084868e+01
6.085158e+01
6.085419e+01
6.085662e+01
6.085887e+01
6.086090e+01
6.086262e+01
6.086353e+01
6.086349e+01
6.086259e+01
6.086100e+01
6.085889e+01
6.085644e+01
6.085375e+01
6.085099e+01
6.084830e+01
6.084576e+01
6.084342e+01
6.084137e+01
6.083967e+01
6.083832e+01
6.083723e+01
6.083609e+01
6.083316e+01
6.083289e+01
6.128420e+01
6.128447e+01
6.130493e+01
6.133014e+01
6.136683e+01
6.142531e+01
6.152253e+01
6.165415e+01
6.167088e+01
0.000000e+00
6.048435e+01
6.048462e+01
6.046169e+01
6.044579e+01
6.042871e+01
6.040976e+01
6.038876e+01
6.037182e+01
6.037143e+01
6.038803e+01
6.041445e+01
6.044633e+01
6.047597e+01
6.050047e+01
6.052194e+01
6.053906e+01
6.055437e+01
6.057007e+01
6.058758e+01
6.060729e+01
6.062865e+01
6.065026e+01
6.066973e+01
6.069218e+01
6.071698e+01
6.073664e+01
6.074964e+01
6.076087e+01
6.077101e+01
6.077931e+01
6.078633e+01
6.079312e+01
6.079918e+01
6.080049e+01
6.079461e+01
6.078385e+01
6.077429e+01
6.077008e+01
6.077130e+01
6.077668e+01
6.078519e+01
6.079551e+01
6.080618e+01
6.081634e+01
6.082686e+01
6.083676e+01
6.084520e+01
6.085157e+01
6.085561e+01
6.085744e+01
6.085672e+01
6.085469e+01
6.085211e+01
6.084932e+01
6.084629e+01
6.084296e+01
6.083946e+01
6.083609e+01
6.083337e+01
6.083197e+01
6.083238e+01
6.083448e+01
6.083722e+01
6.084007e+01
6.084258e+01
6.084442e+01
6.084559e+01
6.084646e+01
6.084729e+01
6.084825e+01
6.084934e+01
6.085054e+01
6.085174e+01
6.085289e+01
6.085375e+01
6.085423e+01
6.085427e+01
6.085390e+01
6.085315e+01
6.085212e+01
6.085084e+01
6.084947e+01
6.084805e+01
6.084666e+01
6.084532e+01
6.084411e+01
6.084305e+01
6.084210e+01
6.084111e+01
6.083973e+01
6.083646e+01
6.083619e+01
6.128205e+01
6.128232e+01
6.130558e+01
6.133375e+01
6.137307e+01
6.143073e+01
6.151370e+01
6.161164e+01
6.168813e+01
6.168787e+01
0.000000e+00
6.044387e+01
6.044414e+01
6.041788e+01
6.039426e+01
6.037235e+01
6.035875e+01
6.035974e+01
6.037687e+01
6.040607e+01
6.043990e+01
6.047358e+01
6.050503e+01
6.053218e+01
6.055653e+01
6.057421e+01
6.058674e+01
6.059724e+01
6.060731e+01
6.061746e+01
6.062756e+01
6.063668e+01
6.064276e+01
6.064752e+01
6.065249e+01
6.065887e+01
6.067323e+01
6.070010e+01
6.072907e+01
6.075482e+01
6.077590e+01
6.079352e+01
6.080898e+01
6.082010e+01
6.082350e+01
6.081910e+01
6.081079e+01
6.080405e+01
6.080080e+01
6.080065e+01
6.080296e+01
6.080680e+01
6.081109e+01
6.081497e+01
6.081931e+01
6.082344e+01
6.082682e+01
6.082917e+01
6.083051e+01
6.083155e+01
6.083296e+01
6.083497e+01
6.083739e+01
6.083983e+01
6.084187e+01
6.084324e+01
6.084390e+01
6.084404e+01
6.084413e+01
6.084463e+01
6.084567e+01
6.084699e+01
6.084797e+01
6.084828e+01
6.084782e+01
6.084680e+01
6.084540e+01
6.084389e+01
6.084257e+01
6.084159e+01
6.084100e+01
6.084074e+01
6.084075e+01
6.084106e+01
6.084201e+01
6.084337e+01
6.084488e+01
6.084631e+01
6.084749e+01
6.084833e+01
6.084883e+01
6.084905e+01
6.084905e+01
6.084887e+01
6.084855e+01
6.084813e+01
6.084760e+01
6.084687e+01
6.084577e+01
6.084405e+01
6.084079e+01
6.084052e+01
6.127916e+01
6.127943e+01
6.130212e+01
6.132857e+01
6.136335e+01
6.141140e+01
6.147285e+01
6.152776e+01
6.155203e+01
6.129503e+01
6.129476e+01
0.000000e+00
6.041128e+01
6.037896e+01
6.035591e+01
6.032819e+01
6.031658e+01
6.033079e+01
6.036872e+01
6.042041e+01
6.047154e+01
6.051524e+01
6.055235e+01
6.058457e+01
6.061239e+01
6.063237e+01
6.064395e+01
6.065070e+01
6.065395e+01
6.065362e+01
6.064899e+01
6.064099e+01
6.062848e+01
6.061062e+01
6.059218e+01
6.058596e+01
6.061197e+01
6.065580e+01
6.070247e+01
6.074364e+01
6.077626e+01
6.080157e+01
6.082267e+01
6.083985e+01
6.085019e+01
6.085157e+01
6.084600e+01
6.083791e+01
6.083107e+01
6.082599e+01
6.082234e+01
6.081952e+01
6.081683e+01
6.081362e+01
6.081038e+01
6.080692e+01
6.080348e+01
6.080068e+01
6.079929e+01
6.080127e+01
6.080706e+01
6.081517e+01
6.082407e+01
6.083261e+01
6.083997e+01
6.084594e+01
6.085058e+01
6.085403e+01
6.085651e+01
6.085813e+01
6.085876e+01
6.085860e+01
6.085742e+01
6.085522e+01
6.085223e+01
6.084880e+01
6.084515e+01
6.084144e+01
6.083797e+01
6.083491e+01
6.083236e+01
6.083034e+01
6.082887e+01
6.082826e+01
6.082941e+01
6.083196e+01
6.083536e+01
6.083904e+01
6.084253e+01
6.084555e+01
6.084795e+01
6.084980e+01
6.085119e+01
6.085217e+01
6.085275e+01
6.085293e+01
6.085267e+01
6.085188e+01
6.085047e+01
6.084842e+01
6.084531e+01
6.084504e+01
6.127570e+01
6.127597e+01
6.129550e+01
6.131736e+01
6.134384e+01
6.137483e+01
6.140335e+01
6.140742e+01
6.134098e+01
6.121358e+01
6.078778e+01
6.046617e+01
6.030541e+01
6.035418e+01
6.033404e+01
6.030648e+01
6.030023e+01
6.032259e+01
6.037133e+01
6.043643e+01
6.050038e+01
6.055206e+01
6.059631e+01
6.063737e+01
6.067370e+01
6.070039e+01
6.070982e+01
6.071037e+01
6.070332e+01
6.068949e+01
6.067046e+01
6.064984e+01
6.061914e+01
6.058009e+01
6.054201e+01
6.053681e+01
6.057479e+01
6.063310e+01
6.069342e+01
6.074550e+01
6.078501e+01
6.081515e+01
6.083921e+01
6.085913e+01
6.087374e+01
6.088009e+01
6.087787e+01
6.087018e+01
6.086119e+01
6.085209e+01
6.084298e+01
6.083351e+01
6.082332e+01
6.081245e+01
6.080101e+01
6.078962e+01
6.077935e+01
6.077145e+01
6.076692e+01
6.077114e+01
6.078247e+01
6.079768e+01
6.081375e+01
6.082863e+01
6.084093e+01
6.085087e+01
6.085873e+01
6.086465e+01
6.086863e+01
6.087052e+01
6.087039e+01
6.086880e+01
6.086575e+01
6.086148e+01
6.085633e+01
6.085080e+01
6.084512e+01
6.083931e+01
6.083369e+01
6.082849e+01
6.082387e+01
6.081999e+01
6.081693e+01
6.081542e+01
6.081690e+01
6.082083e+01
6.082638e+01
6.083258e+01
6.083865e+01
6.084395e+01
6.084822e+01
6.085159e+01
6.085417e+01
6.085605e+01
6.085724e+01
6.085773e+01
6.085750e+01
6.085653e+01
6.085486e+01
6.085265e+01
6.084975e+01
6.084948e+01
6.127217e+01
6.127244e+01
6.128714e+01
6.130230e+01
6.131798e+01
6.133118e+01
6.133252e+01
6.130168e+01
6.120068e+01
6.101876e+01
6.073404e+01
6.014510e+01
6.025716e+01
6.031914e+01
6.032951e+01
6.031333e+01
6.031585e+01
6.034401e+01
6.039588e+01
6.046239e+01
6.052820e+01
6.058038e+01
6.062887e+01
6.067613e+01
6.071842e+01
6.074981e+01
6.076033e+01
6.075414e+01
6.073844e+01
6.071518e+01
6.068661e+01
6.065637e+01
6.061084e+01
6.055405e+01
6.050778e+01
6.051485e+01
6.056437e+01
6.063276e+01
6.070111e+01
6.075713e+01
6.079972e+01
6.083199e+01
6.085701e+01
6.087723e+01
6.089331e+01
6.090319e+01
6.090474e+01
6.089871e+01
6.088901e+01
6.087685e+01
6.086280e+01
6.084703e+01
6.082998e+01
6.081215e+01
6.079307e+01
6.077409e+01
6.075701e+01
6.074358e+01
6.073705e+01
6.074440e+01
6.076193e+01
6.078453e+01
6.080776e+01
6.082822e+01
6.084464e+01
6.085762e+01
6.086768e+01
6.087508e+01
6.087978e+01
6.088151e+01
6.088069e+01
6.087795e+01
6.087346e+01
6.086752e+01
6.086058e+01
6.085315e+01
6.084560e+01
6.083779e+01
6.083005e+01
6.082270e+01
6.081602e+01
6.081029e+01
6.080570e+01
6.080346e+01
6.080538e+01
6.081079e+01
6.081855e+01
6.082734e+01
6.083605e+01
6.084353e+01
6.084951e+01
6.085415e+01
6.085764e+01
6.086012e+01
6.086164e+01
6.086224e+01
6.086192e+01
6.086078e+01
6.085896e+01
6.085672e+01
6.085404e+01
6.085378e+01
6.126869e+01
6.126896e+01
6.127799e+01
6.128600e+01
6.129163e+01
6.129088e+01
6.127521e+01
6.122974e+01
6.113146e+01
6.096077e+01
6.073123e+01
6.041996e+01
6.037575e+01
6.037568e+01
6.037042e+01
6.035810e+01
6.036161e+01
6.038698e+01
6.043182e+01
6.049008e+01
6.054410e+01
6.059371e+01
6.064193e+01
6.068904e+01
6.072966e+01
6.075717e+01
6.076651e+01
6.076125e+01
6.074680e+01
6.072353e+01
6.069300e+01
6.065725e+01
6.060343e+01
6.053786e+01
6.050227e+01
6.052180e+01
6.057942e+01
6.065186e+01
6.072087e+01
6.077588e+01
6.081805e+01
6.085003e+01
6.087453e+01
6.089378e+01
6.090903e+01
6.091975e+01
6.092365e+01
6.092068e+01
6.091194e+01
6.089833e+01
6.088074e+01
6.086001e+01
6.083736e+01
6.081349e+01
6.078762e+01
6.076176e+01
6.073836e+01
6.071977e+01
6.071297e+01
6.072414e+01
6.074785e+01
6.077729e+01
6.080677e+01
6.083148e+01
6.085083e+01
6.086569e+01
6.087688e+01
6.088485e+01
6.088966e+01
6.089112e+01
6.088984e+01
6.088634e+01
6.088085e+01
6.087369e+01
6.086530e+01
6.085620e+01
6.084691e+01
6.083719e+01
6.082742e+01
6.081799e+01
6.080933e+01
6.080187e+01
6.079598e+01
6.079325e+01
6.079572e+01
6.080260e+01
6.081245e+01
6.082365e+01
6.083477e+01
6.084418e+01
6.085160e+01
6.085721e+01
6.086131e+01
6.086409e+01
6.086572e+01
6.086628e+01
6.086586e+01
6.086462e+01
6.086277e+01
6.086060e+01
6.085813e+01
6.085786e+01
6.126552e+01
6.126578e+01
6.126925e+01
6.127076e+01
6.126831e+01
6.125799e+01
6.123326e+01
6.118439e+01
6.109863e+01
6.096286e+01
6.078018e+01
6.057339e+01
6.048484e+01
6.044758e+01
6.042618e+01
6.041208e+01
6.041336e+01
6.043338e+01
6.046976e+01
6.051687e+01
6.056346e+01
6.060848e+01
6.065189e+01
6.069148e+01
6.072284e+01
6.074298e+01
6.075051e+01
6.074781e+01
6.073581e+01
6.071530e+01
6.068914e+01
6.065480e+01
6.060174e+01
6.054393e+01
6.052637e+01
6.055506e+01
6.061421e+01
6.068375e+01
6.074710e+01
6.079810e+01
6.083753e+01
6.086758e+01
6.089059e+01
6.090847e+01
6.092231e+01
6.093199e+01
6.093643e+01
6.093548e+01
6.092847e+01
6.091526e+01
6.089627e+01
6.087253e+01
6.084582e+01
6.081704e+01
6.078546e+01
6.075373e+01
6.072504e+01
6.070259e+01
6.069720e+01
6.071257e+01
6.074186e+01
6.077684e+01
6.081080e+01
6.083815e+01
6.085907e+01
6.087464e+01
6.088597e+01
6.089377e+01
6.089828e+01
6.089947e+01
6.089795e+01
6.089408e+01
6.088803e+01
6.088011e+01
6.087069e+01
6.086024e+01
6.084933e+01
6.083785e+01
6.082615e+01
6.081474e+01
6.080421e+01
6.079522e+01
6.078836e+01
6.078542e+01
6.078853e+01
6.079675e+01
6.080842e+01
6.082165e+01
6.083475e+01
6.084570e+01
6.085423e+01
6.086053e+01
6.086494e+01
6.086780e+01
6.086936e+01
6.086981e+01
6.086930e+01
6.086802e+01
6.086624e+01
6.086421e+01
6.086193e+01
6.086166e+01
6.126288e+01
6.126315e+01
6.126171e+01
6.125783e+01
6.124933e+01
6.123281e+01
6.120345e+01
6.115498e+01
6.108019e+01
6.097153e+01
6.082783e+01
6.066863e+01
6.056928e+01
6.051302e+01
6.047966e+01
6.046125e+01
6.045904e+01
6.047347e+01
6.050191e+01
6.053947e+01
6.057890e+01
6.061808e+01
6.065540e+01
6.068810e+01
6.071330e+01
6.072905e+01
6.073499e+01
6.073205e+01
6.072107e+01
6.070330e+01
6.068155e+01
6.064999e+01
6.060579e+01
6.056774e+01
6.056498e+01
6.059859e+01
6.065493e+01
6.071767e+01
6.077393e+01
6.081990e+01
6.085582e+01
6.088337e+01
6.090453e+01
6.092086e+01
6.093319e+01
6.094142e+01
6.094556e+01
6.094515e+01
6.093948e+01
6.092759e+01
6.090903e+01
6.088433e+01
6.085524e+01
6.082287e+01
6.078684e+01
6.075049e+01
6.071796e+01
6.069364e+01
6.069108e+01
6.071059e+01
6.074430e+01
6.078307e+01
6.081915e+01
6.084763e+01
6.086887e+01
6.088414e+01
6.089483e+01
6.090191e+01
6.090584e+01
6.090677e+01
6.090515e+01
6.090116e+01
6.089494e+01
6.088668e+01
6.087666e+01
6.086524e+01
6.085295e+01
6.083989e+01
6.082640e+01
6.081313e+01
6.080087e+01
6.079054e+01
6.078302e+01
6.078017e+01
6.078397e+01
6.079335e+01
6.080650e+01
6.082128e+01
6.083581e+01
6.084788e+01
6.085721e+01
6.086393e+01
6.086846e+01
6.087122e+01
6.087259e+01
6.087286e+01
6.087225e+01
6.087098e+01
6.086932e+01
6.086751e+01
6.086543e+01
6.086516e+01
6.126087e+01
6.126114e+01
6.125571e+01
6.124765e+01
6.123482e+01
6.121432e+01
6.118251e+01
6.113513e+01
6.106774e+01
6.097620e+01
6.085973e+01
6.073162e+01
6.063311e+01
6.056657e+01
6.052438e+01
6.050127e+01
6.049531e+01
6.050492e+01
6.052710e+01
6.055745e+01
6.059097e+01
6.062491e+01
6.065703e+01
6.068483e+01
6.070610e+01
6.071947e+01
6.072448e+01
6.072144e+01
6.071100e+01
6.069443e+01
6.067306e+01
6.064414e+01
6.061049e+01
6.059035e+01
6.059950e+01
6.063640e+01
6.068959e+01
6.074604e+01
6.079672e+01
6.083848e+01
6.087134e+01
6.089663e+01
6.091603e+01
6.093088e+01
6.094195e+01
6.094939e+01
6.095302e+01
6.095280e+01
6.094798e+01
6.093739e+01
6.092001e+01
6.089562e+01
6.086539e+01
6.083051e+01
6.079119e+01
6.075149e+01
6.071676e+01
6.069315e+01
6.069397e+01
6.071699e+01
6.075362e+01
6.079423e+01
6.083066e+01
6.085902e+01
6.087962e+01
6.089389e+01
6.090344e+01
6.090944e+01
6.091262e+01
6.091326e+01
6.091153e+01
6.090757e+01
6.090141e+01
6.089313e+01
6.088288e+01
6.087089e+01
6.085756e+01
6.084316e+01
6.082806e+01
6.081307e+01
6.079920e+01
6.078766e+01
6.077972e+01
6.077719e+01
6.078168e+01
6.079207e+01
6.080636e+01
6.082225e+01
6.083766e+01
6.085048e+01
6.086033e+01
6.086731e+01
6.087183e+01
6.087440e+01
6.087551e+01
6.087554e+01
6.087479e+01
6.087354e+01
6.087201e+01
6.087045e+01
6.086869e+01
6.086842e+01
6.125947e+01
6.125974e+01
6.125132e+01
6.124025e+01
6.122446e+01
6.120146e+01
6.116832e+01
6.112189e+01
6.105915e+01
6.097780e+01
6.087822e+01
6.076985e+01
6.067678e+01
6.060698e+01
6.055970e+01
6.053239e+01
6.052275e+01
6.052825e+01
6.054563e+01
6.057086e+01
6.059991e+01
6.062978e+01
6.065807e+01
6.068253e+01
6.070132e+01
6.071323e+01
6.071766e+01
6.071458e+01
6.070437e+01
6.068794e+01
6.066603e+01
6.063925e+01
6.061468e+01
6.060686e+01
6.062435e+01
6.066385e+01
6.071478e+01
6.076688e+01
6.081366e+01
6.085238e+01
6.088292e+01
6.090647e+01
6.092453e+01
6.093839e+01
6.094881e+01
6.095592e+01
6.095966e+01
6.095993e+01
6.095604e+01
6.094671e+01
6.093064e+01
6.090702e+01
6.087617e+01
6.083919e+01
6.079712e+01
6.075474e+01
6.071891e+01
6.069798e+01
6.070210e+01
6.072786e+01
6.076621e+01
6.080726e+01
6.084314e+01
6.087079e+01
6.089044e+01
6.090345e+01
6.091156e+01
6.091629e+01
6.091865e+01
6.091901e+01
6.091718e+01
6.091324e+01
6.090721e+01
6.089907e+01
6.088884e+01
6.087660e+01
6.086259e+01
6.084713e+01
6.083067e+01
6.081413e+01
6.079877e+01
6.078613e+01
6.077787e+01
6.077579e+01
6.078095e+01
6.079218e+01
6.080735e+01
6.082399e+01
6.083990e+01
6.085319e+01
6.086339e+01
6.087056e+01
6.087506e+01
6.087744e+01
6.087825e+01
6.087799e+01
6.087705e+01
6.087575e+01
6.087433e+01
6.087300e+01
6.087179e+01
6.087152e+01
6.125862e+01
6.125888e+01
6.124850e+01
6.123548e+01
6.121788e+01
6.119342e+01
6.115961e+01
6.111389e+01
6.105394e+01
6.097841e+01
6.088840e+01
6.079143e+01
6.070320e+01
6.063290e+01
6.058311e+01
6.055314e+01
6.054093e+01
6.054363e+01
6.055784e+01
6.057976e+01
6.060579e+01
6.063293e+01
6.065871e+01
6.068109e+01
6.069836e+01
6.070938e+01
6.071345e+01
6.071037e+01
6.070024e+01
6.068349e+01
6.066103e+01
6.063614e+01
6.061826e+01
6.061849e+01
6.064102e+01
6.068145e+01
6.073072e+01
6.078020e+01
6.082460e+01
6.086143e+01
6.089053e+01
6.091292e+01
6.093002e+01
6.094312e+01
6.095314e+01
6.096044e+01
6.096485e+01
6.096612e+01
6.096336e+01
6.095533e+01
6.094058e+01
6.091786e+01
6.088672e+01
6.084779e+01
6.080299e+01
6.075795e+01
6.072135e+01
6.070325e+01
6.071005e+01
6.073781e+01
6.077720e+01
6.081822e+01
6.085359e+01
6.088049e+01
6.089902e+01
6.091075e+01
6.091760e+01
6.092127e+01
6.092292e+01
6.092298e+01
6.092111e+01
6.091737e+01
6.091167e+01
6.090387e+01
6.089387e+01
6.088162e+01
6.086724e+01
6.085102e+01
6.083349e+01
6.081566e+01
6.079899e+01
6.078534e+01
6.077679e+01
6.077511e+01
6.078082e+01
6.079270e+01
6.080852e+01
6.082568e+01
6.084187e+01
6.085550e+01
6.086595e+01
6.087320e+01
6.087765e+01
6.087987e+01
6.088047e+01
6.087999e+01
6.087887e+01
6.087751e+01
6.087615e+01
6.087500e+01
6.087464e+01
6.087437e+01
6.125823e+01
6.125850e+01
6.124714e+01
6.123319e+01
6.121475e+01
6.118968e+01
6.115569e+01
6.111045e+01
6.105196e+01
6.097920e+01
6.089358e+01
6.080174e+01
6.071604e+01
6.064576e+01
6.059488e+01
6.056360e+01
6.055005e+01
6.055131e+01
6.056393e+01
6.058418e+01
6.060866e+01
6.063439e+01
6.065891e+01
6.068023e+01
6.069676e+01
6.070736e+01
6.071132e+01
6.070830e+01
6.069825e+01
6.068125e+01
6.065862e+01
6.063533e+01
6.062102e+01
6.062465e+01
6.064884e+01
6.068916e+01
6.073736e+01
6.078553e+01
6.082891e+01
6.086505e+01
6.089370e+01
6.091575e+01
6.093254e+01
6.094536e+01
6.095518e+01
6.096248e+01
6.096735e+01
6.096941e+01
6.096772e+01
6.096094e+01
6.094748e+01
6.092583e+01
6.089487e+01
6.085448e+01
6.080703e+01
6.075920e+01
6.072146e+01
6.070451e+01
6.071276e+01
6.074193e+01
6.078209e+01
6.082306e+01
6.085818e+01
6.088485e+01
6.090313e+01
6.091450e+01
6.092091e+01
6.092413e+01
6.092534e+01
6.092500e+01
6.092313e+01
6.091960e+01
6.091422e+01
6.090676e+01
6.089703e+01
6.088495e+01
6.087051e+01
6.085392e+01
6.083574e+01
6.081700e+01
6.079930e+01
6.078484e+01
6.077597e+01
6.077442e+01
6.078043e+01
6.079271e+01
6.080892e+01
6.082633e+01
6.084260e+01
6.085633e+01
6.086689e+01
6.087425e+01
6.087879e+01
6.088105e+01
6.088166e+01
6.088117e+01
6.088003e+01
6.087863e+01
6.087724e+01
6.087617e+01
6.087665e+01
6.087638e+01
0.000000e+00
6.125823e+01
6.124687e+01
6.123292e+01
6.121449e+01
6.118942e+01
6.115542e+01
6.111018e+01
6.105169e+01
6.097894e+01
6.089331e+01
6.080147e+01
6.071577e+01
6.064550e+01
6.059462e+01
6.056333e+01
6.054979e+01
6.055105e+01
6.056366e+01
6.058391e+01
6.060840e+01
6.063412e+01
6.065865e+01
6.067996e+01
6.069649e+01
6.070710e+01
6.071105e+01
6.070803e+01
6.069798e+01
6.068098e+01
6.065836e+01
6.063506e+01
6.062076e+01
6.062438e+01
6.064858e+01
6.068889e+01
6.073710e+01
6.078527e+01
6.082864e+01
6.086479e+01
6.089343e+01
6.091548e+01
6.093228e+01
6.094510e+01
6.095492e+01
6.096222e+01
6.096709e+01
6.096914e+01
6.096745e+01
6.096067e+01
6.094722e+01
6.092556e+01
6.089461e+01
6.085421e+01
6.080677e+01
6.075893e+01
6.072120e+01
6.070425e+01
6.071250e+01
6.074166e+01
6.078182e+01