# vtk DataFile Version 3.0
Scalar Field
ASCII
DATASET RECTILINEAR_GRID
DIMENSIONS 102 22 1
X_COORDINATES 102 double
0.000000 0.100000 0.200000 0.300000 0.400000 0.500000 0.600000 0.700000 0.800000 0.900000 1.000000 1.100000 1.200000 1.300000 1.400000 1.500000 1.600000 1.700000 1.800000 1.900000 2.000000 2.100000 2.200000 2.300000 2.400000 2.500000 2.600000 2.700000 2.800000 2.900000 3.000000 3.100000 3.200000 3.300000 3.400000 3.500000 3.600000 3.700000 3.800000 3.900000 4.000000 4.100000 4.200000 4.300000 4.400000 4.500000 4.600000 4.700000 4.800000 4.900000 5.000000 5.100000 5.200000 5.300000 5.400000 5.500000 5.600000 5.700000 5.800000 5.900000 6.000000 6.100000 6.200000 6.300000 6.400000 6.500000 6.600000 6.700000 6.800000 6.900000 7.000000 7.100000 7.200000 7.300000 7.400000 7.500000 7.600000 7.700000 7.800000 7.900000 8.000000 8.100000 8.200000 8.300000 8.400000 8.500000 8.600000 8.700000 8.800000 8.900000 9.000000 9.100000 9.200000 9.300000 9.400000 9.500000 9.600000 9.700000 9.800000 9.900000 10.000000 10.100000 
Y_COORDINATES 22 double
0.000000 0.100000 0.200000 0.300000 0.400000 0.500000 0.600000 0.700000 0.800000 0.900000 1.000000 1.100000 1.200000 1.300000 1.400000 1.500000 1.600000 1.700000 1.800000 1.900000 2.000000 2.100000 
Z_COORDINATES 1 double
0.0
POINT_DATA 2244
SCALARS Pressure double 1
LOOKUP_TABLE default
0.000000e+00
6.675909e+01
6.672627e+01
6.668911e+01
6.664363e+01
6.658573e+01
6.651140e+01
6.641903e+01
6.630763e+01
6.619838e+01
6.610805e+01
6.604197e+01
6.599841e+01
6.597301e+01
6.596139e+01
6.596008e+01
6.596663e+01
6.597935e+01
6.599705e+01
6.601892e+01
6.604445e+01
6.607338e+01
6.610565e+01
6.614115e+01
6.617944e+01
6.621946e+01
6.625924e+01
6.629579e+01
6.632439e+01
6.633854e+01
6.633340e+01
6.630986e+01
6.627501e+01
6.623858e+01
6.620910e+01
6.619130e+01
6.618589e+01
6.619171e+01
6.620715e+01
6.623049e+01
6.625985e+01
6.629316e+01
6.632818e+01
6.636268e+01
6.639451e+01
6.642170e+01
6.644313e+01
6.645869e+01
6.646923e+01
6.647605e+01
6.648029e+01
6.648346e+01
6.648562e+01
6.648556e+01
6.648177e+01
6.647275e+01
6.645757e+01
6.643623e+01
6.641002e+01
6.638123e+01
6.635286e+01
6.632818e+01
6.631018e+01
6.630090e+01
6.630111e+01
6.630966e+01
6.632554e+01
6.634754e+01
6.637357e+01
6.640048e+01
6.642440e+01
6.644191e+01
6.645141e+01
6.645394e+01
6.645171e+01
6.644645e+01
6.643979e+01
6.643213e+01
6.642364e+01
6.641461e+01
6.640539e+01
6.639642e+01
6.638813e+01
6.638086e+01
6.637491e+01
6.637042e+01
6.636745e+01
6.636596e+01
6.636577e+01
6.636670e+01
6.636856e+01
6.637115e+01
6.637423e+01
6.637752e+01
6.638069e+01
6.638338e+01
6.638520e+01
6.638570e+01
6.638437e+01
6.638065e+01
6.637100e+01
0.000000e+00
6.675909e+01
6.675865e+01
6.672583e+01
6.668867e+01
6.664319e+01
6.658529e+01
6.651096e+01
6.641859e+01
6.630719e+01
6.619794e+01
6.610762e+01
6.604154e+01
6.599797e+01
6.597258e+01
6.596095e+01
6.595964e+01
6.596620e+01
6.597891e+01
6.599662e+01
6.601849e+01
6.604401e+01
6.607294e+01
6.610521e+01
6.614071e+01
6.617901e+01
6.621903e+01
6.625880e+01
6.629535e+01
6.632395e+01
6.633810e+01
6.633296e+01
6.630942e+01
6.627457e+01
6.623814e+01
6.620866e+01
6.619086e+01
6.618545e+01
6.619127e+01
6.620672e+01
6.623005e+01
6.625941e+01
6.629272e+01
6.632775e+01
6.636225e+01
6.639407e+01
6.642127e+01
6.644270e+01
6.645826e+01
6.646879e+01
6.647561e+01
6.647985e+01
6.648303e+01
6.648518e+01
6.648513e+01
6.648133e+01
6.647232e+01
6.645713e+01
6.643579e+01
6.640958e+01
6.638079e+01
6.635242e+01
6.632774e+01
6.630974e+01
6.630046e+01
6.630068e+01
6.630922e+01
6.632511e+01
6.634710e+01
6.637313e+01
6.640004e+01
6.642396e+01
6.644147e+01
6.645097e+01
6.645350e+01
6.645127e+01
6.644601e+01
6.643935e+01
6.643169e+01
6.642320e+01
6.641417e+01
6.640495e+01
6.639598e+01
6.638769e+01
6.638042e+01
6.637447e+01
6.636998e+01
6.636701e+01
6.636552e+01
6.636533e+01
6.636626e+01
6.636812e+01
6.637072e+01
6.637379e+01
6.637708e+01
6.638025e+01
6.638295e+01
6.638477e+01
6.638526e+01
6.638393e+01
6.638021e+01
6.637057e+01
6.637100e+01
6.675802e+01
6.675758e+01
6.672627e+01
6.669036e+01
6.664562e+01
6.658746e+01
6.651117e+01
6.641488e+01
6.629368e+01
6.618003e+01
6.609091e+01
6.602819e+01
6.598801e+01
6.596531e+01
6.595549e+01
6.595529e+01
6.596249e+01
6.597556e+01
6.599341e+01
6.601527e+01
6.604065e+01
6.606927e+01
6.610105e+01
6.613595e+01
6.617359e+01
6.621321e+01
6.625344e+01
6.629175e+01
6.632315e+01
6.634078e+01
6.633863e+01
6.631636e+01
6.628086e+01
6.624184e+01
6.620883e+01
6.618857e+01
6.618186e+01
6.618709e+01
6.620225e+01
6.622536e+01
6.625450e+01
6.628762e+01
6.632244e+01
6.635678e+01
6.638876e+01
6.641632e+01
6.643833e+01
6.645456e+01
6.646569e+01
6.647293e+01
6.647741e+01
6.648016e+01
6.648136e+01
6.648008e+01
6.647509e+01
6.646516e+01
6.644959e+01
6.642845e+01
6.640292e+01
6.637520e+01
6.634814e+01
6.632482e+01
6.630804e+01
6.629977e+01
6.630116e+01
6.631065e+01
6.632730e+01
6.634971e+01
6.637532e+01
6.640049e+01
6.642163e+01
6.643684e+01
6.644539e+01
6.644826e+01
6.644694e+01
6.644278e+01
6.643687e+01
6.642966e+01
6.642147e+01
6.641269e+01
6.640370e+01
6.639494e+01
6.638685e+01
6.637980e+01
6.637404e+01
6.636974e+01
6.636693e+01
6.636558e+01
6.636558e+01
6.636668e+01
6.636870e+01
6.637145e+01
6.637468e+01
6.637811e+01
6.638138e+01
6.638412e+01
6.638593e+01
6.638642e+01
6.638519e+01
6.638186e+01
6.637379e+01
6.637423e+01
6.675653e+01
6.675610e+01
6.672796e+01
6.669490e+01
6.665217e+01
6.659406e+01
6.651394e+01
6.640852e+01
6.626380e+01
6.614209e+01
6.605718e+01
6.600205e+01
6.596886e+01
6.595152e+01
6.594515e+01
6.594699e+01
6.595534e+01
6.596899e+01
6.598703e+01
6.600880e+01
6.603383e+01
6.606186e+01
6.609276e+01
6.612647e+01
6.616285e+01
6.620154e+01
6.624201e+01
6.628362e+01
6.632186e+01
6.634783e+01
6.635165e+01
6.633005e+01
6.629206e+01
6.624868e+01
6.621014e+01
6.618484e+01
6.617560e+01
6.617946e+01
6.619382e+01
6.621628e+01
6.624471e+01
6.627703e+01
6.631118e+01
6.634510e+01
6.637702e+01
6.640519e+01
6.642836e+01
6.644607e+01
6.645865e+01
6.646700e+01
6.647216e+01
6.647490e+01
6.647525e+01
6.647265e+01
6.646633e+01
6.645560e+01
6.643980e+01
6.641891e+01
6.639425e+01
6.636793e+01
6.634261e+01
6.632115e+01
6.630611e+01
6.629950e+01
6.630276e+01
6.631343e+01
6.633065e+01
6.635266e+01
6.637649e+01
6.639855e+01
6.641656e+01
6.642967e+01
6.643734e+01
6.644046e+01
6.644032e+01
6.643775e+01
6.643306e+01
6.642674e+01
6.641915e+01
6.641072e+01
6.640199e+01
6.639350e+01
6.638567e+01
6.637889e+01
6.637340e+01
6.636936e+01
6.636682e+01
6.636576e+01
6.636611e+01
6.636751e+01
6.636982e+01
6.637285e+01
6.637634e+01
6.637996e+01
6.638334e+01
6.638607e+01
6.638773e+01
6.638810e+01
6.638692e+01
6.638409e+01
6.637841e+01
6.637884e+01
6.675509e+01
6.675466e+01
6.673147e+01
6.670311e+01
6.666412e+01
6.660675e+01
6.652029e+01
6.639576e+01
6.620612e+01
6.607800e+01
6.600615e+01
6.596488e+01
6.594194e+01
6.593226e+01
6.593056e+01
6.593511e+01
6.594498e+01
6.595940e+01
6.597767e+01
6.599925e+01
6.602376e+01
6.605095e+01
6.608069e+01
6.611292e+01
6.614776e+01
6.618542e+01
6.622618e+01
6.627037e+01
6.631775e+01
6.635676e+01
6.637205e+01
6.635244e+01
6.630873e+01
6.625793e+01
6.621248e+01
6.618030e+01
6.616713e+01
6.616897e+01
6.618199e+01
6.620341e+01
6.623090e+01
6.626240e+01
6.629587e+01
6.632932e+01
6.636099e+01
6.638955e+01
6.641392e+01
6.643335e+01
6.644777e+01
6.645770e+01
6.646393e+01
6.646725e+01
6.646715e+01
6.646355e+01
6.645627e+01
6.644488e+01
6.642903e+01
6.640878e+01
6.638547e+01
6.636112e+01
6.633810e+01
6.631901e+01
6.630625e+01
6.630193e+01
6.630708e+01
6.631878e+01
6.633599e+01
6.635661e+01
6.637769e+01
6.639610e+01
6.641140e+01
6.642269e+01
6.642975e+01
6.643334e+01
6.643440e+01
6.643311e+01
6.642942e+01
6.642378e+01
6.641663e+01
6.640848e+01
6.640003e+01
6.639183e+01
6.638434e+01
6.637790e+01
6.637276e+01
6.636909e+01
6.636694e+01
6.636636e+01
6.636715e+01
6.636898e+01
6.637170e+01
6.637508e+01
6.637883e+01
6.638255e+01
6.638584e+01
6.638825e+01
6.638956e+01
6.638969e+01
6.638856e+01
6.638631e+01
6.638273e+01
6.638317e+01
6.675424e+01
6.675380e+01
6.673745e+01
6.671609e+01
6.668372e+01
6.662952e+01
6.653441e+01
6.637110e+01
6.610324e+01
6.598510e+01
6.593988e+01
6.591830e+01
6.590844e+01
6.590840e+01
6.591220e+01
6.591987e+01
6.593157e+01
6.594692e+01
6.596547e+01
6.598680e+01
6.601061e+01
6.603675e+01
6.606518e+01
6.609587e+01
6.612925e+01
6.616629e+01
6.620792e+01
6.625457e+01
6.630451e+01
6.635587e+01
6.638937e+01
6.638011e+01
6.633144e+01
6.626985e+01
6.621569e+01
6.617782e+01
6.615899e+01
6.615928e+01
6.617047e+01
6.619019e+01
6.621617e+01
6.624641e+01
6.627893e+01
6.631174e+01
6.634300e+01
6.637174e+01
6.639710e+01
6.641807e+01
6.643425e+01
6.644586e+01
6.645350e+01
6.645783e+01
6.645777e+01
6.645329e+01
6.644502e+01
6.643322e+01
6.641782e+01
6.639890e+01
6.637769e+01
6.635603e+01
6.633596e+01
6.631979e+01
6.630978e+01
6.630812e+01
6.631470e+01
6.632680e+01
6.634306e+01
6.636132e+01
6.637889e+01
6.639392e+01
6.640668e+01
6.641629e+01
6.642283e+01
6.642684e+01
6.642889e+01
6.642855e+01
6.642562e+01
6.642055e+01
6.641384e+01
6.640605e+01
6.639796e+01
6.639018e+01
6.638313e+01
6.637715e+01
6.637249e+01
6.636929e+01
6.636768e+01
6.636774e+01
6.636906e+01
6.637138e+01
6.637452e+01
6.637816e+01
6.638195e+01
6.638545e+01
6.638823e+01
6.639004e+01
6.639091e+01
6.639077e+01
6.638973e+01
6.638804e+01
6.638586e+01
6.638630e+01
6.675443e+01
6.675400e+01
6.674627e+01
6.673472e+01
6.671380e+01
6.667021e+01
6.657134e+01
6.633863e+01
6.592360e+01
6.585607e+01
6.586445e+01
6.586906e+01
6.587264e+01
6.588187e+01
6.589108e+01
6.590186e+01
6.591559e+01
6.593208e+01
6.595101e+01
6.597205e+01
6.599498e+01
6.601978e+01
6.604667e+01
6.607585e+01
6.610757e+01
6.614357e+01
6.618561e+01
6.623522e+01
6.628821e+01
6.633890e+01
6.637642e+01
6.637547e+01
6.634068e+01
6.628201e+01
6.622543e+01
6.618418e+01
6.616159e+01
6.615750e+01
6.616689e+01
6.618385e+01
6.620692e+01
6.623455e+01
6.626497e+01
6.629621e+01
6.632632e+01
6.635433e+01
6.638006e+01
6.640220e+01
6.641999e+01
6.643326e+01
6.644214e+01
6.644696e+01
6.644636e+01
6.644074e+01
6.643176e+01
6.642025e+01
6.640630e+01
6.638979e+01
6.637175e+01
6.635365e+01
6.633721e+01
6.632447e+01
6.631751e+01
6.631833e+01
6.632557e+01
6.633704e+01
6.635129e+01
6.636631e+01
6.637998e+01
6.639196e+01
6.640218e+01
6.641022e+01
6.641622e+01
6.642047e+01
6.642320e+01
6.642351e+01
6.642119e+01
6.641669e+01
6.641055e+01
6.640335e+01
6.639588e+01
6.638876e+01
6.638237e+01
6.637704e+01
6.637300e+01
6.637045e+01
6.636957e+01
6.637032e+01
6.637218e+01
6.637492e+01
6.637827e+01
6.638184e+01
6.638524e+01
6.638804e+01
6.638997e+01
6.639116e+01
6.639157e+01
6.639126e+01
6.639037e+01
6.638915e+01
6.638775e+01
6.638819e+01
6.675586e+01
6.675543e+01
6.675752e+01
6.675838e+01
6.675549e+01
6.673880e+01
6.667105e+01
6.640422e+01
6.560327e+01
6.568724e+01
6.580328e+01
6.583373e+01
6.584515e+01
6.585619e+01
6.586938e+01
6.588240e+01
6.589837e+01
6.591622e+01
6.593563e+01
6.595629e+01
6.597799e+01
6.600083e+01
6.602533e+01
6.605197e+01
6.608076e+01
6.611132e+01
6.614312e+01
6.617945e+01
6.622057e+01
6.628403e+01
6.631912e+01
6.631075e+01
6.629165e+01
6.626879e+01
6.623725e+01
6.620582e+01
6.618230e+01
6.617281e+01
6.617706e+01
6.619036e+01
6.620887e+01
6.623205e+01
6.625854e+01
6.628654e+01
6.631409e+01
6.633974e+01
6.636434e+01
6.638647e+01
6.640503e+01
6.641919e+01
6.642844e+01
6.643279e+01
6.643088e+01
6.642442e+01
6.641578e+01
6.640592e+01
6.639483e+01
6.638209e+01
6.636835e+01
6.635463e+01
6.634238e+01
6.633338e+01
6.632946e+01
6.633207e+01
6.633887e+01
6.634860e+01
6.635987e+01
6.637110e+01
6.638090e+01
6.638983e+01
6.639759e+01
6.640410e+01
6.640942e+01
6.641359e+01
6.641659e+01
6.641728e+01
6.641554e+01
6.641180e+01
6.640657e+01
6.640037e+01
6.639394e+01
6.638786e+01
6.638245e+01
6.637801e+01
6.637481e+01
6.637308e+01
6.637308e+01
6.637441e+01
6.637665e+01
6.637950e+01
6.638262e+01
6.638562e+01
6.638813e+01
6.638987e+01
6.639101e+01
6.639159e+01
6.639163e+01
6.639124e+01
6.639053e+01
6.638967e+01
6.638872e+01
6.638916e+01
6.675825e+01
6.675781e+01
6.676949e+01
6.678341e+01
6.680239e+01
6.682880e+01
6.685917e+01
6.695880e+01
6.628147e+01
6.576616e+01
6.584421e+01
6.583711e+01
6.584036e+01
6.584568e+01
6.585521e+01
6.586883e+01
6.588767e+01
6.590638e+01
6.592555e+01
6.594485e+01
6.596375e+01
6.598206e+01
6.600019e+01
6.601889e+01
6.603863e+01
6.605994e+01
6.608102e+01
6.611019e+01
6.614728e+01
6.618844e+01
6.621159e+01
6.622504e+01
6.623401e+01
6.624252e+01
6.624629e+01
6.623753e+01
6.621971e+01
6.620608e+01
6.620305e+01
6.621033e+01
6.622283e+01
6.624004e+01
6.626094e+01
6.628395e+01
6.630726e+01
6.632896e+01
6.635042e+01
6.637063e+01
6.638806e+01
6.640124e+01
6.640923e+01
6.641214e+01
6.640922e+01
6.640353e+01
6.639716e+01
6.639080e+01
6.638417e+01
6.637654e+01
6.636807e+01
6.635933e+01
6.635156e+01
6.634627e+01
6.634491e+01
6.634790e+01
6.635340e+01
6.636048e+01
6.636812e+01
6.637530e+01
6.638152e+01
6.638732e+01
6.639265e+01
6.639749e+01
6.640179e+01
6.640541e+01
6.640821e+01
6.640912e+01
6.640814e+01
6.640558e+01
6.640181e+01
6.639722e+01
6.639241e+01
6.638785e+01
6.638381e+01
6.638058e+01
6.637844e+01
6.637769e+01
6.637843e+01
6.638007e+01
6.638229e+01
6.638474e+01
6.638709e+01
6.638903e+01
6.639034e+01
6.639110e+01
6.639145e+01
6.639148e+01
6.639124e+01
6.639080e+01
6.639022e+01
6.638959e+01
6.638897e+01
6.638940e+01
6.676091e+01
6.676047e+01
6.677959e+01
6.680353e+01
6.683869e+01
6.689555e+01
6.699137e+01
6.712550e+01
6.715569e+01
0.000000e+00
6.584161e+01
6.584117e+01
6.584449e+01
6.585516e+01
6.586046e+01
6.587231e+01
6.589133e+01
6.591097e+01
6.592976e+01
6.594740e+01
6.596322e+01
6.597689e+01
6.598879e+01
6.599984e+01
6.601077e+01
6.601938e+01
6.602661e+01
6.603684e+01
6.605760e+01
6.609053e+01
6.613117e+01
6.616986e+01
6.620304e+01
6.623213e+01
6.625816e+01
6.627151e+01
6.626730e+01
6.625282e+01
6.624266e+01
6.624177e+01
6.624736e+01
6.625748e+01
6.627146e+01
6.628793e+01
6.630523e+01
6.632153e+01
6.633739e+01
6.635299e+01
6.636651e+01
6.637614e+01
6.638123e+01
6.638244e+01
6.638066e+01
6.637843e+01
6.637691e+01
6.637611e+01
6.637543e+01
6.637398e+01
6.637133e+01
6.636776e+01
6.636433e+01
6.636222e+01
6.636237e+01
6.636474e+01
6.636814e+01
6.637197e+01
6.637570e+01
6.637890e+01
6.638162e+01
6.638429e+01
6.638704e+01
6.638985e+01
6.639261e+01
6.639514e+01
6.639730e+01
6.639850e+01
6.639869e+01
6.639794e+01
6.639637e+01
6.639414e+01
6.639162e+01
6.638913e+01
6.638689e+01
6.638518e+01
6.638428e+01
6.638441e+01
6.638549e+01
6.638702e+01
6.638869e+01
6.639021e+01
6.639136e+01
6.639198e+01
6.639209e+01
6.639188e+01
6.639147e+01
6.639097e+01
6.639043e+01
6.638988e+01
6.638933e+01
6.638883e+01
6.638850e+01
6.638894e+01
6.676314e+01
6.676271e+01
6.678581e+01
6.681428e+01
6.685429e+01
6.691381e+01
6.699906e+01
6.710177e+01
6.718500e+01
6.718544e+01
0.000000e+00
6.588310e+01
6.588266e+01
6.588623e+01
6.589356e+01
6.590378e+01
6.592120e+01
6.593989e+01
6.595780e+01
6.597383e+01
6.598706e+01
6.599681e+01
6.600280e+01
6.600433e+01
6.600093e+01
6.599361e+01
6.598364e+01
6.597371e+01
6.597771e+01
6.601730e+01
6.607777e+01
6.613950e+01
6.619264e+01
6.623554e+01
6.627220e+01
6.630143e+01
6.631194e+01
6.630547e+01
6.629136e+01
6.628273e+01
6.628054e+01
6.628289e+01
6.628901e+01
6.629765e+01
6.630725e+01
6.631600e+01
6.632394e+01
6.633197e+01
6.633825e+01
6.634154e+01
6.634255e+01
6.634334e+01
6.634643e+01
6.635157e+01
6.635775e+01
6.636415e+01
6.637012e+01
6.637489e+01
6.637802e+01
6.637948e+01
6.637985e+01
6.638010e+01
6.638071e+01
6.638169e+01
6.638248e+01
6.638280e+01
6.638258e+01
6.638195e+01
6.638116e+01
6.638057e+01
6.638039e+01
6.638065e+01
6.638127e+01
6.638218e+01
6.638340e+01
6.638512e+01
6.638708e+01
6.638897e+01
6.639050e+01
6.639148e+01
6.639196e+01
6.639206e+01
6.639199e+01
6.639201e+01
6.639233e+01
6.639300e+01
6.639397e+01
6.639490e+01
6.639553e+01
6.639571e+01
6.639538e+01
6.639467e+01
6.639365e+01
6.639248e+01
6.639130e+01
6.639020e+01
6.638924e+01
6.638844e+01
6.638781e+01
6.638740e+01
6.638734e+01
6.638778e+01
6.676455e+01
6.676411e+01
6.678768e+01
6.681572e+01
6.685257e+01
6.690254e+01
6.696887e+01
6.703395e+01
6.706075e+01
6.684085e+01
6.684129e+01
0.000000e+00
6.590387e+01
6.592421e+01
6.592560e+01
6.594235e+01
6.596626e+01
6.598584e+01
6.600138e+01
6.601302e+01
6.602035e+01
6.602261e+01
6.601989e+01
6.601148e+01
6.599842e+01
6.597865e+01
6.595033e+01
6.591891e+01
6.592093e+01
6.597410e+01
6.605196e+01
6.613152e+01
6.619974e+01
6.625059e+01
6.629092e+01
6.632582e+01
6.634920e+01
6.635371e+01
6.634353e+01
6.632947e+01
6.632030e+01
6.631506e+01
6.631303e+01
6.631291e+01
6.631319e+01
6.631224e+01
6.631012e+01
6.630691e+01
6.630252e+01
6.629858e+01
6.629670e+01
6.630134e+01
6.631254e+01
6.632715e+01
6.634239e+01
6.635660e+01
6.636890e+01
6.637909e+01
6.638706e+01
6.639267e+01
6.639612e+01
6.639779e+01
6.639787e+01
6.639695e+01
6.639497e+01
6.639203e+01
6.638839e+01
6.638445e+01
6.638039e+01
6.637649e+01
6.637306e+01
6.637028e+01
6.636828e+01
6.636713e+01
6.636731e+01
6.636983e+01
6.637415e+01
6.637942e+01
6.638481e+01
6.638966e+01
6.639356e+01
6.639659e+01
6.639889e+01
6.640064e+01
6.640191e+01
6.640256e+01
6.640289e+01
6.640275e+01
6.640206e+01
6.640083e+01
6.639918e+01
6.639730e+01
6.639529e+01
6.639323e+01
6.639126e+01
6.638951e+01
6.638803e+01
6.638688e+01
6.638609e+01
6.638568e+01
6.638586e+01
6.638630e+01
6.676510e+01
6.676466e+01
6.678588e+01
6.681002e+01
6.683958e+01
6.687566e+01
6.691128e+01
6.692465e+01
6.686888e+01
6.676118e+01
6.637282e+01
6.606961e+01
6.589727e+01
6.592886e+01
6.593909e+01
6.596692e+01
6.599941e+01
6.602021e+01
6.603242e+01
6.604135e+01
6.604591e+01
6.604418e+01
6.603557e+01
6.602035e+01
6.600002e+01
6.596733e+01
6.592036e+01
6.588025e+01
6.589694e+01
6.596345e+01
6.605317e+01
6.614297e+01
6.621635e+01
6.627192e+01
6.631412e+01
6.634857e+01
6.637748e+01
6.639335e+01
6.639207e+01
6.637949e+01
6.636515e+01
6.635340e+01
6.634359e+01
6.633427e+01
6.632391e+01
6.631178e+01
6.629765e+01
6.628236e+01
6.626773e+01
6.625616e+01
6.625188e+01
6.626264e+01
6.628343e+01
6.630833e+01
6.633282e+01
6.635423e+01
6.637178e+01
6.638613e+01
6.639758e+01
6.640604e+01
6.641138e+01
6.641353e+01
6.641285e+01
6.641023e+01
6.640590e+01
6.640020e+01
6.639362e+01
6.638673e+01
6.637963e+01
6.637253e+01
6.636585e+01
6.635996e+01
6.635520e+01
6.635183e+01
6.635098e+01
6.635448e+01
6.636143e+01
6.637043e+01
6.638002e+01
6.638890e+01
6.639623e+01
6.640202e+01
6.640644e+01
6.640957e+01
6.641141e+01
6.641176e+01
6.641135e+01
6.641019e+01
6.640832e+01
6.640587e+01
6.640305e+01
6.640012e+01
6.639718e+01
6.639425e+01
6.639147e+01
6.638899e+01
6.638691e+01
6.638533e+01
6.638430e+01
6.638385e+01
6.638422e+01
6.638466e+01
6.676501e+01
6.676457e+01
6.678157e+01
6.680003e+01
6.682009e+01
6.683913e+01
6.684803e+01
6.682684e+01
6.673961e+01
6.657572e+01
6.631622e+01
6.576553e+01
6.586480e+01
6.593603e+01
6.596462e+01
6.599215e+01
6.602108e+01
6.603682e+01
6.604962e+01
6.606022e+01
6.606439e+01
6.605988e+01
6.604721e+01
6.602751e+01
6.600122e+01
6.595688e+01
6.590009e+01
6.587431e+01
6.590648e+01
6.598246e+01
6.607686e+01
6.616642e+01
6.623786e+01
6.629324e+01
6.633568e+01
6.636861e+01
6.639631e+01
6.641866e+01
6.642838e+01
6.642377e+01
6.641064e+01
6.639482e+01
6.637743e+01
6.635805e+01
6.633661e+01
6.631432e+01
6.628889e+01
6.626221e+01
6.623751e+01
6.621805e+01
6.621456e+01
6.623247e+01
6.626301e+01
6.629756e+01
6.633016e+01
6.635694e+01
6.637828e+01
6.639532e+01
6.640877e+01
6.641875e+01
6.642500e+01
6.642717e+01
6.642590e+01
6.642199e+01
6.641583e+01
6.640788e+01
6.639877e+01
6.638920e+01
6.637929e+01
6.636914e+01
6.635932e+01
6.635038e+01
6.634290e+01
6.633734e+01
6.633567e+01
6.634030e+01
6.634998e+01
6.636276e+01
6.637656e+01
6.638927e+01
6.639969e+01
6.640784e+01
6.641391e+01
6.641803e+01
6.642019e+01
6.642028e+01
6.641926e+01
6.641730e+01
6.641450e+01
6.641105e+01
6.640722e+01
6.640330e+01
6.639948e+01
6.639567e+01
6.639206e+01
6.638880e+01
6.638606e+01
6.638398e+01
6.638267e+01
6.638215e+01
6.638266e+01
6.638310e+01
6.676459e+01
6.676415e+01
6.677613e+01
6.678805e+01
6.679853e+01
6.680381e+01
6.679561e+01
6.675946e+01
6.667359e+01
6.651954e+01
6.631038e+01
6.602225e+01
6.598359e+01
6.599422e+01
6.600589e+01
6.602084e+01
6.603780e+01
6.605086e+01
6.606206e+01
6.606786e+01
6.606692e+01
6.605945e+01
6.604641e+01
6.602819e+01
6.600119e+01
6.595287e+01
6.590751e+01
6.590234e+01
6.594600e+01
6.602384e+01
6.611437e+01
6.619600e+01
6.626209e+01
6.631401e+01
6.635445e+01
6.638566e+01
6.640934e+01
6.642807e+01
6.644189e+01
6.644614e+01
6.644034e+01
6.642601e+01
6.640487e+01
6.637864e+01
6.634924e+01
6.631889e+01
6.628387e+01
6.624745e+01
6.621398e+01
6.618804e+01
6.618895e+01
6.621462e+01
6.625385e+01
6.629623e+01
6.633415e+01
6.636427e+01
6.638771e+01
6.640592e+01
6.642000e+01
6.643034e+01
6.643676e+01
6.643881e+01
6.643724e+01
6.643257e+01
6.642516e+01
6.641553e+01
6.640434e+01
6.639238e+01
6.637990e+01
6.636691e+01
6.635412e+01
6.634231e+01
6.633230e+01
6.632482e+01
6.632267e+01
6.632852e+01
6.634083e+01
6.635710e+01
6.637470e+01
6.639070e+01
6.640365e+01
6.641359e+01
6.642081e+01
6.642553e+01
6.642789e+01
6.642789e+01
6.642652e+01
6.642404e+01
6.642061e+01
6.641645e+01
6.641181e+01
6.640700e+01
6.640231e+01
6.639766e+01
6.639319e+01
6.638913e+01
6.638568e+01
6.638307e+01
6.638145e+01
6.638085e+01
6.638156e+01
6.638200e+01
6.676412e+01
6.676368e+01
6.677043e+01
6.677615e+01
6.677872e+01
6.677444e+01
6.675694e+01
6.671682e+01
6.664199e+01
6.652042e+01
6.635454e+01
6.616542e+01
6.608724e+01
6.606071e+01
6.605197e+01
6.605238e+01
6.605748e+01
6.606345e+01
6.606750e+01
6.606769e+01
6.606339e+01
6.605509e+01
6.604404e+01
6.602796e+01
6.600243e+01
6.596519e+01
6.594140e+01
6.595223e+01
6.600066e+01
6.607377e+01
6.615425e+01
6.622597e+01
6.628540e+01
6.633284e+01
6.637013e+01
6.639929e+01
6.642202e+01
6.643912e+01
6.645096e+01
6.645660e+01
6.645427e+01
6.644303e+01
6.642261e+01
6.639421e+01
6.636062e+01
6.632461e+01
6.628246e+01
6.623861e+01
6.619847e+01
6.617156e+01
6.617832e+01
6.621104e+01
6.625670e+01
6.630395e+01
6.634407e+01
6.637538e+01
6.639923e+01
6.641728e+01
6.643087e+01
6.644068e+01
6.644672e+01
6.644861e+01
6.644701e+01
6.644207e+01
6.643407e+01
6.642342e+01
6.641070e+01
6.639672e+01
6.638196e+01
6.636638e+01
6.635085e+01
6.633640e+01
6.632418e+01
6.631524e+01
6.631298e+01
6.632010e+01
6.633472e+01
6.635392e+01
6.637457e+01
6.639308e+01
6.640789e+01
6.641902e+01
6.642688e+01
6.643190e+01
6.643436e+01
6.643444e+01
6.643297e+01
6.643029e+01
6.642655e+01
6.642197e+01
6.641679e+01
6.641127e+01
6.640576e+01
6.640030e+01
6.639499e+01
6.639011e+01
6.638593e+01
6.638275e+01
6.638081e+01
6.638018e+01
6.638126e+01
6.638169e+01
6.676363e+01
6.676319e+01
6.676522e+01
6.676571e+01
6.676232e+01
6.675179e+01
6.672947e+01
6.668934e+01
6.662454e+01
6.652819e+01
6.639903e+01
6.625483e+01
6.616701e+01
6.612047e+01
6.609554e+01
6.608311e+01
6.607774e+01
6.607558e+01
6.607338e+01
6.606917e+01
6.606234e+01
6.605324e+01
6.604192e+01
6.602709e+01
6.600626e+01
6.598421e+01
6.597832e+01
6.600086e+01
6.605117e+01
6.611831e+01
6.618873e+01
6.625214e+01
6.630546e+01
6.634868e+01
6.638314e+01
6.641049e+01
6.643191e+01
6.644732e+01
6.645709e+01
6.646130e+01
6.645947e+01
6.645007e+01
6.643163e+01
6.640410e+01
6.636968e+01
6.633078e+01
6.628452e+01
6.623639e+01
6.619325e+01
6.617074e+01
6.618335e+01
6.622117e+01
6.627016e+01
6.631873e+01
6.635847e+01
6.638909e+01
6.641196e+01
6.642882e+01
6.644117e+01
6.644989e+01
6.645518e+01
6.645692e+01
6.645537e+01
6.645056e+01
6.644255e+01
6.643154e+01
6.641794e+01
6.640246e+01
6.638576e+01
6.636785e+01
6.634983e+01
6.633300e+01
6.631891e+01
6.630904e+01
6.630708e+01
6.631542e+01
6.633195e+01
6.635335e+01
6.637612e+01
6.639628e+01
6.641225e+01
6.642404e+01
6.643215e+01
6.643720e+01
6.643968e+01
6.643991e+01
6.643853e+01
6.643587e+01
6.643208e+01
6.642735e+01
6.642189e+01
6.641592e+01
6.640974e+01
6.640356e+01
6.639746e+01
6.639177e+01
6.638685e+01
6.638308e+01
6.638080e+01
6.638017e+01
6.638193e+01
6.638237e+01
6.676325e+01
6.676281e+01
6.676096e+01
6.675736e+01
6.674967e+01
6.673514e+01
6.671028e+01
6.667102e+01
6.661318e+01
6.653295e+01
6.642950e+01
6.631452e+01
6.622696e+01
6.616896e+01
6.613246e+01
6.610997e+01
6.609615e+01
6.608707e+01
6.607970e+01
6.607193e+01
6.606288e+01
6.605248e+01
6.604047e+01
6.602647e+01
6.601097e+01
6.600114e+01
6.600818e+01
6.603863e+01
6.608976e+01
6.615217e+01
6.621557e+01
6.627291e+01
6.632152e+01
6.636132e+01
6.639341e+01
6.641916e+01
6.643930e+01
6.645369e+01
6.646255e+01
6.646613e+01
6.646409e+01
6.645526e+01
6.643808e+01
6.641174e+01
6.637745e+01
6.633683e+01
6.628873e+01
6.623929e+01
6.619768e+01
6.618210e+01
6.619994e+01
6.624065e+01
6.629024e+01
6.633714e+01
6.637506e+01
6.640385e+01
6.642493e+01
6.644004e+01
6.645077e+01
6.645815e+01
6.646260e+01
6.646408e+01
6.646263e+01
6.645815e+01
6.645051e+01
6.643967e+01
6.642579e+01
6.640936e+01
6.639111e+01
6.637121e+01
6.635095e+01
6.633198e+01
6.631630e+01
6.630599e+01
6.630466e+01
6.631415e+01
6.633216e+01
6.635504e+01
6.637902e+01
6.640006e+01
6.641663e+01
6.642869e+01
6.643680e+01
6.644171e+01
6.644410e+01
6.644445e+01
6.644323e+01
6.644070e+01
6.643701e+01
6.643232e+01
6.642678e+01
6.642059e+01
6.641396e+01
6.640719e+01
6.640039e+01
6.639394e+01
6.638829e+01
6.638392e+01
6.638128e+01
6.638066e+01
6.638340e+01
6.638384e+01
6.676301e+01
6.676257e+01
6.675781e+01
6.675124e+01
6.674062e+01
6.672357e+01
6.669734e+01
6.665894e+01
6.660556e+01
6.653505e+01
6.644759e+01
6.635123e+01
6.626827e+01
6.620563e+01
6.616148e+01
6.613145e+01
6.611114e+01
6.609682e+01
6.608544e+01
6.607487e+01
6.606394e+01
6.605218e+01
6.603945e+01
6.602631e+01
6.601551e+01
6.601415e+01
6.603006e+01
6.606580e+01
6.611712e+01
6.617604e+01
6.623474e+01
6.628791e+01
6.633325e+01
6.637066e+01
6.640105e+01
6.642550e+01
6.644469e+01
6.645874e+01
6.646775e+01
6.647179e+01
6.647032e+01
6.646222e+01
6.644598e+01
6.642038e+01
6.638565e+01
6.634287e+01
6.629300e+01
6.624336e+01
6.620599e+01
6.619752e+01
6.621985e+01
6.626215e+01
6.631082e+01
6.635535e+01
6.639110e+01
6.641771e+01
6.643653e+01
6.644961e+01
6.645867e+01
6.646491e+01
6.646890e+01
6.647029e+01
6.646900e+01
6.646492e+01
6.645780e+01
6.644742e+01
6.643370e+01
6.641681e+01
6.639739e+01
6.637582e+01
6.635357e+01
6.633265e+01
6.631559e+01
6.630512e+01
6.630461e+01
6.631514e+01
6.633426e+01
6.635807e+01
6.638258e+01
6.640400e+01
6.642084e+01
6.643299e+01
6.644104e+01
6.644576e+01
6.644796e+01
6.644832e+01
6.644721e+01
6.644478e+01
6.644121e+01
6.643662e+01
6.643113e+01
6.642486e+01
6.641798e+01
6.641074e+01
6.640337e+01
6.639625e+01
6.638992e+01
6.638496e+01
6.638195e+01
6.638131e+01
6.638511e+01
6.638555e+01
6.676289e+01
6.676246e+01
6.675575e+01
6.674727e+01
6.673485e+01
6.671634e+01
6.668942e+01
6.665170e+01
6.660104e+01
6.653613e+01
6.645777e+01
6.637220e+01
6.629350e+01
6.622939e+01
6.618110e+01
6.614638e+01
6.612179e+01
6.610390e+01
6.608977e+01
6.607724e+01
6.606490e+01
6.605208e+01
6.603880e+01
6.602652e+01
6.601935e+01
6.602363e+01
6.604466e+01
6.608298e+01
6.613410e+01
6.619092e+01
6.624682e+01
6.629742e+01
6.634069e+01
6.637653e+01
6.640575e+01
6.642937e+01
6.644813e+01
6.646237e+01
6.647199e+01
6.647689e+01
6.647645e+01
6.646947e+01
6.645434e+01
6.642948e+01
6.639408e+01
6.634864e+01
6.629612e+01
6.624600e+01
6.621298e+01
6.620987e+01
6.623555e+01
6.627885e+01
6.632654e+01
6.636922e+01
6.640303e+01
6.642775e+01
6.644489e+01
6.645644e+01
6.646422e+01
6.646953e+01
6.647314e+01
6.647453e+01
6.647366e+01
6.647025e+01
6.646388e+01
6.645413e+01
6.644075e+01
6.642375e+01
6.640350e+01
6.638062e+01
6.635665e+01
6.633396e+01
6.631564e+01
6.630510e+01
6.630532e+01
6.631667e+01
6.633657e+01
6.636097e+01
6.638570e+01
6.640735e+01
6.642442e+01
6.643668e+01
6.644459e+01
6.644907e+01
6.645104e+01
6.645130e+01
6.645023e+01
6.644787e+01
6.644440e+01
6.643993e+01
6.643454e+01
6.642829e+01
6.642130e+01
6.641374e+01
6.640591e+01
6.639825e+01
6.639132e+01
6.638583e+01
6.638246e+01
6.638172e+01
6.638626e+01
6.638670e+01
6.676286e+01
6.676242e+01
6.675475e+01
6.674534e+01
6.673209e+01
6.671296e+01
6.668584e+01
6.664858e+01
6.659934e+01
6.653711e+01
6.646296e+01
6.638231e+01
6.630588e+01
6.624134e+01
6.619117e+01
6.615417e+01
6.612741e+01
6.610769e+01
6.609215e+01
6.607857e+01
6.606548e+01
6.605208e+01
6.603859e+01
6.602699e+01
6.602174e+01
6.602858e+01
6.605161e+01
6.609069e+01
6.614139e+01
6.619708e+01
6.625168e+01
6.630120e+01
6.634368e+01
6.637894e+01
6.640772e+01
6.643099e+01
6.644952e+01
6.646378e+01
6.647389e+01
6.647958e+01
6.648013e+01
6.647426e+01
6.646031e+01
6.643642e+01
6.640086e+01
6.635316e+01
6.629755e+01
6.624616e+01
6.621558e+01
6.621557e+01
6.624311e+01
6.628668e+01
6.633352e+01
6.637523e+01
6.640827e+01
6.643236e+01
6.644894e+01
6.645994e+01
6.646721e+01
6.647208e+01
6.647523e+01
6.647663e+01
6.647611e+01
6.647326e+01
6.646753e+01
6.645840e+01
6.644551e+01
6.642869e+01
6.640805e+01
6.638431e+01
6.635900e+01
6.633473e+01
6.631518e+01
6.630431e+01
6.630486e+01
6.631674e+01
6.633724e+01
6.636207e+01
6.638689e+01
6.640863e+01
6.642581e+01
6.643816e+01
6.644617e+01
6.645070e+01
6.645270e+01
6.645292e+01
6.645178e+01
6.644945e+01
6.644608e+01
6.644174e+01
6.643647e+01
6.643031e+01
6.642334e+01
6.641567e+01
6.640762e+01
6.639962e+01
6.639230e+01
6.638643e+01
6.638277e+01
6.638195e+01
6.638637e+01
6.638681e+01
0.000000e+00
6.676286e+01
6.675519e+01
6.674578e+01
6.673252e+01
6.671340e+01
6.668628e+01
6.664902e+01
6.659977e+01
6.653755e+01
6.646340e+01
6.638275e+01
6.630632e+01
6.624178e+01
6.619161e+01
6.615460e+01
6.612785e+01
6.610813e+01
6.609258e+01
6.607901e+01
6.606591e+01
6.605252e+01
6.603903e+01
6.602743e+01
6.602218e+01
6.602902e+01
6.605205e+01
6.609113e+01
6.614183e+01
6.619752e+01
6.625212e+01
6.630164e+01
6.634412e+01
6.637938e+01
6.640816e+01
6.643143e+01
6.644996e+01
6.646422e+01
6.647432e+01
6.648002e+01
6.648057e+01
6.647470e+01
6.646075e+01
6.643686e+01
6.640130e+01
6.635360e+01
6.629799e+01
6.624660e+01
6.621602e+01
6.621601e+01
6.624355e+01
6.628712e+01
6.633395e+01
6.637566e+01
6.640870e+01
6.643280e+01
6.644938e+01
6.646038e+01
6.646765e+01
6.647252e+01
6.647567e+01