# vtk DataFile Version 3.0
Scalar Field
ASCII
DATASET RECTILINEAR_GRID
DIMENSIONS 102 22 1
X_COORDINATES 102 double
0.000000 0.100000 0.200000 0.300000 0.400000 0.500000 0.600000 0.700000 0.800000 0.900000 1.000000 1.100000 1.200000 1.300000 1.400000 1.500000 1.600000 1.700000 1.800000 1.900000 2.000000 2.100000 2.200000 2.300000 2.400000 2.500000 2.600000 2.700000 2.800000 2.900000 3.000000 3.100000 3.200000 3.300000 3.400000 3.500000 3.600000 3.700000 3.800000 3.900000 4.000000 4.100000 4.200000 4.300000 4.400000 4.500000 4.600000 4.700000 4.800000 4.900000 5.000000 5.100000 5.200000 5.300000 5.400000 5.500000 5.600000 5.700000 5.800000 5.900000 6.000000 6.100000 6.200000 6.300000 6.400000 6.500000 6.600000 6.700000 6.800000 6.900000 7.000000 7.100000 7.200000 7.300000 7.400000 7.500000 7.600000 7.700000 7.800000 7.900000 8.000000 8.100000 8.200000 8.300000 8.400000 8.500000 8.600000 8.700000 8.800000 8.900000 9.000000 9.100000 9.200000 9.300000 9.400000 9.500000 9.600000 9.700000 9.800000 9.900000 10.000000 10.100000 
Y_COORDINATES 22 double
0.000000 0.100000 0.200000 0.300000 0.400000 0.500000 0.600000 0.700000 0.800000 0.900000 1.000000 1.100000 1.200000 1.300000 1.400000 1.500000 1.600000 1.700000 1.800000 1.900000 2.000000 2.100000 
Z_COORDINATES 1 double
0.0
POINT_DATA 2244
SCALARS Pressure double 1
LOOKUP_TABLE default
0.000000e+00
3.635491e+01
3.632336e+01
3.628717e+01
3.624261e+01
3.618586e+01
3.611335e+01
3.602396e+01
3.591785e+01
3.581599e+01
3.573449e+01
3.567783e+01
3.564336e+01
3.562611e+01
3.562153e+01
3.562612e+01
3.563749e+01
3.565401e+01
3.567465e+01
3.569865e+01
3.572512e+01
3.575251e+01
3.577835e+01
3.579931e+01
3.581232e+01
3.581654e+01
3.581408e+01
3.580848e+01
3.580290e+01
3.579936e+01
3.579898e+01
3.580247e+01
3.581054e+01
3.582392e+01
3.584299e+01
3.586771e+01
3.589744e+01
3.593098e+01
3.596676e+01
3.600298e+01
3.603782e+01
3.606949e+01
3.609651e+01
3.611809e+01
3.613436e+01
3.614619e+01
3.615475e+01
3.616128e+01
3.616684e+01
3.617028e+01
3.616965e+01
3.616262e+01
3.614717e+01
3.612243e+01
3.608967e+01
3.605210e+01
3.601456e+01
3.598260e+01
3.596122e+01
3.595343e+01
3.595902e+01
3.597588e+01
3.600238e+01
3.603561e+01
3.607111e+01
3.610336e+01
3.612755e+01
3.614150e+01
3.614702e+01
3.614736e+01
3.614508e+01
3.614172e+01
3.613809e+01
3.613372e+01
3.612817e+01
3.612126e+01
3.611297e+01
3.610345e+01
3.609300e+01
3.608204e+01
3.607106e+01
3.606062e+01
3.605126e+01
3.604347e+01
3.603764e+01
3.603396e+01
3.603245e+01
3.603293e+01
3.603519e+01
3.603907e+01
3.604433e+01
3.605062e+01
3.605745e+01
3.606415e+01
3.606991e+01
3.607386e+01
3.607525e+01
3.607367e+01
3.606905e+01
3.606142e+01
3.604772e+01
0.000000e+00
3.635491e+01
3.635463e+01
3.632308e+01
3.628689e+01
3.624233e+01
3.618558e+01
3.611306e+01
3.602368e+01
3.591757e+01
3.581570e+01
3.573421e+01
3.567755e+01
3.564308e+01
3.562583e+01
3.562125e+01
3.562584e+01
3.563720e+01
3.565373e+01
3.567437e+01
3.569837e+01
3.572484e+01
3.575223e+01
3.577807e+01
3.579903e+01
3.581203e+01
3.581626e+01
3.581380e+01
3.580819e+01
3.580261e+01
3.579908e+01
3.579870e+01
3.580218e+01
3.581026e+01
3.582363e+01
3.584271e+01
3.586742e+01
3.589715e+01
3.593070e+01
3.596648e+01
3.600270e+01
3.603753e+01
3.606921e+01
3.609623e+01
3.611781e+01
3.613407e+01
3.614591e+01
3.615447e+01
3.616100e+01
3.616656e+01
3.616999e+01
3.616937e+01
3.616234e+01
3.614688e+01
3.612214e+01
3.608938e+01
3.605182e+01
3.601427e+01
3.598232e+01
3.596093e+01
3.595314e+01
3.595874e+01
3.597560e+01
3.600210e+01
3.603532e+01
3.607082e+01
3.610308e+01
3.612726e+01
3.614122e+01
3.614674e+01
3.614708e+01
3.614480e+01
3.614143e+01
3.613781e+01
3.613343e+01
3.612789e+01
3.612098e+01
3.611268e+01
3.610316e+01
3.609271e+01
3.608175e+01
3.607077e+01
3.606033e+01
3.605097e+01
3.604319e+01
3.603735e+01
3.603367e+01
3.603217e+01
3.603264e+01
3.603491e+01
3.603879e+01
3.604405e+01
3.605034e+01
3.605716e+01
3.606386e+01
3.606962e+01
3.607357e+01
3.607496e+01
3.607339e+01
3.606876e+01
3.606113e+01
3.604743e+01
3.604772e+01
3.635438e+01
3.635409e+01
3.632403e+01
3.628907e+01
3.624524e+01
3.618824e+01
3.611376e+01
3.602042e+01
3.590460e+01
3.579815e+01
3.571762e+01
3.566421e+01
3.563310e+01
3.561846e+01
3.561561e+01
3.562128e+01
3.563325e+01
3.564999e+01
3.567054e+01
3.569421e+01
3.572039e+01
3.574806e+01
3.577519e+01
3.579830e+01
3.581376e+01
3.581992e+01
3.581835e+01
3.581260e+01
3.580606e+01
3.580125e+01
3.579980e+01
3.580234e+01
3.580952e+01
3.582205e+01
3.584036e+01
3.586440e+01
3.589357e+01
3.592667e+01
3.596211e+01
3.599807e+01
3.603279e+01
3.606463e+01
3.609197e+01
3.611400e+01
3.613072e+01
3.614287e+01
3.615160e+01
3.615778e+01
3.616225e+01
3.616406e+01
3.616164e+01
3.615306e+01
3.613684e+01
3.611223e+01
3.608034e+01
3.604435e+01
3.600880e+01
3.597887e+01
3.595918e+01
3.595283e+01
3.595973e+01
3.597736e+01
3.600401e+01
3.603625e+01
3.606915e+01
3.609776e+01
3.611937e+01
3.613290e+01
3.613943e+01
3.614127e+01
3.614051e+01
3.613835e+01
3.613529e+01
3.613115e+01
3.612570e+01
3.611885e+01
3.611066e+01
3.610130e+01
3.609108e+01
3.608041e+01
3.606976e+01
3.605967e+01
3.605064e+01
3.604315e+01
3.603754e+01
3.603402e+01
3.603271e+01
3.603344e+01
3.603593e+01
3.604005e+01
3.604555e+01
3.605201e+01
3.605884e+01
3.606527e+01
3.607048e+01
3.607378e+01
3.607462e+01
3.607274e+01
3.606818e+01
3.606110e+01
3.604921e+01
3.604949e+01
3.635395e+01
3.635367e+01
3.632671e+01
3.629453e+01
3.625267e+01
3.619568e+01
3.611735e+01
3.601486e+01
3.587560e+01
3.576048e+01
3.568367e+01
3.563782e+01
3.561381e+01
3.560441e+01
3.560488e+01
3.561255e+01
3.562562e+01
3.564282e+01
3.566322e+01
3.568624e+01
3.571163e+01
3.573925e+01
3.576858e+01
3.579622e+01
3.581714e+01
3.582722e+01
3.582741e+01
3.582166e+01
3.581368e+01
3.580641e+01
3.580246e+01
3.580305e+01
3.580841e+01
3.581924e+01
3.583599e+01
3.585856e+01
3.588632e+01
3.591819e+01
3.595266e+01
3.598794e+01
3.602231e+01
3.605423e+01
3.608218e+01
3.610521e+01
3.612306e+01
3.613618e+01
3.614548e+01
3.615180e+01
3.615534e+01
3.615537e+01
3.615098e+01
3.614104e+01
3.612420e+01
3.609982e+01
3.606905e+01
3.603513e+01
3.600219e+01
3.597495e+01
3.595768e+01
3.595355e+01
3.596200e+01
3.598004e+01
3.600566e+01
3.603522e+01
3.606413e+01
3.608859e+01
3.610781e+01
3.612077e+01
3.612841e+01
3.613227e+01
3.613356e+01
3.613311e+01
3.613104e+01
3.612743e+01
3.612231e+01
3.611574e+01
3.610781e+01
3.609871e+01
3.608881e+01
3.607853e+01
3.606832e+01
3.605868e+01
3.605010e+01
3.604301e+01
3.603776e+01
3.603460e+01
3.603371e+01
3.603489e+01
3.603777e+01
3.604222e+01
3.604794e+01
3.605444e+01
3.606102e+01
3.606684e+01
3.607111e+01
3.607346e+01
3.607358e+01
3.607142e+01
3.606713e+01
3.606098e+01
3.605110e+01
3.605138e+01
3.635404e+01
3.635376e+01
3.633163e+01
3.630407e+01
3.626588e+01
3.620959e+01
3.612492e+01
3.600351e+01
3.581902e+01
3.569576e+01
3.563120e+01
3.559958e+01
3.558676e+01
3.558482e+01
3.558975e+01
3.560007e+01
3.561469e+01
3.563260e+01
3.565297e+01
3.567535e+01
3.569976e+01
3.572683e+01
3.575756e+01
3.579116e+01
3.582062e+01
3.583788e+01
3.584108e+01
3.583556e+01
3.582597e+01
3.581549e+01
3.580703e+01
3.580425e+01
3.580674e+01
3.581497e+01
3.582943e+01
3.584994e+01
3.587585e+01
3.590615e+01
3.593937e+01
3.597379e+01
3.600763e+01
3.603939e+01
3.606790e+01
3.609209e+01
3.611140e+01
3.612591e+01
3.613624e+01
3.614312e+01
3.614631e+01
3.614503e+01
3.613903e+01
3.612778e+01
3.611057e+01
3.608697e+01
3.605808e+01
3.602703e+01
3.599748e+01
3.597360e+01
3.595933e+01
3.595781e+01
3.596753e+01
3.598534e+01
3.600903e+01
3.603510e+01
3.605967e+01
3.608056e+01
3.609760e+01
3.610992e+01
3.611808e+01
3.612312e+01
3.612596e+01
3.612707e+01
3.612600e+01
3.612299e+01
3.611824e+01
3.611195e+01
3.610432e+01
3.609558e+01
3.608614e+01
3.607642e+01
3.606684e+01
3.605785e+01
3.604989e+01
3.604337e+01
3.603866e+01
3.603605e+01
3.603585e+01
3.603760e+01
3.604097e+01
3.604577e+01
3.605159e+01
3.605785e+01
3.606376e+01
3.606856e+01
3.607165e+01
3.607307e+01
3.607264e+01
3.607044e+01
3.606668e+01
3.606161e+01
3.605373e+01
3.605401e+01
3.635511e+01
3.635483e+01
3.633938e+01
3.631871e+01
3.628704e+01
3.623387e+01
3.614062e+01
3.598073e+01
3.571645e+01
3.560095e+01
3.556207e+01
3.555126e+01
3.555336e+01
3.556054e+01
3.557076e+01
3.558426e+01
3.560081e+01
3.561980e+01
3.564045e+01
3.566244e+01
3.568612e+01
3.571255e+01
3.574320e+01
3.577878e+01
3.581858e+01
3.584811e+01
3.585909e+01
3.585474e+01
3.584352e+01
3.582964e+01
3.581610e+01
3.580648e+01
3.580540e+01
3.581000e+01
3.582173e+01
3.583984e+01
3.586355e+01
3.589193e+01
3.592363e+01
3.595698e+01
3.599019e+01
3.602160e+01
3.605058e+01
3.607593e+01
3.609683e+01
3.611308e+01
3.612495e+01
3.613285e+01
3.613623e+01
3.613350e+01
3.612573e+01
3.611347e+01
3.609657e+01
3.607471e+01
3.604877e+01
3.602158e+01
3.599624e+01
3.597636e+01
3.596549e+01
3.596648e+01
3.597676e+01
3.599351e+01
3.601451e+01
3.603669e+01
3.605699e+01
3.607466e+01
3.608947e+01
3.610084e+01
3.610910e+01
3.611487e+01
3.611870e+01
3.612086e+01
3.612045e+01
3.611786e+01
3.611341e+01
3.610744e+01
3.610023e+01
3.609205e+01
3.608327e+01
3.607435e+01
3.606564e+01
3.605752e+01
3.605040e+01
3.604467e+01
3.604071e+01
3.603889e+01
3.603959e+01
3.604195e+01
3.604576e+01
3.605072e+01
3.605632e+01
3.606190e+01
3.606674e+01
3.607020e+01
3.607223e+01
3.607286e+01
3.607206e+01
3.606999e+01
3.606685e+01
3.606281e+01
3.605671e+01
3.605700e+01
3.635755e+01
3.635726e+01
3.635025e+01
3.633923e+01
3.631889e+01
3.627622e+01
3.617921e+01
3.595013e+01
3.553665e+01
3.546609e+01
3.547937e+01
3.549761e+01
3.551723e+01
3.553336e+01
3.554890e+01
3.556575e+01
3.558455e+01
3.560501e+01
3.562636e+01
3.564815e+01
3.567107e+01
3.569664e+01
3.572682e+01
3.576240e+01
3.580181e+01
3.583813e+01
3.586857e+01
3.587491e+01
3.586473e+01
3.584753e+01
3.582885e+01
3.581450e+01
3.580699e+01
3.580766e+01
3.581648e+01
3.583199e+01
3.585316e+01
3.587915e+01
3.590881e+01
3.594058e+01
3.597269e+01
3.600324e+01
3.603215e+01
3.605847e+01
3.608110e+01
3.609939e+01
3.611296e+01
3.612148e+01
3.612402e+01
3.611920e+01
3.610985e+01
3.609748e+01
3.608220e+01
3.606352e+01
3.604198e+01
3.601978e+01
3.599946e+01
3.598408e+01
3.597667e+01
3.597957e+01
3.598944e+01
3.600421e+01
3.602185e+01
3.603986e+01
3.605598e+01
3.607046e+01
3.608292e+01
3.609301e+01
3.610090e+01
3.610689e+01
3.611122e+01
3.611393e+01
3.611393e+01
3.611165e+01
3.610754e+01
3.610205e+01
3.609550e+01
3.608818e+01
3.608041e+01
3.607263e+01
3.606509e+01
3.605814e+01
3.605211e+01
3.604741e+01
3.604445e+01
3.604372e+01
3.604521e+01
3.604809e+01
3.605209e+01
3.605682e+01
3.606171e+01
3.606617e+01
3.606962e+01
3.607182e+01
3.607294e+01
3.607297e+01
3.607198e+01
3.607014e+01
3.606758e+01
3.606442e+01
3.605982e+01
3.606011e+01
3.636143e+01
3.636115e+01
3.636375e+01
3.636496e+01
3.636244e+01
3.634642e+01
3.628029e+01
3.601699e+01
3.521656e+01
3.528706e+01
3.540350e+01
3.545283e+01
3.548388e+01
3.550598e+01
3.552563e+01
3.554530e+01
3.556628e+01
3.558850e+01
3.561088e+01
3.563227e+01
3.565278e+01
3.567431e+01
3.569906e+01
3.572825e+01
3.576694e+01
3.580512e+01
3.583767e+01
3.585890e+01
3.586741e+01
3.586133e+01
3.584276e+01
3.582837e+01
3.581852e+01
3.581611e+01
3.582113e+01
3.583356e+01
3.585109e+01
3.587342e+01
3.589973e+01
3.592867e+01
3.595847e+01
3.598715e+01
3.601459e+01
3.604085e+01
3.606454e+01
3.608425e+01
3.609851e+01
3.610626e+01
3.610638e+01
3.609973e+01
3.609027e+01
3.607966e+01
3.606790e+01
3.605410e+01
3.603835e+01
3.602209e+01
3.600733e+01
3.599661e+01
3.599238e+01
3.599615e+01
3.600470e+01
3.601670e+01
3.603043e+01
3.604408e+01
3.605611e+01
3.606729e+01
3.607719e+01
3.608567e+01
3.609274e+01
3.609845e+01
3.610280e+01
3.610560e+01
3.610582e+01
3.610392e+01
3.610040e+01
3.609573e+01
3.609025e+01
3.608420e+01
3.607788e+01
3.607161e+01
3.606560e+01
3.606011e+01
3.605547e+01
3.605205e+01
3.605032e+01
3.605073e+01
3.605278e+01
3.605582e+01
3.605955e+01
3.606352e+01
3.606727e+01
3.607033e+01
3.607237e+01
3.607355e+01
3.607392e+01
3.607353e+01
3.607248e+01
3.607088e+01
3.606881e+01
3.606636e+01
3.606293e+01
3.606321e+01
3.636641e+01
3.636612e+01
3.637810e+01
3.639217e+01
3.641128e+01
3.643797e+01
3.646937e+01
3.657212e+01
3.589462e+01
3.535516e+01
3.542269e+01
3.544230e+01
3.546567e+01
3.548854e+01
3.550909e+01
3.552855e+01
3.554900e+01
3.557054e+01
3.559179e+01
3.561086e+01
3.562706e+01
3.564035e+01
3.565384e+01
3.567000e+01
3.569744e+01
3.572639e+01
3.574983e+01
3.577327e+01
3.580144e+01
3.583030e+01
3.584506e+01
3.584765e+01
3.584321e+01
3.583881e+01
3.584013e+01
3.584827e+01
3.586115e+01
3.587830e+01
3.589956e+01
3.592386e+01
3.594963e+01
3.597496e+01
3.599885e+01
3.602282e+01
3.604524e+01
3.606395e+01
3.607662e+01
3.608224e+01
3.608001e+01
3.607400e+01
3.606728e+01
3.606091e+01
3.605465e+01
3.604731e+01
3.603840e+01
3.602860e+01
3.601950e+01
3.601316e+01
3.601145e+01
3.601492e+01
3.602146e+01
3.603008e+01
3.603957e+01
3.604875e+01
3.605682e+01
3.606453e+01
3.607166e+01
3.607813e+01
3.608386e+01
3.608871e+01
3.609257e+01
3.609511e+01
3.609558e+01
3.609436e+01
3.609191e+01
3.608862e+01
3.608475e+01
3.608049e+01
3.607608e+01
3.607172e+01
3.606757e+01
3.606384e+01
3.606083e+01
3.605890e+01
3.605847e+01
3.605972e+01
3.606188e+01
3.606458e+01
3.606750e+01
3.607030e+01
3.607263e+01
3.607426e+01
3.607516e+01
3.607548e+01
3.607528e+01
3.607461e+01
3.607356e+01
3.607216e+01
3.607045e+01
3.606851e+01
3.606597e+01
3.606625e+01
3.637173e+01
3.637145e+01
3.639067e+01
3.641460e+01
3.644970e+01
3.650649e+01
3.660258e+01
3.673568e+01
3.676954e+01
0.000000e+00
3.545512e+01
3.545483e+01
3.547568e+01
3.549613e+01
3.551202e+01
3.552881e+01
3.554637e+01
3.556403e+01
3.558029e+01
3.559342e+01
3.560202e+01
3.560545e+01
3.560457e+01
3.560238e+01
3.560206e+01
3.560873e+01
3.563200e+01
3.567914e+01
3.573678e+01
3.579519e+01
3.584460e+01
3.587563e+01
3.588398e+01
3.587918e+01
3.587455e+01
3.587628e+01
3.588349e+01
3.589417e+01
3.590880e+01
3.592663e+01
3.594630e+01
3.596606e+01
3.598376e+01
3.600200e+01
3.601986e+01
3.603415e+01
3.604259e+01
3.604542e+01
3.604414e+01
3.604279e+01
3.604252e+01
3.604319e+01
3.604408e+01
3.604414e+01
3.604245e+01
3.603906e+01
3.603521e+01
3.603252e+01
3.603231e+01
3.603475e+01
3.603874e+01
3.604364e+01
3.604876e+01
3.605350e+01
3.605763e+01
3.606172e+01
3.606576e+01
3.606972e+01
3.607346e+01
3.607683e+01
3.607968e+01
3.608179e+01
3.608281e+01
3.608289e+01
3.608224e+01
3.608105e+01
3.607946e+01
3.607754e+01
3.607549e+01
3.607338e+01
3.607134e+01
3.606957e+01
3.606832e+01
3.606787e+01
3.606846e+01
3.606994e+01
3.607174e+01
3.607363e+01
3.607538e+01
3.607678e+01
3.607770e+01
3.607807e+01
3.607803e+01
3.607766e+01
3.607702e+01
3.607617e+01
3.607511e+01
3.607386e+01
3.607241e+01
3.607082e+01
3.606890e+01
3.606919e+01
3.637664e+01
3.637636e+01
3.639942e+01
3.642777e+01
3.646765e+01
3.652693e+01
3.661218e+01
3.671491e+01
3.680283e+01
3.680311e+01
0.000000e+00
3.552193e+01
3.552165e+01
3.553395e+01
3.554493e+01
3.555751e+01
3.557059e+01
3.558204e+01
3.558996e+01
3.559272e+01
3.558933e+01
3.557967e+01
3.556333e+01
3.554278e+01
3.552324e+01
3.552417e+01
3.556314e+01
3.563231e+01
3.571319e+01
3.579117e+01
3.585825e+01
3.591077e+01
3.593528e+01
3.593686e+01
3.592580e+01
3.591813e+01
3.591788e+01
3.592084e+01
3.592748e+01
3.593711e+01
3.594844e+01
3.595965e+01
3.596842e+01
3.597819e+01
3.598705e+01
3.599219e+01
3.599443e+01
3.599656e+01
3.600248e+01
3.601081e+01
3.602017e+01
3.602946e+01
3.603802e+01
3.604511e+01
3.605009e+01
3.605268e+01
3.605336e+01
3.605339e+01
3.605369e+01
3.605468e+01
3.605587e+01
3.605696e+01
3.605775e+01
3.605814e+01
3.605827e+01
3.605851e+01
3.605903e+01
3.605985e+01
3.606090e+01
3.606212e+01
3.606349e+01
3.606523e+01
3.606736e+01
3.606960e+01
3.607172e+01
3.607353e+01
3.607493e+01
3.607591e+01
3.607655e+01
3.607690e+01
3.607708e+01
3.607726e+01
3.607764e+01
3.607836e+01
3.607940e+01
3.608059e+01
3.608165e+01
3.608243e+01
3.608283e+01
3.608284e+01
3.608249e+01
3.608186e+01
3.608103e+01
3.608009e+01
3.607910e+01
3.607807e+01
3.607699e+01
3.607583e+01
3.607457e+01
3.607322e+01
3.607166e+01
3.607194e+01
3.638070e+01
3.638042e+01
3.640382e+01
3.643169e+01
3.646839e+01
3.651876e+01
3.658519e+01
3.664940e+01
3.667968e+01
3.645233e+01
3.645261e+01
0.000000e+00
3.554722e+01
3.557223e+01
3.557853e+01
3.558968e+01
3.559877e+01
3.560335e+01
3.560266e+01
3.559609e+01
3.558409e+01
3.556607e+01
3.553866e+01
3.550454e+01
3.547069e+01
3.547716e+01
3.553385e+01
3.562169e+01
3.571799e+01
3.580557e+01
3.587811e+01
3.593920e+01
3.598163e+01
3.599591e+01
3.598965e+01
3.597424e+01
3.596443e+01
3.595883e+01
3.595659e+01
3.595667e+01
3.595757e+01
3.595759e+01
3.595520e+01
3.595175e+01
3.594688e+01
3.594257e+01
3.594058e+01
3.594740e+01
3.596328e+01
3.598319e+01
3.600331e+01
3.602155e+01
3.603710e+01
3.605000e+01
3.606022e+01
3.606746e+01
3.607178e+01
3.607377e+01
3.607394e+01
3.607316e+01
3.607153e+01
3.606908e+01
3.606595e+01
3.606240e+01
3.605868e+01
3.605496e+01
3.605154e+01
3.604864e+01
3.604641e+01
3.604501e+01
3.604452e+01
3.604624e+01
3.605020e+01
3.605555e+01
3.606137e+01
3.606694e+01
3.607186e+01
3.607594e+01
3.607933e+01
3.608212e+01
3.608444e+01
3.608639e+01
3.608802e+01
3.608928e+01
3.609010e+01
3.609059e+01
3.609065e+01
3.609027e+01
3.608949e+01
3.608839e+01
3.608709e+01
3.608570e+01
3.608425e+01
3.608283e+01
3.608149e+01
3.608026e+01
3.607910e+01
3.607798e+01
3.607684e+01
3.607565e+01
3.607421e+01
3.607450e+01
3.638383e+01
3.638355e+01
3.640449e+01
3.642841e+01
3.645804e+01
3.649398e+01
3.652942e+01
3.654284e+01
3.648799e+01
3.637860e+01
3.598973e+01
3.569637e+01
3.555344e+01
3.559105e+01
3.560160e+01
3.561273e+01
3.561812e+01
3.561805e+01
3.561294e+01
3.560210e+01
3.558502e+01
3.556080e+01
3.552397e+01
3.547666e+01
3.544400e+01
3.546630e+01
3.553848e+01
3.563875e+01
3.574409e+01
3.583233e+01
3.590114e+01
3.595734e+01
3.600736e+01
3.604007e+01
3.604700e+01
3.603796e+01
3.602199e+01
3.600838e+01
3.599728e+01
3.598697e+01
3.597559e+01
3.596213e+01
3.594632e+01
3.592835e+01
3.591028e+01
3.589520e+01
3.588987e+01
3.590460e+01
3.593194e+01
3.596369e+01
3.599413e+01
3.602007e+01
3.604106e+01
3.605817e+01
3.607194e+01
3.608226e+01
3.608893e+01
3.609198e+01
3.609169e+01
3.608941e+01
3.608541e+01
3.607998e+01
3.607349e+01
3.606640e+01
3.605914e+01
3.605161e+01
3.604427e+01
3.603755e+01
3.603188e+01
3.602761e+01
3.602498e+01
3.602691e+01
3.603312e+01
3.604212e+01
3.605220e+01
3.606202e+01
3.607060e+01
3.607770e+01
3.608359e+01
3.608846e+01
3.609245e+01
3.609560e+01
3.609787e+01
3.609914e+01
3.609952e+01
3.609932e+01
3.609855e+01
3.609727e+01
3.609560e+01
3.609367e+01
3.609164e+01
3.608964e+01
3.608767e+01
3.608583e+01
3.608416e+01
3.608269e+01
3.608141e+01
3.608030e+01
3.607927e+01
3.607823e+01
3.607680e+01
3.607709e+01
3.638618e+01
3.638590e+01
3.640259e+01
3.642084e+01
3.644072e+01
3.645963e+01
3.646845e+01
3.644732e+01
3.635988e+01
3.619727e+01
3.594009e+01
3.540244e+01
3.551527e+01
3.558502e+01
3.561540e+01
3.562574e+01
3.562857e+01
3.562739e+01
3.562103e+01
3.560840e+01
3.558891e+01
3.555967e+01
3.551401e+01
3.546555e+01
3.545080e+01
3.548941e+01
3.557118e+01
3.567488e+01
3.577692e+01
3.586119e+01
3.592786e+01
3.597915e+01
3.602028e+01
3.605680e+01
3.607995e+01
3.608546e+01
3.607585e+01
3.605924e+01
3.603984e+01
3.601827e+01
3.599436e+01
3.596954e+01
3.594148e+01
3.591026e+01
3.587983e+01
3.585477e+01
3.585109e+01
3.587451e+01
3.591276e+01
3.595479e+01
3.599348e+01
3.602458e+01
3.604916e+01
3.606876e+01
3.608438e+01
3.609628e+01
3.610416e+01
3.610770e+01
3.610718e+01
3.610381e+01
3.609799e+01
3.609016e+01
3.608081e+01
3.607059e+01
3.606007e+01
3.604894e+01
3.603781e+01
3.602732e+01
3.601818e+01
3.601102e+01
3.600631e+01
3.600878e+01
3.601753e+01
3.603042e+01
3.604499e+01
3.605919e+01
3.607127e+01
3.608107e+01
3.608899e+01
3.609539e+01
3.610048e+01
3.610428e+01
3.610675e+01
3.610780e+01
3.610778e+01
3.610704e+01
3.610565e+01
3.610372e+01
3.610141e+01
3.609887e+01
3.609626e+01
3.609374e+01
3.609133e+01
3.608909e+01
3.608708e+01
3.608535e+01
3.608393e+01
3.608280e+01
3.608190e+01
3.608107e+01
3.607978e+01
3.608006e+01
3.638812e+01
3.638783e+01
3.639937e+01
3.641096e+01
3.642126e+01
3.642649e+01
3.641835e+01
3.638231e+01
3.629634e+01
3.614252e+01
3.593537e+01
3.565358e+01
3.562148e+01
3.563157e+01
3.563998e+01
3.564199e+01
3.564089e+01
3.563640e+01
3.562682e+01
3.561315e+01
3.559374e+01
3.556327e+01
3.552037e+01
3.548779e+01
3.549218e+01
3.554085e+01
3.562272e+01
3.571986e+01
3.580987e+01
3.588572e+01
3.594753e+01
3.599641e+01
3.603306e+01
3.605824e+01
3.607925e+01
3.609732e+01
3.609990e+01
3.608930e+01
3.606925e+01
3.604195e+01
3.601014e+01
3.597744e+01
3.593941e+01
3.589750e+01
3.585699e+01
3.582494e+01
3.582829e+01
3.586071e+01
3.590790e+01
3.595739e+01
3.600038e+01
3.603421e+01
3.606043e+01
3.608085e+01
3.609685e+01
3.610902e+01
3.611721e+01
3.612091e+01
3.612046e+01
3.611657e+01
3.610962e+01
3.610005e+01
3.608844e+01
3.607550e+01
3.606204e+01
3.604757e+01
3.603286e+01
3.601878e+01
3.600633e+01
3.599644e+01
3.599023e+01
3.599350e+01
3.600487e+01
3.602157e+01
3.604040e+01
3.605867e+01
3.607377e+01
3.608575e+01
3.609513e+01
3.610246e+01
3.610807e+01
3.611208e+01
3.611450e+01
3.611530e+01
3.611501e+01
3.611391e+01
3.611213e+01
3.610980e+01
3.610707e+01
3.610410e+01
3.610105e+01
3.609808e+01
3.609528e+01
3.609266e+01
3.609031e+01
3.608832e+01
3.608674e+01
3.608561e+01
3.608489e+01
3.608442e+01
3.608371e+01
3.608399e+01
3.638966e+01
3.638937e+01
3.639561e+01
3.640098e+01
3.640341e+01
3.639917e+01
3.638184e+01
3.634193e+01
3.626714e+01
3.614529e+01
3.597999e+01
3.579323e+01
3.571721e+01
3.568908e+01
3.567535e+01
3.566501e+01
3.565548e+01
3.564528e+01
3.563302e+01
3.561831e+01
3.559967e+01
3.557300e+01
3.554385e+01
3.553075e+01
3.554915e+01
3.560145e+01
3.567763e+01
3.576239e+01
3.584041e+01
3.590732e+01
3.596244e+01
3.600663e+01
3.604114e+01
3.606738e+01
3.608756e+01
3.610087e+01
3.610413e+01
3.609769e+01
3.608076e+01
3.605409e+01
3.602026e+01
3.598396e+01
3.593952e+01
3.589047e+01
3.584311e+01
3.581391e+01
3.582467e+01
3.586434e+01
3.591702e+01
3.596985e+01
3.601361e+01
3.604770e+01
3.607372e+01
3.609358e+01
3.610884e+01
3.612035e+01
3.612818e+01
3.613183e+01
3.613162e+01
3.612775e+01
3.612040e+01
3.610990e+01
3.609673e+01
3.608163e+01
3.606560e+01
3.604811e+01
3.603010e+01
3.601270e+01
3.599722e+01
3.598501e+01
3.597807e+01
3.598240e+01
3.599628e+01
3.601640e+01
3.603891e+01
3.606042e+01
3.607790e+01
3.609144e+01
3.610168e+01
3.610937e+01
3.611501e+01
3.611889e+01
3.612110e+01
3.612172e+01
3.612128e+01
3.612001e+01
3.611804e+01
3.611551e+01
3.611257e+01
3.610935e+01
3.610602e+01
3.610270e+01
3.609955e+01
3.609661e+01
3.609395e+01
3.609170e+01
3.608997e+01
3.608886e+01
3.608842e+01
3.608856e+01
3.608919e+01
3.608947e+01
3.639091e+01
3.639062e+01
3.639211e+01
3.639224e+01
3.638874e+01
3.637830e+01
3.635624e+01
3.631641e+01
3.625179e+01
3.615520e+01
3.602570e+01
3.588164e+01
3.579327e+01
3.574356e+01
3.571254e+01
3.569027e+01
3.567229e+01
3.565619e+01
3.564046e+01
3.562427e+01
3.560652e+01
3.558616e+01
3.557092e+01
3.557291e+01
3.560089e+01
3.565400e+01
3.572339e+01
3.579717e+01
3.586566e+01
3.592515e+01
3.597483e+01
3.601532e+01
3.604780e+01
3.607282e+01
3.609043e+01
3.610005e+01
3.610192e+01
3.609615e+01
3.608145e+01
3.605712e+01
3.602465e+01
3.598826e+01
3.594172e+01
3.589047e+01
3.584270e+01
3.582160e+01
3.583917e+01
3.588298e+01
3.593712e+01
3.598878e+01
3.603087e+01
3.606339e+01
3.608787e+01
3.610620e+01
3.612003e+01
3.613034e+01
3.613737e+01
3.614085e+01
3.614086e+01
3.613736e+01
3.613027e+01
3.611964e+01
3.610575e+01
3.608919e+01
3.607099e+01
3.605090e+01
3.602991e+01
3.600949e+01
3.599138e+01
3.597745e+01
3.597050e+01
3.597610e+01
3.599226e+01
3.601516e+01
3.604049e+01
3.606425e+01
3.608335e+01
3.609782e+01
3.610839e+01
3.611596e+01
3.612127e+01
3.612477e+01
3.612669e+01
3.612716e+01
3.612665e+01
3.612533e+01
3.612331e+01
3.612075e+01
3.611777e+01
3.611449e+01
3.611103e+01
3.610752e+01
3.610411e+01
3.610091e+01
3.609799e+01
3.609551e+01
3.609366e+01
3.609262e+01
3.609256e+01
3.609355e+01
3.609649e+01
3.609677e+01
3.639196e+01
3.639168e+01
3.638926e+01
3.638531e+01
3.637753e+01
3.636313e+01
3.633856e+01
3.629965e+01
3.624206e+01
3.616166e+01
3.605750e+01
3.594118e+01
3.585131e+01
3.578911e+01
3.574587e+01
3.571383e+01
3.568844e+01
3.566697e+01
3.564777e+01
3.562996e+01
3.561314e+01
3.559889e+01
3.559397e+01
3.560636e+01
3.564042e+01
3.569339e+01
3.575743e+01
3.582357e+01
3.588510e+01
3.593898e+01
3.598453e+01
3.602226e+01
3.605290e+01
3.607644e+01
3.609251e+01
3.610112e+01
3.610248e+01
3.609650e+01
3.608234e+01
3.605919e+01
3.602786e+01
3.599057e+01
3.594413e+01
3.589426e+01
3.585196e+01
3.584083e+01
3.586396e+01
3.590919e+01
3.596175e+01
3.601003e+01
3.604923e+01
3.607930e+01
3.610161e+01
3.611803e+01
3.613016e+01
3.613909e+01
3.614521e+01
3.614841e+01
3.614863e+01
3.614566e+01
3.613921e+01
3.612906e+01
3.611518e+01
3.609789e+01
3.607805e+01
3.605577e+01
3.603216e+01
3.600904e+01
3.598867e+01
3.597361e+01
3.596731e+01
3.597429e+01
3.599238e+01
3.601739e+01
3.604459e+01
3.606966e+01
3.608968e+01
3.610458e+01
3.611509e+01
3.612225e+01
3.612697e+01
3.612991e+01
3.613144e+01
3.613178e+01
3.613119e+01
3.612985e+01
3.612786e+01
3.612536e+01
3.612244e+01
3.611922e+01
3.611579e+01
3.611225e+01
3.610872e+01
3.610536e+01
3.610226e+01
3.609962e+01
3.609767e+01
3.609672e+01
3.609708e+01
3.609908e+01
3.610519e+01
3.610548e+01
3.639283e+01
3.639255e+01
3.638720e+01
3.638027e+01
3.636958e+01
3.635268e+01
3.632676e+01
3.628874e+01
3.623561e+01
3.616494e+01
3.607661e+01
3.597825e+01
3.589196e+01
3.582421e+01
3.577278e+01
3.573330e+01
3.570199e+01
3.567612e+01
3.565395e+01
3.563473e+01
3.561887e+01
3.560926e+01
3.561162e+01
3.563115e+01
3.566891e+01
3.572118e+01
3.578121e+01
3.584217e+01
3.589896e+01
3.594901e+01
3.599166e+01
3.602728e+01
3.605636e+01
3.607892e+01
3.609468e+01
3.610360e+01
3.610555e+01
3.610016e+01
3.608657e+01
3.606389e+01
3.603226e+01
3.599283e+01
3.594554e+01
3.589772e+01
3.586367e+01
3.586107e+01
3.588864e+01
3.593422e+01
3.598428e+01
3.602929e+01
3.606554e+01
3.609292e+01
3.611292e+01
3.612740e+01
3.613801e+01
3.614589e+01
3.615160e+01
3.615480e+01
3.615530e+01
3.615291e+01
3.614724e+01
3.613786e+01
3.612444e+01
3.610699e+01
3.608604e+01
3.606201e+01
3.603613e+01
3.601057e+01
3.598823e+01
3.597248e+01
3.596720e+01
3.597555e+01
3.599522e+01
3.602170e+01
3.605000e+01
3.607571e+01
3.609620e+01
3.611127e+01
3.612160e+01
3.612825e+01
3.613229e+01
3.613454e+01
3.613560e+01
3.613572e+01
3.613499e+01
3.613358e+01
3.613161e+01
3.612917e+01
3.612636e+01
3.612325e+01
3.611992e+01
3.611645e+01
3.611294e+01
3.610952e+01
3.610635e+01
3.610361e+01
3.610160e+01
3.610073e+01
3.610147e+01
3.610442e+01
3.611405e+01
3.611434e+01
3.639346e+01
3.639318e+01
3.638589e+01
3.637705e+01
3.636456e+01
3.634622e+01
3.631963e+01
3.628228e+01
3.623186e+01
3.616677e+01
3.608744e+01
3.599961e+01
3.591708e+01
3.584732e+01
3.579139e+01
3.574717e+01
3.571181e+01
3.568279e+01
3.565845e+01
3.563825e+01
3.562335e+01
3.561706e+01
3.562398e+01
3.564735e+01
3.568684e+01
3.573843e+01
3.579603e+01
3.585385e+01
3.590767e+01
3.595526e+01
3.599606e+01
3.603035e+01
3.605849e+01
3.608069e+01
3.609657e+01
3.610610e+01
3.610897e+01
3.610455e+01
3.609185e+01
3.606970e+01
3.603739e+01
3.599526e+01
3.594591e+01
3.589948e+01
3.587229e+01
3.587575e+01
3.590648e+01
3.595227e+01
3.600037e+01
3.604293e+01
3.607694e+01
3.610243e+01
3.612082e+01
3.613392e+01
3.614340e+01
3.615047e+01
3.615585e+01
3.615914e+01
3.616018e+01
3.615864e+01
3.615393e+01
3.614540e+01
3.613261e+01
3.611532e+01
3.609372e+01
3.606834e+01
3.604055e+01
3.601286e+01
3.598874e+01
3.597246e+01
3.596818e+01
3.597764e+01
3.599845e+01
3.602590e+01
3.605482e+01
3.608089e+01
3.610172e+01
3.611686e+01
3.612690e+01
3.613303e+01
3.613643e+01
3.613810e+01
3.613874e+01
3.613864e+01
3.613777e+01
3.613631e+01
3.613435e+01
3.613199e+01
3.612929e+01
3.612630e+01
3.612308e+01
3.611972e+01
3.611628e+01
3.611288e+01
3.610968e+01
3.610690e+01
3.610487e+01
3.610403e+01
3.610501e+01
3.610863e+01
3.612125e+01
3.612153e+01
3.639381e+01
3.639353e+01
3.638527e+01
3.637550e+01
3.636219e+01
3.634324e+01
3.631645e+01
3.627958e+01
3.623058e+01
3.616819e+01
3.609304e+01
3.601003e+01
3.592958e+01
3.585914e+01
3.580114e+01
3.575457e+01
3.571711e+01
3.568642e+01
3.566092e+01
3.564027e+01
3.562596e+01
3.562129e+01
3.563019e+01
3.565503e+01
3.569499e+01
3.574602e+01
3.580237e+01
3.585873e+01
3.591124e+01
3.595779e+01
3.599781e+01
3.603148e+01
3.605917e+01
3.608107e+01
3.609717e+01
3.610729e+01
3.611097e+01
3.610747e+01
3.609569e+01
3.607428e+01
3.604171e+01
3.599744e+01
3.594592e+01
3.590019e+01
3.587681e+01
3.588345e+01
3.591534e+01
3.596056e+01
3.600730e+01
3.604870e+01
3.608185e+01
3.610668e+01
3.612454e+01
3.613716e+01
3.614621e+01
3.615291e+01
3.615792e+01
3.616125e+01
3.616272e+01
3.616184e+01
3.615791e+01
3.615019e+01
3.613808e+01
3.612119e+01
3.609941e+01
3.607317e+01
3.604390e+01
3.601431e+01
3.598860e+01
3.597171e+01
3.596774e+01
3.597777e+01
3.599932e+01
3.602747e+01
3.605677e+01
3.608300e+01
3.610403e+01
3.611933e+01
3.612946e+01
3.613552e+01
3.613876e+01
3.614020e+01
3.614058e+01
3.614020e+01
3.613921e+01
3.613772e+01
3.613580e+01
3.613351e+01
3.613090e+01
3.612801e+01
3.612490e+01
3.612163e+01
3.611827e+01
3.611492e+01
3.611173e+01
3.610894e+01
3.610687e+01
3.610600e+01
3.610703e+01
3.611087e+01
3.612486e+01
3.612515e+01
0.000000e+00
3.639381e+01
3.638555e+01
3.637579e+01
3.636247e+01
3.634352e+01
3.631674e+01
3.627986e+01
3.623087e+01
3.616847e+01
3.609332e+01
3.601031e+01
3.592986e+01
3.585942e+01
3.580142e+01
3.575485e+01
3.571739e+01
3.568670e+01
3.566120e+01
3.564056e+01
3.562624e+01
3.562158e+01
3.563047e+01
3.565531e+01
3.569527e+01
3.574630e+01
3.580266e+01
3.585902e+01
3.591152e+01
3.595807e+01
3.599809e+01
3.603177e+01
3.605945e+01
3.608135e+01
3.609745e+01
3.610757e+01
3.611125e+01
3.610775e+01
3.609598e+01
3.607456e+01
3.604199e+01
3.599773e+01
3.594621e+01
3.590047e+01
3.587710e+01
3.588373e+01
3.591562e+01
3.596084e+01
3.600759e+01
3.604899e+01
3.608213e+01
3.610697e+01
3.612482e+01
3.613745e+01
3.614649e+01
3.615319e+01
3.615821e+01
3.616154e+01
3.616301e+01
3.616213e+01
3.615820e+01