# vtk DataFile Version 3.0
Scalar Field
ASCII
DATASET RECTILINEAR_GRID
DIMENSIONS 102 22 1
X_COORDINATES 102 double
0.000000 0.100000 0.200000 0.300000 0.400000 0.500000 0.600000 0.700000 0.800000 0.900000 1.000000 1.100000 1.200000 1.300000 1.400000 1.500000 1.600000 1.700000 1.800000 1.900000 2.000000 2.100000 2.200000 2.300000 2.400000 2.500000 2.600000 2.700000 2.800000 2.900000 3.000000 3.100000 3.200000 3.300000 3.400000 3.500000 3.600000 3.700000 3.800000 3.900000 4.000000 4.100000 4.200000 4.300000 4.400000 4.500000 4.600000 4.700000 4.800000 4.900000 5.000000 5.100000 5.200000 5.300000 5.400000 5.500000 5.600000 5.700000 5.800000 5.900000 6.000000 6.100000 6.200000 6.300000 6.400000 6.500000 6.600000 6.700000 6.800000 6.900000 7.000000 7.100000 7.200000 7.300000 7.400000 7.500000 7.600000 7.700000 7.800000 7.900000 8.000000 8.100000 8.200000 8.300000 8.400000 8.500000 8.600000 8.700000 8.800000 8.900000 9.000000 9.100000 9.200000 9.300000 9.400000 9.500000 9.600000 9.700000 9.800000 9.900000 10.000000 10.100000 
Y_COORDINATES 22 double
0.000000 0.100000 0.200000 0.300000 0.400000 0.500000 0.600000 0.700000 0.800000 0.900000 1.000000 1.100000 1.200000 1.300000 1.400000 1.500000 1.600000 1.700000 1.800000 1.900000 2.000000 2.100000 
Z_COORDINATES 1 double
0.0
POINT_DATA 2244
SCALARS Pressure double 1
LOOKUP_TABLE default
0.000000e+00
3.112543e+01
3.109378e+01
3.105819e+01
3.101470e+01
3.095912e+01
3.088720e+01
3.079683e+01
3.068594e+01
3.057444e+01
3.047845e+01
3.040358e+01
3.034922e+01
3.031261e+01
3.029059e+01
3.028021e+01
3.027902e+01
3.028517e+01
3.029731e+01
3.031447e+01
3.033596e+01
3.036130e+01
3.039014e+01
3.042225e+01
3.045748e+01
3.049570e+01
3.053661e+01
3.057953e+01
3.062338e+01
3.066666e+01
3.070711e+01
3.074161e+01
3.076269e+01
3.076071e+01
3.073028e+01
3.067605e+01
3.061162e+01
3.055392e+01
3.051539e+01
3.049887e+01
3.050043e+01
3.051558e+01
3.054031e+01
3.057132e+01
3.060582e+01
3.064124e+01
3.067518e+01
3.070537e+01
3.073003e+01
3.074839e+01
3.076081e+01
3.076852e+01
3.077292e+01
3.077500e+01
3.077640e+01
3.077658e+01
3.077446e+01
3.076887e+01
3.075889e+01
3.074416e+01
3.072508e+01
3.070286e+01
3.067930e+01
3.065656e+01
3.063689e+01
3.062226e+01
3.061405e+01
3.061281e+01
3.061808e+01
3.062892e+01
3.064460e+01
3.066392e+01
3.068501e+01
3.070537e+01
3.072222e+01
3.073341e+01
3.073829e+01
3.073791e+01
3.073379e+01
3.072730e+01
3.071959e+01
3.071112e+01
3.070226e+01
3.069337e+01
3.068479e+01
3.067687e+01
3.066985e+01
3.066390e+01
3.065910e+01
3.065541e+01
3.065274e+01
3.065089e+01
3.064963e+01
3.064877e+01
3.064805e+01
3.064719e+01
3.064587e+01
3.064369e+01
3.064017e+01
3.063467e+01
3.062336e+01
0.000000e+00
3.112543e+01
3.112516e+01
3.109350e+01
3.105791e+01
3.101443e+01
3.095885e+01
3.088692e+01
3.079655e+01
3.068566e+01
3.057417e+01
3.047817e+01
3.040331e+01
3.034895e+01
3.031233e+01
3.029031e+01
3.027993e+01
3.027874e+01
3.028489e+01
3.029704e+01
3.031420e+01
3.033569e+01
3.036102e+01
3.038986e+01
3.042197e+01
3.045721e+01
3.049542e+01
3.053633e+01
3.057925e+01
3.062310e+01
3.066638e+01
3.070684e+01
3.074133e+01
3.076241e+01
3.076043e+01
3.073001e+01
3.067577e+01
3.061135e+01
3.055364e+01
3.051511e+01
3.049859e+01
3.050016e+01
3.051531e+01
3.054003e+01
3.057104e+01
3.060554e+01
3.064096e+01
3.067490e+01
3.070509e+01
3.072975e+01
3.074811e+01
3.076053e+01
3.076824e+01
3.077265e+01
3.077472e+01
3.077612e+01
3.077630e+01
3.077418e+01
3.076859e+01
3.075861e+01
3.074388e+01
3.072480e+01
3.070258e+01
3.067902e+01
3.065628e+01
3.063661e+01
3.062198e+01
3.061377e+01
3.061253e+01
3.061780e+01
3.062864e+01
3.064432e+01
3.066364e+01
3.068473e+01
3.070509e+01
3.072194e+01
3.073313e+01
3.073801e+01
3.073763e+01
3.073352e+01
3.072702e+01
3.071931e+01
3.071084e+01
3.070198e+01
3.069309e+01
3.068452e+01
3.067659e+01
3.066957e+01
3.066362e+01
3.065882e+01
3.065513e+01
3.065246e+01
3.065061e+01
3.064935e+01
3.064849e+01
3.064777e+01
3.064691e+01
3.064559e+01
3.064341e+01
3.063989e+01
3.063439e+01
3.062308e+01
3.062336e+01
3.112400e+01
3.112372e+01
3.109358e+01
3.105925e+01
3.101651e+01
3.096071e+01
3.088688e+01
3.079269e+01
3.067226e+01
3.055667e+01
3.046206e+01
3.039053e+01
3.033926e+01
3.030496e+01
3.028464e+01
3.027541e+01
3.027496e+01
3.028157e+01
3.029396e+01
3.031119e+01
3.033261e+01
3.035778e+01
3.038640e+01
3.041823e+01
3.045312e+01
3.049087e+01
3.053128e+01
3.057365e+01
3.061701e+01
3.066004e+01
3.070100e+01
3.073605e+01
3.075824e+01
3.075867e+01
3.073084e+01
3.067857e+01
3.061483e+01
3.055519e+01
3.051298e+01
3.049404e+01
3.049438e+01
3.050904e+01
3.053364e+01
3.056465e+01
3.059916e+01
3.063457e+01
3.066857e+01
3.069912e+01
3.072439e+01
3.074355e+01
3.075682e+01
3.076524e+01
3.077015e+01
3.077259e+01
3.077358e+01
3.077299e+01
3.076994e+01
3.076351e+01
3.075296e+01
3.073806e+01
3.071922e+01
3.069757e+01
3.067484e+01
3.065306e+01
3.063438e+01
3.062065e+01
3.061321e+01
3.061277e+01
3.061887e+01
3.063044e+01
3.064676e+01
3.066635e+01
3.068692e+01
3.070565e+01
3.072039e+01
3.072989e+01
3.073410e+01
3.073390e+01
3.073041e+01
3.072459e+01
3.071735e+01
3.070922e+01
3.070063e+01
3.069199e+01
3.068364e+01
3.067593e+01
3.066911e+01
3.066335e+01
3.065872e+01
3.065520e+01
3.065268e+01
3.065101e+01
3.064996e+01
3.064929e+01
3.064878e+01
3.064814e+01
3.064704e+01
3.064510e+01
3.064186e+01
3.063677e+01
3.062585e+01
3.062613e+01
3.112175e+01
3.112148e+01
3.109452e+01
3.106303e+01
3.102234e+01
3.096668e+01
3.088923e+01
3.078620e+01
3.064305e+01
3.052023e+01
3.043014e+01
3.036602e+01
3.032092e+01
3.029098e+01
3.027390e+01
3.026679e+01
3.026769e+01
3.027512e+01
3.028791e+01
3.030519e+01
3.032640e+01
3.035115e+01
3.037921e+01
3.041040e+01
3.044455e+01
3.048145e+01
3.052083e+01
3.056220e+01
3.060473e+01
3.064724e+01
3.068875e+01
3.072775e+01
3.075613e+01
3.076286e+01
3.073798e+01
3.068396e+01
3.061744e+01
3.055461e+01
3.050793e+01
3.048579e+01
3.048440e+01
3.049786e+01
3.052171e+01
3.055225e+01
3.058636e+01
3.062141e+01
3.065526e+01
3.068614e+01
3.071247e+01
3.073326e+01
3.074837e+01
3.075846e+01
3.076461e+01
3.076784e+01
3.076892e+01
3.076770e+01
3.076369e+01
3.075637e+01
3.074534e+01
3.073037e+01
3.071178e+01
3.069084e+01
3.066916e+01
3.064867e+01
3.063134e+01
3.061892e+01
3.061272e+01
3.061376e+01
3.062103e+01
3.063350e+01
3.065018e+01
3.066926e+01
3.068817e+01
3.070425e+01
3.071674e+01
3.072470e+01
3.072826e+01
3.072832e+01
3.072581e+01
3.072104e+01
3.071467e+01
3.070716e+01
3.069897e+01
3.069061e+01
3.068252e+01
3.067506e+01
3.066850e+01
3.066300e+01
3.065864e+01
3.065539e+01
3.065318e+01
3.065188e+01
3.065120e+01
3.065090e+01
3.065078e+01
3.065054e+01
3.064986e+01
3.064834e+01
3.064552e+01
3.064098e+01
3.063129e+01
3.063157e+01
3.111916e+01
3.111889e+01
3.109687e+01
3.107008e+01
3.103320e+01
3.097844e+01
3.089502e+01
3.077351e+01
3.058742e+01
3.045992e+01
3.038311e+01
3.033175e+01
3.029542e+01
3.027118e+01
3.025846e+01
3.025426e+01
3.025703e+01
3.026562e+01
3.027899e+01
3.029636e+01
3.031724e+01
3.034133e+01
3.036852e+01
3.039873e+01
3.043181e+01
3.046754e+01
3.050560e+01
3.054569e+01
3.058750e+01
3.063031e+01
3.067322e+01
3.071653e+01
3.075415e+01
3.077033e+01
3.075193e+01
3.069521e+01
3.062130e+01
3.055271e+01
3.050234e+01
3.047618e+01
3.047344e+01
3.048521e+01
3.050746e+01
3.053670e+01
3.056992e+01
3.060446e+01
3.063806e+01
3.066898e+01
3.069615e+01
3.071855e+01
3.073575e+01
3.074794e+01
3.075582e+01
3.076029e+01
3.076206e+01
3.076060e+01
3.075599e+01
3.074809e+01
3.073670e+01
3.072180e+01
3.070371e+01
3.068383e+01
3.066363e+01
3.064484e+01
3.062927e+01
3.061856e+01
3.061407e+01
3.061705e+01
3.062547e+01
3.063854e+01
3.065489e+01
3.067244e+01
3.068863e+01
3.070206e+01
3.071245e+01
3.071914e+01
3.072245e+01
3.072315e+01
3.072161e+01
3.071775e+01
3.071208e+01
3.070506e+01
3.069718e+01
3.068910e+01
3.068130e+01
3.067415e+01
3.066791e+01
3.066276e+01
3.065875e+01
3.065590e+01
3.065416e+01
3.065339e+01
3.065321e+01
3.065344e+01
3.065384e+01
3.065411e+01
3.065389e+01
3.065278e+01
3.065035e+01
3.064639e+01
3.063847e+01
3.063875e+01
3.111678e+01
3.111650e+01
3.110128e+01
3.108148e+01
3.105125e+01
3.099991e+01
3.090852e+01
3.074984e+01
3.048967e+01
3.037351e+01
3.032329e+01
3.029036e+01
3.026475e+01
3.024661e+01
3.023858e+01
3.023785e+01
3.024299e+01
3.025313e+01
3.026736e+01
3.028490e+01
3.030534e+01
3.032854e+01
3.035452e+01
3.038335e+01
3.041503e+01
3.044939e+01
3.048605e+01
3.052494e+01
3.056683e+01
3.061178e+01
3.065786e+01
3.070186e+01
3.074155e+01
3.076741e+01
3.075353e+01
3.070497e+01
3.062811e+01
3.055640e+01
3.050233e+01
3.047273e+01
3.046680e+01
3.047752e+01
3.049740e+01
3.052409e+01
3.055515e+01
3.058817e+01
3.062084e+01
3.065116e+01
3.067876e+01
3.070240e+01
3.072128e+01
3.073528e+01
3.074484e+01
3.075073e+01
3.075368e+01
3.075237e+01
3.074723e+01
3.073874e+01
3.072718e+01
3.071273e+01
3.069568e+01
3.067743e+01
3.065926e+01
3.064269e+01
3.062934e+01
3.062077e+01
3.061853e+01
3.062313e+01
3.063237e+01
3.064530e+01
3.066032e+01
3.067536e+01
3.068832e+01
3.069936e+01
3.070782e+01
3.071350e+01
3.071680e+01
3.071825e+01
3.071752e+01
3.071441e+01
3.070935e+01
3.070280e+01
3.069530e+01
3.068758e+01
3.068018e+01
3.067344e+01
3.066763e+01
3.066291e+01
3.065938e+01
3.065706e+01
3.065599e+01
3.065583e+01
3.065626e+01
3.065709e+01
3.065801e+01
3.065870e+01
3.065877e+01
3.065778e+01
3.065560e+01
3.065214e+01
3.064610e+01
3.064638e+01
3.111508e+01
3.111481e+01
3.110814e+01
3.109804e+01
3.107922e+01
3.103870e+01
3.094450e+01
3.071973e+01
3.031895e+01
3.025613e+01
3.025901e+01
3.025014e+01
3.023501e+01
3.022097e+01
3.021524e+01
3.021787e+01
3.022593e+01
3.023818e+01
3.025370e+01
3.027161e+01
3.029157e+01
3.031363e+01
3.033801e+01
3.036502e+01
3.039487e+01
3.042757e+01
3.046282e+01
3.050022e+01
3.054191e+01
3.058997e+01
3.064266e+01
3.068985e+01
3.072391e+01
3.073934e+01
3.071893e+01
3.067884e+01
3.062653e+01
3.056790e+01
3.051801e+01
3.048559e+01
3.047464e+01
3.048143e+01
3.049791e+01
3.052052e+01
3.054779e+01
3.057767e+01
3.060796e+01
3.063650e+01
3.066313e+01
3.068699e+01
3.070688e+01
3.072229e+01
3.073329e+01
3.074030e+01
3.074381e+01
3.074225e+01
3.073644e+01
3.072762e+01
3.071648e+01
3.070328e+01
3.068817e+01
3.067238e+01
3.065694e+01
3.064316e+01
3.063249e+01
3.062642e+01
3.062652e+01
3.063215e+01
3.064139e+01
3.065310e+01
3.066572e+01
3.067743e+01
3.068749e+01
3.069609e+01
3.070282e+01
3.070773e+01
3.071109e+01
3.071314e+01
3.071303e+01
3.071057e+01
3.070612e+01
3.070018e+01
3.069327e+01
3.068614e+01
3.067934e+01
3.067320e+01
3.066797e+01
3.066384e+01
3.066093e+01
3.065934e+01
3.065904e+01
3.065952e+01
3.066055e+01
3.066185e+01
3.066309e+01
3.066388e+01
3.066382e+01
3.066272e+01
3.066062e+01
3.065757e+01
3.065301e+01
3.065329e+01
3.111430e+01
3.111403e+01
3.111702e+01
3.111912e+01
3.111806e+01
3.110425e+01
3.104150e+01
3.078538e+01
3.001118e+01
3.010201e+01
3.021166e+01
3.022630e+01
3.021848e+01
3.020389e+01
3.019362e+01
3.019502e+01
3.020729e+01
3.022248e+01
3.024013e+01
3.025876e+01
3.027820e+01
3.029875e+01
3.032093e+01
3.034534e+01
3.037251e+01
3.040269e+01
3.043562e+01
3.047048e+01
3.050669e+01
3.054419e+01
3.058252e+01
3.063778e+01
3.067435e+01
3.067107e+01
3.065075e+01
3.062760e+01
3.060550e+01
3.057774e+01
3.054442e+01
3.051523e+01
3.049951e+01
3.049988e+01
3.051110e+01
3.052822e+01
3.055021e+01
3.057537e+01
3.060170e+01
3.062707e+01
3.065095e+01
3.067340e+01
3.069297e+01
3.070879e+01
3.072041e+01
3.072771e+01
3.073098e+01
3.072868e+01
3.072248e+01
3.071417e+01
3.070454e+01
3.069375e+01
3.068173e+01
3.066935e+01
3.065737e+01
3.064690e+01
3.063926e+01
3.063583e+01
3.063786e+01
3.064351e+01
3.065164e+01
3.066107e+01
3.067048e+01
3.067867e+01
3.068594e+01
3.069220e+01
3.069739e+01
3.070159e+01
3.070487e+01
3.070721e+01
3.070750e+01
3.070567e+01
3.070201e+01
3.069697e+01
3.069103e+01
3.068487e+01
3.067902e+01
3.067376e+01
3.066936e+01
3.066601e+01
3.066389e+01
3.066318e+01
3.066356e+01
3.066459e+01
3.066599e+01
3.066745e+01
3.066858e+01
3.066903e+01
3.066855e+01
3.066727e+01
3.066518e+01
3.066242e+01
3.065872e+01
3.065900e+01
3.111421e+01
3.111394e+01
3.112628e+01
3.114108e+01
3.116132e+01
3.118967e+01
3.122327e+01
3.132635e+01
3.066904e+01
3.018130e+01
3.026004e+01
3.023233e+01
3.022312e+01
3.020442e+01
3.018837e+01
3.018409e+01
3.019453e+01
3.021345e+01
3.023441e+01
3.025391e+01
3.027247e+01
3.029078e+01
3.030955e+01
3.032944e+01
3.035099e+01
3.037428e+01
3.039883e+01
3.042394e+01
3.044978e+01
3.047668e+01
3.052131e+01
3.056315e+01
3.058480e+01
3.059169e+01
3.059148e+01
3.058933e+01
3.058873e+01
3.058669e+01
3.057471e+01
3.055439e+01
3.053734e+01
3.053065e+01
3.053548e+01
3.054620e+01
3.056185e+01
3.058105e+01
3.060202e+01
3.062283e+01
3.064233e+01
3.066157e+01
3.067909e+01
3.069365e+01
3.070431e+01
3.071063e+01
3.071288e+01
3.071008e+01
3.070469e+01
3.069839e+01
3.069180e+01
3.068478e+01
3.067706e+01
3.066896e+01
3.066104e+01
3.065424e+01
3.064973e+01
3.064866e+01
3.065133e+01
3.065611e+01
3.066212e+01
3.066846e+01
3.067428e+01
3.067919e+01
3.068366e+01
3.068770e+01
3.069138e+01
3.069468e+01
3.069750e+01
3.069970e+01
3.070028e+01
3.069922e+01
3.069672e+01
3.069308e+01
3.068864e+01
3.068399e+01
3.067953e+01
3.067553e+01
3.067224e+01
3.066989e+01
3.066871e+01
3.066881e+01
3.066965e+01
3.067090e+01
3.067226e+01
3.067339e+01
3.067399e+01
3.067382e+01
3.067294e+01
3.067143e+01
3.066933e+01
3.066677e+01
3.066342e+01
3.066370e+01
3.111423e+01
3.111395e+01
3.113346e+01
3.115782e+01
3.119352e+01
3.125096e+01
3.134710e+01
3.148114e+01
3.150635e+01
0.000000e+00
3.022093e+01
3.022066e+01
3.020773e+01
3.020723e+01
3.019494e+01
3.019060e+01
3.019926e+01
3.021846e+01
3.024209e+01
3.026316e+01
3.028129e+01
3.029770e+01
3.031322e+01
3.032841e+01
3.034364e+01
3.035887e+01
3.037380e+01
3.038843e+01
3.040162e+01
3.042027e+01
3.044459e+01
3.047222e+01
3.049893e+01
3.052629e+01
3.054886e+01
3.056676e+01
3.058266e+01
3.059736e+01
3.060336e+01
3.059646e+01
3.058183e+01
3.057080e+01
3.056844e+01
3.057236e+01
3.058103e+01
3.059335e+01
3.060781e+01
3.062273e+01
3.063645e+01
3.065056e+01
3.066381e+01
3.067482e+01
3.068249e+01
3.068655e+01
3.068749e+01
3.068578e+01
3.068327e+01
3.068104e+01
3.067922e+01
3.067736e+01
3.067490e+01
3.067169e+01
3.066813e+01
3.066502e+01
3.066329e+01
3.066364e+01
3.066592e+01
3.066892e+01
3.067211e+01
3.067499e+01
3.067723e+01
3.067900e+01
3.068071e+01
3.068250e+01
3.068443e+01
3.068642e+01
3.068831e+01
3.068995e+01
3.069084e+01
3.069090e+01
3.069011e+01
3.068854e+01
3.068630e+01
3.068378e+01
3.068123e+01
3.067890e+01
3.067703e+01
3.067587e+01
3.067559e+01
3.067614e+01
3.067707e+01
3.067808e+01
3.067891e+01
3.067933e+01
3.067916e+01
3.067836e+01
3.067706e+01
3.067534e+01
3.067325e+01
3.067080e+01
3.066750e+01
3.066777e+01
3.111374e+01
3.111346e+01
3.113668e+01
3.116515e+01
3.120507e+01
3.126420e+01
3.134863e+01
3.144970e+01
3.153101e+01
3.153128e+01
0.000000e+00
3.022244e+01
3.022217e+01
3.021496e+01
3.021245e+01
3.021386e+01
3.022657e+01
3.024745e+01
3.027087e+01
3.029178e+01
3.030986e+01
3.032592e+01
3.034013e+01
3.035242e+01
3.036269e+01
3.037005e+01
3.037348e+01
3.037380e+01
3.037082e+01
3.036733e+01
3.036861e+01
3.038707e+01
3.043011e+01
3.047921e+01
3.052340e+01
3.055895e+01
3.058739e+01
3.061196e+01
3.063007e+01
3.063523e+01
3.062780e+01
3.061521e+01
3.060709e+01
3.060436e+01
3.060592e+01
3.061085e+01
3.061787e+01
3.062553e+01
3.063219e+01
3.063906e+01
3.064548e+01
3.065028e+01
3.065292e+01
3.065375e+01
3.065428e+01
3.065620e+01
3.065968e+01
3.066399e+01
3.066851e+01
3.067264e+01
3.067577e+01
3.067768e+01
3.067843e+01
3.067862e+01
3.067899e+01
3.067977e+01
3.068075e+01
3.068135e+01
3.068129e+01
3.068061e+01
3.067951e+01
3.067821e+01
3.067708e+01
3.067638e+01
3.067613e+01
3.067628e+01
3.067676e+01
3.067758e+01
3.067895e+01
3.068061e+01
3.068223e+01
3.068353e+01
3.068428e+01
3.068455e+01
3.068443e+01
3.068414e+01
3.068391e+01
3.068394e+01
3.068428e+01
3.068488e+01
3.068546e+01
3.068580e+01
3.068574e+01
3.068520e+01
3.068422e+01
3.068285e+01
3.068117e+01
3.067926e+01
3.067713e+01
3.067472e+01
3.067133e+01
3.067161e+01
3.111245e+01
3.111218e+01
3.113561e+01
3.116331e+01
3.119959e+01
3.124885e+01
3.131369e+01
3.137638e+01
3.140157e+01
3.117470e+01
3.117498e+01
0.000000e+00
3.022444e+01
3.022617e+01
3.022092e+01
3.023117e+01
3.025804e+01
3.029170e+01
3.032061e+01
3.034205e+01
3.035932e+01
3.037482e+01
3.038671e+01
3.039371e+01
3.039556e+01
3.039147e+01
3.038202e+01
3.036993e+01
3.034739e+01
3.031888e+01
3.030066e+01
3.032807e+01
3.038728e+01
3.045473e+01
3.051587e+01
3.056416e+01
3.060064e+01
3.063036e+01
3.065503e+01
3.066978e+01
3.067040e+01
3.066049e+01
3.064855e+01
3.064017e+01
3.063508e+01
3.063259e+01
3.063158e+01
3.063074e+01
3.062880e+01
3.062639e+01
3.062309e+01
3.061905e+01
3.061546e+01
3.061377e+01
3.061727e+01
3.062592e+01
3.063747e+01
3.064974e+01
3.066132e+01
3.067133e+01
3.067955e+01
3.068592e+01
3.069043e+01
3.069331e+01
3.069477e+01
3.069489e+01
3.069400e+01
3.069198e+01
3.068897e+01
3.068528e+01
3.068134e+01
3.067723e+01
3.067331e+01
3.066986e+01
3.066705e+01
3.066495e+01
3.066362e+01
3.066348e+01
3.066550e+01
3.066918e+01
3.067379e+01
3.067859e+01
3.068293e+01
3.068642e+01
3.068908e+01
3.069105e+01
3.069250e+01
3.069352e+01
3.069402e+01
3.069419e+01
3.069402e+01
3.069341e+01
3.069237e+01
3.069099e+01
3.068940e+01
3.068759e+01
3.068563e+01
3.068360e+01
3.068146e+01
3.067912e+01
3.067577e+01
3.067605e+01
3.111043e+01
3.111015e+01
3.113104e+01
3.115455e+01
3.118326e+01
3.121793e+01
3.125161e+01
3.126234e+01
3.120310e+01
3.109030e+01
3.069079e+01
3.037630e+01
3.018440e+01
3.021247e+01
3.021791e+01
3.024043e+01
3.028146e+01
3.032709e+01
3.035972e+01
3.038154e+01
3.039863e+01
3.041404e+01
3.042467e+01
3.042789e+01
3.042294e+01
3.041045e+01
3.039218e+01
3.036774e+01
3.032770e+01
3.027882e+01
3.026117e+01
3.030068e+01
3.037300e+01
3.045287e+01
3.052378e+01
3.057767e+01
3.061839e+01
3.065033e+01
3.067720e+01
3.069804e+01
3.070700e+01
3.070279e+01
3.069080e+01
3.067843e+01
3.066775e+01
3.065830e+01
3.064898e+01
3.063867e+01
3.062691e+01
3.061383e+01
3.060019e+01
3.058753e+01
3.057774e+01
3.057378e+01
3.058201e+01
3.059879e+01
3.061941e+01
3.064010e+01
3.065847e+01
3.067357e+01
3.068587e+01
3.069560e+01
3.070273e+01
3.070721e+01
3.070887e+01
3.070809e+01
3.070550e+01
3.070128e+01
3.069579e+01
3.068951e+01
3.068303e+01
3.067634e+01
3.066971e+01
3.066352e+01
3.065807e+01
3.065361e+01
3.065035e+01
3.064927e+01
3.065203e+01
3.065793e+01
3.066579e+01
3.067434e+01
3.068243e+01
3.068915e+01
3.069447e+01
3.069850e+01
3.070136e+01
3.070307e+01
3.070350e+01
3.070317e+01
3.070227e+01
3.070085e+01
3.069900e+01
3.069692e+01
3.069484e+01
3.069270e+01
3.069056e+01
3.068847e+01
3.068642e+01
3.068429e+01
3.068126e+01
3.068154e+01
3.110795e+01
3.110768e+01
3.112419e+01
3.114184e+01
3.116069e+01
3.117808e+01
3.118480e+01
3.116072e+01
3.106948e+01
3.089938e+01
3.063081e+01
3.006125e+01
3.015577e+01
3.022227e+01
3.024663e+01
3.027044e+01
3.030963e+01
3.035357e+01
3.037943e+01
3.040156e+01
3.042558e+01
3.044396e+01
3.045382e+01
3.045296e+01
3.044207e+01
3.042336e+01
3.039883e+01
3.036357e+01
3.030816e+01
3.025394e+01
3.025281e+01
3.030449e+01
3.038487e+01
3.047008e+01
3.054179e+01
3.059680e+01
3.063848e+01
3.067045e+01
3.069622e+01
3.071814e+01
3.073342e+01
3.073705e+01
3.072934e+01
3.071682e+01
3.070217e+01
3.068596e+01
3.066790e+01
3.064810e+01
3.062721e+01
3.060411e+01
3.058061e+01
3.055934e+01
3.054281e+01
3.053885e+01
3.055290e+01
3.057825e+01
3.060779e+01
3.063628e+01
3.066006e+01
3.067905e+01
3.069415e+01
3.070593e+01
3.071452e+01
3.071971e+01
3.072117e+01
3.071966e+01
3.071576e+01
3.070981e+01
3.070229e+01
3.069379e+01
3.068500e+01
3.067589e+01
3.066666e+01
3.065780e+01
3.064977e+01
3.064300e+01
3.063788e+01
3.063601e+01
3.063963e+01
3.064779e+01
3.065890e+01
3.067117e+01
3.068281e+01
3.069248e+01
3.070010e+01
3.070582e+01
3.070975e+01
3.071193e+01
3.071234e+01
3.071164e+01
3.071022e+01
3.070820e+01
3.070576e+01
3.070315e+01
3.070065e+01
3.069828e+01
3.069603e+01
3.069399e+01
3.069217e+01
3.069047e+01
3.068827e+01
3.068854e+01
3.110543e+01
3.110515e+01
3.111651e+01
3.112744e+01
3.113655e+01
3.114006e+01
3.112960e+01
3.109055e+01
3.100091e+01
3.084155e+01
3.062488e+01
3.032593e+01
3.028168e+01
3.028807e+01
3.029703e+01
3.031174e+01
3.033764e+01
3.036785e+01
3.039206e+01
3.041506e+01
3.043670e+01
3.045169e+01
3.045664e+01
3.045249e+01
3.044065e+01
3.042237e+01
3.039850e+01
3.035886e+01
3.029919e+01
3.026172e+01
3.027664e+01
3.033579e+01
3.041682e+01
3.049863e+01
3.056580e+01
3.061831e+01
3.065859e+01
3.068951e+01
3.071348e+01
3.073251e+01
3.074751e+01
3.075539e+01
3.075441e+01
3.074569e+01
3.073038e+01
3.070987e+01
3.068531e+01
3.065827e+01
3.062974e+01
3.059796e+01
3.056575e+01
3.053673e+01
3.051428e+01
3.051295e+01
3.053351e+01
3.056691e+01
3.060411e+01
3.063842e+01
3.066587e+01
3.068724e+01
3.070375e+01
3.071632e+01
3.072532e+01
3.073060e+01
3.073181e+01
3.072984e+01
3.072511e+01
3.071797e+01
3.070892e+01
3.069857e+01
3.068767e+01
3.067634e+01
3.066468e+01
3.065328e+01
3.064280e+01
3.063391e+01
3.062719e+01
3.062479e+01
3.062933e+01
3.063964e+01
3.065371e+01
3.066933e+01
3.068402e+01
3.069613e+01
3.070556e+01
3.071250e+01
3.071717e+01
3.071973e+01
3.072025e+01
3.071941e+01
3.071775e+01
3.071542e+01
3.071265e+01
3.070970e+01
3.070686e+01
3.070434e+01
3.070207e+01
3.070018e+01
3.069876e+01
3.069778e+01
3.069713e+01
3.069741e+01
3.110307e+01
3.110280e+01
3.110885e+01
3.111349e+01
3.111463e+01
3.110852e+01
3.108874e+01
3.104581e+01
3.096753e+01
3.084165e+01
3.067011e+01
3.047398e+01
3.039128e+01
3.036182e+01
3.035230e+01
3.035496e+01
3.036805e+01
3.038695e+01
3.040555e+01
3.042276e+01
3.043713e+01
3.044589e+01
3.044755e+01
3.044238e+01
3.043159e+01
3.041709e+01
3.039621e+01
3.035949e+01
3.031483e+01
3.029834e+01
3.032404e+01
3.038346e+01
3.045840e+01
3.053081e+01
3.059128e+01
3.063938e+01
3.067679e+01
3.070579e+01
3.072841e+01
3.074606e+01
3.075883e+01
3.076659e+01
3.076838e+01
3.076286e+01
3.074939e+01
3.072813e+01
3.070041e+01
3.066873e+01
3.063438e+01
3.059568e+01
3.055647e+01
3.052140e+01
3.049586e+01
3.049914e+01
3.052608e+01
3.056600e+01
3.060870e+01
3.064604e+01
3.067528e+01
3.069749e+01
3.071413e+01
3.072643e+01
3.073501e+01
3.073991e+01
3.074092e+01
3.073879e+01
3.073371e+01
3.072594e+01
3.071590e+01
3.070416e+01
3.069146e+01
3.067812e+01
3.066420e+01
3.065045e+01
3.063772e+01
3.062695e+01
3.061902e+01
3.061642e+01
3.062191e+01
3.063409e+01
3.065064e+01
3.066893e+01
3.068597e+01
3.069991e+01
3.071060e+01
3.071832e+01
3.072344e+01
3.072627e+01
3.072703e+01
3.072629e+01
3.072466e+01
3.072230e+01
3.071946e+01
3.071640e+01
3.071340e+01
3.071080e+01
3.070859e+01
3.070695e+01
3.070608e+01
3.070612e+01
3.070783e+01
3.070811e+01
3.110101e+01
3.110073e+01
3.110203e+01
3.110139e+01
3.109651e+01
3.108413e+01
3.105954e+01
3.101668e+01
3.094867e+01
3.084858e+01
3.071503e+01
3.056607e+01
3.047471e+01
3.042655e+01
3.040240e+01
3.039364e+01
3.039605e+01
3.040531e+01
3.041682e+01
3.042787e+01
3.043660e+01
3.044107e+01
3.044028e+01
3.043432e+01
3.042429e+01
3.041122e+01
3.039229e+01
3.036382e+01
3.033907e+01
3.033956e+01
3.037243e+01
3.042961e+01
3.049671e+01
3.056034e+01
3.061442e+01
3.065806e+01
3.069244e+01
3.071939e+01
3.074054e+01
3.075677e+01
3.076788e+01
3.077439e+01
3.077602e+01
3.077185e+01
3.076030e+01
3.074035e+01
3.071240e+01
3.067874e+01
3.064071e+01
3.059725e+01
3.055316e+01
3.051424e+01
3.049082e+01
3.049882e+01
3.053089e+01
3.057496e+01
3.062027e+01
3.065821e+01
3.068743e+01
3.070909e+01
3.072485e+01
3.073611e+01
3.074372e+01
3.074796e+01
3.074881e+01
3.074665e+01
3.074156e+01
3.073367e+01
3.072321e+01
3.071062e+01
3.069652e+01
3.068145e+01
3.066550e+01
3.064958e+01
3.063480e+01
3.062240e+01
3.061366e+01
3.061121e+01
3.061763e+01
3.063136e+01
3.064977e+01
3.066993e+01
3.068853e+01
3.070367e+01
3.071514e+01
3.072329e+01
3.072862e+01
3.073161e+01
3.073262e+01
3.073216e+01
3.073075e+01
3.072858e+01
3.072589e+01
3.072293e+01
3.071998e+01
3.071738e+01
3.071532e+01
3.071401e+01
3.071381e+01
3.071504e+01
3.071975e+01
3.072003e+01
3.109937e+01
3.109910e+01
3.109649e+01
3.109173e+01
3.108254e+01
3.106614e+01
3.103901e+01
3.099708e+01
3.093617e+01
3.085251e+01
3.074539e+01
3.062700e+01
3.053711e+01
3.047848e+01
3.044356e+01
3.042557e+01
3.041951e+01
3.042109e+01
3.042638e+01
3.043238e+01
3.043697e+01
3.043844e+01
3.043587e+01
3.042919e+01
3.041913e+01
3.040611e+01
3.038900e+01
3.036946e+01
3.035988e+01
3.037264e+01
3.041042e+01
3.046559e+01
3.052664e+01
3.058406e+01
3.063326e+01
3.067332e+01
3.070514e+01
3.073024e+01
3.074996e+01
3.076502e+01
3.077530e+01
3.078108e+01
3.078245e+01
3.077865e+01
3.076825e+01
3.074975e+01
3.072264e+01
3.068834e+01
3.064801e+01
3.060169e+01
3.055499e+01
3.051553e+01
3.049696e+01
3.050960e+01
3.054514e+01
3.059097e+01
3.063619e+01
3.067311e+01
3.070106e+01
3.072127e+01
3.073551e+01
3.074528e+01
3.075166e+01
3.075512e+01
3.075573e+01
3.075359e+01
3.074870e+01
3.074101e+01
3.073060e+01
3.071766e+01
3.070265e+01
3.068617e+01
3.066845e+01
3.065056e+01
3.063389e+01
3.062007e+01
3.061085e+01
3.060884e+01
3.061615e+01
3.063109e+01
3.065078e+01
3.067205e+01
3.069153e+01
3.070733e+01
3.071923e+01
3.072756e+01
3.073293e+01
3.073596e+01
3.073719e+01
3.073704e+01
3.073592e+01
3.073404e+01
3.073162e+01
3.072890e+01
3.072614e+01
3.072367e+01
3.072181e+01
3.072086e+01
3.072133e+01
3.072380e+01
3.073182e+01
3.073210e+01
3.109820e+01
3.109792e+01
3.109238e+01
3.108464e+01
3.107251e+01
3.105358e+01
3.102509e+01
3.098406e+01
3.092770e+01
3.085396e+01
3.076324e+01
3.066418e+01
3.057969e+01
3.051722e+01
3.047542e+01
3.045034e+01
3.043775e+01
3.043356e+01
3.043408e+01
3.043627e+01
3.043785e+01
3.043718e+01
3.043329e+01
3.042592e+01
3.041543e+01
3.040216e+01
3.038697e+01
3.037463e+01
3.037522e+01
3.039644e+01
3.043755e+01
3.049115e+01
3.054806e+01
3.060128e+01
3.064707e+01
3.068457e+01
3.071453e+01
3.073829e+01
3.075700e+01
3.077128e+01
3.078135e+01
3.078733e+01
3.078918e+01
3.078611e+01
3.077674e+01
3.075948e+01
3.073319e+01
3.069827e+01
3.065573e+01
3.060702e+01
3.055883e+01
3.052122e+01
3.050828e+01
3.052510e+01
3.056290e+01
3.060902e+01
3.065276e+01
3.068815e+01
3.071447e+01
3.073285e+01
3.074515e+01
3.075325e+01
3.075842e+01
3.076134e+01
3.076179e+01
3.075971e+01
3.075508e+01
3.074775e+01
3.073762e+01
3.072472e+01
3.070923e+01
3.069168e+01
3.067248e+01
3.065284e+01
3.063442e+01
3.061932e+01
3.060979e+01
3.060839e+01
3.061652e+01
3.063239e+01
3.065293e+01
3.067476e+01
3.069463e+01
3.071078e+01
3.072290e+01
3.073133e+01
3.073668e+01
3.073968e+01
3.074098e+01
3.074109e+01
3.074020e+01
3.073857e+01
3.073642e+01
3.073396e+01
3.073144e+01
3.072916e+01
3.072750e+01
3.072687e+01
3.072794e+01
3.073150e+01
3.074270e+01
3.074298e+01
3.109746e+01
3.109719e+01
3.108970e+01
3.108003e+01
3.106609e+01
3.104571e+01
3.101654e+01
3.097621e+01
3.092262e+01
3.085459e+01
3.077321e+01
3.068530e+01
3.060550e+01
3.054205e+01
3.049658e+01
3.046712e+01
3.045026e+01
3.044224e+01
3.043951e+01
3.043912e+01
3.043872e+01
3.043664e+01
3.043186e+01
3.042395e+01
3.041294e+01
3.039948e+01
3.038606e+01
3.037894e+01
3.038610e+01
3.041201e+01
3.045460e+01
3.050707e+01
3.056154e+01
3.061223e+01
3.065593e+01
3.069180e+01
3.072052e+01
3.074330e+01
3.076128e+01
3.077530e+01
3.078568e+01
3.079240e+01
3.079519e+01
3.079323e+01
3.078512e+01
3.076913e+01
3.074370e+01
3.070817e+01
3.066315e+01
3.061157e+01
3.056176e+01
3.052645e+01
3.051813e+01
3.053822e+01
3.057755e+01
3.062354e+01
3.066601e+01
3.069996e+01
3.072466e+01
3.074140e+01
3.075219e+01
3.075896e+01
3.076314e+01
3.076558e+01
3.076594e+01
3.076413e+01
3.076000e+01
3.075326e+01
3.074364e+01
3.073096e+01
3.071530e+01
3.069701e+01
3.067665e+01
3.065551e+01
3.063553e+01
3.061923e+01
3.060942e+01
3.060860e+01
3.061738e+01
3.063394e+01
3.065505e+01
3.067715e+01
3.069723e+01
3.071365e+01
3.072598e+01
3.073445e+01
3.073973e+01
3.074263e+01
3.074389e+01
3.074414e+01
3.074339e+01
3.074195e+01
3.074001e+01
3.073777e+01
3.073547e+01
3.073336e+01
3.073182e+01
3.073141e+01
3.073287e+01
3.073721e+01
3.075100e+01
3.075128e+01
3.109712e+01
3.109684e+01
3.108839e+01
3.107779e+01
3.106301e+01
3.104201e+01
3.101265e+01
3.097279e+01
3.092064e+01
3.085535e+01
3.077827e+01
3.069541e+01
3.061806e+01
3.055440e+01
3.050728e+01
3.047569e+01
3.045670e+01
3.044673e+01
3.044233e+01
3.044060e+01
3.043919e+01
3.043642e+01
3.043120e+01
3.042299e+01
3.041168e+01
3.039826e+01
3.038611e+01
3.038166e+01
3.039165e+01
3.041924e+01
3.046205e+01
3.051372e+01
3.056697e+01
3.061655e+01
3.065943e+01
3.069475e+01
3.072306e+01
3.074549e+01
3.076319e+01
3.077705e+01
3.078755e+01
3.079480e+01
3.079844e+01
3.079755e+01
3.079068e+01
3.077601e+01
3.075164e+01
3.071603e+01
3.066890e+01
3.061405e+01
3.056198e+01
3.052762e+01
3.052189e+01
3.054410e+01
3.058435e+01
3.063008e+01
3.067182e+01
3.070518e+01
3.072937e+01
3.074560e+01
3.075585e+01
3.076209e+01
3.076579e+01
3.076775e+01
3.076801e+01
3.076645e+01
3.076277e+01
3.075654e+01
3.074741e+01
3.073511e+01
3.071957e+01
3.070094e+01
3.067986e+01
3.065760e+01
3.063630e+01
3.061891e+01
3.060870e+01
3.060807e+01
3.061727e+01
3.063432e+01
3.065582e+01
3.067806e+01
3.069820e+01
3.071472e+01
3.072716e+01
3.073574e+01
3.074114e+01
3.074414e+01
3.074549e+01
3.074570e+01
3.074502e+01
3.074369e+01
3.074191e+01
3.073985e+01
3.073771e+01
3.073575e+01
3.073432e+01
3.073404e+01
3.073571e+01
3.074044e+01
3.075570e+01
3.075598e+01
0.000000e+00
3.109712e+01
3.108866e+01
3.107807e+01
3.106329e+01
3.104229e+01
3.101292e+01
3.097306e+01
3.092091e+01
3.085563e+01
3.077855e+01
3.069569e+01
3.061834e+01
3.055467e+01
3.050756e+01
3.047597e+01
3.045697e+01
3.044700e+01
3.044261e+01
3.044088e+01
3.043947e+01
3.043669e+01
3.043148e+01
3.042327e+01
3.041195e+01
3.039854e+01
3.038639e+01
3.038194e+01
3.039192e+01
3.041952e+01
3.046233e+01
3.051400e+01
3.056725e+01
3.061682e+01
3.065970e+01
3.069502e+01
3.072334e+01
3.074577e+01
3.076347e+01
3.077733e+01
3.078782e+01
3.079507e+01
3.079871e+01
3.079783e+01
3.079096e+01
3.077628e+01
3.075192e+01
3.071631e+01
3.066917e+01
3.061432e+01
3.056226e+01
3.052789e+01
3.052217e+01
3.054437e+01
3.058463e+01
3.063036e+01
3.067210e+01
3.070546e+01
3.072964e+01
3.074587e+01
3.075613e+01