# vtk DataFile Version 3.0
Scalar Field
ASCII
DATASET RECTILINEAR_GRID
DIMENSIONS 102 22 1
X_COORDINATES 102 double
0.000000 0.100000 0.200000 0.300000 0.400000 0.500000 0.600000 0.700000 0.800000 0.900000 1.000000 1.100000 1.200000 1.300000 1.400000 1.500000 1.600000 1.700000 1.800000 1.900000 2.000000 2.100000 2.200000 2.300000 2.400000 2.500000 2.600000 2.700000 2.800000 2.900000 3.000000 3.100000 3.200000 3.300000 3.400000 3.500000 3.600000 3.700000 3.800000 3.900000 4.000000 4.100000 4.200000 4.300000 4.400000 4.500000 4.600000 4.700000 4.800000 4.900000 5.000000 5.100000 5.200000 5.300000 5.400000 5.500000 5.600000 5.700000 5.800000 5.900000 6.000000 6.100000 6.200000 6.300000 6.400000 6.500000 6.600000 6.700000 6.800000 6.900000 7.000000 7.100000 7.200000 7.300000 7.400000 7.500000 7.600000 7.700000 7.800000 7.900000 8.000000 8.100000 8.200000 8.300000 8.400000 8.500000 8.600000 8.700000 8.800000 8.900000 9.000000 9.100000 9.200000 9.300000 9.400000 9.500000 9.600000 9.700000 9.800000 9.900000 10.000000 10.100000 
Y_COORDINATES 22 double
0.000000 0.100000 0.200000 0.300000 0.400000 0.500000 0.600000 0.700000 0.800000 0.900000 1.000000 1.100000 1.200000 1.300000 1.400000 1.500000 1.600000 1.700000 1.800000 1.900000 2.000000 2.100000 
Z_COORDINATES 1 double
0.0
POINT_DATA 2244
SCALARS Pressure double 1
LOOKUP_TABLE default
0.000000e+00
3.013464e+01
3.010255e+01
3.006680e+01
3.002343e+01
2.996809e+01
2.989630e+01
2.980570e+01
2.969328e+01
2.957933e+01
2.948091e+01
2.940469e+01
2.935093e+01
2.931742e+01
2.930108e+01
2.929885e+01
2.930815e+01
2.932685e+01
2.935304e+01
2.938491e+01
2.942069e+01
2.945868e+01
2.949728e+01
2.953506e+01
2.957068e+01
2.960283e+01
2.963034e+01
2.965249e+01
2.966917e+01
2.968092e+01
2.968863e+01
2.969335e+01
2.969600e+01
2.969733e+01
2.969785e+01
2.969789e+01
2.969765e+01
2.969724e+01
2.969672e+01
2.969613e+01
2.969549e+01
2.969482e+01
2.969412e+01
2.969341e+01
2.969269e+01
2.969196e+01
2.969123e+01
2.969051e+01
2.968980e+01
2.968911e+01
2.968842e+01
2.968775e+01
2.968710e+01
2.968646e+01
2.968583e+01
2.968522e+01
2.968462e+01
2.968404e+01
2.968346e+01
2.968290e+01
2.968235e+01
2.968180e+01
2.968127e+01
2.968074e+01
2.968022e+01
2.967971e+01
2.967921e+01
2.967872e+01
2.967823e+01
2.967775e+01
2.967727e+01
2.967681e+01
2.967635e+01
2.967590e+01
2.967546e+01
2.967502e+01
2.967459e+01
2.967418e+01
2.967377e+01
2.967336e+01
2.967297e+01
2.967259e+01
2.967222e+01
2.967185e+01
2.967150e+01
2.967115e+01
2.967082e+01
2.967049e+01
2.967018e+01
2.966988e+01
2.966958e+01
2.966930e+01
2.966903e+01
2.966877e+01
2.966851e+01
2.966827e+01
2.966803e+01
2.966779e+01
2.966754e+01
2.966724e+01
2.966707e+01
0.000000e+00
3.013464e+01
3.013456e+01
3.010246e+01
3.006671e+01
3.002335e+01
2.996801e+01
2.989622e+01
2.980562e+01
2.969320e+01
2.957925e+01
2.948083e+01
2.940461e+01
2.935085e+01
2.931734e+01
2.930099e+01
2.929876e+01
2.930807e+01
2.932677e+01
2.935296e+01
2.938483e+01
2.942061e+01
2.945859e+01
2.949720e+01
2.953498e+01
2.957060e+01
2.960275e+01
2.963026e+01
2.965241e+01
2.966909e+01
2.968083e+01
2.968855e+01
2.969326e+01
2.969592e+01
2.969725e+01
2.969777e+01
2.969781e+01
2.969757e+01
2.969716e+01
2.969664e+01
2.969605e+01
2.969541e+01
2.969474e+01
2.969404e+01
2.969333e+01
2.969261e+01
2.969188e+01
2.969115e+01
2.969043e+01
2.968972e+01
2.968903e+01
2.968834e+01
2.968767e+01
2.968702e+01
2.968638e+01
2.968575e+01
2.968514e+01
2.968454e+01
2.968396e+01
2.968338e+01
2.968282e+01
2.968226e+01
2.968172e+01
2.968119e+01
2.968066e+01
2.968014e+01
2.967963e+01
2.967913e+01
2.967863e+01
2.967815e+01
2.967767e+01
2.967719e+01
2.967673e+01
2.967627e+01
2.967582e+01
2.967538e+01
2.967494e+01
2.967451e+01
2.967410e+01
2.967369e+01
2.967328e+01
2.967289e+01
2.967251e+01
2.967213e+01
2.967177e+01
2.967142e+01
2.967107e+01
2.967074e+01
2.967041e+01
2.967010e+01
2.966980e+01
2.966950e+01
2.966922e+01
2.966895e+01
2.966869e+01
2.966843e+01
2.966819e+01
2.966795e+01
2.966771e+01
2.966745e+01
2.966716e+01
2.966699e+01
2.966707e+01
3.013265e+01
3.013256e+01
3.010198e+01
3.006748e+01
3.002482e+01
2.996920e+01
2.989542e+01
2.980093e+01
2.967867e+01
2.956058e+01
2.946363e+01
2.939082e+01
2.934019e+01
2.930905e+01
2.929443e+01
2.929335e+01
2.930345e+01
2.932274e+01
2.934940e+01
2.938165e+01
2.941777e+01
2.945609e+01
2.949504e+01
2.953317e+01
2.956917e+01
2.960167e+01
2.962950e+01
2.965190e+01
2.966877e+01
2.968064e+01
2.968844e+01
2.969322e+01
2.969591e+01
2.969726e+01
2.969778e+01
2.969783e+01
2.969759e+01
2.969717e+01
2.969665e+01
2.969605e+01
2.969541e+01
2.969473e+01
2.969403e+01
2.969331e+01
2.969259e+01
2.969186e+01
2.969114e+01
2.969042e+01
2.968972e+01
2.968902e+01
2.968834e+01
2.968768e+01
2.968703e+01
2.968639e+01
2.968577e+01
2.968516e+01
2.968457e+01
2.968399e+01
2.968341e+01
2.968285e+01
2.968230e+01
2.968176e+01
2.968123e+01
2.968070e+01
2.968018e+01
2.967967e+01
2.967917e+01
2.967868e+01
2.967819e+01
2.967771e+01
2.967723e+01
2.967677e+01
2.967631e+01
2.967586e+01
2.967541e+01
2.967498e+01
2.967455e+01
2.967413e+01
2.967372e+01
2.967332e+01
2.967293e+01
2.967254e+01
2.967217e+01
2.967180e+01
2.967145e+01
2.967110e+01
2.967077e+01
2.967044e+01
2.967013e+01
2.966983e+01
2.966953e+01
2.966925e+01
2.966898e+01
2.966872e+01
2.966847e+01
2.966822e+01
2.966799e+01
2.966775e+01
2.966752e+01
2.966729e+01
2.966712e+01
2.966720e+01
3.012931e+01
3.012923e+01
3.010184e+01
3.007017e+01
3.002951e+01
2.997394e+01
2.989636e+01
2.979279e+01
2.964724e+01
2.952194e+01
2.942970e+01
2.936440e+01
2.931994e+01
2.929325e+01
2.928193e+01
2.928289e+01
2.929436e+01
2.931466e+01
2.934208e+01
2.937493e+01
2.941157e+01
2.945040e+01
2.948988e+01
2.952859e+01
2.956517e+01
2.959832e+01
2.962682e+01
2.964985e+01
2.966727e+01
2.967959e+01
2.968774e+01
2.969275e+01
2.969561e+01
2.969706e+01
2.969765e+01
2.969773e+01
2.969750e+01
2.969708e+01
2.969655e+01
2.969595e+01
2.969531e+01
2.969462e+01
2.969392e+01
2.969321e+01
2.969249e+01
2.969177e+01
2.969106e+01
2.969035e+01
2.968966e+01
2.968898e+01
2.968831e+01
2.968766e+01
2.968702e+01
2.968639e+01
2.968578e+01
2.968519e+01
2.968460e+01
2.968402e+01
2.968346e+01
2.968290e+01
2.968235e+01
2.968181e+01
2.968128e+01
2.968076e+01
2.968024e+01
2.967973e+01
2.967923e+01
2.967874e+01
2.967825e+01
2.967777e+01
2.967729e+01
2.967682e+01
2.967636e+01
2.967591e+01
2.967546e+01
2.967503e+01
2.967460e+01
2.967418e+01
2.967377e+01
2.967336e+01
2.967297e+01
2.967258e+01
2.967221e+01
2.967184e+01
2.967149e+01
2.967114e+01
2.967080e+01
2.967048e+01
2.967016e+01
2.966986e+01
2.966957e+01
2.966928e+01
2.966901e+01
2.966875e+01
2.966850e+01
2.966826e+01
2.966803e+01
2.966780e+01
2.966759e+01
2.966739e+01
2.966722e+01
2.966730e+01
3.012513e+01
3.012505e+01
3.010264e+01
3.007566e+01
3.003873e+01
2.998389e+01
2.990001e+01
2.977734e+01
2.958820e+01
2.945884e+01
2.938024e+01
2.932748e+01
2.929160e+01
2.927066e+01
2.926382e+01
2.926743e+01
2.928075e+01
2.930250e+01
2.933107e+01
2.936483e+01
2.940221e+01
2.944175e+01
2.948196e+01
2.952139e+01
2.955869e+01
2.959277e+01
2.962234e+01
2.964644e+01
2.966482e+01
2.967789e+01
2.968656e+01
2.969193e+01
2.969499e+01
2.969657e+01
2.969725e+01
2.969737e+01
2.969718e+01
2.969679e+01
2.969628e+01
2.969570e+01
2.969506e+01
2.969439e+01
2.969371e+01
2.969301e+01
2.969231e+01
2.969161e+01
2.969091e+01
2.969023e+01
2.968955e+01
2.968889e+01
2.968825e+01
2.968762e+01
2.968700e+01
2.968639e+01
2.968580e+01
2.968521e+01
2.968464e+01
2.968407e+01
2.968352e+01
2.968297e+01
2.968242e+01
2.968189e+01
2.968136e+01
2.968084e+01
2.968032e+01
2.967981e+01
2.967931e+01
2.967881e+01
2.967832e+01
2.967784e+01
2.967736e+01
2.967689e+01
2.967643e+01
2.967597e+01
2.967553e+01
2.967509e+01
2.967466e+01
2.967423e+01
2.967382e+01
2.967341e+01
2.967302e+01
2.967263e+01
2.967225e+01
2.967188e+01
2.967153e+01
2.967118e+01
2.967084e+01
2.967052e+01
2.967020e+01
2.966990e+01
2.966960e+01
2.966932e+01
2.966905e+01
2.966879e+01
2.966853e+01
2.966830e+01
2.966807e+01
2.966785e+01
2.966765e+01
2.966747e+01
2.966731e+01
2.966739e+01
3.012073e+01
3.012065e+01
3.010510e+01
3.008509e+01
3.005472e+01
3.000306e+01
2.991075e+01
2.974986e+01
2.948649e+01
2.936954e+01
2.931780e+01
2.928289e+01
2.925713e+01
2.924208e+01
2.924019e+01
2.924667e+01
2.926226e+01
2.928604e+01
2.931631e+01
2.935139e+01
2.938984e+01
2.943031e+01
2.947144e+01
2.951178e+01
2.954988e+01
2.958520e+01
2.961631e+01
2.964197e+01
2.966166e+01
2.967567e+01
2.968495e+01
2.969066e+01
2.969394e+01
2.969567e+01
2.969646e+01
2.969669e+01
2.969658e+01
2.969627e+01
2.969582e+01
2.969528e+01
2.969468e+01
2.969405e+01
2.969340e+01
2.969273e+01
2.969206e+01
2.969139e+01
2.969072e+01
2.969007e+01
2.968943e+01
2.968880e+01
2.968818e+01
2.968758e+01
2.968699e+01
2.968640e+01
2.968583e+01
2.968526e+01
2.968470e+01
2.968415e+01
2.968360e+01
2.968306e+01
2.968252e+01
2.968199e+01
2.968147e+01
2.968094e+01
2.968043e+01
2.967992e+01
2.967941e+01
2.967891e+01
2.967842e+01
2.967793e+01
2.967745e+01
2.967698e+01
2.967651e+01
2.967605e+01
2.967560e+01
2.967516e+01
2.967472e+01
2.967430e+01
2.967388e+01
2.967347e+01
2.967307e+01
2.967268e+01
2.967230e+01
2.967193e+01
2.967157e+01
2.967122e+01
2.967088e+01
2.967056e+01
2.967024e+01
2.966993e+01
2.966964e+01
2.966935e+01
2.966908e+01
2.966882e+01
2.966857e+01
2.966833e+01
2.966811e+01
2.966790e+01
2.966771e+01
2.966754e+01
2.966738e+01
2.966746e+01
3.011668e+01
3.011660e+01
3.010967e+01
3.009938e+01
3.008037e+01
3.003935e+01
2.994372e+01
2.971542e+01
2.931115e+01
2.925089e+01
2.925264e+01
2.924009e+01
2.922344e+01
2.921136e+01
2.921170e+01
2.922071e+01
2.923906e+01
2.926580e+01
2.929860e+01
2.933562e+01
2.937552e+01
2.941717e+01
2.945939e+01
2.950077e+01
2.953963e+01
2.957632e+01
2.960936e+01
2.963695e+01
2.965817e+01
2.967318e+01
2.968300e+01
2.968900e+01
2.969245e+01
2.969433e+01
2.969527e+01
2.969566e+01
2.969571e+01
2.969552e+01
2.969517e+01
2.969473e+01
2.969421e+01
2.969363e+01
2.969303e+01
2.969240e+01
2.969178e+01
2.969115e+01
2.969053e+01
2.968992e+01
2.968933e+01
2.968874e+01
2.968816e+01
2.968758e+01
2.968702e+01
2.968646e+01
2.968591e+01
2.968536e+01
2.968481e+01
2.968427e+01
2.968373e+01
2.968319e+01
2.968266e+01
2.968213e+01
2.968160e+01
2.968108e+01
2.968056e+01
2.968005e+01
2.967954e+01
2.967903e+01
2.967853e+01
2.967804e+01
2.967756e+01
2.967708e+01
2.967661e+01
2.967614e+01
2.967569e+01
2.967524e+01
2.967480e+01
2.967437e+01
2.967395e+01
2.967353e+01
2.967313e+01
2.967274e+01
2.967236e+01
2.967198e+01
2.967162e+01
2.967127e+01
2.967093e+01
2.967060e+01
2.967028e+01
2.966997e+01
2.966967e+01
2.966939e+01
2.966912e+01
2.966885e+01
2.966861e+01
2.966837e+01
2.966815e+01
2.966794e+01
2.966775e+01
2.966759e+01
2.966743e+01
2.966751e+01
3.011328e+01
3.011320e+01
3.011603e+01
3.011800e+01
3.011679e+01
3.010251e+01
3.003823e+01
2.977762e+01
2.899706e+01
2.909790e+01
2.920843e+01
2.921600e+01
2.920528e+01
2.919114e+01
2.918179e+01
2.919024e+01
2.921277e+01
2.924453e+01
2.928130e+01
2.932107e+01
2.936274e+01
2.940561e+01
2.944881e+01
2.949104e+01
2.953036e+01
2.956804e+01
2.960289e+01
2.963228e+01
2.965479e+01
2.967051e+01
2.968066e+01
2.968681e+01
2.969040e+01
2.969247e+01
2.969364e+01
2.969429e+01
2.969462e+01
2.969462e+01
2.969443e+01
2.969410e+01
2.969368e+01
2.969319e+01
2.969266e+01
2.969211e+01
2.969155e+01
2.969098e+01
2.969042e+01
2.968986e+01
2.968931e+01
2.968876e+01
2.968822e+01
2.968768e+01
2.968714e+01
2.968660e+01
2.968606e+01
2.968552e+01
2.968499e+01
2.968445e+01
2.968391e+01
2.968338e+01
2.968284e+01
2.968231e+01
2.968178e+01
2.968125e+01
2.968073e+01
2.968020e+01
2.967969e+01
2.967918e+01
2.967867e+01
2.967817e+01
2.967768e+01
2.967719e+01
2.967671e+01
2.967624e+01
2.967578e+01
2.967533e+01
2.967488e+01
2.967445e+01
2.967402e+01
2.967360e+01
2.967320e+01
2.967280e+01
2.967241e+01
2.967204e+01
2.967167e+01
2.967132e+01
2.967097e+01
2.967064e+01
2.967032e+01
2.967001e+01
2.966971e+01
2.966942e+01
2.966915e+01
2.966889e+01
2.966864e+01
2.966840e+01
2.966818e+01
2.966798e+01
2.966780e+01
2.966763e+01
2.966747e+01
2.966755e+01
3.011040e+01
3.011031e+01
3.012263e+01
3.013738e+01
3.015759e+01
3.018578e+01
3.021864e+01
3.032003e+01
2.965863e+01
2.918128e+01
2.926451e+01
2.922250e+01
2.920859e+01
2.919233e+01
2.916871e+01
2.916863e+01
2.919296e+01
2.923398e+01
2.927577e+01
2.931820e+01
2.936077e+01
2.940355e+01
2.944624e+01
2.948777e+01
2.952611e+01
2.956296e+01
2.959792e+01
2.962766e+01
2.965041e+01
2.966632e+01
2.967672e+01
2.968324e+01
2.968721e+01
2.968982e+01
2.969151e+01
2.969248e+01
2.969307e+01
2.969338e+01
2.969346e+01
2.969337e+01
2.969315e+01
2.969282e+01
2.969243e+01
2.969198e+01
2.969151e+01
2.969101e+01
2.969051e+01
2.969000e+01
2.968949e+01
2.968897e+01
2.968845e+01
2.968792e+01
2.968740e+01
2.968687e+01
2.968633e+01
2.968580e+01
2.968526e+01
2.968471e+01
2.968417e+01
2.968363e+01
2.968308e+01
2.968254e+01
2.968200e+01
2.968146e+01
2.968092e+01
2.968039e+01
2.967987e+01
2.967934e+01
2.967883e+01
2.967832e+01
2.967782e+01
2.967732e+01
2.967684e+01
2.967636e+01
2.967589e+01
2.967543e+01
2.967497e+01
2.967453e+01
2.967410e+01
2.967368e+01
2.967327e+01
2.967286e+01
2.967247e+01
2.967209e+01
2.967173e+01
2.967137e+01
2.967102e+01
2.967068e+01
2.967036e+01
2.967005e+01
2.966975e+01
2.966946e+01
2.966918e+01
2.966892e+01
2.966867e+01
2.966844e+01
2.966822e+01
2.966801e+01
2.966783e+01
2.966767e+01
2.966751e+01
2.966759e+01
3.010752e+01
3.010744e+01
3.012704e+01
3.015143e+01
3.018719e+01
3.024467e+01
3.034075e+01
3.047672e+01
3.049711e+01
0.000000e+00
2.920498e+01
2.920490e+01
2.918237e+01
2.918261e+01
2.916431e+01
2.916139e+01
2.918536e+01
2.923503e+01
2.928578e+01
2.933160e+01
2.937410e+01
2.941499e+01
2.945492e+01
2.949328e+01
2.952814e+01
2.956170e+01
2.959381e+01
2.962130e+01
2.964274e+01
2.965838e+01
2.966924e+01
2.967676e+01
2.968158e+01
2.968466e+01
2.968700e+01
2.968888e+01
2.969035e+01
2.969147e+01
2.969223e+01
2.969266e+01
2.969284e+01
2.969280e+01
2.969261e+01
2.969229e+01
2.969190e+01
2.969146e+01
2.969099e+01
2.969049e+01
2.968998e+01
2.968945e+01
2.968893e+01
2.968839e+01
2.968785e+01
2.968730e+01
2.968675e+01
2.968619e+01
2.968563e+01
2.968507e+01
2.968451e+01
2.968395e+01
2.968339e+01
2.968283e+01
2.968227e+01
2.968171e+01
2.968116e+01
2.968061e+01
2.968007e+01
2.967954e+01
2.967901e+01
2.967848e+01
2.967797e+01
2.967747e+01
2.967697e+01
2.967648e+01
2.967600e+01
2.967553e+01
2.967507e+01
2.967462e+01
2.967418e+01
2.967376e+01
2.967334e+01
2.967293e+01
2.967254e+01
2.967215e+01
2.967178e+01
2.967142e+01
2.967107e+01
2.967073e+01
2.967040e+01
2.967009e+01
2.966979e+01
2.966949e+01
2.966922e+01
2.966895e+01
2.966870e+01
2.966847e+01
2.966825e+01
2.966804e+01
2.966786e+01
2.966770e+01
2.966753e+01
2.966762e+01
3.010413e+01
3.010405e+01
3.012745e+01
3.015598e+01
3.019595e+01
3.025512e+01
3.033963e+01
3.044076e+01
3.051734e+01
3.051742e+01
0.000000e+00
2.919046e+01
2.919038e+01
2.917792e+01
2.917227e+01
2.917608e+01
2.920240e+01
2.925136e+01
2.930756e+01
2.935978e+01
2.940201e+01
2.943949e+01
2.947455e+01
2.950705e+01
2.953552e+01
2.956258e+01
2.958793e+01
2.961016e+01
2.962866e+01
2.964347e+01
2.965476e+01
2.966346e+01
2.967051e+01
2.967628e+01
2.968082e+01
2.968444e+01
2.968729e+01
2.968953e+01
2.969118e+01
2.969230e+01
2.969298e+01
2.969330e+01
2.969333e+01
2.969315e+01
2.969282e+01
2.969240e+01
2.969191e+01
2.969138e+01
2.969082e+01
2.969025e+01
2.968967e+01
2.968909e+01
2.968850e+01
2.968791e+01
2.968731e+01
2.968672e+01
2.968612e+01
2.968553e+01
2.968493e+01
2.968434e+01
2.968375e+01
2.968316e+01
2.968258e+01
2.968200e+01
2.968143e+01
2.968086e+01
2.968030e+01
2.967975e+01
2.967920e+01
2.967866e+01
2.967814e+01
2.967762e+01
2.967711e+01
2.967661e+01
2.967612e+01
2.967564e+01
2.967518e+01
2.967472e+01
2.967427e+01
2.967384e+01
2.967341e+01
2.967300e+01
2.967260e+01
2.967221e+01
2.967183e+01
2.967147e+01
2.967112e+01
2.967077e+01
2.967044e+01
2.967013e+01
2.966982e+01
2.966953e+01
2.966925e+01
2.966898e+01
2.966873e+01
2.966849e+01
2.966827e+01
2.966807e+01
2.966788e+01
2.966772e+01
2.966755e+01
2.966763e+01
3.009998e+01
3.009990e+01
3.012358e+01
3.015134e+01
3.018762e+01
3.023648e+01
3.030096e+01
3.036455e+01
3.038579e+01
3.016509e+01
3.016517e+01
0.000000e+00
2.918295e+01
2.917535e+01
2.916147e+01
2.917723e+01
2.922534e+01
2.929330e+01
2.935729e+01
2.940852e+01
2.944566e+01
2.947793e+01
2.950526e+01
2.952809e+01
2.954637e+01
2.956202e+01
2.957610e+01
2.958978e+01
2.960504e+01
2.962100e+01
2.963614e+01
2.964980e+01
2.966100e+01
2.966955e+01
2.967607e+01
2.968113e+01
2.968505e+01
2.968813e+01
2.969048e+01
2.969219e+01
2.969335e+01
2.969402e+01
2.969431e+01
2.969429e+01
2.969405e+01
2.969365e+01
2.969314e+01
2.969256e+01
2.969194e+01
2.969130e+01
2.969064e+01
2.968998e+01
2.968932e+01
2.968866e+01
2.968801e+01
2.968735e+01
2.968671e+01
2.968606e+01
2.968542e+01
2.968479e+01
2.968416e+01
2.968354e+01
2.968293e+01
2.968232e+01
2.968172e+01
2.968113e+01
2.968055e+01
2.967997e+01
2.967941e+01
2.967886e+01
2.967831e+01
2.967778e+01
2.967726e+01
2.967675e+01
2.967625e+01
2.967576e+01
2.967528e+01
2.967482e+01
2.967436e+01
2.967392e+01
2.967349e+01
2.967307e+01
2.967267e+01
2.967227e+01
2.967189e+01
2.967152e+01
2.967116e+01
2.967082e+01
2.967048e+01
2.967016e+01
2.966986e+01
2.966956e+01
2.966928e+01
2.966901e+01
2.966875e+01
2.966852e+01
2.966829e+01
2.966809e+01
2.966790e+01
2.966773e+01
2.966756e+01
2.966764e+01
3.009519e+01
3.009511e+01
3.011630e+01
3.013989e+01
3.016838e+01
3.020292e+01
3.023667e+01
3.024707e+01
3.018652e+01
3.007476e+01
2.967462e+01
2.934936e+01
2.912400e+01
2.914013e+01
2.914460e+01
2.917551e+01
2.924198e+01
2.933683e+01
2.942143e+01
2.947489e+01
2.950576e+01
2.952635e+01
2.954058e+01
2.955005e+01
2.955647e+01
2.955949e+01
2.956223e+01
2.956776e+01
2.958102e+01
2.960007e+01
2.962115e+01
2.963987e+01
2.965470e+01
2.966540e+01
2.967324e+01
2.967920e+01
2.968381e+01
2.968740e+01
2.969017e+01
2.969224e+01
2.969372e+01
2.969468e+01
2.969520e+01
2.969535e+01
2.969522e+01
2.969488e+01
2.969439e+01
2.969379e+01
2.969313e+01
2.969242e+01
2.969170e+01
2.969096e+01
2.969023e+01
2.968950e+01
2.968877e+01
2.968805e+01
2.968734e+01
2.968664e+01
2.968596e+01
2.968528e+01
2.968461e+01
2.968395e+01
2.968330e+01
2.968266e+01
2.968203e+01
2.968141e+01
2.968080e+01
2.968021e+01
2.967962e+01
2.967905e+01
2.967849e+01
2.967794e+01
2.967741e+01
2.967688e+01
2.967637e+01
2.967587e+01
2.967539e+01
2.967491e+01
2.967445e+01
2.967400e+01
2.967356e+01
2.967314e+01
2.967273e+01
2.967233e+01
2.967194e+01
2.967157e+01
2.967121e+01
2.967086e+01
2.967052e+01
2.967020e+01
2.966989e+01
2.966959e+01
2.966931e+01
2.966903e+01
2.966878e+01
2.966853e+01
2.966831e+01
2.966810e+01
2.966791e+01
2.966774e+01
2.966757e+01
2.966765e+01
3.009010e+01
3.009002e+01
3.010689e+01
3.012456e+01
3.014335e+01
3.016058e+01
3.016719e+01
3.014272e+01
3.005135e+01
2.987942e+01
2.960782e+01
2.902392e+01
2.910771e+01
2.915940e+01
2.917699e+01
2.921642e+01
2.928741e+01
2.938242e+01
2.946205e+01
2.950114e+01
2.953231e+01
2.955541e+01
2.956115e+01
2.956172e+01
2.956020e+01
2.955285e+01
2.954640e+01
2.954834e+01
2.956409e+01
2.958811e+01
2.961351e+01
2.963552e+01
2.965161e+01
2.966340e+01
2.967216e+01
2.967878e+01
2.968384e+01
2.968772e+01
2.969065e+01
2.969282e+01
2.969436e+01
2.969538e+01
2.969597e+01
2.969621e+01
2.969616e+01
2.969588e+01
2.969543e+01
2.969485e+01
2.969418e+01
2.969345e+01
2.969268e+01
2.969190e+01
2.969111e+01
2.969032e+01
2.968953e+01
2.968875e+01
2.968799e+01
2.968724e+01
2.968650e+01
2.968577e+01
2.968506e+01
2.968436e+01
2.968367e+01
2.968300e+01
2.968234e+01
2.968169e+01
2.968106e+01
2.968044e+01
2.967984e+01
2.967925e+01
2.967867e+01
2.967811e+01
2.967756e+01
2.967702e+01
2.967649e+01
2.967598e+01
2.967549e+01
2.967501e+01
2.967454e+01
2.967408e+01
2.967364e+01
2.967321e+01
2.967279e+01
2.967238e+01
2.967199e+01
2.967162e+01
2.967125e+01
2.967090e+01
2.967056e+01
2.967023e+01
2.966992e+01
2.966962e+01
2.966933e+01
2.966906e+01
2.966880e+01
2.966855e+01
2.966832e+01
2.966811e+01
2.966791e+01
2.966774e+01
2.966756e+01
2.966764e+01
3.008512e+01
3.008504e+01
3.009681e+01
3.010785e+01
3.011688e+01
3.012015e+01
3.010937e+01
3.006987e+01
2.997998e+01
2.981999e+01
2.960057e+01
2.929406e+01
2.924267e+01
2.924114e+01
2.924712e+01
2.927559e+01
2.933139e+01
2.940299e+01
2.945836e+01
2.949995e+01
2.953020e+01
2.954545e+01
2.955103e+01
2.955197e+01
2.955237e+01
2.954322e+01
2.953642e+01
2.954251e+01
2.956127e+01
2.958702e+01
2.961364e+01
2.963494e+01
2.965119e+01
2.966336e+01
2.967248e+01
2.967936e+01
2.968459e+01
2.968855e+01
2.969152e+01
2.969369e+01
2.969521e+01
2.969620e+01
2.969676e+01
2.969698e+01
2.969693e+01
2.969667e+01
2.969623e+01
2.969567e+01
2.969501e+01
2.969428e+01
2.969351e+01
2.969270e+01
2.969188e+01
2.969105e+01
2.969023e+01
2.968941e+01
2.968860e+01
2.968780e+01
2.968701e+01
2.968625e+01
2.968549e+01
2.968476e+01
2.968404e+01
2.968333e+01
2.968264e+01
2.968197e+01
2.968131e+01
2.968067e+01
2.968005e+01
2.967944e+01
2.967884e+01
2.967826e+01
2.967770e+01
2.967715e+01
2.967661e+01
2.967609e+01
2.967559e+01
2.967509e+01
2.967462e+01
2.967415e+01
2.967370e+01
2.967327e+01
2.967285e+01
2.967244e+01
2.967204e+01
2.967166e+01
2.967129e+01
2.967093e+01
2.967059e+01
2.967026e+01
2.966995e+01
2.966964e+01
2.966935e+01
2.966907e+01
2.966881e+01
2.966856e+01
2.966833e+01
2.966811e+01
2.966791e+01
2.966773e+01
2.966755e+01
2.966763e+01
3.008064e+01
3.008056e+01
3.008708e+01
3.009183e+01
3.009284e+01
3.008640e+01
3.006614e+01
3.002263e+01
2.994391e+01
2.981796e+01
2.964523e+01
2.944541e+01
2.935945e+01
2.932748e+01
2.931984e+01
2.933466e+01
2.937184e+01
2.942104e+01
2.946322e+01
2.949626e+01
2.951922e+01
2.953218e+01
2.953930e+01
2.954363e+01
2.954287e+01
2.953779e+01
2.953706e+01
2.954692e+01
2.956687e+01
2.959225e+01
2.961670e+01
2.963688e+01
2.965268e+01
2.966472e+01
2.967378e+01
2.968060e+01
2.968570e+01
2.968952e+01
2.969234e+01
2.969438e+01
2.969582e+01
2.969677e+01
2.969732e+01
2.969755e+01
2.969751e+01
2.969727e+01
2.969686e+01
2.969632e+01
2.969568e+01
2.969496e+01
2.969418e+01
2.969337e+01
2.969253e+01
2.969168e+01
2.969083e+01
2.968998e+01
2.968913e+01
2.968830e+01
2.968748e+01
2.968668e+01
2.968589e+01
2.968512e+01
2.968437e+01
2.968364e+01
2.968292e+01
2.968222e+01
2.968154e+01
2.968088e+01
2.968024e+01
2.967961e+01
2.967900e+01
2.967840e+01
2.967783e+01
2.967727e+01
2.967672e+01
2.967619e+01
2.967567e+01
2.967517e+01
2.967469e+01
2.967422e+01
2.967376e+01
2.967332e+01
2.967290e+01
2.967248e+01
2.967208e+01
2.967170e+01
2.967133e+01
2.967097e+01
2.967062e+01
2.967029e+01
2.966997e+01
2.966966e+01
2.966937e+01
2.966909e+01
2.966882e+01
2.966857e+01
2.966833e+01
2.966811e+01
2.966790e+01
2.966772e+01
2.966753e+01
2.966761e+01
3.007675e+01
3.007667e+01
3.007846e+01
3.007794e+01
3.007290e+01
3.006012e+01
3.003494e+01
2.999138e+01
2.992274e+01
2.982248e+01
2.968884e+01
2.953915e+01
2.944694e+01
2.939987e+01
2.938105e+01
2.938412e+01
2.940569e+01
2.943769e+01
2.946817e+01
2.949335e+01
2.951161e+01
2.952333e+01
2.953086e+01
2.953519e+01
2.953562e+01
2.953518e+01
2.953977e+01
2.955296e+01
2.957363e+01
2.959775e+01
2.962041e+01
2.963951e+01
2.965471e+01
2.966641e+01
2.967526e+01
2.968188e+01
2.968681e+01
2.969045e+01
2.969310e+01
2.969501e+01
2.969634e+01
2.969721e+01
2.969771e+01
2.969793e+01
2.969790e+01
2.969768e+01
2.969729e+01
2.969678e+01
2.969616e+01
2.969545e+01
2.969469e+01
2.969388e+01
2.969304e+01
2.969218e+01
2.969132e+01
2.969045e+01
2.968958e+01
2.968872e+01
2.968788e+01
2.968705e+01
2.968624e+01
2.968544e+01
2.968466e+01
2.968391e+01
2.968317e+01
2.968245e+01
2.968175e+01
2.968107e+01
2.968041e+01
2.967976e+01
2.967914e+01
2.967853e+01
2.967794e+01
2.967737e+01
2.967681e+01
2.967627e+01
2.967575e+01
2.967525e+01
2.967475e+01
2.967428e+01
2.967382e+01
2.967337e+01
2.967294e+01
2.967252e+01
2.967212e+01
2.967173e+01
2.967136e+01
2.967099e+01
2.967065e+01
2.967031e+01
2.966999e+01
2.966968e+01
2.966939e+01
2.966910e+01
2.966883e+01
2.966857e+01
2.966833e+01
2.966810e+01
2.966788e+01
2.966769e+01
2.966750e+01
2.966758e+01
3.007362e+01
3.007354e+01
3.007145e+01
3.006680e+01
3.005743e+01
3.004058e+01
3.001281e+01
2.997011e+01
2.990848e+01
2.982451e+01
2.971766e+01
2.960016e+01
2.951193e+01
2.945680e+01
2.942865e+01
2.942222e+01
2.943233e+01
2.945204e+01
2.947349e+01
2.949257e+01
2.950734e+01
2.951765e+01
2.952454e+01
2.952848e+01
2.953039e+01
2.953359e+01
2.954215e+01
2.955782e+01
2.957899e+01
2.960214e+01
2.962371e+01
2.964204e+01
2.965673e+01
2.966807e+01
2.967661e+01
2.968297e+01
2.968766e+01
2.969109e+01
2.969359e+01
2.969539e+01
2.969664e+01
2.969746e+01
2.969795e+01
2.969816e+01
2.969814e+01
2.969794e+01
2.969758e+01
2.969708e+01
2.969649e+01
2.969580e+01
2.969505e+01
2.969426e+01
2.969342e+01
2.969256e+01
2.969169e+01
2.969081e+01
2.968993e+01
2.968906e+01
2.968820e+01
2.968735e+01
2.968651e+01
2.968570e+01
2.968490e+01
2.968413e+01
2.968337e+01
2.968263e+01
2.968192e+01
2.968122e+01
2.968055e+01
2.967989e+01
2.967925e+01
2.967864e+01
2.967804e+01
2.967746e+01
2.967689e+01
2.967635e+01
2.967582e+01
2.967530e+01
2.967481e+01
2.967433e+01
2.967386e+01
2.967341e+01
2.967298e+01
2.967256e+01
2.967215e+01
2.967176e+01
2.967138e+01
2.967102e+01
2.967067e+01
2.967033e+01
2.967001e+01
2.966970e+01
2.966940e+01
2.966911e+01
2.966884e+01
2.966857e+01
2.966832e+01
2.966808e+01
2.966786e+01
2.966765e+01
2.966745e+01
2.966753e+01
3.007131e+01
3.007123e+01
3.006621e+01
3.005858e+01
3.004626e+01
3.002686e+01
2.999770e+01
2.995588e+01
2.989879e+01
2.982469e+01
2.973440e+01
2.963697e+01
2.955551e+01
2.949811e+01
2.946423e+01
2.945051e+01
2.945221e+01
2.946349e+01
2.947845e+01
2.949306e+01
2.950516e+01
2.951406e+01
2.952004e+01
2.952372e+01
2.952685e+01
2.953258e+01
2.954377e+01
2.956109e+01
2.958263e+01
2.960528e+01
2.962627e+01
2.964413e+01
2.965844e+01
2.966945e+01
2.967771e+01
2.968380e+01
2.968825e+01
2.969150e+01
2.969386e+01
2.969556e+01
2.969676e+01
2.969756e+01
2.969804e+01
2.969826e+01
2.969825e+01
2.969807e+01
2.969773e+01
2.969726e+01
2.969668e+01
2.969602e+01
2.969529e+01
2.969450e+01
2.969367e+01
2.969282e+01
2.969195e+01
2.969106e+01
2.969018e+01
2.968930e+01
2.968842e+01
2.968756e+01
2.968672e+01
2.968589e+01
2.968508e+01
2.968429e+01
2.968352e+01
2.968277e+01
2.968205e+01
2.968134e+01
2.968065e+01
2.967999e+01
2.967934e+01
2.967872e+01
2.967811e+01
2.967752e+01
2.967695e+01
2.967640e+01
2.967587e+01
2.967535e+01
2.967485e+01
2.967436e+01
2.967389e+01
2.967344e+01
2.967300e+01
2.967258e+01
2.967217e+01
2.967178e+01
2.967140e+01
2.967103e+01
2.967068e+01
2.967034e+01
2.967002e+01
2.966971e+01
2.966941e+01
2.966912e+01
2.966884e+01
2.966857e+01
2.966831e+01
2.966806e+01
2.966782e+01
2.966760e+01
2.966739e+01
2.966748e+01
3.006980e+01
3.006972e+01
3.006276e+01
3.005321e+01
3.003907e+01
3.001821e+01
2.998835e+01
2.994722e+01
2.989291e+01
2.982455e+01
2.974369e+01
2.965772e+01
2.958163e+01
2.952407e+01
2.948713e+01
2.946892e+01
2.946539e+01
2.947147e+01
2.948221e+01
2.949388e+01
2.950415e+01
2.951195e+01
2.951718e+01
2.952074e+01
2.952474e+01
2.953206e+01
2.954484e+01
2.956312e+01
2.958488e+01
2.960726e+01
2.962795e+01
2.964554e+01
2.965963e+01
2.967042e+01
2.967845e+01
2.968432e+01
2.968859e+01
2.969170e+01
2.969396e+01
2.969559e+01
2.969675e+01
2.969754e+01
2.969802e+01
2.969825e+01
2.969826e+01
2.969809e+01
2.969777e+01
2.969733e+01
2.969677e+01
2.969612e+01
2.969540e+01
2.969463e+01
2.969381e+01
2.969296e+01
2.969209e+01
2.969121e+01
2.969033e+01
2.968944e+01
2.968856e+01
2.968770e+01
2.968685e+01
2.968601e+01
2.968519e+01
2.968440e+01
2.968362e+01
2.968286e+01
2.968213e+01
2.968141e+01
2.968072e+01
2.968005e+01
2.967940e+01
2.967877e+01
2.967816e+01
2.967756e+01
2.967699e+01
2.967644e+01
2.967590e+01
2.967538e+01
2.967487e+01
2.967439e+01
2.967392e+01
2.967346e+01
2.967302e+01
2.967260e+01
2.967219e+01
2.967179e+01
2.967141e+01
2.967105e+01
2.967069e+01
2.967035e+01
2.967003e+01
2.966971e+01
2.966941e+01
2.966912e+01
2.966884e+01
2.966857e+01
2.966831e+01
2.966805e+01
2.966779e+01
2.966753e+01
2.966732e+01
2.966740e+01
3.006907e+01
3.006898e+01
3.006107e+01
3.005058e+01
3.003560e+01
3.001411e+01
2.998404e+01
2.994338e+01
2.989051e+01
2.982489e+01
2.974836e+01
2.966756e+01
2.959418e+01
2.953678e+01
2.949846e+01
2.947809e+01
2.947202e+01
2.947558e+01
2.948423e+01
2.949440e+01
2.950372e+01
2.951093e+01
2.951581e+01
2.951942e+01
2.952393e+01
2.953202e+01
2.954543e+01
2.956400e+01
2.958574e+01
2.960794e+01
2.962849e+01
2.964603e+01
2.966007e+01
2.967081e+01
2.967876e+01
2.968455e+01
2.968874e+01
2.969177e+01
2.969398e+01
2.969558e+01
2.969672e+01
2.969749e+01
2.969797e+01
2.969820e+01
2.969822e+01
2.969807e+01
2.969776e+01
2.969732e+01
2.969678e+01
2.969614e+01
2.969543e+01
2.969467e+01
2.969386e+01
2.969301e+01
2.969215e+01
2.969127e+01
2.969039e+01
2.968950e+01
2.968862e+01
2.968775e+01
2.968690e+01
2.968606e+01
2.968524e+01
2.968444e+01
2.968366e+01
2.968290e+01
2.968216e+01
2.968145e+01
2.968075e+01
2.968008e+01
2.967942e+01
2.967879e+01
2.967818e+01
2.967758e+01
2.967701e+01
2.967645e+01
2.967591e+01
2.967539e+01
2.967489e+01
2.967440e+01
2.967393e+01
2.967347e+01
2.967303e+01
2.967261e+01
2.967220e+01
2.967180e+01
2.967142e+01
2.967105e+01
2.967070e+01
2.967036e+01
2.967003e+01
2.966972e+01
2.966941e+01
2.966912e+01
2.966884e+01
2.966857e+01
2.966830e+01
2.966803e+01
2.966775e+01
2.966742e+01
2.966721e+01
2.966729e+01
0.000000e+00
3.006907e+01
3.006115e+01
3.005066e+01
3.003568e+01
3.001419e+01
2.998412e+01
2.994346e+01
2.989059e+01
2.982497e+01
2.974844e+01
2.966764e+01
2.959426e+01
2.953686e+01
2.949854e+01
2.947817e+01
2.947211e+01
2.947566e+01
2.948431e+01
2.949448e+01
2.950380e+01
2.951102e+01
2.951589e+01
2.951950e+01
2.952401e+01
2.953210e+01
2.954551e+01
2.956408e+01
2.958582e+01
2.960802e+01
2.962858e+01
2.964611e+01
2.966015e+01
2.967089e+01
2.967884e+01
2.968463e+01
2.968882e+01
2.969185e+01
2.969406e+01
2.969566e+01
2.969680e+01
2.969757e+01
2.969805e+01
2.969828e+01
2.969830e+01
2.969815e+01
2.969784e+01
2.969740e+01
2.969686e+01
2.969622e+01
2.969552e+01
2.969475e+01
2.969394e+01
2.969310e+01
2.969223e+01
2.969135e+01
2.969047e+01
2.968958e+01
2.968870e+01
2.968784e+01
2.968698e+01