# vtk DataFile Version 3.0
Scalar Field
ASCII
DATASET RECTILINEAR_GRID
DIMENSIONS 102 22 1
X_COORDINATES 102 double
0.000000 0.100000 0.200000 0.300000 0.400000 0.500000 0.600000 0.700000 0.800000 0.900000 1.000000 1.100000 1.200000 1.300000 1.400000 1.500000 1.600000 1.700000 1.800000 1.900000 2.000000 2.100000 2.200000 2.300000 2.400000 2.500000 2.600000 2.700000 2.800000 2.900000 3.000000 3.100000 3.200000 3.300000 3.400000 3.500000 3.600000 3.700000 3.800000 3.900000 4.000000 4.100000 4.200000 4.300000 4.400000 4.500000 4.600000 4.700000 4.800000 4.900000 5.000000 5.100000 5.200000 5.300000 5.400000 5.500000 5.600000 5.700000 5.800000 5.900000 6.000000 6.100000 6.200000 6.300000 6.400000 6.500000 6.600000 6.700000 6.800000 6.900000 7.000000 7.100000 7.200000 7.300000 7.400000 7.500000 7.600000 7.700000 7.800000 7.900000 8.000000 8.100000 8.200000 8.300000 8.400000 8.500000 8.600000 8.700000 8.800000 8.900000 9.000000 9.100000 9.200000 9.300000 9.400000 9.500000 9.600000 9.700000 9.800000 9.900000 10.000000 10.100000 
Y_COORDINATES 22 double
0.000000 0.100000 0.200000 0.300000 0.400000 0.500000 0.600000 0.700000 0.800000 0.900000 1.000000 1.100000 1.200000 1.300000 1.400000 1.500000 1.600000 1.700000 1.800000 1.900000 2.000000 2.100000 
Z_COORDINATES 1 double
0.0
POINT_DATA 2244
SCALARS Pressure double 1
LOOKUP_TABLE default
0.000000e+00
3.402316e+01
3.399775e+01
3.396832e+01
3.393176e+01
3.388455e+01
3.382330e+01
3.374671e+01
3.365429e+01
3.356340e+01
3.348721e+01
3.342916e+01
3.338675e+01
3.335552e+01
3.333100e+01
3.330956e+01
3.328904e+01
3.326934e+01
3.325245e+01
3.324122e+01
3.323761e+01
3.324177e+01
3.325261e+01
3.326873e+01
3.328887e+01
3.331218e+01
3.333826e+01
3.336703e+01
3.339857e+01
3.343283e+01
3.346951e+01
3.350798e+01
3.354736e+01
3.358658e+01
3.362448e+01
3.365980e+01
3.369142e+01
3.371870e+01
3.374175e+01
3.376128e+01
3.377846e+01
3.379377e+01
3.380459e+01
3.380619e+01
3.379213e+01
3.375720e+01
3.370139e+01
3.363294e+01
3.356635e+01
3.351760e+01
3.349670e+01
3.350101e+01
3.352446e+01
3.356130e+01
3.360487e+01
3.364843e+01
3.368615e+01
3.371430e+01
3.373231e+01
3.374202e+01
3.374621e+01
3.374729e+01
3.374659e+01
3.374549e+01
3.374387e+01
3.374104e+01
3.373640e+01
3.372955e+01
3.372034e+01
3.370887e+01
3.369550e+01
3.368085e+01
3.366571e+01
3.365103e+01
3.363779e+01
3.362689e+01
3.361904e+01
3.361471e+01
3.361400e+01
3.361664e+01
3.362237e+01
3.363096e+01
3.364202e+01
3.365496e+01
3.366886e+01
3.368249e+01
3.369444e+01
3.370350e+01
3.370922e+01
3.371199e+01
3.371270e+01
3.371227e+01
3.371132e+01
3.371041e+01
3.370972e+01
3.370926e+01
3.370908e+01
3.370943e+01
3.371080e+01
3.371408e+01
3.372427e+01
0.000000e+00
3.402316e+01
3.402364e+01
3.399823e+01
3.396881e+01
3.393225e+01
3.388503e+01
3.382378e+01
3.374719e+01
3.365477e+01
3.356388e+01
3.348769e+01
3.342964e+01
3.338723e+01
3.335600e+01
3.333148e+01
3.331005e+01
3.328952e+01
3.326982e+01
3.325293e+01
3.324171e+01
3.323810e+01
3.324225e+01
3.325309e+01
3.326921e+01
3.328936e+01
3.331267e+01
3.333874e+01
3.336752e+01
3.339905e+01
3.343331e+01
3.346999e+01
3.350847e+01
3.354785e+01
3.358706e+01
3.362496e+01
3.366029e+01
3.369191e+01
3.371919e+01
3.374224e+01
3.376176e+01
3.377895e+01
3.379425e+01
3.380508e+01
3.380667e+01
3.379262e+01
3.375768e+01
3.370187e+01
3.363342e+01
3.356684e+01
3.351808e+01
3.349719e+01
3.350149e+01
3.352495e+01
3.356178e+01
3.360535e+01
3.364892e+01
3.368663e+01
3.371479e+01
3.373280e+01
3.374250e+01
3.374669e+01
3.374777e+01
3.374707e+01
3.374597e+01
3.374436e+01
3.374153e+01
3.373689e+01
3.373004e+01
3.372083e+01
3.370936e+01
3.369599e+01
3.368134e+01
3.366620e+01
3.365152e+01
3.363828e+01
3.362738e+01
3.361953e+01
3.361519e+01
3.361448e+01
3.361713e+01
3.362286e+01
3.363145e+01
3.364251e+01
3.365545e+01
3.366935e+01
3.368298e+01
3.369492e+01
3.370399e+01
3.370971e+01
3.371247e+01
3.371319e+01
3.371275e+01
3.371181e+01
3.371089e+01
3.371021e+01
3.370975e+01
3.370957e+01
3.370992e+01
3.371128e+01
3.371456e+01
3.372476e+01
3.372427e+01
3.402258e+01
3.402306e+01
3.399905e+01
3.397080e+01
3.393495e+01
3.388750e+01
3.382437e+01
3.374389e+01
3.364241e+01
3.354717e+01
3.347175e+01
3.341670e+01
3.337761e+01
3.334932e+01
3.332726e+01
3.330775e+01
3.328839e+01
3.326897e+01
3.325165e+01
3.323981e+01
3.323605e+01
3.324040e+01
3.325157e+01
3.326797e+01
3.328824e+01
3.331147e+01
3.333726e+01
3.336561e+01
3.339665e+01
3.343041e+01
3.346665e+01
3.350480e+01
3.354394e+01
3.358297e+01
3.362079e+01
3.365616e+01
3.368784e+01
3.371512e+01
3.373798e+01
3.375708e+01
3.377322e+01
3.378623e+01
3.379366e+01
3.379212e+01
3.377665e+01
3.374198e+01
3.368788e+01
3.362316e+01
3.356095e+01
3.351538e+01
3.349601e+01
3.350152e+01
3.352433e+01
3.355913e+01
3.359961e+01
3.363987e+01
3.367567e+01
3.370402e+01
3.372361e+01
3.373535e+01
3.374143e+01
3.374396e+01
3.374439e+01
3.374370e+01
3.374204e+01
3.373895e+01
3.373402e+01
3.372698e+01
3.371769e+01
3.370631e+01
3.369319e+01
3.367893e+01
3.366429e+01
3.365013e+01
3.363739e+01
3.362692e+01
3.361943e+01
3.361536e+01
3.361497e+01
3.361797e+01
3.362403e+01
3.363296e+01
3.364431e+01
3.365731e+01
3.367080e+01
3.368338e+01
3.369388e+01
3.370161e+01
3.370646e+01
3.370890e+01
3.370968e+01
3.370955e+01
3.370907e+01
3.370859e+01
3.370817e+01
3.370784e+01
3.370770e+01
3.370798e+01
3.370913e+01
3.371194e+01
3.372011e+01
3.371962e+01
3.402188e+01
3.402236e+01
3.400127e+01
3.397566e+01
3.394171e+01
3.389434e+01
3.382764e+01
3.373841e+01
3.361548e+01
3.351234e+01
3.344017e+01
3.339200e+01
3.335963e+01
3.333695e+01
3.331955e+01
3.330380e+01
3.328672e+01
3.326770e+01
3.324938e+01
3.323620e+01
3.323201e+01
3.323685e+01
3.324870e+01
3.326565e+01
3.328615e+01
3.330918e+01
3.333436e+01
3.336177e+01
3.339166e+01
3.342423e+01
3.345939e+01
3.349665e+01
3.353514e+01
3.357374e+01
3.361131e+01
3.364666e+01
3.367856e+01
3.370613e+01
3.372911e+01
3.374802e+01
3.376363e+01
3.377489e+01
3.377974e+01
3.377524e+01
3.375786e+01
3.372379e+01
3.367181e+01
3.361143e+01
3.355413e+01
3.351240e+01
3.349479e+01
3.350128e+01
3.352231e+01
3.355363e+01
3.358993e+01
3.362628e+01
3.365912e+01
3.368680e+01
3.370791e+01
3.372250e+01
3.373156e+01
3.373654e+01
3.373879e+01
3.373925e+01
3.373796e+01
3.373480e+01
3.372969e+01
3.372254e+01
3.371332e+01
3.370214e+01
3.368934e+01
3.367557e+01
3.366154e+01
3.364806e+01
3.363599e+01
3.362616e+01
3.361922e+01
3.361568e+01
3.361594e+01
3.361951e+01
3.362604e+01
3.363527e+01
3.364663e+01
3.365911e+01
3.367140e+01
3.368217e+01
3.369072e+01
3.369689e+01
3.370077e+01
3.370287e+01
3.370386e+01
3.370427e+01
3.370443e+01
3.370459e+01
3.370462e+01
3.370455e+01
3.370448e+01
3.370459e+01
3.370526e+01
3.370713e+01
3.371267e+01
3.371218e+01
3.402139e+01
3.402188e+01
3.400533e+01
3.398408e+01
3.395371e+01
3.390725e+01
3.383495e+01
3.372831e+01
3.356464e+01
3.345460e+01
3.339317e+01
3.335712e+01
3.333464e+01
3.331988e+01
3.330905e+01
3.329902e+01
3.328544e+01
3.326668e+01
3.324627e+01
3.323053e+01
3.322520e+01
3.323108e+01
3.324423e+01
3.326224e+01
3.328324e+01
3.330605e+01
3.333030e+01
3.335627e+01
3.338445e+01
3.341525e+01
3.344880e+01
3.348474e+01
3.352227e+01
3.356023e+01
3.359738e+01
3.363259e+01
3.366479e+01
3.369295e+01
3.371658e+01
3.373601e+01
3.375197e+01
3.376331e+01
3.376520e+01
3.375680e+01
3.373711e+01
3.370436e+01
3.365726e+01
3.360339e+01
3.355257e+01
3.351530e+01
3.349915e+01
3.350573e+01
3.352438e+01
3.355172e+01
3.358353e+01
3.361575e+01
3.364517e+01
3.367131e+01
3.369256e+01
3.370841e+01
3.371934e+01
3.372640e+01
3.373057e+01
3.373257e+01
3.373209e+01
3.372930e+01
3.372430e+01
3.371719e+01
3.370810e+01
3.369723e+01
3.368493e+01
3.367188e+01
3.365870e+01
3.364616e+01
3.363502e+01
3.362605e+01
3.361991e+01
3.361717e+01
3.361842e+01
3.362266e+01
3.362966e+01
3.363899e+01
3.364986e+01
3.366114e+01
3.367155e+01
3.368006e+01
3.368675e+01
3.369153e+01
3.369465e+01
3.369657e+01
3.369776e+01
3.369856e+01
3.369915e+01
3.369965e+01
3.369999e+01
3.370008e+01
3.370002e+01
3.369995e+01
3.370011e+01
3.370100e+01
3.370415e+01
3.370366e+01
3.402151e+01
3.402199e+01
3.401168e+01
3.399693e+01
3.397290e+01
3.392993e+01
3.385065e+01
3.370990e+01
3.347479e+01
3.337136e+01
3.333248e+01
3.331438e+01
3.330467e+01
3.329937e+01
3.329627e+01
3.329400e+01
3.328634e+01
3.326788e+01
3.324349e+01
3.322306e+01
3.321491e+01
3.322252e+01
3.323810e+01
3.325809e+01
3.328017e+01
3.330294e+01
3.332602e+01
3.335006e+01
3.337586e+01
3.340421e+01
3.343551e+01
3.346963e+01
3.350586e+01
3.354302e+01
3.357967e+01
3.361468e+01
3.364737e+01
3.367680e+01
3.370240e+01
3.372391e+01
3.374071e+01
3.375141e+01
3.374904e+01
3.373629e+01
3.371512e+01
3.368513e+01
3.364499e+01
3.359973e+01
3.355712e+01
3.352545e+01
3.351117e+01
3.351642e+01
3.353237e+01
3.355555e+01
3.358271e+01
3.361059e+01
3.363637e+01
3.366000e+01
3.368031e+01
3.369640e+01
3.370832e+01
3.371663e+01
3.372206e+01
3.372523e+01
3.372549e+01
3.372292e+01
3.371794e+01
3.371090e+01
3.370210e+01
3.369178e+01
3.368027e+01
3.366826e+01
3.365629e+01
3.364500e+01
3.363509e+01
3.362726e+01
3.362221e+01
3.362066e+01
3.362292e+01
3.362782e+01
3.363504e+01
3.364399e+01
3.365373e+01
3.366316e+01
3.367124e+01
3.367766e+01
3.368266e+01
3.368626e+01
3.368874e+01
3.369047e+01
3.369173e+01
3.369268e+01
3.369342e+01
3.369401e+01
3.369447e+01
3.369463e+01
3.369456e+01
3.369433e+01
3.369405e+01
3.369409e+01
3.369524e+01
3.369475e+01
3.402251e+01
3.402300e+01
3.402049e+01
3.401474e+01
3.400154e+01
3.396925e+01
3.388847e+01
3.368737e+01
3.331770e+01
3.325571e+01
3.326239e+01
3.326839e+01
3.327253e+01
3.327629e+01
3.328022e+01
3.328614e+01
3.328873e+01
3.327456e+01
3.324492e+01
3.321684e+01
3.320397e+01
3.321010e+01
3.323085e+01
3.325458e+01
3.327888e+01
3.330221e+01
3.332395e+01
3.334559e+01
3.336833e+01
3.339345e+01
3.342175e+01
3.345338e+01
3.348779e+01
3.352379e+01
3.355976e+01
3.359426e+01
3.362745e+01
3.365884e+01
3.368783e+01
3.371255e+01
3.372973e+01
3.373634e+01
3.372775e+01
3.371151e+01
3.369125e+01
3.366656e+01
3.363544e+01
3.360053e+01
3.356732e+01
3.354204e+01
3.352996e+01
3.353337e+01
3.354617e+01
3.356497e+01
3.358733e+01
3.361061e+01
3.363244e+01
3.365282e+01
3.367113e+01
3.368638e+01
3.369829e+01
3.370710e+01
3.371319e+01
3.371698e+01
3.371760e+01
3.371509e+01
3.371017e+01
3.370342e+01
3.369524e+01
3.368591e+01
3.367568e+01
3.366518e+01
3.365483e+01
3.364518e+01
3.363683e+01
3.363047e+01
3.362682e+01
3.362673e+01
3.362981e+01
3.363503e+01
3.364194e+01
3.364983e+01
3.365781e+01
3.366497e+01
3.367069e+01
3.367530e+01
3.367882e+01
3.368141e+01
3.368333e+01
3.368477e+01
3.368589e+01
3.368676e+01
3.368742e+01
3.368791e+01
3.368826e+01
3.368840e+01
3.368829e+01
3.368796e+01
3.368741e+01
3.368680e+01
3.368639e+01
3.368590e+01
3.402446e+01
3.402494e+01
3.403114e+01
3.403660e+01
3.404003e+01
3.403332e+01
3.398369e+01
3.375369e+01
3.303088e+01
3.310069e+01
3.319769e+01
3.322821e+01
3.324304e+01
3.325211e+01
3.326022e+01
3.326780e+01
3.328009e+01
3.328050e+01
3.325252e+01
3.321655e+01
3.319780e+01
3.320214e+01
3.322528e+01
3.325490e+01
3.328315e+01
3.330867e+01
3.332879e+01
3.334781e+01
3.336688e+01
3.338789e+01
3.341213e+01
3.344015e+01
3.347164e+01
3.350553e+01
3.354017e+01
3.357359e+01
3.360676e+01
3.363933e+01
3.366958e+01
3.369473e+01
3.370934e+01
3.370881e+01
3.369676e+01
3.368161e+01
3.366607e+01
3.364941e+01
3.362918e+01
3.360576e+01
3.358243e+01
3.356375e+01
3.355401e+01
3.355555e+01
3.356479e+01
3.357901e+01
3.359634e+01
3.361472e+01
3.363221e+01
3.364875e+01
3.366417e+01
3.367757e+01
3.368856e+01
3.369705e+01
3.370314e+01
3.370698e+01
3.370758e+01
3.370514e+01
3.370058e+01
3.369460e+01
3.368763e+01
3.367988e+01
3.367154e+01
3.366309e+01
3.365484e+01
3.364723e+01
3.364080e+01
3.363621e+01
3.363420e+01
3.363551e+01
3.363893e+01
3.364387e+01
3.364977e+01
3.365596e+01
3.366172e+01
3.366649e+01
3.367022e+01
3.367317e+01
3.367542e+01
3.367714e+01
3.367847e+01
3.367951e+01
3.368031e+01
3.368089e+01
3.368128e+01
3.368152e+01
3.368163e+01
3.368164e+01
3.368145e+01
3.368107e+01
3.368042e+01
3.367944e+01
3.367788e+01
3.367740e+01
3.402701e+01
3.402749e+01
3.404196e+01
3.405883e+01
3.408178e+01
3.411446e+01
3.415704e+01
3.427431e+01
3.365211e+01
3.315522e+01
3.321072e+01
3.321390e+01
3.321974e+01
3.322592e+01
3.323451e+01
3.324161e+01
3.325526e+01
3.326116e+01
3.324487e+01
3.321633e+01
3.319699e+01
3.320177e+01
3.322654e+01
3.326059e+01
3.329450e+01
3.332296e+01
3.334344e+01
3.336133e+01
3.337680e+01
3.339324e+01
3.341224e+01
3.343498e+01
3.346154e+01
3.349109e+01
3.352201e+01
3.355226e+01
3.357926e+01
3.360768e+01
3.363752e+01
3.366031e+01
3.367021e+01
3.366623e+01
3.365778e+01
3.364930e+01
3.364205e+01
3.363538e+01
3.362693e+01
3.361516e+01
3.360138e+01
3.358897e+01
3.358151e+01
3.358134e+01
3.358690e+01
3.359641e+01
3.360852e+01
3.362170e+01
3.363443e+01
3.364662e+01
3.365839e+01
3.366906e+01
3.367817e+01
3.368544e+01
3.369074e+01
3.369411e+01
3.369455e+01
3.369256e+01
3.368903e+01
3.368459e+01
3.367960e+01
3.367416e+01
3.366838e+01
3.366251e+01
3.365679e+01
3.365157e+01
3.364735e+01
3.364474e+01
3.364438e+01
3.364635e+01
3.364956e+01
3.365354e+01
3.365782e+01
3.366188e+01
3.366532e+01
3.366791e+01
3.366989e+01
3.367139e+01
3.367253e+01
3.367342e+01
3.367411e+01
3.367462e+01
3.367495e+01
3.367510e+01
3.367510e+01
3.367500e+01
3.367482e+01
3.367460e+01
3.367432e+01
3.367393e+01
3.367331e+01
3.367225e+01
3.366996e+01
3.366948e+01
3.402956e+01
3.403005e+01
3.405057e+01
3.407565e+01
3.411209e+01
3.417031e+01
3.426739e+01
3.439851e+01
3.441508e+01
0.000000e+00
3.321948e+01
3.321996e+01
3.321892e+01
3.321645e+01
3.321402e+01
3.321210e+01
3.321203e+01
3.320877e+01
3.319625e+01
3.318235e+01
3.318016e+01
3.319680e+01
3.322916e+01
3.326947e+01
3.330773e+01
3.334217e+01
3.336653e+01
3.338440e+01
3.339846e+01
3.341140e+01
3.342466e+01
3.344064e+01
3.345995e+01
3.348189e+01
3.350477e+01
3.352644e+01
3.354440e+01
3.356851e+01
3.359067e+01
3.360361e+01
3.360878e+01
3.361252e+01
3.361630e+01
3.361997e+01
3.362368e+01
3.362732e+01
3.362962e+01
3.362841e+01
3.362320e+01
3.361619e+01
3.361073e+01
3.360903e+01
3.361104e+01
3.361589e+01
3.362272e+01
3.363047e+01
3.363808e+01
3.364544e+01
3.365287e+01
3.365988e+01
3.366605e+01
3.367107e+01
3.367477e+01
3.367723e+01
3.367783e+01
3.367716e+01
3.367572e+01
3.367387e+01
3.367177e+01
3.366940e+01
3.366676e+01
3.366391e+01
3.366102e+01
3.365840e+01
3.365648e+01
3.365573e+01
3.365648e+01
3.365841e+01
3.366078e+01
3.366326e+01
3.366554e+01
3.366738e+01
3.366863e+01
3.366935e+01
3.366975e+01
3.366996e+01
3.367006e+01
3.367010e+01
3.367007e+01
3.366996e+01
3.366973e+01
3.366939e+01
3.366897e+01
3.366849e+01
3.366801e+01
3.366756e+01
3.366715e+01
3.366679e+01
3.366631e+01
3.366543e+01
3.366292e+01
3.366243e+01
3.403157e+01
3.403206e+01
3.405528e+01
3.408333e+01
3.412250e+01
3.418019e+01
3.426404e+01
3.436319e+01
3.443261e+01
3.443212e+01
0.000000e+00
3.321412e+01
3.321460e+01
3.320635e+01
3.319354e+01
3.317943e+01
3.316315e+01
3.314318e+01
3.311992e+01
3.310907e+01
3.312134e+01
3.315869e+01
3.321418e+01
3.327578e+01
3.333078e+01
3.337311e+01
3.340349e+01
3.342304e+01
3.343607e+01
3.344612e+01
3.345345e+01
3.346178e+01
3.347209e+01
3.348373e+01
3.349518e+01
3.350437e+01
3.351282e+01
3.352082e+01
3.352695e+01
3.353338e+01
3.354413e+01
3.356168e+01
3.358071e+01
3.359821e+01
3.361327e+01
3.362626e+01
3.363697e+01
3.364402e+01
3.364618e+01
3.364412e+01
3.364023e+01
3.363714e+01
3.363595e+01
3.363639e+01
3.363801e+01
3.364022e+01
3.364242e+01
3.364450e+01
3.364681e+01
3.364912e+01
3.365119e+01
3.365289e+01
3.365424e+01
3.365557e+01
3.365717e+01
3.365908e+01
3.366115e+01
3.366316e+01
3.366495e+01
3.366633e+01
3.366722e+01
3.366762e+01
3.366763e+01
3.366753e+01
3.366768e+01
3.366832e+01
3.366944e+01
3.367071e+01
3.367180e+01
3.367249e+01
3.367268e+01
3.367241e+01
3.367177e+01
3.367086e+01
3.366983e+01
3.366881e+01
3.366786e+01
3.366697e+01
3.366613e+01
3.366531e+01
3.366449e+01
3.366366e+01
3.366283e+01
3.366204e+01
3.366132e+01
3.366072e+01
3.366027e+01
3.365998e+01
3.365972e+01
3.365920e+01
3.365701e+01
3.365653e+01
3.403281e+01
3.403329e+01
3.405585e+01
3.408226e+01
3.411739e+01
3.416587e+01
3.422769e+01
3.428148e+01
3.430680e+01
3.405458e+01
3.405410e+01
0.000000e+00
3.319678e+01
3.317992e+01
3.316964e+01
3.314931e+01
3.312218e+01
3.308939e+01
3.305574e+01
3.304675e+01
3.307172e+01
3.312739e+01
3.320301e+01
3.328474e+01
3.336076e+01
3.342127e+01
3.346283e+01
3.348624e+01
3.349800e+01
3.350339e+01
3.350429e+01
3.350457e+01
3.350496e+01
3.350442e+01
3.350128e+01
3.349504e+01
3.348539e+01
3.347409e+01
3.346426e+01
3.346531e+01
3.348795e+01
3.352123e+01
3.355579e+01
3.358643e+01
3.361148e+01
3.363155e+01
3.364811e+01
3.366086e+01
3.366843e+01
3.367044e+01
3.366840e+01
3.366455e+01
3.366067e+01
3.365713e+01
3.365383e+01
3.365054e+01
3.364706e+01
3.364337e+01
3.363970e+01
3.363615e+01
3.363294e+01
3.363047e+01
3.362912e+01
3.362996e+01
3.363391e+01
3.363999e+01
3.364698e+01
3.365389e+01
3.366016e+01
3.366546e+01
3.366983e+01
3.367336e+01
3.367613e+01
3.367829e+01
3.367998e+01
3.368118e+01
3.368185e+01
3.368200e+01
3.368156e+01
3.368052e+01
3.367895e+01
3.367699e+01
3.367481e+01
3.367251e+01
3.367019e+01
3.366796e+01
3.366586e+01
3.366392e+01
3.366213e+01
3.366050e+01
3.365902e+01
3.365770e+01
3.365653e+01
3.365553e+01
3.365472e+01
3.365413e+01
3.365382e+01
3.365377e+01
3.365386e+01
3.365385e+01
3.365259e+01
3.365211e+01
3.403339e+01
3.403387e+01
3.405330e+01
3.407514e+01
3.410174e+01
3.413301e+01
3.416171e+01
3.416576e+01
3.410305e+01
3.398101e+01
3.356266e+01
3.325584e+01
3.312857e+01
3.317642e+01
3.315939e+01
3.313275e+01
3.310000e+01
3.306099e+01
3.302788e+01
3.302821e+01
3.306588e+01
3.313485e+01
3.322284e+01
3.331549e+01
3.340102e+01
3.347437e+01
3.352510e+01
3.355746e+01
3.357704e+01
3.358400e+01
3.357691e+01
3.356625e+01
3.355223e+01
3.353480e+01
3.351539e+01
3.349318e+01
3.346464e+01
3.343426e+01
3.340918e+01
3.341412e+01
3.344905e+01
3.349673e+01
3.354441e+01
3.358541e+01
3.361708e+01
3.364187e+01
3.366190e+01
3.367789e+01
3.368896e+01
3.369405e+01
3.369361e+01
3.368939e+01
3.368361e+01
3.367680e+01
3.366913e+01
3.366071e+01
3.365171e+01
3.364232e+01
3.363258e+01
3.362305e+01
3.361447e+01
3.360763e+01
3.360311e+01
3.360384e+01
3.361085e+01
3.362196e+01
3.363468e+01
3.364710e+01
3.365799e+01
3.366699e+01
3.367442e+01
3.368051e+01
3.368537e+01
3.368904e+01
3.369150e+01
3.369260e+01
3.369261e+01
3.369174e+01
3.369006e+01
3.368766e+01
3.368471e+01
3.368139e+01
3.367790e+01
3.367437e+01
3.367083e+01
3.366738e+01
3.366408e+01
3.366099e+01
3.365815e+01
3.365560e+01
3.365337e+01
3.365148e+01
3.364994e+01
3.364876e+01
3.364794e+01
3.364760e+01
3.364776e+01
3.364826e+01
3.364891e+01
3.364954e+01
3.364981e+01
3.364932e+01
3.403369e+01
3.403417e+01
3.404860e+01
3.406368e+01
3.407951e+01
3.409308e+01
3.409493e+01
3.406501e+01
3.396681e+01
3.379139e+01
3.351561e+01
3.294997e+01
3.308168e+01
3.313480e+01
3.314164e+01
3.312608e+01
3.309437e+01
3.305613e+01
3.303592e+01
3.304885e+01
3.309604e+01
3.317001e+01
3.325926e+01
3.335102e+01
3.343361e+01
3.350665e+01
3.356463e+01
3.360299e+01
3.363026e+01
3.364465e+01
3.363272e+01
3.361284e+01
3.358793e+01
3.355908e+01
3.352879e+01
3.349317e+01
3.344872e+01
3.340137e+01
3.337042e+01
3.338531e+01
3.343182e+01
3.349046e+01
3.354712e+01
3.359322e+01
3.362855e+01
3.365573e+01
3.367717e+01
3.369429e+01
3.370702e+01
3.371424e+01
3.371532e+01
3.371141e+01
3.370439e+01
3.369495e+01
3.368355e+01
3.367056e+01
3.365658e+01
3.364195e+01
3.362648e+01
3.361117e+01
3.359723e+01
3.358588e+01
3.357795e+01
3.357940e+01
3.359014e+01
3.360676e+01
3.362551e+01
3.364353e+01
3.365865e+01
3.367081e+01
3.368061e+01
3.368849e+01
3.369465e+01
3.369912e+01
3.370180e+01
3.370256e+01
3.370198e+01
3.370031e+01
3.369769e+01
3.369428e+01
3.369025e+01
3.368582e+01
3.368119e+01
3.367654e+01
3.367183e+01
3.366715e+01
3.366261e+01
3.365828e+01
3.365427e+01
3.365066e+01
3.364755e+01
3.364497e+01
3.364297e+01
3.364155e+01
3.364072e+01
3.364089e+01
3.364185e+01
3.364327e+01
3.364474e+01
3.364610e+01
3.364823e+01
3.364774e+01
3.403363e+01
3.403412e+01
3.404281e+01
3.405073e+01
3.405659e+01
3.405634e+01
3.404150e+01
3.399732e+01
3.390119e+01
3.373436e+01
3.351162e+01
3.321259e+01
3.317868e+01
3.317613e+01
3.316699e+01
3.314729e+01
3.311768e+01
3.308863e+01
3.307987e+01
3.309975e+01
3.314800e+01
3.321794e+01
3.330016e+01
3.337766e+01
3.344699e+01
3.350555e+01
3.355292e+01
3.359704e+01
3.363844e+01
3.365606e+01
3.364869e+01
3.363156e+01
3.360629e+01
3.357339e+01
3.353718e+01
3.349227e+01
3.343725e+01
3.338012e+01
3.335660e+01
3.338173e+01
3.343680e+01
3.350146e+01
3.356101e+01
3.360805e+01
3.364406e+01
3.367149e+01
3.369273e+01
3.370948e+01
3.372229e+01
3.373043e+01
3.373267e+01
3.372983e+01
3.372256e+01
3.371152e+01
3.369732e+01
3.368061e+01
3.366235e+01
3.364303e+01
3.362233e+01
3.360163e+01
3.358263e+01
3.356703e+01
3.355628e+01
3.355922e+01
3.357399e+01
3.359606e+01
3.362052e+01
3.364352e+01
3.366210e+01
3.367665e+01
3.368799e+01
3.369681e+01
3.370351e+01
3.370816e+01
3.371073e+01
3.371116e+01
3.371017e+01
3.370797e+01
3.370472e+01
3.370060e+01
3.369579e+01
3.369048e+01
3.368487e+01
3.367915e+01
3.367334e+01
3.366747e+01
3.366165e+01
3.365603e+01
3.365074e+01
3.364596e+01
3.364182e+01
3.363842e+01
3.363583e+01
3.363404e+01
3.363323e+01
3.363401e+01
3.363590e+01
3.363839e+01
3.364073e+01
3.364276e+01
3.364632e+01
3.364583e+01
3.403351e+01
3.403400e+01
3.403709e+01
3.403852e+01
3.403635e+01
3.402668e+01
3.400295e+01
3.395546e+01
3.387147e+01
3.373788e+01
3.355891e+01
3.335805e+01
3.327371e+01
3.323423e+01
3.320665e+01
3.318051e+01
3.315345e+01
3.313344e+01
3.313224e+01
3.315485e+01
3.320016e+01
3.326272e+01
3.333204e+01
3.339870e+01
3.345962e+01
3.351348e+01
3.356026e+01
3.359964e+01
3.362842e+01
3.363937e+01
3.363739e+01
3.362547e+01
3.360330e+01
3.357281e+01
3.353844e+01
3.349161e+01
3.343324e+01
3.337867e+01
3.336902e+01
3.340247e+01
3.346082e+01
3.352547e+01
3.358222e+01
3.362714e+01
3.366152e+01
3.368760e+01
3.370757e+01
3.372313e+01
3.373504e+01
3.374296e+01
3.374594e+01
3.374416e+01
3.373752e+01
3.372616e+01
3.371049e+01
3.369123e+01
3.366958e+01
3.364626e+01
3.362094e+01
3.359540e+01
3.357182e+01
3.355251e+01
3.354054e+01
3.354541e+01
3.356411e+01
3.359105e+01
3.362036e+01
3.364702e+01
3.366808e+01
3.368411e+01
3.369613e+01
3.370513e+01
3.371170e+01
3.371609e+01
3.371834e+01
3.371854e+01
3.371731e+01
3.371482e+01
3.371122e+01
3.370668e+01
3.370137e+01
3.369544e+01
3.368906e+01
3.368238e+01
3.367557e+01
3.366856e+01
3.366149e+01
3.365455e+01
3.364793e+01
3.364186e+01
3.363656e+01
3.363222e+01
3.362893e+01
3.362668e+01
3.362599e+01
3.362730e+01
3.362996e+01
3.363328e+01
3.363618e+01
3.363847e+01
3.364172e+01
3.364124e+01
3.403351e+01
3.403399e+01
3.403215e+01
3.402820e+01
3.402004e+01
3.400424e+01
3.397595e+01
3.392887e+01
3.385564e+01
3.374849e+01
3.360646e+01
3.344924e+01
3.335044e+01
3.329011e+01
3.324815e+01
3.321550e+01
3.318965e+01
3.317522e+01
3.317847e+01
3.320173e+01
3.324305e+01
3.329743e+01
3.335659e+01
3.341459e+01
3.346860e+01
3.351729e+01
3.355948e+01
3.359263e+01
3.361414e+01
3.362296e+01
3.362139e+01
3.361088e+01
3.359174e+01
3.356558e+01
3.353465e+01
3.349119e+01
3.343876e+01
3.339948e+01
3.340107e+01
3.343835e+01
3.349484e+01
3.355467e+01
3.360617e+01
3.364728e+01
3.367884e+01
3.370277e+01
3.372097e+01
3.373500e+01
3.374560e+01
3.375264e+01
3.375581e+01
3.375480e+01
3.374921e+01
3.373859e+01
3.372284e+01
3.370240e+01
3.367844e+01
3.365193e+01
3.362269e+01
3.359296e+01
3.356553e+01
3.354351e+01
3.353187e+01
3.353902e+01
3.356125e+01
3.359205e+01
3.362483e+01
3.365374e+01
3.367619e+01
3.369277e+01
3.370472e+01
3.371326e+01
3.371921e+01
3.372300e+01
3.372481e+01
3.372483e+01
3.372346e+01
3.372084e+01
3.371711e+01
3.371241e+01
3.370687e+01
3.370060e+01
3.369370e+01
3.368631e+01
3.367860e+01
3.367059e+01
3.366236e+01
3.365412e+01
3.364615e+01
3.363873e+01
3.363218e+01
3.362679e+01
3.362274e+01
3.362005e+01
3.361949e+01
3.362121e+01
3.362438e+01
3.362811e+01
3.363112e+01
3.363308e+01
3.363446e+01
3.363397e+01
3.403365e+01
3.403413e+01
3.402829e+01
3.402017e+01
3.400770e+01
3.398796e+01
3.395725e+01
3.391121e+01
3.384523e+01
3.375481e+01
3.363889e+01
3.351012e+01
3.340908e+01
3.333655e+01
3.328454e+01
3.324656e+01
3.322065e+01
3.320904e+01
3.321454e+01
3.323752e+01
3.327535e+01
3.332329e+01
3.337528e+01
3.342686e+01
3.347545e+01
3.351941e+01
3.355696e+01
3.358582e+01
3.360454e+01
3.361281e+01
3.361158e+01
3.360164e+01
3.358363e+01
3.355908e+01
3.352848e+01
3.348890e+01
3.344677e+01
3.342393e+01
3.343509e+01
3.347437e+01
3.352751e+01
3.358143e+01
3.362806e+01
3.366543e+01
3.369418e+01
3.371591e+01
3.373241e+01
3.374497e+01
3.375436e+01
3.376070e+01
3.376374e+01
3.376327e+01
3.375871e+01
3.374928e+01
3.373435e+01
3.371387e+01
3.368863e+01
3.365972e+01
3.362729e+01
3.359405e+01
3.356360e+01
3.354009e+01
3.352995e+01
3.353955e+01
3.356467e+01
3.359817e+01
3.363294e+01
3.366285e+01
3.368574e+01
3.370218e+01
3.371350e+01
3.372112e+01
3.372611e+01
3.372910e+01
3.373040e+01
3.373019e+01
3.372867e+01
3.372600e+01
3.372227e+01
3.371759e+01
3.371202e+01
3.370564e+01
3.369850e+01
3.369068e+01
3.368230e+01
3.367348e+01
3.366424e+01
3.365483e+01
3.364556e+01
3.363679e+01
3.362894e+01
3.362244e+01
3.361761e+01
3.361457e+01
3.361414e+01
3.361611e+01
3.361950e+01
3.362324e+01
3.362591e+01
3.362695e+01
3.362533e+01
3.362484e+01
3.403390e+01
3.403438e+01
3.402554e+01
3.401441e+01
3.399901e+01
3.397678e+01
3.394473e+01
3.389958e+01
3.383810e+01
3.375757e+01
3.365783e+01
3.354740e+01
3.344988e+01
3.337245e+01
3.331408e+01
3.327213e+01
3.324560e+01
3.323515e+01
3.324144e+01
3.326348e+01
3.329831e+01
3.334159e+01
3.338865e+01
3.343572e+01
3.348027e+01
3.352050e+01
3.355467e+01
3.358102e+01
3.359851e+01
3.360680e+01
3.360611e+01
3.359678e+01
3.357923e+01
3.355447e+01
3.352286e+01
3.348576e+01
3.345336e+01
3.344299e+01
3.346140e+01
3.350206e+01
3.355252e+01
3.360208e+01
3.364495e+01
3.367937e+01
3.370585e+01
3.372582e+01
3.374092e+01
3.375245e+01
3.376122e+01
3.376739e+01
3.377055e+01
3.377067e+01
3.376712e+01
3.375896e+01
3.374522e+01
3.372534e+01
3.369953e+01
3.366877e+01
3.363368e+01
3.359744e+01
3.356457e+01
3.354060e+01
3.353258e+01
3.354451e+01
3.357186e+01
3.360706e+01
3.364268e+01
3.367281e+01
3.369563e+01
3.371164e+01
3.372214e+01
3.372866e+01
3.373251e+01
3.373458e+01
3.373535e+01
3.373478e+01
3.373306e+01
3.373031e+01
3.372660e+01
3.372199e+01
3.371651e+01
3.371017e+01
3.370299e+01
3.369499e+01
3.368623e+01
3.367682e+01
3.366681e+01
3.365642e+01
3.364599e+01
3.363596e+01
3.362685e+01
3.361924e+01
3.361366e+01
3.361040e+01
3.361010e+01
3.361223e+01
3.361563e+01
3.361910e+01
3.362112e+01
3.362091e+01
3.361564e+01
3.361515e+01
3.403416e+01
3.403464e+01
3.402383e+01
3.401076e+01
3.399355e+01
3.396987e+01
3.393715e+01
3.389266e+01
3.383386e+01
3.375893e+01
3.366831e+01
3.356852e+01
3.347476e+01
3.339577e+01
3.333419e+01
3.328995e+01
3.326280e+01
3.325265e+01
3.325902e+01
3.328017e+01
3.331294e+01
3.335329e+01
3.339721e+01
3.344134e+01
3.348323e+01
3.352101e+01
3.355304e+01
3.357799e+01
3.359489e+01
3.360332e+01
3.360314e+01
3.359436e+01
3.357702e+01
3.355145e+01
3.351858e+01
3.348327e+01
3.345811e+01
3.345599e+01
3.347927e+01
3.352046e+01
3.356880e+01
3.361556e+01
3.365604e+01
3.368861e+01
3.371365e+01
3.373245e+01
3.374657e+01
3.375733e+01
3.376565e+01
3.377187e+01
3.377563e+01
3.377673e+01
3.377435e+01
3.376744e+01
3.375490e+01
3.373584e+01
3.370993e+01
3.367771e+01
3.364032e+01
3.360134e+01
3.356630e+01
3.354225e+01
3.353616e+01
3.354998e+01
3.357891e+01
3.361514e+01
3.365108e+01
3.368131e+01
3.370398e+01
3.371936e+01
3.372893e+01
3.373440e+01
3.373726e+01
3.373854e+01
3.373887e+01
3.373802e+01
3.373619e+01
3.373346e+01
3.372985e+01
3.372537e+01
3.372001e+01
3.371378e+01
3.370665e+01
3.369862e+01
3.368970e+01
3.367994e+01
3.366942e+01
3.365832e+01
3.364698e+01
3.363589e+01
3.362567e+01
3.361707e+01
3.361082e+01
3.360753e+01
3.360736e+01
3.360960e+01
3.361299e+01
3.361610e+01
3.361747e+01
3.361602e+01
3.360716e+01
3.360667e+01
3.403434e+01
3.403483e+01
3.402303e+01
3.400903e+01
3.399100e+01
3.396672e+01
3.393381e+01
3.388981e+01
3.383242e+01
3.376017e+01
3.367373e+01
3.357876e+01
3.348702e+01
3.340752e+01
3.334451e+01
3.329916e+01
3.327160e+01
3.326144e+01
3.326767e+01
3.328825e+01
3.331993e+01
3.335881e+01
3.340119e+01
3.344387e+01
3.348441e+01
3.352095e+01
3.355194e+01
3.357622e+01
3.359293e+01
3.360155e+01
3.360178e+01
3.359345e+01
3.357631e+01
3.355011e+01
3.351655e+01
3.348281e+01
3.346173e+01
3.346318e+01
3.348785e+01
3.352861e+01
3.357564e+01
3.362103e+01
3.366050e+01
3.369240e+01
3.371699e+01
3.373546e+01
3.374926e+01
3.375974e+01
3.376783e+01
3.377396e+01
3.377813e+01
3.377995e+01
3.377856e+01
3.377280e+01
3.376142e+01
3.374330e+01
3.371769e+01
3.368455e+01
3.364527e+01
3.360376e+01
3.356662e+01
3.354213e+01
3.353683e+01
3.355161e+01
3.358157e+01
3.361856e+01
3.365469e+01
3.368502e+01
3.370775e+01
3.372310e+01
3.373247e+01
3.373759e+01
3.374002e+01
3.374089e+01
3.374074e+01
3.373968e+01
3.373780e+01
3.373512e+01
3.373162e+01
3.372728e+01
3.372206e+01
3.371595e+01
3.370892e+01
3.370094e+01
3.369201e+01
3.368211e+01
3.367133e+01
3.365982e+01
3.364790e+01
3.363604e+01
3.362498e+01
3.361564e+01
3.360898e+01
3.360568e+01
3.360568e+01
3.360811e+01
3.361158e+01
3.361450e+01
3.361544e+01
3.361313e+01
3.360155e+01
3.360106e+01
0.000000e+00
3.403434e+01
3.402255e+01
3.400855e+01
3.399051e+01
3.396624e+01
3.393333e+01
3.388933e+01
3.383194e+01
3.375968e+01
3.367325e+01
3.357827e+01
3.348653e+01
3.340704e+01
3.334403e+01
3.329868e+01
3.327112e+01
3.326095e+01
3.326719e+01
3.328777e+01
3.331945e+01
3.335833e+01
3.340070e+01
3.344338e+01
3.348393e+01
3.352046e+01
3.355146e+01
3.357573e+01
3.359245e+01
3.360106e+01
3.360130e+01
3.359296e+01
3.357583e+01
3.354963e+01
3.351607e+01
3.348232e+01
3.346125e+01
3.346269e+01
3.348736e+01
3.352813e+01
3.357515e+01
3.362054e+01
3.366002e+01
3.369192e+01
3.371651e+01
3.373497e+01
3.374878e+01
3.375925e+01
3.376734e+01
3.377348e+01
3.377764e+01
3.377946e+01
3.377807e+01
3.377232e+01
3.376093e+01
3.374281e+01
3.371721e+01
3.368407e+01
3.364478e+01
3.360327e+01
3.356614e+01