# vtk DataFile Version 3.0
Scalar Field
ASCII
DATASET RECTILINEAR_GRID
DIMENSIONS 102 22 1
X_COORDINATES 102 double
0.000000 0.100000 0.200000 0.300000 0.400000 0.500000 0.600000 0.700000 0.800000 0.900000 1.000000 1.100000 1.200000 1.300000 1.400000 1.500000 1.600000 1.700000 1.800000 1.900000 2.000000 2.100000 2.200000 2.300000 2.400000 2.500000 2.600000 2.700000 2.800000 2.900000 3.000000 3.100000 3.200000 3.300000 3.400000 3.500000 3.600000 3.700000 3.800000 3.900000 4.000000 4.100000 4.200000 4.300000 4.400000 4.500000 4.600000 4.700000 4.800000 4.900000 5.000000 5.100000 5.200000 5.300000 5.400000 5.500000 5.600000 5.700000 5.800000 5.900000 6.000000 6.100000 6.200000 6.300000 6.400000 6.500000 6.600000 6.700000 6.800000 6.900000 7.000000 7.100000 7.200000 7.300000 7.400000 7.500000 7.600000 7.700000 7.800000 7.900000 8.000000 8.100000 8.200000 8.300000 8.400000 8.500000 8.600000 8.700000 8.800000 8.900000 9.000000 9.100000 9.200000 9.300000 9.400000 9.500000 9.600000 9.700000 9.800000 9.900000 10.000000 10.100000 
Y_COORDINATES 22 double
0.000000 0.100000 0.200000 0.300000 0.400000 0.500000 0.600000 0.700000 0.800000 0.900000 1.000000 1.100000 1.200000 1.300000 1.400000 1.500000 1.600000 1.700000 1.800000 1.900000 2.000000 2.100000 
Z_COORDINATES 1 double
0.0
POINT_DATA 2244
SCALARS Pressure double 1
LOOKUP_TABLE default
0.000000e+00
7.433829e+01
7.431100e+01
7.427921e+01
7.423969e+01
7.418892e+01
7.412363e+01
7.404283e+01
7.394684e+01
7.385446e+01
7.377996e+01
7.372714e+01
7.369362e+01
7.367494e+01
7.366675e+01
7.366523e+01
7.366693e+01
7.366848e+01
7.366695e+01
7.366111e+01
7.365262e+01
7.364521e+01
7.364255e+01
7.364625e+01
7.365580e+01
7.366986e+01
7.368722e+01
7.370718e+01
7.372958e+01
7.375468e+01
7.378281e+01
7.381417e+01
7.384858e+01
7.388544e+01
7.392374e+01
7.396222e+01
7.399953e+01
7.403426e+01
7.406505e+01
7.409105e+01
7.411217e+01
7.412913e+01
7.414297e+01
7.415524e+01
7.416606e+01
7.417333e+01
7.417347e+01
7.416180e+01
7.413459e+01
7.409114e+01
7.403602e+01
7.397825e+01
7.392932e+01
7.389932e+01
7.389292e+01
7.390539e+01
7.393336e+01
7.397223e+01
7.401592e+01
7.405754e+01
7.409097e+01
7.411289e+01
7.412425e+01
7.412832e+01
7.412832e+01
7.412607e+01
7.412314e+01
7.411942e+01
7.411425e+01
7.410729e+01
7.409857e+01
7.408845e+01
7.407751e+01
7.406644e+01
7.405595e+01
7.404671e+01
7.403925e+01
7.403400e+01
7.403118e+01
7.403085e+01
7.403285e+01
7.403688e+01
7.404258e+01
7.404963e+01
7.405762e+01
7.406610e+01
7.407453e+01
7.408231e+01
7.408884e+01
7.409362e+01
7.409640e+01
7.409727e+01
7.409661e+01
7.409495e+01
7.409290e+01
7.409104e+01
7.408979e+01
7.408944e+01
7.409013e+01
7.409189e+01
7.409596e+01
0.000000e+00
7.433829e+01
7.433857e+01
7.431128e+01
7.427949e+01
7.423997e+01
7.418920e+01
7.412391e+01
7.404310e+01
7.394712e+01
7.385474e+01
7.378024e+01
7.372742e+01
7.369390e+01
7.367522e+01
7.366703e+01
7.366551e+01
7.366721e+01
7.366876e+01
7.366723e+01
7.366139e+01
7.365290e+01
7.364549e+01
7.364283e+01
7.364653e+01
7.365608e+01
7.367014e+01
7.368750e+01
7.370746e+01
7.372986e+01
7.375496e+01
7.378309e+01
7.381445e+01
7.384886e+01
7.388572e+01
7.392402e+01
7.396250e+01
7.399981e+01
7.403454e+01
7.406533e+01
7.409133e+01
7.411245e+01
7.412941e+01
7.414325e+01
7.415552e+01
7.416634e+01
7.417361e+01
7.417375e+01
7.416209e+01
7.413487e+01
7.409142e+01
7.403630e+01
7.397853e+01
7.392960e+01
7.389960e+01
7.389320e+01
7.390567e+01
7.393364e+01
7.397251e+01
7.401620e+01
7.405782e+01
7.409125e+01
7.411317e+01
7.412453e+01
7.412861e+01
7.412860e+01
7.412635e+01
7.412342e+01
7.411970e+01
7.411453e+01
7.410757e+01
7.409885e+01
7.408873e+01
7.407779e+01
7.406672e+01
7.405624e+01
7.404699e+01
7.403953e+01
7.403428e+01
7.403146e+01
7.403113e+01
7.403313e+01
7.403716e+01
7.404286e+01
7.404991e+01
7.405790e+01
7.406638e+01
7.407481e+01
7.408260e+01
7.408912e+01
7.409390e+01
7.409668e+01
7.409755e+01
7.409689e+01
7.409523e+01
7.409318e+01
7.409132e+01
7.409007e+01
7.408972e+01
7.409041e+01
7.409217e+01
7.409625e+01
7.409596e+01
7.433806e+01
7.433834e+01
7.431248e+01
7.428188e+01
7.424309e+01
7.419209e+01
7.412492e+01
7.404021e+01
7.393495e+01
7.383800e+01
7.376409e+01
7.371405e+01
7.368350e+01
7.366725e+01
7.366092e+01
7.366095e+01
7.366421e+01
7.366745e+01
7.366742e+01
7.366235e+01
7.365367e+01
7.364555e+01
7.364225e+01
7.364593e+01
7.365578e+01
7.367011e+01
7.368754e+01
7.370730e+01
7.372926e+01
7.375374e+01
7.378119e+01
7.381188e+01
7.384571e+01
7.388210e+01
7.392006e+01
7.395830e+01
7.399545e+01
7.403025e+01
7.406120e+01
7.408741e+01
7.410867e+01
7.412560e+01
7.413922e+01
7.415050e+01
7.415927e+01
7.416370e+01
7.416092e+01
7.414757e+01
7.412009e+01
7.407753e+01
7.402494e+01
7.397069e+01
7.392522e+01
7.389765e+01
7.389306e+01
7.390653e+01
7.393420e+01
7.397136e+01
7.401181e+01
7.404953e+01
7.408058e+01
7.410263e+01
7.411569e+01
7.412188e+01
7.412377e+01
7.412308e+01
7.412092e+01
7.411741e+01
7.411222e+01
7.410520e+01
7.409648e+01
7.408644e+01
7.407568e+01
7.406488e+01
7.405472e+01
7.404582e+01
7.403872e+01
7.403379e+01
7.403125e+01
7.403113e+01
7.403335e+01
7.403764e+01
7.404358e+01
7.405086e+01
7.405908e+01
7.406769e+01
7.407608e+01
7.408363e+01
7.408976e+01
7.409406e+01
7.409639e+01
7.409693e+01
7.409605e+01
7.409421e+01
7.409204e+01
7.409013e+01
7.408888e+01
7.408858e+01
7.408937e+01
7.409130e+01
7.409592e+01
7.409564e+01
7.433812e+01
7.433840e+01
7.431549e+01
7.428759e+01
7.425072e+01
7.419981e+01
7.412898e+01
7.403539e+01
7.390792e+01
7.380238e+01
7.373138e+01
7.368789e+01
7.366358e+01
7.365212e+01
7.364924e+01
7.365205e+01
7.365820e+01
7.366483e+01
7.366810e+01
7.366465e+01
7.365549e+01
7.364588e+01
7.364127e+01
7.364483e+01
7.365538e+01
7.367030e+01
7.368789e+01
7.370723e+01
7.372826e+01
7.375147e+01
7.377744e+01
7.380660e+01
7.383901e+01
7.387421e+01
7.391126e+01
7.394886e+01
7.398566e+01
7.402040e+01
7.405165e+01
7.407844e+01
7.410034e+01
7.411771e+01
7.413144e+01
7.414219e+01
7.414896e+01
7.415053e+01
7.414499e+01
7.412971e+01
7.410211e+01
7.406103e+01
7.401183e+01
7.396204e+01
7.392090e+01
7.389661e+01
7.389401e+01
7.390804e+01
7.393407e+01
7.396776e+01
7.400370e+01
7.403694e+01
7.406523e+01
7.408691e+01
7.410175e+01
7.411078e+01
7.411540e+01
7.411696e+01
7.411633e+01
7.411353e+01
7.410864e+01
7.410177e+01
7.409318e+01
7.408328e+01
7.407274e+01
7.406224e+01
7.405246e+01
7.404399e+01
7.403733e+01
7.403284e+01
7.403071e+01
7.403102e+01
7.403376e+01
7.403850e+01
7.404487e+01
7.405252e+01
7.406098e+01
7.406960e+01
7.407766e+01
7.408456e+01
7.408995e+01
7.409353e+01
7.409529e+01
7.409549e+01
7.409431e+01
7.409234e+01
7.409017e+01
7.408828e+01
7.408710e+01
7.408689e+01
7.408780e+01
7.408992e+01
7.409473e+01
7.409445e+01
7.433880e+01
7.433908e+01
7.432078e+01
7.429731e+01
7.426407e+01
7.421401e+01
7.413736e+01
7.402590e+01
7.385576e+01
7.374187e+01
7.368145e+01
7.365043e+01
7.363562e+01
7.363096e+01
7.363284e+01
7.363934e+01
7.364930e+01
7.366069e+01
7.366927e+01
7.366895e+01
7.365868e+01
7.364636e+01
7.363956e+01
7.364264e+01
7.365459e+01
7.367066e+01
7.368871e+01
7.370749e+01
7.372710e+01
7.374833e+01
7.377207e+01
7.379898e+01
7.382935e+01
7.386283e+01
7.389858e+01
7.393529e+01
7.397154e+01
7.400599e+01
7.403753e+01
7.406508e+01
7.408800e+01
7.410634e+01
7.412070e+01
7.413158e+01
7.413723e+01
7.413599e+01
7.412737e+01
7.411034e+01
7.408334e+01
7.404543e+01
7.400114e+01
7.395716e+01
7.392133e+01
7.390078e+01
7.389987e+01
7.391371e+01
7.393731e+01
7.396696e+01
7.399824e+01
7.402716e+01
7.405256e+01
7.407334e+01
7.408873e+01
7.409914e+01
7.410559e+01
7.410913e+01
7.411031e+01
7.410858e+01
7.410425e+01
7.409767e+01
7.408926e+01
7.407951e+01
7.406925e+01
7.405917e+01
7.404990e+01
7.404201e+01
7.403595e+01
7.403205e+01
7.403052e+01
7.403151e+01
7.403498e+01
7.404029e+01
7.404714e+01
7.405507e+01
7.406346e+01
7.407156e+01
7.407861e+01
7.408455e+01
7.408899e+01
7.409184e+01
7.409324e+01
7.409320e+01
7.409196e+01
7.409004e+01
7.408792e+01
7.408605e+01
7.408492e+01
7.408476e+01
7.408576e+01
7.408801e+01
7.409305e+01
7.409277e+01
7.434046e+01
7.434074e+01
7.432880e+01
7.431195e+01
7.428511e+01
7.423843e+01
7.415427e+01
7.400723e+01
7.376164e+01
7.365360e+01
7.361608e+01
7.360359e+01
7.360150e+01
7.360546e+01
7.361300e+01
7.362346e+01
7.363713e+01
7.365351e+01
7.366942e+01
7.367594e+01
7.366449e+01
7.364755e+01
7.363718e+01
7.363924e+01
7.365324e+01
7.367157e+01
7.369080e+01
7.370909e+01
7.372677e+01
7.374536e+01
7.376607e+01
7.378997e+01
7.381758e+01
7.384878e+01
7.388280e+01
7.391837e+01
7.395393e+01
7.398797e+01
7.401976e+01
7.404829e+01
7.407279e+01
7.409302e+01
7.410894e+01
7.412016e+01
7.412442e+01
7.411978e+01
7.410824e+01
7.409042e+01
7.406542e+01
7.403220e+01
7.399434e+01
7.395737e+01
7.392765e+01
7.391113e+01
7.391146e+01
7.392431e+01
7.394496e+01
7.397037e+01
7.399702e+01
7.402173e+01
7.404400e+01
7.406314e+01
7.407820e+01
7.408922e+01
7.409679e+01
7.410162e+01
7.410412e+01
7.410316e+01
7.409924e+01
7.409290e+01
7.408472e+01
7.407529e+01
7.406549e+01
7.405602e+01
7.404747e+01
7.404035e+01
7.403507e+01
7.403194e+01
7.403123e+01
7.403320e+01
7.403739e+01
7.404324e+01
7.405032e+01
7.405804e+01
7.406567e+01
7.407242e+01
7.407827e+01
7.408303e+01
7.408655e+01
7.408892e+01
7.409022e+01
7.409018e+01
7.408910e+01
7.408733e+01
7.408530e+01
7.408350e+01
7.408241e+01
7.408229e+01
7.408333e+01
7.408566e+01
7.409090e+01
7.409062e+01
7.434340e+01
7.434368e+01
7.433971e+01
7.433207e+01
7.431623e+01
7.428017e+01
7.419372e+01
7.398313e+01
7.359636e+01
7.352855e+01
7.353841e+01
7.355240e+01
7.356510e+01
7.357858e+01
7.359180e+01
7.360603e+01
7.362185e+01
7.363963e+01
7.366039e+01
7.368051e+01
7.367429e+01
7.365154e+01
7.363581e+01
7.363687e+01
7.365257e+01
7.367414e+01
7.369632e+01
7.371474e+01
7.372981e+01
7.374521e+01
7.376217e+01
7.378233e+01
7.380647e+01
7.383470e+01
7.386640e+01
7.390033e+01
7.393486e+01
7.396812e+01
7.399985e+01
7.402949e+01
7.405622e+01
7.407922e+01
7.409701e+01
7.410773e+01
7.410849e+01
7.409975e+01
7.408622e+01
7.406944e+01
7.404853e+01
7.402199e+01
7.399218e+01
7.396320e+01
7.394004e+01
7.392748e+01
7.392846e+01
7.393950e+01
7.395671e+01
7.397766e+01
7.399962e+01
7.402006e+01
7.403890e+01
7.405571e+01
7.406960e+01
7.408041e+01
7.408840e+01
7.409389e+01
7.409717e+01
7.409669e+01
7.409309e+01
7.408711e+01
7.407942e+01
7.407066e+01
7.406169e+01
7.405319e+01
7.404566e+01
7.403956e+01
7.403528e+01
7.403315e+01
7.403356e+01
7.403651e+01
7.404122e+01
7.404721e+01
7.405389e+01
7.406059e+01
7.406660e+01
7.407182e+01
7.407629e+01
7.407992e+01
7.408277e+01
7.408497e+01
7.408626e+01
7.408642e+01
7.408560e+01
7.408409e+01
7.408224e+01
7.408060e+01
7.407961e+01
7.407954e+01
7.408061e+01
7.408295e+01
7.408821e+01
7.408793e+01
7.434762e+01
7.434790e+01
7.435291e+01
7.435680e+01
7.435800e+01
7.434785e+01
7.429242e+01
7.405127e+01
7.329810e+01
7.336072e+01
7.346488e+01
7.350899e+01
7.353256e+01
7.355100e+01
7.356841e+01
7.358643e+01
7.360499e+01
7.362220e+01
7.364414e+01
7.366682e+01
7.367459e+01
7.365503e+01
7.363535e+01
7.363685e+01
7.365522e+01
7.368151e+01
7.370748e+01
7.372700e+01
7.373993e+01
7.375273e+01
7.376548e+01
7.378139e+01
7.380123e+01
7.382545e+01
7.385371e+01
7.388492e+01
7.391742e+01
7.394916e+01
7.397979e+01
7.400987e+01
7.403822e+01
7.406264e+01
7.408021e+01
7.408822e+01
7.408400e+01
7.407324e+01
7.406080e+01
7.404787e+01
7.403338e+01
7.401535e+01
7.399475e+01
7.397424e+01
7.395765e+01
7.394870e+01
7.394976e+01
7.395834e+01
7.397168e+01
7.398794e+01
7.400504e+01
7.402104e+01
7.403610e+01
7.404997e+01
7.406197e+01
7.407184e+01
7.407953e+01
7.408509e+01
7.408856e+01
7.408834e+01
7.408519e+01
7.407993e+01
7.407326e+01
7.406575e+01
7.405819e+01
7.405114e+01
7.404503e+01
7.404025e+01
7.403721e+01
7.403630e+01
7.403792e+01
7.404144e+01
7.404616e+01
7.405155e+01
7.405699e+01
7.406189e+01
7.406605e+01
7.406970e+01
7.407285e+01
7.407555e+01
7.407790e+01
7.407997e+01
7.408129e+01
7.408167e+01
7.408120e+01
7.408009e+01
7.407863e+01
7.407731e+01
7.407656e+01
7.407663e+01
7.407774e+01
7.408005e+01
7.408504e+01
7.408476e+01
7.435272e+01
7.435300e+01
7.436662e+01
7.438243e+01
7.440388e+01
7.443425e+01
7.447268e+01
7.458536e+01
7.394145e+01
7.341632e+01
7.347247e+01
7.349053e+01
7.350961e+01
7.352625e+01
7.354246e+01
7.356030e+01
7.357838e+01
7.359595e+01
7.361632e+01
7.363112e+01
7.363545e+01
7.362734e+01
7.361999e+01
7.362985e+01
7.365393e+01
7.368624e+01
7.371843e+01
7.374271e+01
7.375860e+01
7.376953e+01
7.377938e+01
7.379155e+01
7.380660e+01
7.382561e+01
7.384880e+01
7.387542e+01
7.390401e+01
7.393269e+01
7.395947e+01
7.398578e+01
7.401213e+01
7.403536e+01
7.404983e+01
7.405372e+01
7.404854e+01
7.404077e+01
7.403354e+01
7.402738e+01
7.402121e+01
7.401286e+01
7.400184e+01
7.398961e+01
7.397909e+01
7.397319e+01
7.397382e+01
7.397957e+01
7.398878e+01
7.400016e+01
7.401222e+01
7.402359e+01
7.403451e+01
7.404494e+01
7.405438e+01
7.406253e+01
7.406916e+01
7.407410e+01
7.407723e+01
7.407730e+01
7.407505e+01
7.407121e+01
7.406635e+01
7.406089e+01
7.405545e+01
7.405042e+01
7.404616e+01
7.404303e+01
7.404144e+01
7.404182e+01
7.404416e+01
7.404758e+01
7.405154e+01
7.405551e+01
7.405904e+01
7.406184e+01
7.406424e+01
7.406635e+01
7.406830e+01
7.407017e+01
7.407198e+01
7.407371e+01
7.407496e+01
7.407560e+01
7.407563e+01
7.407517e+01
7.407441e+01
7.407371e+01
7.407342e+01
7.407378e+01
7.407499e+01
7.407724e+01
7.408166e+01
7.408138e+01
7.435801e+01
7.435829e+01
7.437836e+01
7.440297e+01
7.443885e+01
7.449645e+01
7.459336e+01
7.472480e+01
7.475018e+01
0.000000e+00
7.350034e+01
7.350062e+01
7.351656e+01
7.352672e+01
7.353513e+01
7.354540e+01
7.355549e+01
7.356223e+01
7.356824e+01
7.356805e+01
7.355994e+01
7.354830e+01
7.355055e+01
7.357660e+01
7.362361e+01
7.367877e+01
7.372386e+01
7.376196e+01
7.378447e+01
7.379616e+01
7.380456e+01
7.381362e+01
7.382407e+01
7.383692e+01
7.385338e+01
7.387314e+01
7.389491e+01
7.391669e+01
7.393572e+01
7.395514e+01
7.397649e+01
7.399331e+01
7.400154e+01
7.400309e+01
7.400383e+01
7.400557e+01
7.400807e+01
7.401105e+01
7.401391e+01
7.401509e+01
7.401317e+01
7.400839e+01
7.400298e+01
7.399938e+01
7.399918e+01
7.400196e+01
7.400697e+01
7.401340e+01
7.402032e+01
7.402687e+01
7.403332e+01
7.403977e+01
7.404592e+01
7.405147e+01
7.405614e+01
7.405979e+01
7.406228e+01
7.406302e+01
7.406248e+01
7.406107e+01
7.405904e+01
7.405656e+01
7.405401e+01
7.405159e+01
7.404957e+01
7.404833e+01
7.404822e+01
7.404948e+01
7.405173e+01
7.405428e+01
7.405672e+01
7.405869e+01
7.406002e+01
7.406085e+01
7.406148e+01
7.406212e+01
7.406288e+01
7.406380e+01
7.406483e+01
7.406593e+01
7.406702e+01
7.406799e+01
7.406877e+01
7.406931e+01
7.406965e+01
7.406993e+01
7.407040e+01
7.407124e+01
7.407265e+01
7.407482e+01
7.407851e+01
7.407822e+01
7.436282e+01
7.436310e+01
7.438626e+01
7.441439e+01
7.445383e+01
7.451197e+01
7.459621e+01
7.469713e+01
7.477612e+01
7.477584e+01
0.000000e+00
7.353169e+01
7.353197e+01
7.353878e+01
7.354073e+01
7.354062e+01
7.353756e+01
7.352967e+01
7.351602e+01
7.349531e+01
7.346966e+01
7.344825e+01
7.345801e+01
7.350242e+01
7.357337e+01
7.365594e+01
7.373268e+01
7.379290e+01
7.382751e+01
7.384118e+01
7.384653e+01
7.385092e+01
7.385601e+01
7.386173e+01
7.386995e+01
7.388064e+01
7.389269e+01
7.390402e+01
7.391222e+01
7.392186e+01
7.392950e+01
7.393401e+01
7.393788e+01
7.394629e+01
7.395945e+01
7.397426e+01
7.398849e+01
7.400130e+01
7.401262e+01
7.402169e+01
7.402741e+01
7.402921e+01
7.402805e+01
7.402598e+01
7.402464e+01
7.402455e+01
7.402545e+01
7.402700e+01
7.402875e+01
7.403033e+01
7.403195e+01
7.403380e+01
7.403578e+01
7.403773e+01
7.403954e+01
7.404126e+01
7.404315e+01
7.404530e+01
7.404762e+01
7.404989e+01
7.405188e+01
7.405337e+01
7.405440e+01
7.405505e+01
7.405555e+01
7.405622e+01
7.405726e+01
7.405867e+01
7.406008e+01
7.406108e+01
7.406140e+01
7.406111e+01
7.406038e+01
7.405933e+01
7.405824e+01
7.405732e+01
7.405669e+01
7.405636e+01
7.405630e+01
7.405650e+01
7.405739e+01
7.405884e+01
7.406066e+01
7.406261e+01
7.406449e+01
7.406618e+01
7.406773e+01
7.406925e+01
7.407093e+01
7.407296e+01
7.407587e+01
7.407559e+01
7.436679e+01
7.436707e+01
7.438994e+01
7.441684e+01
7.445256e+01
7.450223e+01
7.456631e+01
7.462387e+01
7.465328e+01
7.441202e+01
7.441174e+01
0.000000e+00
7.353740e+01
7.354339e+01
7.354197e+01
7.353497e+01
7.352282e+01
7.350474e+01
7.347841e+01
7.344382e+01
7.340579e+01
7.338841e+01
7.341382e+01
7.347736e+01
7.356715e+01
7.366657e+01
7.376024e+01
7.383848e+01
7.388711e+01
7.390993e+01
7.391260e+01
7.390925e+01
7.390676e+01
7.390425e+01
7.390300e+01
7.390281e+01
7.390293e+01
7.390068e+01
7.389519e+01
7.388767e+01
7.387939e+01
7.387275e+01
7.387558e+01
7.389495e+01
7.392247e+01
7.395122e+01
7.397718e+01
7.399899e+01
7.401695e+01
7.403179e+01
7.404303e+01
7.404978e+01
7.405211e+01
7.405137e+01
7.404907e+01
7.404646e+01
7.404365e+01
7.404060e+01
7.403728e+01
7.403371e+01
7.403006e+01
7.402656e+01
7.402339e+01
7.402082e+01
7.401915e+01
7.401861e+01
7.402045e+01
7.402512e+01
7.403163e+01
7.403883e+01
7.404580e+01
7.405180e+01
7.405668e+01
7.406054e+01
7.406354e+01
7.406580e+01
7.406727e+01
7.406794e+01
7.406790e+01
7.406700e+01
7.406529e+01
7.406302e+01
7.406053e+01
7.405777e+01
7.405505e+01
7.405257e+01
7.405045e+01
7.404873e+01
7.404742e+01
7.404655e+01
7.404720e+01
7.404918e+01
7.405215e+01
7.405566e+01
7.405929e+01
7.406257e+01
7.406533e+01
7.406762e+01
7.406956e+01
7.407134e+01
7.407343e+01
7.407315e+01
7.436992e+01
7.437020e+01
7.439014e+01
7.441288e+01
7.444084e+01
7.447405e+01
7.450561e+01
7.451355e+01
7.445567e+01
7.434026e+01
7.393541e+01
7.363833e+01
7.351373e+01
7.355609e+01
7.354922e+01
7.353435e+01
7.351613e+01
7.349163e+01
7.345832e+01
7.341625e+01
7.337666e+01
7.337310e+01
7.341462e+01
7.349313e+01
7.359354e+01
7.369894e+01
7.379649e+01
7.388017e+01
7.394267e+01
7.397578e+01
7.398721e+01
7.398731e+01
7.397798e+01
7.396633e+01
7.395442e+01
7.394098e+01
7.392443e+01
7.390662e+01
7.388500e+01
7.385985e+01
7.383533e+01
7.381702e+01
7.382516e+01
7.385669e+01
7.389809e+01
7.393934e+01
7.397513e+01
7.400336e+01
7.402596e+01
7.404441e+01
7.405902e+01
7.406902e+01
7.407384e+01
7.407399e+01
7.407095e+01
7.406622e+01
7.406020e+01
7.405311e+01
7.404520e+01
7.403686e+01
7.402819e+01
7.401939e+01
7.401105e+01
7.400384e+01
7.399839e+01
7.399512e+01
7.399730e+01
7.400506e+01
7.401643e+01
7.402920e+01
7.404158e+01
7.405208e+01
7.406057e+01
7.406722e+01
7.407218e+01
7.407542e+01
7.407674e+01
7.407646e+01
7.407500e+01
7.407241e+01
7.406892e+01
7.406492e+01
7.406081e+01
7.405647e+01
7.405215e+01
7.404808e+01
7.404440e+01
7.404124e+01
7.403866e+01
7.403674e+01
7.403716e+01
7.403970e+01
7.404384e+01
7.404894e+01
7.405431e+01
7.405913e+01
7.406302e+01
7.406595e+01
7.406801e+01
7.406938e+01
7.407050e+01
7.407022e+01
7.437258e+01
7.437286e+01
7.438811e+01
7.440440e+01
7.442191e+01
7.443772e+01
7.444256e+01
7.441648e+01
7.432352e+01
7.415519e+01
7.388936e+01
7.334180e+01
7.347192e+01
7.353102e+01
7.354007e+01
7.353148e+01
7.351539e+01
7.348897e+01
7.345162e+01
7.340871e+01
7.338277e+01
7.339584e+01
7.344999e+01
7.353508e+01
7.363663e+01
7.373542e+01
7.382066e+01
7.389394e+01
7.395919e+01
7.400839e+01
7.403187e+01
7.404442e+01
7.404001e+01
7.402150e+01
7.399874e+01
7.397275e+01
7.394379e+01
7.391487e+01
7.387894e+01
7.383827e+01
7.379853e+01
7.377613e+01
7.379332e+01
7.383645e+01
7.388912e+01
7.393969e+01
7.398110e+01
7.401324e+01
7.403839e+01
7.405850e+01
7.407452e+01
7.408618e+01
7.409264e+01
7.409355e+01
7.409031e+01
7.408407e+01
7.407545e+01
7.406490e+01
7.405293e+01
7.404026e+01
7.402692e+01
7.401310e+01
7.399974e+01
7.398791e+01
7.397863e+01
7.397262e+01
7.397565e+01
7.398692e+01
7.400346e+01
7.402196e+01
7.403962e+01
7.405416e+01
7.406566e+01
7.407443e+01
7.408068e+01
7.408439e+01
7.408538e+01
7.408427e+01
7.408165e+01
7.407769e+01
7.407273e+01
7.406718e+01
7.406152e+01
7.405568e+01
7.404980e+01
7.404413e+01
7.403890e+01
7.403432e+01
7.403055e+01
7.402770e+01
7.402796e+01
7.403104e+01
7.403628e+01
7.404282e+01
7.404977e+01
7.405590e+01
7.406067e+01
7.406401e+01
7.406599e+01
7.406681e+01
7.406667e+01
7.406639e+01
7.437469e+01
7.437497e+01
7.438463e+01
7.439395e+01
7.440163e+01
7.440373e+01
7.439182e+01
7.435128e+01
7.425979e+01
7.409914e+01
7.388444e+01
7.359574e+01
7.356566e+01
7.356760e+01
7.356190e+01
7.354847e+01
7.352905e+01
7.350259e+01
7.346648e+01
7.343440e+01
7.342470e+01
7.344894e+01
7.350667e+01
7.358865e+01
7.368149e+01
7.376752e+01
7.384320e+01
7.390699e+01
7.395637e+01
7.399128e+01
7.402545e+01
7.405652e+01
7.405994e+01
7.404648e+01
7.402424e+01
7.399386e+01
7.395797e+01
7.392152e+01
7.387493e+01
7.382318e+01
7.377380e+01
7.375708e+01
7.378366e+01
7.383584e+01
7.389565e+01
7.395039e+01
7.399374e+01
7.402714e+01
7.405286e+01
7.407301e+01
7.408892e+01
7.410086e+01
7.410809e+01
7.410975e+01
7.410684e+01
7.409992e+01
7.408957e+01
7.407637e+01
7.406103e+01
7.404457e+01
7.402702e+01
7.400859e+01
7.399054e+01
7.397434e+01
7.396145e+01
7.395330e+01
7.395765e+01
7.397254e+01
7.399406e+01
7.401790e+01
7.404003e+01
7.405784e+01
7.407154e+01
7.408165e+01
7.408855e+01
7.409237e+01
7.409306e+01
7.409140e+01
7.408799e+01
7.408305e+01
7.407693e+01
7.407007e+01
7.406295e+01
7.405568e+01
7.404828e+01
7.404105e+01
7.403431e+01
7.402839e+01
7.402356e+01
7.402002e+01
7.402016e+01
7.402372e+01
7.402990e+01
7.403762e+01
7.404581e+01
7.405289e+01
7.405824e+01
7.406172e+01
7.406340e+01
7.406351e+01
7.406183e+01
7.406154e+01
7.437641e+01
7.437669e+01
7.438084e+01
7.438377e+01
7.438350e+01
7.437618e+01
7.435530e+01
7.431123e+01
7.423134e+01
7.410286e+01
7.393014e+01
7.373634e+01
7.365641e+01
7.362061e+01
7.359582e+01
7.357291e+01
7.354927e+01
7.352322e+01
7.349454e+01
7.347573e+01
7.347814e+01
7.350826e+01
7.356416e+01
7.363816e+01
7.371739e+01
7.379189e+01
7.385814e+01
7.391472e+01
7.396126e+01
7.399873e+01
7.402980e+01
7.404855e+01
7.405166e+01
7.404447e+01
7.402641e+01
7.399827e+01
7.396301e+01
7.392449e+01
7.387332e+01
7.381620e+01
7.376648e+01
7.376136e+01
7.379622e+01
7.385313e+01
7.391486e+01
7.396855e+01
7.401089e+01
7.404332e+01
7.406802e+01
7.408706e+01
7.410190e+01
7.411310e+01
7.412017e+01
7.412244e+01
7.412019e+01
7.411347e+01
7.410251e+01
7.408776e+01
7.406999e+01
7.405042e+01
7.402923e+01
7.400667e+01
7.398436e+01
7.396421e+01
7.394818e+01
7.393914e+01
7.394507e+01
7.396336e+01
7.398919e+01
7.401739e+01
7.404282e+01
7.406291e+01
7.407792e+01
7.408860e+01
7.409560e+01
7.409927e+01
7.409977e+01
7.409783e+01
7.409398e+01
7.408845e+01
7.408155e+01
7.407367e+01
7.406527e+01
7.405668e+01
7.404782e+01
7.403909e+01
7.403091e+01
7.402373e+01
7.401800e+01
7.401404e+01
7.401413e+01
7.401807e+01
7.402494e+01
7.403350e+01
7.404250e+01
7.405016e+01
7.405577e+01
7.405913e+01
7.406032e+01
7.405957e+01
7.405615e+01
7.405587e+01
7.437791e+01
7.437819e+01
7.437747e+01
7.437507e+01
7.436883e+01
7.435538e+01
7.432990e+01
7.428610e+01
7.421669e+01
7.411400e+01
7.397717e+01
7.382548e+01
7.373062e+01
7.367291e+01
7.363229e+01
7.359977e+01
7.357146e+01
7.354572e+01
7.352419e+01
7.351520e+01
7.352584e+01
7.355896e+01
7.361160e+01
7.367701e+01
7.374547e+01
7.381059e+01
7.386926e+01
7.392028e+01
7.396353e+01
7.399839e+01
7.402362e+01
7.403703e+01
7.403944e+01
7.403303e+01
7.401755e+01
7.399296e+01
7.396159e+01
7.392399e+01
7.387459e+01
7.382011e+01
7.378206e+01
7.378650e+01
7.382555e+01
7.388212e+01
7.394080e+01
7.399054e+01
7.402990e+01
7.405996e+01
7.408268e+01
7.409999e+01
7.411332e+01
7.412328e+01
7.412961e+01
7.413212e+01
7.413054e+01
7.412459e+01
7.411404e+01
7.409896e+01
7.407990e+01
7.405804e+01
7.403386e+01
7.400774e+01
7.398170e+01
7.395820e+01
7.393988e+01
7.393102e+01
7.393878e+01
7.396001e+01
7.398915e+01
7.402037e+01
7.404781e+01
7.406912e+01
7.408462e+01
7.409524e+01
7.410190e+01
7.410523e+01
7.410558e+01
7.410355e+01
7.409953e+01
7.409373e+01
7.408640e+01
7.407784e+01
7.406846e+01
7.405868e+01
7.404849e+01
7.403835e+01
7.402880e+01
7.402045e+01
7.401394e+01
7.400978e+01
7.400987e+01
7.401410e+01
7.402143e+01
7.403050e+01
7.403990e+01
7.404778e+01
7.405337e+01
7.405643e+01
7.405700e+01
7.405527e+01
7.405005e+01
7.404977e+01
7.437925e+01
7.437953e+01
7.437483e+01
7.436829e+01
7.435777e+01
7.434038e+01
7.431245e+01
7.426964e+01
7.420737e+01
7.412113e+01
7.400983e+01
7.388549e+01
7.378774e+01
7.371712e+01
7.366496e+01
7.362435e+01
7.359177e+01
7.356610e+01
7.354945e+01
7.354700e+01
7.356278e+01
7.359728e+01
7.364696e+01
7.370573e+01
7.376668e+01
7.382495e+01
7.387803e+01
7.392478e+01
7.396462e+01
7.399629e+01
7.401847e+01
7.403055e+01
7.403301e+01
7.402676e+01
7.401189e+01
7.398859e+01
7.395867e+01
7.392132e+01
7.387540e+01
7.382931e+01
7.380564e+01
7.381828e+01
7.385917e+01
7.391305e+01
7.396653e+01
7.401197e+01
7.404792e+01
7.407528e+01
7.409581e+01
7.411132e+01
7.412309e+01
7.413181e+01
7.413752e+01
7.413996e+01
7.413892e+01
7.413391e+01
7.412432e+01
7.410980e+01
7.409045e+01
7.406718e+01
7.404068e+01
7.401158e+01
7.398235e+01
7.395613e+01
7.393648e+01
7.392871e+01
7.393837e+01
7.396195e+01
7.399332e+01
7.402617e+01
7.405447e+01
7.407615e+01
7.409154e+01
7.410167e+01
7.410770e+01
7.411053e+01
7.411071e+01
7.410865e+01
7.410459e+01
7.409871e+01
7.409120e+01
7.408228e+01
7.407223e+01
7.406146e+01
7.405012e+01
7.403870e+01
7.402787e+01
7.401842e+01
7.401120e+01
7.400695e+01
7.400712e+01
7.401157e+01
7.401920e+01
7.402851e+01
7.403799e+01
7.404583e+01
7.405124e+01
7.405390e+01
7.405378e+01
7.405105e+01
7.404403e+01
7.404375e+01
7.438038e+01
7.438066e+01
7.437299e+01
7.436345e+01
7.435000e+01
7.433012e+01
7.430085e+01
7.425893e+01
7.420113e+01
7.412470e+01
7.402930e+01
7.392275e+01
7.382791e+01
7.375138e+01
7.369139e+01
7.364453e+01
7.360849e+01
7.358283e+01
7.356941e+01
7.357123e+01
7.359003e+01
7.362480e+01
7.367182e+01
7.372583e+01
7.378163e+01
7.383524e+01
7.388435e+01
7.392784e+01
7.396488e+01
7.399437e+01
7.401533e+01
7.402733e+01
7.403046e+01
7.402491e+01
7.401059e+01
7.398755e+01
7.395686e+01
7.391830e+01
7.387457e+01
7.383745e+01
7.382578e+01
7.384513e+01
7.388710e+01
7.393826e+01
7.398754e+01
7.402929e+01
7.406223e+01
7.408720e+01
7.410584e+01
7.411983e+01
7.413049e+01
7.413857e+01
7.414411e+01
7.414668e+01
7.414622e+01
7.414215e+01
7.413371e+01
7.412015e+01
7.410116e+01
7.407712e+01
7.404882e+01
7.401722e+01
7.398522e+01
7.395675e+01
7.393653e+01
7.393036e+01
7.394185e+01
7.396720e+01
7.399990e+01
7.403335e+01
7.406180e+01
7.408341e+01
7.409845e+01
7.410799e+01
7.411329e+01
7.411549e+01
7.411540e+01
7.411322e+01
7.410911e+01
7.410322e+01
7.409566e+01
7.408655e+01
7.407609e+01
7.406459e+01
7.405230e+01
7.403977e+01
7.402778e+01
7.401731e+01
7.400943e+01
7.400512e+01
7.400541e+01
7.401006e+01
7.401790e+01
7.402734e+01
7.403673e+01
7.404443e+01
7.404960e+01
7.405185e+01
7.405109e+01
7.404738e+01
7.403858e+01
7.403830e+01
7.438121e+01
7.438149e+01
7.437186e+01
7.436039e+01
7.434514e+01
7.432382e+01
7.429388e+01
7.425263e+01
7.419752e+01
7.412666e+01
7.404026e+01
7.394413e+01
7.385269e+01
7.377391e+01
7.370960e+01
7.365885e+01
7.362059e+01
7.359494e+01
7.358331e+01
7.358739e+01
7.360761e+01
7.364222e+01
7.368744e+01
7.373852e+01
7.379107e+01
7.384169e+01
7.388828e+01
7.392965e+01
7.396487e+01
7.399312e+01
7.401356e+01
7.402579e+01
7.402963e+01
7.402489e+01
7.401122e+01
7.398826e+01
7.395613e+01
7.391572e+01
7.387326e+01
7.384313e+01
7.383932e+01
7.386346e+01
7.390614e+01
7.395518e+01
7.400158e+01
7.404088e+01
7.407186e+01
7.409527e+01
7.411262e+01
7.412554e+01
7.413535e+01
7.414297e+01
7.414852e+01
7.415167e+01
7.415214e+01
7.414920e+01
7.414188e+01
7.412935e+01
7.411096e+01
7.408662e+01
7.405692e+01
7.402318e+01
7.398866e+01
7.395817e+01
7.393768e+01
7.393300e+01
7.394595e+01
7.397256e+01
7.400604e+01
7.403964e+01
7.406816e+01
7.408972e+01
7.410435e+01
7.411320e+01
7.411776e+01
7.411934e+01
7.411893e+01
7.411664e+01
7.411253e+01
7.410672e+01
7.409924e+01
7.409014e+01
7.407950e+01
7.406750e+01
7.405449e+01
7.404106e+01
7.402809e+01
7.401672e+01
7.400823e+01
7.400385e+01
7.400427e+01
7.400910e+01
7.401715e+01
7.402670e+01
7.403601e+01
7.404361e+01
7.404861e+01
7.405056e+01
7.404925e+01
7.404466e+01
7.403407e+01
7.403379e+01
7.438168e+01
7.438196e+01
7.437135e+01
7.435895e+01
7.434288e+01
7.432096e+01
7.429084e+01
7.425008e+01
7.419639e+01
7.412822e+01
7.404598e+01
7.395462e+01
7.386506e+01
7.378543e+01
7.371909e+01
7.366640e+01
7.362703e+01
7.360133e+01
7.359044e+01
7.359539e+01
7.361606e+01
7.365039e+01
7.369463e+01
7.374425e+01
7.379526e+01
7.384447e+01
7.388986e+01
7.393016e+01
7.396448e+01
7.399210e+01
7.401240e+01
7.402494e+01
7.402936e+01
7.402529e+01
7.401224e+01
7.398949e+01
7.395628e+01
7.391456e+01
7.387314e+01
7.384707e+01
7.384702e+01
7.387258e+01
7.391473e+01
7.396237e+01
7.400738e+01
7.404565e+01
7.407593e+01
7.409884e+01
7.411578e+01
7.412833e+01
7.413781e+01
7.414514e+01
7.415061e+01
7.415415e+01
7.415533e+01
7.415331e+01
7.414705e+01
7.413553e+01
7.411790e+01
7.409369e+01
7.406309e+01
7.402760e+01
7.399080e+01
7.395840e+01
7.393737e+01
7.393327e+01
7.394697e+01
7.397442e+01
7.400855e+01
7.404226e+01
7.407086e+01
7.409247e+01
7.410709e+01
7.411584e+01
7.412022e+01
7.412158e+01
7.412087e+01
7.411841e+01
7.411433e+01
7.410865e+01
7.410133e+01
7.409235e+01
7.408172e+01
7.406954e+01
7.405618e+01
7.404222e+01
7.402859e+01
7.401659e+01
7.400769e+01
7.400319e+01
7.400363e+01
7.400856e+01
7.401672e+01
7.402632e+01
7.403553e+01
7.404300e+01
7.404785e+01
7.404958e+01
7.404796e+01
7.404278e+01
7.403043e+01
7.403015e+01
0.000000e+00
7.438168e+01
7.437107e+01
7.435867e+01
7.434260e+01
7.432068e+01
7.429056e+01
7.424980e+01
7.419611e+01
7.412794e+01
7.404570e+01
7.395434e+01
7.386478e+01
7.378515e+01
7.371881e+01
7.366612e+01
7.362675e+01
7.360105e+01
7.359016e+01
7.359511e+01
7.361578e+01
7.365011e+01
7.369435e+01
7.374397e+01
7.379498e+01
7.384419e+01
7.388958e+01
7.392988e+01
7.396421e+01
7.399182e+01
7.401212e+01
7.402466e+01
7.402908e+01
7.402501e+01
7.401196e+01
7.398921e+01
7.395600e+01
7.391428e+01
7.387286e+01
7.384679e+01
7.384674e+01
7.387230e+01
7.391445e+01
7.396209e+01
7.400710e+01
7.404537e+01
7.407565e+01
7.409856e+01
7.411550e+01
7.412805e+01
7.413753e+01
7.414486e+01
7.415033e+01
7.415387e+01
7.415505e+01
7.415303e+01
7.414677e+01
7.413525e+01
7.411762e+01
7.409341e+01
7.406281e+01