# vtk DataFile Version 3.0
Scalar Field
ASCII
DATASET RECTILINEAR_GRID
DIMENSIONS 102 22 1
X_COORDINATES 102 double
0.000000 0.100000 0.200000 0.300000 0.400000 0.500000 0.600000 0.700000 0.800000 0.900000 1.000000 1.100000 1.200000 1.300000 1.400000 1.500000 1.600000 1.700000 1.800000 1.900000 2.000000 2.100000 2.200000 2.300000 2.400000 2.500000 2.600000 2.700000 2.800000 2.900000 3.000000 3.100000 3.200000 3.300000 3.400000 3.500000 3.600000 3.700000 3.800000 3.900000 4.000000 4.100000 4.200000 4.300000 4.400000 4.500000 4.600000 4.700000 4.800000 4.900000 5.000000 5.100000 5.200000 5.300000 5.400000 5.500000 5.600000 5.700000 5.800000 5.900000 6.000000 6.100000 6.200000 6.300000 6.400000 6.500000 6.600000 6.700000 6.800000 6.900000 7.000000 7.100000 7.200000 7.300000 7.400000 7.500000 7.600000 7.700000 7.800000 7.900000 8.000000 8.100000 8.200000 8.300000 8.400000 8.500000 8.600000 8.700000 8.800000 8.900000 9.000000 9.100000 9.200000 9.300000 9.400000 9.500000 9.600000 9.700000 9.800000 9.900000 10.000000 10.100000 
Y_COORDINATES 22 double
0.000000 0.100000 0.200000 0.300000 0.400000 0.500000 0.600000 0.700000 0.800000 0.900000 1.000000 1.100000 1.200000 1.300000 1.400000 1.500000 1.600000 1.700000 1.800000 1.900000 2.000000 2.100000 
Z_COORDINATES 1 double
0.0
POINT_DATA 2244
SCALARS Pressure double 1
LOOKUP_TABLE default
0.000000e+00
3.036466e+01
3.033356e+01
3.029863e+01
3.025596e+01
3.020135e+01
3.013053e+01
3.004131e+01
2.993141e+01
2.982027e+01
2.972369e+01
2.964720e+01
2.959034e+01
2.955075e+01
2.952577e+01
2.951278e+01
2.950943e+01
2.951382e+01
2.952453e+01
2.954049e+01
2.956096e+01
2.958543e+01
2.961351e+01
2.964494e+01
2.967949e+01
2.971696e+01
2.975712e+01
2.979948e+01
2.984313e+01
2.988690e+01
2.992929e+01
2.996833e+01
3.000038e+01
3.001716e+01
3.000843e+01
2.996965e+01
2.990702e+01
2.983627e+01
2.977598e+01
2.973864e+01
2.972539e+01
2.973081e+01
2.974958e+01
2.977725e+01
2.981028e+01
2.984578e+01
2.988121e+01
2.991421e+01
2.994263e+01
2.996506e+01
2.998117e+01
2.999168e+01
2.999795e+01
3.000124e+01
3.000273e+01
3.000338e+01
3.000233e+01
2.999848e+01
2.999085e+01
2.997882e+01
2.996242e+01
2.994241e+01
2.992022e+01
2.989775e+01
2.987713e+01
2.986038e+01
2.984914e+01
2.984436e+01
2.984622e+01
2.985383e+01
2.986664e+01
2.988382e+01
2.990401e+01
2.992519e+01
2.994476e+01
2.996018e+01
2.996988e+01
2.997402e+01
2.997403e+01
2.997133e+01
2.996711e+01
2.996210e+01
2.995632e+01
2.994974e+01
2.994235e+01
2.993426e+01
2.992564e+01
2.991673e+01
2.990782e+01
2.989921e+01
2.989119e+01
2.988400e+01
2.987777e+01
2.987256e+01
2.986828e+01
2.986474e+01
2.986161e+01
2.985852e+01
2.985502e+01
2.985051e+01
2.984189e+01
0.000000e+00
3.036466e+01
3.036445e+01
3.033336e+01
3.029843e+01
3.025576e+01
3.020115e+01
3.013033e+01
3.004110e+01
2.993120e+01
2.982007e+01
2.972348e+01
2.964699e+01
2.959014e+01
2.955054e+01
2.952556e+01
2.951257e+01
2.950922e+01
2.951362e+01
2.952432e+01
2.954028e+01
2.956076e+01
2.958522e+01
2.961331e+01
2.964473e+01
2.967928e+01
2.971676e+01
2.975692e+01
2.979927e+01
2.984293e+01
2.988669e+01
2.992908e+01
2.996812e+01
3.000018e+01
3.001695e+01
3.000822e+01
2.996944e+01
2.990682e+01
2.983606e+01
2.977577e+01
2.973843e+01
2.972518e+01
2.973060e+01
2.974937e+01
2.977704e+01
2.981007e+01
2.984558e+01
2.988101e+01
2.991400e+01
2.994242e+01
2.996486e+01
2.998097e+01
2.999148e+01
2.999774e+01
3.000103e+01
3.000252e+01
3.000317e+01
3.000212e+01
2.999828e+01
2.999065e+01
2.997862e+01
2.996222e+01
2.994220e+01
2.992001e+01
2.989755e+01
2.987692e+01
2.986017e+01
2.984893e+01
2.984416e+01
2.984601e+01
2.985362e+01
2.986643e+01
2.988361e+01
2.990380e+01
2.992498e+01
2.994455e+01
2.995997e+01
2.996967e+01
2.997381e+01
2.997382e+01
2.997113e+01
2.996690e+01
2.996189e+01
2.995611e+01
2.994953e+01
2.994214e+01
2.993405e+01
2.992543e+01
2.991652e+01
2.990761e+01
2.989900e+01
2.989099e+01
2.988379e+01
2.987757e+01
2.987235e+01
2.986808e+01
2.986453e+01
2.986141e+01
2.985832e+01
2.985481e+01
2.985031e+01
2.984168e+01
2.984189e+01
3.036316e+01
3.036295e+01
3.033337e+01
3.029969e+01
3.025777e+01
3.020294e+01
3.013023e+01
3.003721e+01
2.991785e+01
2.980270e+01
2.970754e+01
2.963441e+01
2.958061e+01
2.954322e+01
2.951982e+01
2.950796e+01
2.950537e+01
2.951026e+01
2.952126e+01
2.953733e+01
2.955777e+01
2.958208e+01
2.960994e+01
2.964110e+01
2.967535e+01
2.971246e+01
2.975216e+01
2.979406e+01
2.983721e+01
2.988049e+01
2.992257e+01
2.996178e+01
2.999370e+01
3.001097e+01
3.000456e+01
2.996825e+01
2.990795e+01
2.983842e+01
2.977650e+01
2.973584e+01
2.972043e+01
2.972455e+01
2.974274e+01
2.977024e+01
2.980328e+01
2.983883e+01
2.987430e+01
2.990756e+01
2.993648e+01
2.995966e+01
2.997667e+01
2.998804e+01
2.999500e+01
2.999882e+01
3.000038e+01
3.000057e+01
2.999874e+01
2.999406e+01
2.998576e+01
2.997336e+01
2.995698e+01
2.993735e+01
2.991582e+01
2.989419e+01
2.987447e+01
2.985858e+01
2.984808e+01
2.984394e+01
2.984664e+01
2.985491e+01
2.986836e+01
2.988600e+01
2.990614e+01
2.992632e+01
2.994393e+01
2.995730e+01
2.996566e+01
2.996949e+01
2.996985e+01
2.996786e+01
2.996431e+01
2.995974e+01
2.995426e+01
2.994790e+01
2.994071e+01
2.993283e+01
2.992441e+01
2.991573e+01
2.990706e+01
2.989870e+01
2.989093e+01
2.988395e+01
2.987792e+01
2.987288e+01
2.986875e+01
2.986538e+01
2.986255e+01
2.985980e+01
2.985666e+01
2.985258e+01
2.984432e+01
2.984453e+01
3.036077e+01
3.036057e+01
3.033414e+01
3.030331e+01
3.026344e+01
3.020877e+01
3.013249e+01
3.003070e+01
2.988887e+01
2.976669e+01
2.967613e+01
2.961043e+01
2.956269e+01
2.952940e+01
2.950891e+01
2.949917e+01
2.949798e+01
2.950376e+01
2.951525e+01
2.953146e+01
2.955174e+01
2.957566e+01
2.960297e+01
2.963349e+01
2.966704e+01
2.970340e+01
2.974225e+01
2.978320e+01
2.982548e+01
2.986801e+01
2.990949e+01
2.994925e+01
2.998501e+01
3.000784e+01
3.000667e+01
2.997242e+01
2.991007e+01
2.983831e+01
2.977396e+01
2.972937e+01
2.971179e+01
2.971419e+01
2.973108e+01
2.975771e+01
2.979022e+01
2.982541e+01
2.986065e+01
2.989393e+01
2.992353e+01
2.994810e+01
2.996694e+01
2.998020e+01
2.998876e+01
2.999372e+01
2.999599e+01
2.999604e+01
2.999354e+01
2.998797e+01
2.997901e+01
2.996637e+01
2.995005e+01
2.993083e+01
2.991010e+01
2.988953e+01
2.987101e+01
2.985633e+01
2.984698e+01
2.984404e+01
2.984796e+01
2.985718e+01
2.987122e+01
2.988882e+01
2.990794e+01
2.992599e+01
2.994089e+01
2.995217e+01
2.995926e+01
2.996271e+01
2.996353e+01
2.996260e+01
2.996011e+01
2.995636e+01
2.995148e+01
2.994556e+01
2.993872e+01
2.993111e+01
2.992298e+01
2.991462e+01
2.990629e+01
2.989829e+01
2.989086e+01
2.988423e+01
2.987854e+01
2.987383e+01
2.987007e+01
2.986716e+01
2.986492e+01
2.986281e+01
2.986033e+01
2.985691e+01
2.984925e+01
2.984946e+01
3.035795e+01
3.035775e+01
3.033625e+01
3.031011e+01
3.027403e+01
3.022031e+01
3.013816e+01
3.001810e+01
2.983391e+01
2.970740e+01
2.963016e+01
2.957704e+01
2.953787e+01
2.950988e+01
2.949311e+01
2.948634e+01
2.948707e+01
2.949414e+01
2.950637e+01
2.952282e+01
2.954287e+01
2.956618e+01
2.959263e+01
2.962215e+01
2.965465e+01
2.968994e+01
2.972764e+01
2.976734e+01
2.980860e+01
2.985072e+01
2.989260e+01
2.993349e+01
2.997444e+01
3.000548e+01
3.001120e+01
2.998252e+01
2.991667e+01
2.983903e+01
2.977037e+01
2.972307e+01
2.970195e+01
2.970350e+01
2.971872e+01
2.974355e+01
2.977457e+01
2.980878e+01
2.984351e+01
2.987657e+01
2.990651e+01
2.993223e+01
2.995292e+01
2.996837e+01
2.997897e+01
2.998554e+01
2.998898e+01
2.998950e+01
2.998672e+01
2.998071e+01
2.997130e+01
2.995847e+01
2.994238e+01
2.992383e+01
2.990424e+01
2.988513e+01
2.986819e+01
2.985509e+01
2.984729e+01
2.984608e+01
2.985132e+01
2.986144e+01
2.987565e+01
2.989241e+01
2.990953e+01
2.992463e+01
2.993706e+01
2.994643e+01
2.995253e+01
2.995592e+01
2.995738e+01
2.995748e+01
2.995582e+01
2.995270e+01
2.994828e+01
2.994273e+01
2.993624e+01
2.992900e+01
2.992125e+01
2.991334e+01
2.990550e+01
2.989800e+01
2.989108e+01
2.988494e+01
2.987972e+01
2.987552e+01
2.987234e+01
2.987014e+01
2.986876e+01
2.986748e+01
2.986586e+01
2.986323e+01
2.985635e+01
2.985655e+01
3.035526e+01
3.035505e+01
3.034033e+01
3.032113e+01
3.029171e+01
3.024145e+01
3.015154e+01
2.999483e+01
2.973769e+01
2.962269e+01
2.957196e+01
2.953717e+01
2.950845e+01
2.948592e+01
2.947267e+01
2.946950e+01
2.947263e+01
2.948142e+01
2.949476e+01
2.951161e+01
2.953138e+01
2.955388e+01
2.957914e+01
2.960726e+01
2.963831e+01
2.967221e+01
2.970863e+01
2.974704e+01
2.978759e+01
2.983061e+01
2.987532e+01
2.991887e+01
2.995900e+01
2.999384e+01
3.000382e+01
2.997775e+01
2.992151e+01
2.984399e+01
2.977450e+01
2.972438e+01
2.969981e+01
2.969851e+01
2.971239e+01
2.973446e+01
2.976267e+01
2.979456e+01
2.982768e+01
2.985971e+01
2.988921e+01
2.991563e+01
2.993774e+01
2.995494e+01
2.996734e+01
2.997554e+01
2.998034e+01
2.998184e+01
2.997898e+01
2.997241e+01
2.996258e+01
2.994981e+01
2.993438e+01
2.991701e+01
2.989910e+01
2.988195e+01
2.986706e+01
2.985596e+01
2.985010e+01
2.985092e+01
2.985727e+01
2.986779e+01
2.988139e+01
2.989636e+01
2.991065e+01
2.992269e+01
2.993284e+01
2.994052e+01
2.994585e+01
2.994930e+01
2.995137e+01
2.995220e+01
2.995116e+01
2.994851e+01
2.994448e+01
2.993932e+01
2.993326e+01
2.992652e+01
2.991932e+01
2.991204e+01
2.990488e+01
2.989807e+01
2.989182e+01
2.988634e+01
2.988178e+01
2.987827e+01
2.987589e+01
2.987467e+01
2.987421e+01
2.987384e+01
2.987311e+01
2.987129e+01
2.986578e+01
2.986599e+01
3.035317e+01
3.035297e+01
3.034674e+01
3.033719e+01
3.031914e+01
3.027974e+01
3.018730e+01
2.996556e+01
2.956962e+01
2.950806e+01
2.951010e+01
2.949925e+01
2.948089e+01
2.946181e+01
2.944893e+01
2.944913e+01
2.945491e+01
2.946605e+01
2.948111e+01
2.949870e+01
2.951826e+01
2.953974e+01
2.956343e+01
2.958968e+01
2.961879e+01
2.965089e+01
2.968579e+01
2.972295e+01
2.976252e+01
2.980655e+01
2.985649e+01
2.990614e+01
2.994552e+01
2.997240e+01
2.997049e+01
2.993992e+01
2.989738e+01
2.984455e+01
2.978860e+01
2.974209e+01
2.971417e+01
2.970762e+01
2.971796e+01
2.973586e+01
2.975975e+01
2.978776e+01
2.981773e+01
2.984743e+01
2.987499e+01
2.990078e+01
2.992331e+01
2.994162e+01
2.995542e+01
2.996496e+01
2.997070e+01
2.997261e+01
2.996929e+01
2.996216e+01
2.995229e+01
2.994022e+01
2.992623e+01
2.991091e+01
2.989544e+01
2.988089e+01
2.986857e+01
2.985989e+01
2.985631e+01
2.985899e+01
2.986583e+01
2.987588e+01
2.988785e+01
2.990013e+01
2.991105e+01
2.992043e+01
2.992830e+01
2.993447e+01
2.993915e+01
2.994263e+01
2.994510e+01
2.994635e+01
2.994573e+01
2.994346e+01
2.993984e+01
2.993517e+01
2.992972e+01
2.992369e+01
2.991731e+01
2.991091e+01
2.990467e+01
2.989878e+01
2.989342e+01
2.988879e+01
2.988508e+01
2.988246e+01
2.988106e+01
2.988093e+01
2.988127e+01
2.988166e+01
2.988161e+01
2.988047e+01
2.987696e+01
2.987717e+01
3.035192e+01
3.035171e+01
3.035506e+01
3.035761e+01
3.035720e+01
3.034442e+01
3.028349e+01
3.003124e+01
2.926566e+01
2.935701e+01
2.946471e+01
2.947731e+01
2.946707e+01
2.944828e+01
2.943022e+01
2.942551e+01
2.943473e+01
2.944964e+01
2.946763e+01
2.948660e+01
2.950603e+01
2.952624e+01
2.954784e+01
2.957148e+01
2.959778e+01
2.962718e+01
2.965973e+01
2.969494e+01
2.973192e+01
2.976979e+01
2.980840e+01
2.985041e+01
2.989987e+01
2.991707e+01
2.990304e+01
2.987977e+01
2.985686e+01
2.983380e+01
2.980420e+01
2.977087e+01
2.974434e+01
2.973232e+01
2.973595e+01
2.974886e+01
2.976728e+01
2.979006e+01
2.981542e+01
2.984128e+01
2.986557e+01
2.988894e+01
2.991033e+01
2.992850e+01
2.994276e+01
2.995283e+01
2.995869e+01
2.996015e+01
2.995619e+01
2.994901e+01
2.994001e+01
2.992976e+01
2.991834e+01
2.990612e+01
2.989393e+01
2.988262e+01
2.987335e+01
2.986741e+01
2.986617e+01
2.986978e+01
2.987635e+01
2.988493e+01
2.989435e+01
2.990333e+01
2.991093e+01
2.991766e+01
2.992340e+01
2.992819e+01
2.993219e+01
2.993547e+01
2.993802e+01
2.993940e+01
2.993907e+01
2.993723e+01
2.993420e+01
2.993026e+01
2.992570e+01
2.992069e+01
2.991544e+01
2.991023e+01
2.990518e+01
2.990045e+01
2.989620e+01
2.989264e+01
2.988997e+01
2.988840e+01
2.988808e+01
2.988869e+01
2.988955e+01
2.989033e+01
2.989057e+01
2.988997e+01
2.988851e+01
2.988872e+01
3.035128e+01
3.035107e+01
3.036367e+01
3.037877e+01
3.039944e+01
3.042845e+01
3.046324e+01
3.056786e+01
2.991697e+01
2.943502e+01
2.951262e+01
2.948166e+01
2.947074e+01
2.945310e+01
2.942818e+01
2.941666e+01
2.942234e+01
2.943938e+01
2.946217e+01
2.948301e+01
2.950219e+01
2.952063e+01
2.953923e+01
2.955883e+01
2.958013e+01
2.960349e+01
2.962873e+01
2.965505e+01
2.968171e+01
2.970892e+01
2.974381e+01
2.978885e+01
2.982198e+01
2.983175e+01
2.983330e+01
2.983002e+01
2.982684e+01
2.982515e+01
2.981960e+01
2.980402e+01
2.978369e+01
2.976912e+01
2.976585e+01
2.977227e+01
2.978422e+01
2.980073e+01
2.982024e+01
2.984090e+01
2.986073e+01
2.987997e+01
2.989846e+01
2.991482e+01
2.992796e+01
2.993709e+01
2.994202e+01
2.994241e+01
2.993850e+01
2.993259e+01
2.992596e+01
2.991896e+01
2.991139e+01
2.990332e+01
2.989516e+01
2.988761e+01
2.988166e+01
2.987845e+01
2.987898e+01
2.988260e+01
2.988792e+01
2.989413e+01
2.990034e+01
2.990579e+01
2.991035e+01
2.991443e+01
2.991810e+01
2.992147e+01
2.992455e+01
2.992726e+01
2.992950e+01
2.993079e+01
2.993078e+01
2.992961e+01
2.992750e+01
2.992471e+01
2.992143e+01
2.991782e+01
2.991406e+01
2.991033e+01
2.990674e+01
2.990341e+01
2.990048e+01
2.989816e+01
2.989663e+01
2.989609e+01
2.989656e+01
2.989744e+01
2.989839e+01
2.989910e+01
2.989928e+01
2.989908e+01
2.989913e+01
2.989934e+01
3.035069e+01
3.035048e+01
3.037013e+01
3.039463e+01
3.043049e+01
3.048809e+01
3.058436e+01
3.071822e+01
3.074219e+01
0.000000e+00
2.946835e+01
2.946815e+01
2.945247e+01
2.944967e+01
2.943339e+01
2.942392e+01
2.942829e+01
2.944515e+01
2.946902e+01
2.949304e+01
2.951256e+01
2.952973e+01
2.954569e+01
2.956121e+01
2.957691e+01
2.959300e+01
2.960925e+01
2.962524e+01
2.964075e+01
2.965806e+01
2.968020e+01
2.970471e+01
2.972908e+01
2.975397e+01
2.977689e+01
2.979516e+01
2.981015e+01
2.982409e+01
2.983569e+01
2.983650e+01
2.982616e+01
2.981210e+01
2.980341e+01
2.980341e+01
2.980855e+01
2.981815e+01
2.983090e+01
2.984521e+01
2.985934e+01
2.987290e+01
2.988657e+01
2.989895e+01
2.990877e+01
2.991521e+01
2.991839e+01
2.991812e+01
2.991597e+01
2.991334e+01
2.991097e+01
2.990878e+01
2.990627e+01
2.990316e+01
2.989953e+01
2.989596e+01
2.989329e+01
2.989241e+01
2.989377e+01
2.989644e+01
2.989967e+01
2.990291e+01
2.990566e+01
2.990769e+01
2.990926e+01
2.991074e+01
2.991229e+01
2.991397e+01
2.991571e+01
2.991741e+01
2.991893e+01
2.992006e+01
2.992060e+01
2.992053e+01
2.991989e+01
2.991878e+01
2.991729e+01
2.991549e+01
2.991357e+01
2.991160e+01
2.990968e+01
2.990790e+01
2.990641e+01
2.990536e+01
2.990490e+01
2.990507e+01
2.990572e+01
2.990646e+01
2.990709e+01
2.990744e+01
2.990745e+01
2.990743e+01
2.990825e+01
2.990846e+01
3.034958e+01
3.034938e+01
3.037263e+01
3.040107e+01
3.044092e+01
3.049987e+01
3.058405e+01
3.068453e+01
3.076575e+01
3.076595e+01
0.000000e+00
2.946106e+01
2.946085e+01
2.945022e+01
2.944410e+01
2.944263e+01
2.945326e+01
2.947348e+01
2.949775e+01
2.952138e+01
2.954157e+01
2.955910e+01
2.957437e+01
2.958779e+01
2.959959e+01
2.960930e+01
2.961615e+01
2.961953e+01
2.962027e+01
2.961852e+01
2.961785e+01
2.962258e+01
2.964927e+01
2.969286e+01
2.973765e+01
2.977608e+01
2.980664e+01
2.983193e+01
2.985370e+01
2.986686e+01
2.986701e+01
2.985702e+01
2.984553e+01
2.983954e+01
2.983811e+01
2.984062e+01
2.984605e+01
2.985306e+01
2.986015e+01
2.986649e+01
2.987319e+01
2.987907e+01
2.988318e+01
2.988522e+01
2.988597e+01
2.988700e+01
2.988932e+01
2.989283e+01
2.989680e+01
2.990068e+01
2.990388e+01
2.990605e+01
2.990710e+01
2.990735e+01
2.990751e+01
2.990813e+01
2.990929e+01
2.991042e+01
2.991108e+01
2.991101e+01
2.991029e+01
2.990915e+01
2.990780e+01
2.990658e+01
2.990575e+01
2.990532e+01
2.990525e+01
2.990547e+01
2.990592e+01
2.990696e+01
2.990845e+01
2.991009e+01
2.991162e+01
2.991285e+01
2.991371e+01
2.991418e+01
2.991436e+01
2.991432e+01
2.991415e+01
2.991395e+01
2.991384e+01
2.991389e+01
2.991413e+01
2.991449e+01
2.991490e+01
2.991519e+01
2.991529e+01
2.991521e+01
2.991503e+01
2.991503e+01
2.991596e+01
2.991616e+01
3.034769e+01
3.034749e+01
3.037085e+01
3.039840e+01
3.043446e+01
3.048350e+01
3.054784e+01
3.060959e+01
3.063461e+01
3.040432e+01
3.040453e+01
0.000000e+00
2.945647e+01
2.945169e+01
2.944369e+01
2.945123e+01
2.947713e+01
2.951320e+01
2.954617e+01
2.957187e+01
2.959195e+01
2.960979e+01
2.962482e+01
2.963549e+01
2.964100e+01
2.964087e+01
2.963476e+01
2.962482e+01
2.960947e+01
2.958535e+01
2.955851e+01
2.955399e+01
2.959409e+01
2.965556e+01
2.971865e+01
2.977282e+01
2.981422e+01
2.984640e+01
2.987345e+01
2.989449e+01
2.990389e+01
2.990021e+01
2.988891e+01
2.987840e+01
2.987119e+01
2.986695e+01
2.986486e+01
2.986377e+01
2.986243e+01
2.986014e+01
2.985751e+01
2.985407e+01
2.985036e+01
2.984759e+01
2.984768e+01
2.985328e+01
2.986284e+01
2.987422e+01
2.988561e+01
2.989599e+01
2.990463e+01
2.991154e+01
2.991672e+01
2.992033e+01
2.992265e+01
2.992370e+01
2.992382e+01
2.992290e+01
2.992088e+01
2.991789e+01
2.991426e+01
2.991040e+01
2.990636e+01
2.990249e+01
2.989905e+01
2.989616e+01
2.989389e+01
2.989229e+01
2.989138e+01
2.989250e+01
2.989533e+01
2.989923e+01
2.990352e+01
2.990763e+01
2.991123e+01
2.991416e+01
2.991651e+01
2.991840e+01
2.991993e+01
2.992117e+01
2.992216e+01
2.992290e+01
2.992333e+01
2.992344e+01
2.992338e+01
2.992315e+01
2.992281e+01
2.992247e+01
2.992221e+01
2.992221e+01
2.992290e+01
2.992311e+01
3.034510e+01
3.034489e+01
3.036562e+01
3.038889e+01
3.041730e+01
3.045146e+01
3.048444e+01
3.049426e+01
3.043388e+01
3.031904e+01
2.991546e+01
2.959813e+01
2.940439e+01
2.943380e+01
2.943644e+01
2.945589e+01
2.949520e+01
2.954582e+01
2.958536e+01
2.961223e+01
2.963406e+01
2.965257e+01
2.966744e+01
2.967573e+01
2.967566e+01
2.966726e+01
2.965170e+01
2.963209e+01
2.960127e+01
2.955660e+01
2.951151e+01
2.951624e+01
2.956917e+01
2.964415e+01
2.971970e+01
2.978198e+01
2.982887e+01
2.986459e+01
2.989348e+01
2.991786e+01
2.993443e+01
2.993825e+01
2.993077e+01
2.991833e+01
2.990672e+01
2.989655e+01
2.988714e+01
2.987743e+01
2.986660e+01
2.985443e+01
2.984138e+01
2.982843e+01
2.981727e+01
2.980950e+01
2.981023e+01
2.982179e+01
2.983976e+01
2.985981e+01
2.987892e+01
2.989519e+01
2.990845e+01
2.991911e+01
2.992738e+01
2.993326e+01
2.993673e+01
2.993758e+01
2.993652e+01
2.993379e+01
2.992954e+01
2.992412e+01
2.991800e+01
2.991170e+01
2.990516e+01
2.989869e+01
2.989261e+01
2.988715e+01
2.988255e+01
2.987899e+01
2.987666e+01
2.987797e+01
2.988237e+01
2.988886e+01
2.989628e+01
2.990361e+01
2.991011e+01
2.991546e+01
2.991983e+01
2.992341e+01
2.992630e+01
2.992857e+01
2.993023e+01
2.993125e+01
2.993158e+01
2.993138e+01
2.993096e+01
2.993039e+01
2.992982e+01
2.992941e+01
2.992917e+01
2.992923e+01
2.992967e+01
2.992988e+01
3.034210e+01
3.034190e+01
3.035820e+01
3.037555e+01
3.039395e+01
3.041074e+01
3.041670e+01
3.039163e+01
3.029893e+01
3.012677e+01
2.985521e+01
2.928039e+01
2.937457e+01
2.944116e+01
2.946294e+01
2.948448e+01
2.952409e+01
2.957380e+01
2.960758e+01
2.963250e+01
2.965917e+01
2.968556e+01
2.970053e+01
2.970611e+01
2.970042e+01
2.968529e+01
2.966296e+01
2.963613e+01
2.959264e+01
2.953246e+01
2.949169e+01
2.951033e+01
2.957382e+01
2.965605e+01
2.973629e+01
2.979972e+01
2.984804e+01
2.988466e+01
2.991311e+01
2.993669e+01
2.995609e+01
2.996691e+01
2.996589e+01
2.995580e+01
2.994251e+01
2.992738e+01
2.991059e+01
2.989201e+01
2.987219e+01
2.985081e+01
2.982798e+01
2.980585e+01
2.978706e+01
2.977395e+01
2.977770e+01
2.979634e+01
2.982301e+01
2.985145e+01
2.987737e+01
2.989831e+01
2.991497e+01
2.992814e+01
2.993824e+01
2.994534e+01
2.994924e+01
2.994966e+01
2.994770e+01
2.994359e+01
2.993761e+01
2.993022e+01
2.992194e+01
2.991340e+01
2.990453e+01
2.989555e+01
2.988686e+01
2.987885e+01
2.987191e+01
2.986638e+01
2.986284e+01
2.986447e+01
2.987058e+01
2.987978e+01
2.989043e+01
2.990108e+01
2.991038e+01
2.991795e+01
2.992404e+01
2.992891e+01
2.993275e+01
2.993565e+01
2.993763e+01
2.993869e+01
2.993886e+01
2.993846e+01
2.993784e+01
2.993711e+01
2.993648e+01
2.993613e+01
2.993605e+01
2.993630e+01
2.993682e+01
2.993702e+01
3.033913e+01
3.033893e+01
3.035002e+01
3.036057e+01
3.036919e+01
3.037208e+01
3.036084e+01
3.032081e+01
3.022984e+01
3.006864e+01
2.984956e+01
2.954755e+01
2.950210e+01
2.950777e+01
2.951525e+01
2.952866e+01
2.955478e+01
2.959072e+01
2.962011e+01
2.964688e+01
2.967218e+01
2.969401e+01
2.970614e+01
2.970750e+01
2.969982e+01
2.968449e+01
2.966269e+01
2.963461e+01
2.958415e+01
2.952423e+01
2.950323e+01
2.953505e+01
2.960365e+01
2.968591e+01
2.976164e+01
2.982203e+01
2.986863e+01
2.990423e+01
2.993159e+01
2.995293e+01
2.997001e+01
2.998235e+01
2.998585e+01
2.998182e+01
2.997043e+01
2.995310e+01
2.993116e+01
2.990584e+01
2.987905e+01
2.984975e+01
2.981834e+01
2.978793e+01
2.976196e+01
2.974625e+01
2.975435e+01
2.978017e+01
2.981472e+01
2.985025e+01
2.988087e+01
2.990497e+01
2.992364e+01
2.993799e+01
2.994877e+01
2.995617e+01
2.996002e+01
2.996019e+01
2.995767e+01
2.995266e+01
2.994548e+01
2.993657e+01
2.992650e+01
2.991591e+01
2.990487e+01
2.989350e+01
2.988231e+01
2.987185e+01
2.986270e+01
2.985541e+01
2.985098e+01
2.985311e+01
2.986093e+01
2.987272e+01
2.988641e+01
2.990014e+01
2.991192e+01
2.992137e+01
2.992878e+01
2.993452e+01
2.993890e+01
2.994208e+01
2.994415e+01
2.994517e+01
2.994524e+01
2.994479e+01
2.994412e+01
2.994341e+01
2.994287e+01
2.994269e+01
2.994290e+01
2.994353e+01
2.994467e+01
2.994488e+01
3.033638e+01
3.033618e+01
3.034193e+01
3.034616e+01
3.034678e+01
3.034005e+01
3.031951e+01
3.027565e+01
3.019620e+01
3.006880e+01
2.989538e+01
2.969714e+01
2.961323e+01
2.958295e+01
2.957266e+01
2.957498e+01
2.958918e+01
2.961185e+01
2.963463e+01
2.965602e+01
2.967525e+01
2.968982e+01
2.969705e+01
2.969648e+01
2.968884e+01
2.967557e+01
2.965874e+01
2.963248e+01
2.958729e+01
2.954640e+01
2.954312e+01
2.958180e+01
2.964810e+01
2.972333e+01
2.979062e+01
2.984542e+01
2.988839e+01
2.992160e+01
2.994731e+01
2.996734e+01
2.998269e+01
2.999283e+01
2.999811e+01
2.999673e+01
2.998795e+01
2.997136e+01
2.994763e+01
2.991852e+01
2.988694e+01
2.985141e+01
2.981311e+01
2.977602e+01
2.974453e+01
2.972998e+01
2.974296e+01
2.977515e+01
2.981575e+01
2.985602e+01
2.988909e+01
2.991461e+01
2.993386e+01
2.994823e+01
2.995872e+01
2.996574e+01
2.996925e+01
2.996933e+01
2.996658e+01
2.996115e+01
2.995330e+01
2.994341e+01
2.993196e+01
2.991960e+01
2.990658e+01
2.989298e+01
2.987943e+01
2.986667e+01
2.985553e+01
2.984681e+01
2.984192e+01
2.984469e+01
2.985412e+01
2.986820e+01
2.988448e+01
2.990077e+01
2.991455e+01
2.992544e+01
2.993375e+01
2.993997e+01
2.994453e+01
2.994772e+01
2.994973e+01
2.995069e+01
2.995075e+01
2.995037e+01
2.994981e+01
2.994925e+01
2.994892e+01
2.994902e+01
2.994966e+01
2.995086e+01
2.995318e+01
2.995339e+01
3.033399e+01
3.033379e+01
3.033476e+01
3.033370e+01
3.032831e+01
3.031530e+01
3.028997e+01
3.024622e+01
3.017715e+01
3.007578e+01
2.994071e+01
2.979018e+01
2.969768e+01
2.964887e+01
2.962445e+01
2.961604e+01
2.961995e+01
2.963218e+01
2.964746e+01
2.966269e+01
2.967608e+01
2.968552e+01
2.968936e+01
2.968716e+01
2.967948e+01
2.966780e+01
2.965244e+01
2.962915e+01
2.959674e+01
2.957687e+01
2.958756e+01
2.962975e+01
2.969144e+01
2.975786e+01
2.981739e+01
2.986668e+01
2.990584e+01
2.993645e+01
2.996034e+01
2.997892e+01
2.999268e+01
3.000151e+01
3.000566e+01
3.000474e+01
2.999753e+01
2.998263e+01
2.995956e+01
2.992944e+01
2.989531e+01
2.985563e+01
2.981252e+01
2.977102e+01
2.973705e+01
2.972625e+01
2.974420e+01
2.978122e+01
2.982551e+01
2.986750e+01
2.990105e+01
2.992643e+01
2.994506e+01
2.995851e+01
2.996802e+01
2.997423e+01
2.997726e+01
2.997727e+01
2.997451e+01
2.996905e+01
2.996103e+01
2.995068e+01
2.993835e+01
2.992459e+01
2.990986e+01
2.989423e+01
2.987848e+01
2.986358e+01
2.985066e+01
2.984089e+01
2.983597e+01
2.983950e+01
2.985038e+01
2.986633e+01
2.988463e+01
2.990278e+01
2.991800e+01
2.992990e+01
2.993875e+01
2.994513e+01
2.994960e+01
2.995261e+01
2.995445e+01
2.995533e+01
2.995544e+01
2.995519e+01
2.995481e+01
2.995449e+01
2.995445e+01
2.995493e+01
2.995608e+01
2.995802e+01
2.996189e+01
2.996210e+01
3.033210e+01
3.033190e+01
3.032896e+01
3.032377e+01
3.031406e+01
3.029704e+01
3.026918e+01
3.022640e+01
3.016449e+01
3.007967e+01
2.997127e+01
2.985164e+01
2.976085e+01
2.970173e+01
2.966681e+01
2.964956e+01
2.964520e+01
2.964952e+01
2.965828e+01
2.966823e+01
2.967712e+01
2.968301e+01
2.968452e+01
2.968114e+01
2.967321e+01
2.966178e+01
2.964672e+01
2.962686e+01
2.960695e+01
2.960244e+01
2.962314e+01
2.966753e+01
2.972540e+01
2.978526e+01
2.983913e+01
2.988409e+01
2.992011e+01
2.994846e+01
2.997067e+01
2.998790e+01
3.000055e+01
3.000857e+01
3.001220e+01
3.001126e+01
3.000473e+01
2.999111e+01
2.996927e+01
2.993938e+01
2.990387e+01
2.986158e+01
2.981557e+01
2.977202e+01
2.973904e+01
2.973339e+01
2.975569e+01
2.979563e+01
2.984119e+01
2.988259e+01
2.991522e+01
2.993937e+01
2.995660e+01
2.996859e+01
2.997673e+01
2.998187e+01
2.998438e+01
2.998422e+01
2.998153e+01
2.997628e+01
2.996844e+01
2.995807e+01
2.994535e+01
2.993066e+01
2.991451e+01
2.989710e+01
2.987935e+01
2.986248e+01
2.984797e+01
2.983744e+01
2.983286e+01
2.983722e+01
2.984935e+01
2.986677e+01
2.988649e+01
2.990581e+01
2.992196e+01
2.993449e+01
2.994363e+01
2.994997e+01
2.995418e+01
2.995687e+01
2.995844e+01
2.995920e+01
2.995937e+01
2.995925e+01
2.995905e+01
2.995897e+01
2.995925e+01
2.996013e+01
2.996183e+01
2.996458e+01
2.997018e+01
2.997039e+01
3.033074e+01
3.033054e+01
3.032466e+01
3.031648e+01
3.030383e+01
3.028429e+01
3.025508e+01
3.021322e+01
3.015590e+01
3.008108e+01
2.998921e+01
2.988911e+01
2.980388e+01
2.974110e+01
2.969954e+01
2.967542e+01
2.966462e+01
2.966305e+01
2.966684e+01
2.967277e+01
2.967838e+01
2.968177e+01
2.968162e+01
2.967734e+01
2.966902e+01
2.965725e+01
2.964230e+01
2.962589e+01
2.961510e+01
2.962088e+01
2.964863e+01
2.969446e+01
2.974956e+01
2.980503e+01
2.985500e+01
2.989691e+01
2.993066e+01
2.995735e+01
2.997834e+01
2.999464e+01
3.000673e+01
3.001464e+01
3.001857e+01
3.001821e+01
3.001253e+01
3.000006e+01
2.997935e+01
2.994982e+01
2.991280e+01
2.986817e+01
2.981989e+01
2.977571e+01
2.974641e+01
2.974573e+01
2.977150e+01
2.981301e+01
2.985829e+01
2.989825e+01
2.992945e+01
2.995200e+01
2.996738e+01
2.997755e+01
2.998417e+01
2.998830e+01
2.999046e+01
2.999024e+01
2.998768e+01
2.998271e+01
2.997521e+01
2.996509e+01
2.995235e+01
2.993715e+01
2.991994e+01
2.990105e+01
2.988153e+01
2.986284e+01
2.984688e+01
2.983576e+01
2.983174e+01
2.983692e+01
2.985011e+01
2.986864e+01
2.988931e+01
2.990926e+01
2.992598e+01
2.993890e+01
2.994822e+01
2.995448e+01
2.995841e+01
2.996070e+01
2.996191e+01
2.996248e+01
2.996265e+01
2.996257e+01
2.996248e+01
2.996258e+01
2.996311e+01
2.996434e+01
2.996654e+01
2.997007e+01
2.997746e+01
2.997767e+01
3.032988e+01
3.032968e+01
3.032185e+01
3.031175e+01
3.029729e+01
3.027629e+01
3.024642e+01
3.020526e+01
3.015073e+01
3.008167e+01
2.999922e+01
2.991037e+01
2.982992e+01
2.976629e+01
2.972121e+01
2.969284e+01
2.967782e+01
2.967236e+01
2.967281e+01
2.967601e+01
2.967945e+01
2.968121e+01
2.967998e+01
2.967509e+01
2.966637e+01
2.965412e+01
2.963937e+01
2.962587e+01
2.962138e+01
2.963363e+01
2.966504e+01
2.971131e+01
2.976467e+01
2.981755e+01
2.986514e+01
2.990515e+01
2.993744e+01
2.996299e+01
2.998308e+01
2.999876e+01
3.001081e+01
3.001920e+01
3.002397e+01
3.002459e+01
3.002008e+01
3.000889e+01
2.998937e+01
2.996028e+01
2.992166e+01
2.987435e+01
2.982340e+01
2.977871e+01
2.975334e+01
2.975653e+01
2.978485e+01
2.982730e+01
2.987200e+01
2.991078e+01
2.994055e+01
2.996154e+01
2.997537e+01
2.998410e+01
2.998951e+01
2.999280e+01
2.999460e+01
2.999436e+01
2.999211e+01
2.998765e+01
2.998070e+01
2.997103e+01
2.995849e+01
2.994310e+01
2.992517e+01
2.990515e+01
2.988415e+01
2.986387e+01
2.984659e+01
2.983495e+01
2.983147e+01
2.983733e+01
2.985132e+01
2.987063e+01
2.989193e+01
2.991221e+01
2.992933e+01
2.994256e+01
2.995194e+01
2.995807e+01
2.996174e+01
2.996370e+01
2.996461e+01
2.996499e+01
2.996510e+01
2.996501e+01
2.996496e+01
2.996517e+01
2.996587e+01
2.996733e+01
2.996990e+01
2.997404e+01
2.998313e+01
2.998334e+01
3.032948e+01
3.032928e+01
3.032048e+01
3.030945e+01
3.029415e+01
3.027254e+01
3.024247e+01
3.020179e+01
3.014872e+01
3.008242e+01
3.000430e+01
2.992054e+01
2.984259e+01
2.977879e+01
2.973214e+01
2.970170e+01
2.968458e+01
2.967716e+01
2.967587e+01
2.967766e+01
2.967999e+01
2.968093e+01
2.967918e+01
2.967399e+01
2.966506e+01
2.965255e+01
2.963814e+01
2.962651e+01
2.962503e+01
2.963991e+01
2.967250e+01
2.971856e+01
2.977089e+01
2.982253e+01
2.986912e+01
2.990843e+01
2.994025e+01
2.996543e+01
2.998519e+01
3.000064e+01
3.001254e+01
3.002122e+01
3.002663e+01
3.002820e+01
3.002483e+01
3.001492e+01
2.999667e+01
2.996834e+01
2.992877e+01
2.987882e+01
2.982469e+01
2.977880e+01
2.975532e+01
2.976094e+01
2.979093e+01
2.983388e+01
2.987809e+01
2.991626e+01
2.994553e+01
2.996604e+01
2.997938e+01
2.998759e+01
2.999248e+01
2.999533e+01
2.999667e+01
2.999644e+01
2.999448e+01
2.999046e+01
2.998400e+01
2.997478e+01
2.996256e+01
2.994727e+01
2.992901e+01
2.990832e+01
2.988626e+01
2.986468e+01
2.984625e+01
2.983407e+01
2.983072e+01
2.983698e+01
2.985149e+01
2.987131e+01
2.989296e+01
2.991334e+01
2.993062e+01
2.994401e+01
2.995354e+01
2.995976e+01
2.996343e+01
2.996536e+01
2.996621e+01
2.996648e+01
2.996645e+01
2.996631e+01
2.996627e+01
2.996653e+01
2.996733e+01
2.996892e+01
2.997171e+01
2.997623e+01
2.998671e+01
2.998692e+01
0.000000e+00
3.032948e+01
3.032069e+01
3.030966e+01
3.029436e+01
3.027275e+01
3.024267e+01
3.020200e+01
3.014892e+01
3.008262e+01
3.000451e+01
2.992074e+01
2.984279e+01
2.977900e+01
2.973235e+01
2.970191e+01
2.968478e+01
2.967736e+01
2.967608e+01
2.967787e+01
2.968019e+01
2.968114e+01
2.967939e+01
2.967420e+01
2.966526e+01
2.965275e+01
2.963835e+01
2.962671e+01
2.962523e+01
2.964011e+01
2.967270e+01
2.971877e+01
2.977109e+01
2.982274e+01
2.986933e+01
2.990864e+01
2.994045e+01
2.996563e+01
2.998540e+01
3.000085e+01
3.001275e+01
3.002142e+01
3.002683e+01
3.002841e+01
3.002503e+01
3.001513e+01
2.999688e+01
2.996855e+01
2.992898e+01
2.987903e+01
2.982490e+01
2.977901e+01
2.975552e+01
2.976115e+01
2.979114e+01
2.983409e+01
2.987830e+01
2.991646e+01
2.994573e+01
2.996624e+01
2.997959e+01