# vtk DataFile Version 3.0
Scalar Field
ASCII
DATASET RECTILINEAR_GRID
DIMENSIONS 102 22 1
X_COORDINATES 102 double
0.000000 0.100000 0.200000 0.300000 0.400000 0.500000 0.600000 0.700000 0.800000 0.900000 1.000000 1.100000 1.200000 1.300000 1.400000 1.500000 1.600000 1.700000 1.800000 1.900000 2.000000 2.100000 2.200000 2.300000 2.400000 2.500000 2.600000 2.700000 2.800000 2.900000 3.000000 3.100000 3.200000 3.300000 3.400000 3.500000 3.600000 3.700000 3.800000 3.900000 4.000000 4.100000 4.200000 4.300000 4.400000 4.500000 4.600000 4.700000 4.800000 4.900000 5.000000 5.100000 5.200000 5.300000 5.400000 5.500000 5.600000 5.700000 5.800000 5.900000 6.000000 6.100000 6.200000 6.300000 6.400000 6.500000 6.600000 6.700000 6.800000 6.900000 7.000000 7.100000 7.200000 7.300000 7.400000 7.500000 7.600000 7.700000 7.800000 7.900000 8.000000 8.100000 8.200000 8.300000 8.400000 8.500000 8.600000 8.700000 8.800000 8.900000 9.000000 9.100000 9.200000 9.300000 9.400000 9.500000 9.600000 9.700000 9.800000 9.900000 10.000000 10.100000 
Y_COORDINATES 22 double
0.000000 0.100000 0.200000 0.300000 0.400000 0.500000 0.600000 0.700000 0.800000 0.900000 1.000000 1.100000 1.200000 1.300000 1.400000 1.500000 1.600000 1.700000 1.800000 1.900000 2.000000 2.100000 
Z_COORDINATES 1 double
0.0
POINT_DATA 2244
SCALARS Pressure double 1
LOOKUP_TABLE default
0.000000e+00
3.483828e+01
3.480609e+01
3.476929e+01
3.472408e+01
3.466655e+01
3.459302e+01
3.450229e+01
3.439429e+01
3.429025e+01
3.420662e+01
3.414806e+01
3.411203e+01
3.409355e+01
3.408805e+01
3.409198e+01
3.410290e+01
3.411915e+01
3.413968e+01
3.416385e+01
3.419122e+01
3.422116e+01
3.425240e+01
3.428272e+01
3.430915e+01
3.432813e+01
3.433724e+01
3.433662e+01
3.432885e+01
3.431773e+01
3.430696e+01
3.429945e+01
3.429714e+01
3.430103e+01
3.431174e+01
3.432939e+01
3.435352e+01
3.438311e+01
3.441661e+01
3.445211e+01
3.448761e+01
3.452110e+01
3.455069e+01
3.457500e+01
3.459359e+01
3.460696e+01
3.461630e+01
3.462285e+01
3.462799e+01
3.463248e+01
3.463532e+01
3.463488e+01
3.462915e+01
3.461630e+01
3.459524e+01
3.456642e+01
3.453193e+01
3.449526e+01
3.446084e+01
3.443324e+01
3.441609e+01
3.441131e+01
3.441797e+01
3.443467e+01
3.446009e+01
3.449173e+01
3.452550e+01
3.455609e+01
3.457879e+01
3.459144e+01
3.459589e+01
3.459565e+01
3.459361e+01
3.459129e+01
3.458941e+01
3.458823e+01
3.458725e+01
3.458599e+01
3.458397e+01
3.458081e+01
3.457614e+01
3.456976e+01
3.456163e+01
3.455190e+01
3.454087e+01
3.452892e+01
3.451652e+01
3.450422e+01
3.449257e+01
3.448214e+01
3.447342e+01
3.446678e+01
3.446236e+01
3.446009e+01
3.445949e+01
3.445989e+01
3.446081e+01
3.446156e+01
3.446104e+01
3.445747e+01
3.443972e+01
0.000000e+00
3.483828e+01
3.483793e+01
3.480574e+01
3.476894e+01
3.472373e+01
3.466620e+01
3.459267e+01
3.450194e+01
3.439393e+01
3.428990e+01
3.420626e+01
3.414771e+01
3.411168e+01
3.409320e+01
3.408770e+01
3.409163e+01
3.410254e+01
3.411880e+01
3.413933e+01
3.416350e+01
3.419086e+01
3.422080e+01
3.425205e+01
3.428237e+01
3.430880e+01
3.432777e+01
3.433689e+01
3.433626e+01
3.432850e+01
3.431737e+01
3.430661e+01
3.429910e+01
3.429679e+01
3.430068e+01
3.431139e+01
3.432903e+01
3.435317e+01
3.438276e+01
3.441625e+01
3.445176e+01
3.448726e+01
3.452075e+01
3.455033e+01
3.457465e+01
3.459324e+01
3.460660e+01
3.461594e+01
3.462250e+01
3.462764e+01
3.463213e+01
3.463497e+01
3.463452e+01
3.462880e+01
3.461595e+01
3.459488e+01
3.456607e+01
3.453158e+01
3.449491e+01
3.446049e+01
3.443288e+01
3.441574e+01
3.441096e+01
3.441762e+01
3.443431e+01
3.445974e+01
3.449138e+01
3.452514e+01
3.455574e+01
3.457844e+01
3.459109e+01
3.459554e+01
3.459530e+01
3.459326e+01
3.459094e+01
3.458906e+01
3.458787e+01
3.458690e+01
3.458563e+01
3.458362e+01
3.458045e+01
3.457579e+01
3.456941e+01
3.456128e+01
3.455155e+01
3.454051e+01
3.452856e+01
3.451617e+01
3.450386e+01
3.449221e+01
3.448178e+01
3.447306e+01
3.446642e+01
3.446201e+01
3.445973e+01
3.445914e+01
3.445954e+01
3.446046e+01
3.446121e+01
3.446068e+01
3.445711e+01
3.443936e+01
3.443972e+01
3.483761e+01
3.483726e+01
3.480656e+01
3.477100e+01
3.472652e+01
3.466872e+01
3.459322e+01
3.449852e+01
3.438073e+01
3.427213e+01
3.418955e+01
3.413432e+01
3.410172e+01
3.408589e+01
3.408215e+01
3.408717e+01
3.409872e+01
3.411527e+01
3.413581e+01
3.415973e+01
3.418663e+01
3.421611e+01
3.424735e+01
3.427874e+01
3.430728e+01
3.432908e+01
3.434094e+01
3.434201e+01
3.433449e+01
3.432223e+01
3.430947e+01
3.430007e+01
3.429642e+01
3.429928e+01
3.430918e+01
3.432615e+01
3.434970e+01
3.437882e+01
3.441192e+01
3.444711e+01
3.448235e+01
3.451580e+01
3.454561e+01
3.457034e+01
3.458945e+01
3.460331e+01
3.461299e+01
3.461971e+01
3.462446e+01
3.462793e+01
3.462932e+01
3.462727e+01
3.462015e+01
3.460647e+01
3.458539e+01
3.455715e+01
3.452386e+01
3.448885e+01
3.445626e+01
3.443037e+01
3.441460e+01
3.441114e+01
3.441890e+01
3.443630e+01
3.446188e+01
3.449254e+01
3.452362e+01
3.455028e+01
3.456990e+01
3.458172e+01
3.458699e+01
3.458829e+01
3.458784e+01
3.458689e+01
3.458595e+01
3.458519e+01
3.458435e+01
3.458306e+01
3.458096e+01
3.457774e+01
3.457311e+01
3.456686e+01
3.455892e+01
3.454940e+01
3.453864e+01
3.452703e+01
3.451501e+01
3.450312e+01
3.449189e+01
3.448185e+01
3.447348e+01
3.446710e+01
3.446288e+01
3.446083e+01
3.446072e+01
3.446164e+01
3.446322e+01
3.446481e+01
3.446536e+01
3.446326e+01
3.445069e+01
3.445105e+01
3.483693e+01
3.483657e+01
3.480900e+01
3.477625e+01
3.473374e+01
3.467595e+01
3.459656e+01
3.449268e+01
3.435127e+01
3.423410e+01
3.415540e+01
3.410787e+01
3.408248e+01
3.407199e+01
3.407159e+01
3.407861e+01
3.409130e+01
3.410839e+01
3.412898e+01
3.415243e+01
3.417845e+01
3.420691e+01
3.423771e+01
3.427050e+01
3.430332e+01
3.433126e+01
3.434906e+01
3.435350e+01
3.434658e+01
3.433250e+01
3.431617e+01
3.430273e+01
3.429617e+01
3.429689e+01
3.430514e+01
3.432073e+01
3.434299e+01
3.437082e+01
3.440277e+01
3.443704e+01
3.447166e+01
3.450484e+01
3.453492e+01
3.456046e+01
3.458075e+01
3.459585e+01
3.460653e+01
3.461383e+01
3.461856e+01
3.462106e+01
3.462081e+01
3.461692e+01
3.460845e+01
3.459416e+01
3.457321e+01
3.454580e+01
3.451420e+01
3.448143e+01
3.445132e+01
3.442778e+01
3.441410e+01
3.441274e+01
3.442181e+01
3.443951e+01
3.446396e+01
3.449174e+01
3.451846e+01
3.454048e+01
3.455723e+01
3.456817e+01
3.457453e+01
3.457785e+01
3.457940e+01
3.458007e+01
3.458031e+01
3.458027e+01
3.457976e+01
3.457864e+01
3.457669e+01
3.457363e+01
3.456921e+01
3.456324e+01
3.455565e+01
3.454650e+01
3.453618e+01
3.452509e+01
3.451365e+01
3.450238e+01
3.449176e+01
3.448232e+01
3.447446e+01
3.446854e+01
3.446477e+01
3.446329e+01
3.446396e+01
3.446570e+01
3.446824e+01
3.447099e+01
3.447299e+01
3.447298e+01
3.446838e+01
3.446874e+01
3.483665e+01
3.483630e+01
3.481360e+01
3.478548e+01
3.474667e+01
3.468956e+01
3.460376e+01
3.448078e+01
3.429390e+01
3.416890e+01
3.410278e+01
3.406963e+01
3.405553e+01
3.405262e+01
3.405671e+01
3.406637e+01
3.408058e+01
3.409843e+01
3.411914e+01
3.414210e+01
3.416709e+01
3.419433e+01
3.422436e+01
3.425784e+01
3.429527e+01
3.433193e+01
3.435992e+01
3.437098e+01
3.436517e+01
3.434861e+01
3.432736e+01
3.430779e+01
3.429581e+01
3.429312e+01
3.429890e+01
3.431257e+01
3.433309e+01
3.435933e+01
3.438989e+01
3.442305e+01
3.445688e+01
3.448959e+01
3.451971e+01
3.454606e+01
3.456774e+01
3.458445e+01
3.459656e+01
3.460482e+01
3.461000e+01
3.461190e+01
3.461022e+01
3.460486e+01
3.459524e+01
3.458057e+01
3.456024e+01
3.453434e+01
3.450518e+01
3.447543e+01
3.444850e+01
3.442795e+01
3.441693e+01
3.441804e+01
3.442814e+01
3.444545e+01
3.446777e+01
3.449177e+01
3.451382e+01
3.453183e+01
3.454602e+01
3.455604e+01
3.456270e+01
3.456705e+01
3.456990e+01
3.457176e+01
3.457293e+01
3.457360e+01
3.457357e+01
3.457275e+01
3.457103e+01
3.456825e+01
3.456421e+01
3.455874e+01
3.455176e+01
3.454330e+01
3.453368e+01
3.452337e+01
3.451278e+01
3.450236e+01
3.449259e+01
3.448394e+01
3.447681e+01
3.447156e+01
3.446849e+01
3.446788e+01
3.446937e+01
3.447195e+01
3.447534e+01
3.447899e+01
3.448212e+01
3.448420e+01
3.448639e+01
3.448675e+01
3.483727e+01
3.483692e+01
3.482096e+01
3.479978e+01
3.476750e+01
3.471349e+01
3.461896e+01
3.445710e+01
3.419023e+01
3.407355e+01
3.403357e+01
3.402133e+01
3.402225e+01
3.402864e+01
3.403801e+01
3.405079e+01
3.406684e+01
3.408568e+01
3.410668e+01
3.412925e+01
3.415331e+01
3.417951e+01
3.420893e+01
3.424267e+01
3.428109e+01
3.432399e+01
3.436675e+01
3.439197e+01
3.439089e+01
3.437137e+01
3.434322e+01
3.431648e+01
3.429695e+01
3.428894e+01
3.429153e+01
3.430294e+01
3.432153e+01
3.434595e+01
3.437487e+01
3.440669e+01
3.443959e+01
3.447172e+01
3.450166e+01
3.452869e+01
3.455167e+01
3.457001e+01
3.458376e+01
3.459336e+01
3.459936e+01
3.460121e+01
3.459824e+01
3.459135e+01
3.458084e+01
3.456639e+01
3.454748e+01
3.452408e+01
3.449830e+01
3.447241e+01
3.444939e+01
3.443241e+01
3.442443e+01
3.442777e+01
3.443822e+01
3.445430e+01
3.447374e+01
3.449362e+01
3.451120e+01
3.452577e+01
3.453754e+01
3.454641e+01
3.455290e+01
3.455764e+01
3.456106e+01
3.456348e+01
3.456507e+01
3.456599e+01
3.456625e+01
3.456563e+01
3.456415e+01
3.456175e+01
3.455827e+01
3.455355e+01
3.454748e+01
3.454003e+01
3.453144e+01
3.452220e+01
3.451270e+01
3.450338e+01
3.449467e+01
3.448702e+01
3.448082e+01
3.447647e+01
3.447431e+01
3.447463e+01
3.447667e+01
3.447974e+01
3.448350e+01
3.448748e+01
3.449111e+01
3.449477e+01
3.450109e+01
3.450145e+01
3.483920e+01
3.483885e+01
3.483141e+01
3.481995e+01
3.479905e+01
3.475553e+01
3.465707e+01
3.442536e+01
3.400877e+01
3.393848e+01
3.395134e+01
3.396791e+01
3.398633e+01
3.400189e+01
3.401649e+01
3.403250e+01
3.405058e+01
3.407067e+01
3.409220e+01
3.411456e+01
3.413763e+01
3.416265e+01
3.419129e+01
3.422500e+01
3.426351e+01
3.430673e+01
3.435108e+01
3.439281e+01
3.441163e+01
3.439740e+01
3.436121e+01
3.432749e+01
3.430255e+01
3.428942e+01
3.428774e+01
3.429671e+01
3.431291e+01
3.433493e+01
3.436163e+01
3.439157e+01
3.442301e+01
3.445409e+01
3.448317e+01
3.451039e+01
3.453447e+01
3.455446e+01
3.456998e+01
3.458091e+01
3.458731e+01
3.458836e+01
3.458369e+01
3.457550e+01
3.456485e+01
3.455171e+01
3.453547e+01
3.451586e+01
3.449456e+01
3.447341e+01
3.445496e+01
3.444199e+01
3.443716e+01
3.444172e+01
3.445170e+01
3.446570e+01
3.448167e+01
3.449732e+01
3.451076e+01
3.452217e+01
3.453159e+01
3.453907e+01
3.454493e+01
3.454948e+01
3.455291e+01
3.455535e+01
3.455693e+01
3.455777e+01
3.455800e+01
3.455742e+01
3.455614e+01
3.455419e+01
3.455144e+01
3.454774e+01
3.454290e+01
3.453684e+01
3.452965e+01
3.452181e+01
3.451368e+01
3.450566e+01
3.449820e+01
3.449172e+01
3.448662e+01
3.448328e+01
3.448198e+01
3.448284e+01
3.448499e+01
3.448800e+01
3.449157e+01
3.449532e+01
3.449912e+01
3.450354e+01
3.451136e+01
3.451171e+01
3.484257e+01
3.484221e+01
3.484448e+01
3.484536e+01
3.484239e+01
3.482564e+01
3.475808e+01
3.449180e+01
3.368627e+01
3.375993e+01
3.387753e+01
3.392370e+01
3.395427e+01
3.397551e+01
3.399378e+01
3.401251e+01
3.403252e+01
3.405399e+01
3.407622e+01
3.409821e+01
3.411958e+01
3.414162e+01
3.416629e+01
3.419519e+01
3.422460e+01
3.426285e+01
3.430671e+01
3.435405e+01
3.438423e+01
3.438690e+01
3.436919e+01
3.433986e+01
3.431706e+01
3.430183e+01
3.429709e+01
3.430201e+01
3.431504e+01
3.433319e+01
3.435609e+01
3.438263e+01
3.441122e+01
3.444000e+01
3.446700e+01
3.449302e+01
3.451712e+01
3.453803e+01
3.455462e+01
3.456597e+01
3.457171e+01
3.457088e+01
3.456480e+01
3.455650e+01
3.454725e+01
3.453699e+01
3.452488e+01
3.451037e+01
3.449452e+01
3.447877e+01
3.446528e+01
3.445640e+01
3.445429e+01
3.445904e+01
3.446765e+01
3.447884e+01
3.449099e+01
3.450246e+01
3.451210e+01
3.452048e+01
3.452758e+01
3.453349e+01
3.453836e+01
3.454226e+01
3.454524e+01
3.454732e+01
3.454857e+01
3.454910e+01
3.454905e+01
3.454839e+01
3.454727e+01
3.454579e+01
3.454390e+01
3.454143e+01
3.453813e+01
3.453380e+01
3.452839e+01
3.452228e+01
3.451576e+01
3.450924e+01
3.450313e+01
3.449785e+01
3.449380e+01
3.449128e+01
3.449047e+01
3.449135e+01
3.449318e+01
3.449574e+01
3.449880e+01
3.450212e+01
3.450591e+01
3.451055e+01
3.451799e+01
3.451835e+01
3.484701e+01
3.484666e+01
3.485842e+01
3.487229e+01
3.489113e+01
3.491738e+01
3.494783e+01
3.504891e+01
3.436794e+01
3.383140e+01
3.390216e+01
3.391730e+01
3.393766e+01
3.395964e+01
3.397825e+01
3.399779e+01
3.401756e+01
3.403846e+01
3.405947e+01
3.407894e+01
3.409557e+01
3.411053e+01
3.412472e+01
3.414219e+01
3.416232e+01
3.419307e+01
3.422340e+01
3.425360e+01
3.428390e+01
3.431020e+01
3.433235e+01
3.434273e+01
3.434023e+01
3.433032e+01
3.432256e+01
3.432268e+01
3.433103e+01
3.434387e+01
3.436130e+01
3.438264e+01
3.440653e+01
3.443124e+01
3.445479e+01
3.447744e+01
3.449951e+01
3.451926e+01
3.453482e+01
3.454468e+01
3.454865e+01
3.454613e+01
3.454060e+01
3.453453e+01
3.452877e+01
3.452313e+01
3.451656e+01
3.450820e+01
3.449842e+01
3.448836e+01
3.447978e+01
3.447460e+01
3.447431e+01
3.447840e+01
3.448491e+01
3.449284e+01
3.450104e+01
3.450851e+01
3.451467e+01
3.452014e+01
3.452493e+01
3.452910e+01
3.453266e+01
3.453556e+01
3.453775e+01
3.453918e+01
3.453992e+01
3.454004e+01
3.453970e+01
3.453893e+01
3.453794e+01
3.453695e+01
3.453597e+01
3.453485e+01
3.453330e+01
3.453099e+01
3.452769e+01
3.452358e+01
3.451887e+01
3.451391e+01
3.450911e+01
3.450489e+01
3.450161e+01
3.449951e+01
3.449873e+01
3.449925e+01
3.450055e+01
3.450252e+01
3.450504e+01
3.450800e+01
3.451171e+01
3.451632e+01
3.452267e+01
3.452302e+01
3.485181e+01
3.485146e+01
3.487059e+01
3.489444e+01
3.492948e+01
3.498619e+01
3.508210e+01
3.521557e+01
3.524896e+01
0.000000e+00
3.392983e+01
3.392948e+01
3.394741e+01
3.396762e+01
3.398242e+01
3.399975e+01
3.401767e+01
3.403587e+01
3.405308e+01
3.406776e+01
3.407891e+01
3.408642e+01
3.409037e+01
3.409145e+01
3.409237e+01
3.409927e+01
3.411515e+01
3.415350e+01
3.420532e+01
3.425885e+01
3.430777e+01
3.434841e+01
3.437212e+01
3.437484e+01
3.436555e+01
3.435873e+01
3.435972e+01
3.436643e+01
3.437713e+01
3.439174e+01
3.440917e+01
3.442790e+01
3.444611e+01
3.446269e+01
3.447974e+01
3.449526e+01
3.450678e+01
3.451308e+01
3.451481e+01
3.451320e+01
3.451154e+01
3.451088e+01
3.451113e+01
3.451165e+01
3.451153e+01
3.450978e+01
3.450617e+01
3.450157e+01
3.449740e+01
3.449515e+01
3.449569e+01
3.449848e+01
3.450245e+01
3.450695e+01
3.451131e+01
3.451507e+01
3.451802e+01
3.452068e+01
3.452311e+01
3.452533e+01
3.452728e+01
3.452886e+01
3.452998e+01
3.453062e+01
3.453079e+01
3.453059e+01
3.453010e+01
3.452938e+01
3.452867e+01
3.452823e+01
3.452819e+01
3.452845e+01
3.452870e+01
3.452853e+01
3.452752e+01
3.452555e+01
3.452272e+01
3.451931e+01
3.451569e+01
3.451227e+01
3.450942e+01
3.450740e+01
3.450638e+01
3.450634e+01
3.450702e+01
3.450840e+01
3.451044e+01
3.451313e+01
3.451670e+01
3.452121e+01
3.452696e+01
3.452732e+01
3.485621e+01
3.485585e+01
3.487892e+01
3.490731e+01
3.494726e+01
3.500670e+01
3.509204e+01
3.519506e+01
3.528164e+01
3.528200e+01
0.000000e+00
3.399717e+01
3.399682e+01
3.400699e+01
3.401768e+01
3.403060e+01
3.404544e+01
3.405956e+01
3.407096e+01
3.407799e+01
3.407966e+01
3.407534e+01
3.406578e+01
3.405064e+01
3.403258e+01
3.402247e+01
3.403687e+01
3.409173e+01
3.416601e+01
3.424118e+01
3.430701e+01
3.436209e+01
3.440568e+01
3.442407e+01
3.442190e+01
3.440907e+01
3.440110e+01
3.439994e+01
3.440277e+01
3.440940e+01
3.441880e+01
3.442952e+01
3.443972e+01
3.444785e+01
3.445681e+01
3.446421e+01
3.446797e+01
3.446912e+01
3.447021e+01
3.447456e+01
3.448126e+01
3.448908e+01
3.449698e+01
3.450434e+01
3.451059e+01
3.451502e+01
3.451722e+01
3.451746e+01
3.451685e+01
3.451655e+01
3.451709e+01
3.451823e+01
3.451956e+01
3.452074e+01
3.452153e+01
3.452187e+01
3.452183e+01
3.452173e+01
3.452168e+01
3.452168e+01
3.452169e+01
3.452162e+01
3.452145e+01
3.452117e+01
3.452082e+01
3.452045e+01
3.452012e+01
3.451987e+01
3.451992e+01
3.452042e+01
3.452150e+01
3.452310e+01
3.452499e+01
3.452676e+01
3.452790e+01
3.452801e+01
3.452699e+01
3.452499e+01
3.452238e+01
3.451957e+01
3.451695e+01
3.451482e+01
3.451340e+01
3.451272e+01
3.451274e+01
3.451350e+01
3.451502e+01
3.451736e+01
3.452073e+01
3.452517e+01
3.453118e+01
3.453154e+01
3.485975e+01
3.485940e+01
3.488289e+01
3.491088e+01
3.494773e+01
3.499807e+01
3.506469e+01
3.512962e+01
3.515892e+01
3.493527e+01
3.493562e+01
0.000000e+00
3.402282e+01
3.404810e+01
3.405368e+01
3.406729e+01
3.408056e+01
3.408956e+01
3.409342e+01
3.409164e+01
3.408454e+01
3.407165e+01
3.405290e+01
3.402479e+01
3.399016e+01
3.396692e+01
3.399295e+01
3.406448e+01
3.415636e+01
3.424669e+01
3.432057e+01
3.437895e+01
3.442999e+01
3.446518e+01
3.447566e+01
3.446767e+01
3.445256e+01
3.444310e+01
3.443767e+01
3.443569e+01
3.443588e+01
3.443667e+01
3.443631e+01
3.443399e+01
3.443056e+01
3.442561e+01
3.442114e+01
3.441879e+01
3.442396e+01
3.443721e+01
3.445434e+01
3.447195e+01
3.448809e+01
3.450203e+01
3.451371e+01
3.452314e+01
3.453001e+01
3.453430e+01
3.453652e+01
3.453739e+01
3.453727e+01
3.453664e+01
3.453545e+01
3.453368e+01
3.453139e+01
3.452873e+01
3.452587e+01
3.452302e+01
3.452029e+01
3.451775e+01
3.451543e+01
3.451337e+01
3.451162e+01
3.451027e+01
3.450937e+01
3.450897e+01
3.450926e+01
3.451029e+01
3.451189e+01
3.451397e+01
3.451652e+01
3.451952e+01
3.452282e+01
3.452610e+01
3.452887e+01
3.453059e+01
3.453104e+01
3.453028e+01
3.452857e+01
3.452627e+01
3.452379e+01
3.452144e+01
3.451957e+01
3.451826e+01
3.451758e+01
3.451764e+01
3.451853e+01
3.452041e+01
3.452349e+01
3.452793e+01
3.453473e+01
3.453509e+01
3.486237e+01
3.486202e+01
3.488313e+01
3.490723e+01
3.493697e+01
3.497320e+01
3.500902e+01
3.502288e+01
3.496822e+01
3.486018e+01
3.447325e+01
3.417830e+01
3.402881e+01
3.406550e+01
3.407704e+01
3.409353e+01
3.410481e+01
3.410977e+01
3.410964e+01
3.410398e+01
3.409213e+01
3.407400e+01
3.404761e+01
3.400833e+01
3.395924e+01
3.394236e+01
3.398379e+01
3.406863e+01
3.417117e+01
3.426898e+01
3.434522e+01
3.440315e+01
3.444972e+01
3.449045e+01
3.451646e+01
3.452047e+01
3.450988e+01
3.449416e+01
3.448143e+01
3.447109e+01
3.446147e+01
3.445081e+01
3.443813e+01
3.442305e+01
3.440620e+01
3.438951e+01
3.437584e+01
3.437030e+01
3.438245e+01
3.440620e+01
3.443438e+01
3.446173e+01
3.448538e+01
3.450461e+01
3.452041e+01
3.453335e+01
3.454342e+01
3.455043e+01
3.455443e+01
3.455576e+01
3.455498e+01
3.455290e+01
3.454972e+01
3.454561e+01
3.454080e+01
3.453554e+01
3.453010e+01
3.452460e+01
3.451913e+01
3.451385e+01
3.450893e+01
3.450455e+01
3.450093e+01
3.449824e+01
3.449660e+01
3.449609e+01
3.449751e+01
3.450054e+01
3.450458e+01
3.450907e+01
3.451367e+01
3.451826e+01
3.452273e+01
3.452694e+01
3.453055e+01
3.453310e+01
3.453429e+01
3.453420e+01
3.453300e+01
3.453098e+01
3.452859e+01
3.452621e+01
3.452403e+01
3.452222e+01
3.452093e+01
3.452034e+01
3.452062e+01
3.452200e+01
3.452477e+01
3.452938e+01
3.453795e+01
3.453831e+01
3.486423e+01
3.486388e+01
3.488076e+01
3.489924e+01
3.491939e+01
3.493862e+01
3.494783e+01
3.492717e+01
3.484043e+01
3.467834e+01
3.442178e+01
3.388264e+01
3.399141e+01
3.406224e+01
3.409420e+01
3.411109e+01
3.411823e+01
3.412178e+01
3.412084e+01
3.411350e+01
3.409925e+01
3.407812e+01
3.404524e+01
3.399441e+01
3.394981e+01
3.395194e+01
3.400742e+01
3.409891e+01
3.420303e+01
3.429587e+01
3.437009e+01
3.442758e+01
3.447128e+01
3.450644e+01
3.453696e+01
3.455481e+01
3.455631e+01
3.454423e+01
3.452806e+01
3.450981e+01
3.448945e+01
3.446681e+01
3.444322e+01
3.441624e+01
3.438693e+01
3.435892e+01
3.433613e+01
3.433160e+01
3.435166e+01
3.438579e+01
3.442399e+01
3.445958e+01
3.448857e+01
3.451154e+01
3.452994e+01
3.454484e+01
3.455661e+01
3.456511e+01
3.457012e+01
3.457164e+01
3.457048e+01
3.456740e+01
3.456277e+01
3.455687e+01
3.455000e+01
3.454248e+01
3.453465e+01
3.452664e+01
3.451846e+01
3.451038e+01
3.450272e+01
3.449582e+01
3.449006e+01
3.448572e+01
3.448300e+01
3.448231e+01
3.448523e+01
3.449085e+01
3.449802e+01
3.450570e+01
3.451293e+01
3.451928e+01
3.452477e+01
3.452943e+01
3.453314e+01
3.453557e+01
3.453632e+01
3.453606e+01
3.453501e+01
3.453329e+01
3.453117e+01
3.452887e+01
3.452656e+01
3.452443e+01
3.452269e+01
3.452153e+01
3.452117e+01
3.452186e+01
3.452414e+01
3.452869e+01
3.453920e+01
3.453955e+01
3.486567e+01
3.486531e+01
3.487713e+01
3.488901e+01
3.489960e+01
3.490515e+01
3.489737e+01
3.486177e+01
3.477645e+01
3.462339e+01
3.441674e+01
3.413448e+01
3.410099e+01
3.411182e+01
3.412260e+01
3.412882e+01
3.413168e+01
3.413209e+01
3.412697e+01
3.411685e+01
3.410237e+01
3.408172e+01
3.404644e+01
3.400115e+01
3.397642e+01
3.399524e+01
3.405742e+01
3.414657e+01
3.424214e+01
3.432473e+01
3.439227e+01
3.444614e+01
3.448813e+01
3.451938e+01
3.454195e+01
3.456094e+01
3.457270e+01
3.457134e+01
3.455942e+01
3.453897e+01
3.451214e+01
3.448135e+01
3.444983e+01
3.441289e+01
3.437322e+01
3.433569e+01
3.430587e+01
3.430694e+01
3.433544e+01
3.437847e+01
3.442439e+01
3.446497e+01
3.449704e+01
3.452195e+01
3.454141e+01
3.455685e+01
3.456900e+01
3.457793e+01
3.458336e+01
3.458505e+01
3.458386e+01
3.458032e+01
3.457482e+01
3.456769e+01
3.455924e+01
3.454983e+01
3.453983e+01
3.452951e+01
3.451873e+01
3.450788e+01
3.449741e+01
3.448785e+01
3.447973e+01
3.447349e+01
3.446940e+01
3.446881e+01
3.447345e+01
3.448190e+01
3.449246e+01
3.450358e+01
3.451346e+01
3.452167e+01
3.452822e+01
3.453314e+01
3.453640e+01
3.453790e+01
3.453765e+01
3.453666e+01
3.453518e+01
3.453341e+01
3.453148e+01
3.452942e+01
3.452725e+01
3.452505e+01
3.452307e+01
3.452135e+01
3.452017e+01
3.451985e+01
3.452117e+01
3.452541e+01
3.453592e+01
3.453627e+01
3.486679e+01
3.486644e+01
3.487299e+01
3.487867e+01
3.488140e+01
3.487745e+01
3.486045e+01
3.482093e+01
3.474670e+01
3.462565e+01
3.446107e+01
3.427462e+01
3.419860e+01
3.417148e+01
3.415999e+01
3.415285e+01
3.414678e+01
3.414036e+01
3.413168e+01
3.412025e+01
3.410585e+01
3.408637e+01
3.405682e+01
3.402903e+01
3.402367e+01
3.405362e+01
3.411593e+01
3.419704e+01
3.427963e+01
3.435222e+01
3.441256e+01
3.446118e+01
3.449964e+01
3.452954e+01
3.455229e+01
3.456912e+01
3.457920e+01
3.458047e+01
3.457232e+01
3.455406e+01
3.452655e+01
3.449250e+01
3.445640e+01
3.441248e+01
3.436536e+01
3.432092e+01
3.429162e+01
3.429952e+01
3.433537e+01
3.438452e+01
3.443465e+01
3.447679e+01
3.450967e+01
3.453476e+01
3.455393e+01
3.456878e+01
3.458031e+01
3.458882e+01
3.459412e+01
3.459600e+01
3.459505e+01
3.459157e+01
3.458582e+01
3.457809e+01
3.456866e+01
3.455784e+01
3.454602e+01
3.453363e+01
3.452045e+01
3.450694e+01
3.449370e+01
3.448142e+01
3.447084e+01
3.446261e+01
3.445714e+01
3.445693e+01
3.446336e+01
3.447455e+01
3.448827e+01
3.450241e+01
3.451449e+01
3.452417e+01
3.453147e+01
3.453653e+01
3.453953e+01
3.454065e+01
3.454006e+01
3.453864e+01
3.453668e+01
3.453434e+01
3.453176e+01
3.452917e+01
3.452671e+01
3.452419e+01
3.452173e+01
3.451942e+01
3.451744e+01
3.451609e+01
3.451673e+01
3.452027e+01
3.452780e+01
3.452815e+01
3.486768e+01
3.486733e+01
3.486914e+01
3.486960e+01
3.486638e+01
3.485624e+01
3.483447e+01
3.479499e+01
3.473085e+01
3.463497e+01
3.450632e+01
3.436303e+01
3.427543e+01
3.422712e+01
3.419829e+01
3.417881e+01
3.416387e+01
3.415091e+01
3.413807e+01
3.412452e+01
3.410971e+01
3.409216e+01
3.407196e+01
3.405998e+01
3.406933e+01
3.410642e+01
3.416673e+01
3.423914e+01
3.431110e+01
3.437528e+01
3.442943e+01
3.447373e+01
3.450938e+01
3.453769e+01
3.455902e+01
3.457348e+01
3.458099e+01
3.458173e+01
3.457489e+01
3.455888e+01
3.453316e+01
3.449957e+01
3.446179e+01
3.441479e+01
3.436429e+01
3.431791e+01
3.429489e+01
3.430936e+01
3.435004e+01
3.440169e+01
3.445199e+01
3.449312e+01
3.452491e+01
3.454878e+01
3.456663e+01
3.458014e+01
3.459044e+01
3.459799e+01
3.460273e+01
3.460469e+01
3.460407e+01
3.460099e+01
3.459555e+01
3.458787e+01
3.457812e+01
3.456651e+01
3.455338e+01
3.453925e+01
3.452397e+01
3.450802e+01
3.449212e+01
3.447717e+01
3.446414e+01
3.445399e+01
3.444743e+01
3.444787e+01
3.445599e+01
3.446953e+01
3.448580e+01
3.450213e+01
3.451582e+01
3.452651e+01
3.453428e+01
3.453942e+01
3.454232e+01
3.454333e+01
3.454277e+01
3.454120e+01
3.453894e+01
3.453613e+01
3.453293e+01
3.452955e+01
3.452634e+01
3.452305e+01
3.451977e+01
3.451660e+01
3.451375e+01
3.451158e+01
3.451151e+01
3.451370e+01
3.451715e+01
3.451751e+01
3.486842e+01
3.486807e+01
3.486600e+01
3.486237e+01
3.485488e+01
3.484075e+01
3.481646e+01
3.477789e+01
3.472073e+01
3.464097e+01
3.453768e+01
3.442244e+01
3.433380e+01
3.427324e+01
3.423223e+01
3.420282e+01
3.418024e+01
3.416153e+01
3.414476e+01
3.412890e+01
3.411341e+01
3.409815e+01
3.408612e+01
3.408573e+01
3.410508e+01
3.414654e+01
3.420485e+01
3.427076e+01
3.433536e+01
3.439329e+01
3.444266e+01
3.448358e+01
3.451703e+01
3.454382e+01
3.456391e+01
3.457720e+01
3.458395e+01
3.458423e+01
3.457746e+01
3.456234e+01
3.453791e+01
3.450509e+01
3.446603e+01
3.441822e+01
3.436772e+01
3.432470e+01
3.431037e+01
3.433048e+01
3.437344e+01
3.442464e+01
3.447239e+01
3.451115e+01
3.454082e+01
3.456273e+01
3.457875e+01
3.459056e+01
3.459937e+01
3.460576e+01
3.460988e+01
3.461171e+01
3.461134e+01
3.460877e+01
3.460392e+01
3.459674e+01
3.458722e+01
3.457544e+01
3.456162e+01
3.454618e+01
3.452921e+01
3.451113e+01
3.449279e+01
3.447528e+01
3.445992e+01
3.444809e+01
3.444096e+01
3.444222e+01
3.445178e+01
3.446709e+01
3.448510e+01
3.450274e+01
3.451744e+01
3.452876e+01
3.453681e+01
3.454201e+01
3.454484e+01
3.454581e+01
3.454533e+01
3.454377e+01
3.454140e+01
3.453832e+01
3.453465e+01
3.453059e+01
3.452643e+01
3.452214e+01
3.451779e+01
3.451359e+01
3.450987e+01
3.450714e+01
3.450617e+01
3.450667e+01
3.450611e+01
3.450647e+01
3.486905e+01
3.486870e+01
3.486370e+01
3.485711e+01
3.484670e+01
3.483007e+01
3.480442e+01
3.476671e+01
3.471401e+01
3.464395e+01
3.455648e+01
3.445932e+01
3.437452e+01
3.430862e+01
3.425948e+01
3.422258e+01
3.419397e+01
3.417066e+01
3.415060e+01
3.413265e+01
3.411657e+01
3.410346e+01
3.409745e+01
3.410514e+01
3.413126e+01
3.417522e+01
3.423165e+01
3.429296e+01
3.435259e+01
3.440626e+01
3.445235e+01
3.449088e+01
3.452258e+01
3.454810e+01
3.456754e+01
3.458082e+01
3.458802e+01
3.458891e+01
3.458277e+01
3.456835e+01
3.454454e+01
3.451141e+01
3.447016e+01
3.442104e+01
3.437143e+01
3.433466e+01
3.432847e+01
3.435323e+01
3.439724e+01
3.444671e+01
3.449162e+01
3.452779e+01
3.455494e+01
3.457457e+01
3.458861e+01
3.459879e+01
3.460634e+01
3.461197e+01
3.461577e+01
3.461750e+01
3.461734e+01
3.461524e+01
3.461102e+01
3.460449e+01
3.459549e+01
3.458396e+01
3.456995e+01
3.455372e+01
3.453550e+01
3.451567e+01
3.449519e+01
3.447535e+01
3.445784e+01
3.444457e+01
3.443743e+01
3.443957e+01
3.445029e+01
3.446681e+01
3.448582e+01
3.450409e+01
3.451933e+01
3.453102e+01
3.453926e+01
3.454449e+01
3.454727e+01
3.454818e+01
3.454769e+01
3.454618e+01
3.454376e+01
3.454052e+01
3.453652e+01
3.453190e+01
3.452685e+01
3.452148e+01
3.451598e+01
3.451077e+01
3.450634e+01
3.450317e+01
3.450136e+01
3.450018e+01
3.449603e+01
3.449639e+01
3.486951e+01
3.486916e+01
3.486223e+01
3.485372e+01
3.484152e+01
3.482344e+01
3.479712e+01
3.476008e+01
3.471007e+01
3.464558e+01
3.456713e+01
3.448053e+01
3.439961e+01
3.433183e+01
3.427824e+01
3.423661e+01
3.420391e+01
3.417735e+01
3.415488e+01
3.413540e+01
3.411899e+01
3.410773e+01
3.410587e+01
3.411846e+01
3.414811e+01
3.419312e+01
3.424825e+01
3.430684e+01
3.436343e+01
3.441443e+01
3.445840e+01
3.449537e+01
3.452597e+01
3.455078e+01
3.457013e+01
3.458380e+01
3.459178e+01
3.459368e+01
3.458859e+01
3.457518e+01
3.455201e+01
3.451823e+01
3.447423e+01
3.442267e+01
3.437343e+01
3.434244e+01
3.434216e+01
3.437029e+01
3.441494e+01
3.446295e+01
3.450564e+01
3.453968e+01
3.456496e+01
3.458295e+01
3.459555e+01
3.460450e+01
3.461107e+01
3.461610e+01
3.461966e+01
3.462156e+01
3.462184e+01
3.462032e+01
3.461672e+01
3.461079e+01
3.460233e+01
3.459118e+01
3.457728e+01
3.456069e+01
3.454164e+01
3.452052e+01
3.449830e+01
3.447645e+01
3.445701e+01
3.444254e+01
3.443573e+01
3.443864e+01
3.445024e+01
3.446756e+01
3.448709e+01
3.450564e+01
3.452120e+01
3.453317e+01
3.454159e+01
3.454689e+01
3.454963e+01
3.455043e+01
3.454984e+01
3.454828e+01
3.454582e+01
3.454246e+01
3.453824e+01
3.453318e+01
3.452735e+01
3.452097e+01
3.451444e+01
3.450836e+01
3.450344e+01
3.449998e+01
3.449758e+01
3.449510e+01
3.448804e+01
3.448840e+01
3.486977e+01
3.486942e+01
3.486152e+01
3.485209e+01
3.483906e+01
3.482037e+01
3.479385e+01
3.475728e+01
3.470869e+01
3.464688e+01
3.457260e+01
3.449085e+01
3.441205e+01
3.434365e+01
3.428803e+01
3.424407e+01
3.420926e+01
3.418099e+01
3.415725e+01
3.413695e+01
3.412049e+01
3.411026e+01
3.411038e+01
3.412502e+01
3.415593e+01
3.420109e+01
3.425539e+01
3.431263e+01
3.436786e+01
3.441772e+01
3.446084e+01
3.449718e+01
3.452729e+01
3.455175e+01
3.457095e+01
3.458498e+01
3.459368e+01
3.459649e+01
3.459242e+01
3.458007e+01
3.455778e+01
3.452382e+01
3.447757e+01
3.442330e+01
3.437379e+01
3.434607e+01
3.434905e+01
3.437874e+01
3.442320e+01
3.447004e+01
3.451165e+01
3.454485e+01
3.456949e+01
3.458693e+01
3.459901e+01
3.460746e+01
3.461359e+01
3.461821e+01
3.462154e+01
3.462358e+01
3.462420e+01
3.462314e+01
3.462007e+01
3.461467e+01
3.460669e+01
3.459592e+01
3.458224e+01
3.456561e+01
3.454611e+01
3.452417e+01
3.450068e+01
3.447724e+01
3.445625e+01
3.444084e+01
3.443408e+01
3.443742e+01
3.444965e+01
3.446766e+01
3.448760e+01
3.450630e+01
3.452202e+01
3.453410e+01
3.454260e+01
3.454795e+01
3.455075e+01
3.455161e+01
3.455106e+01
3.454945e+01
3.454691e+01
3.454348e+01
3.453916e+01
3.453391e+01
3.452768e+01
3.452078e+01
3.451377e+01
3.450737e+01
3.450227e+01
3.449860e+01
3.449576e+01
3.449224e+01
3.448303e+01
3.448339e+01
0.000000e+00
3.486977e+01
3.486187e+01
3.485244e+01
3.483941e+01
3.482072e+01
3.479420e+01
3.475763e+01
3.470904e+01
3.464723e+01
3.457296e+01
3.449120e+01
3.441240e+01
3.434400e+01
3.428838e+01
3.424442e+01
3.420961e+01
3.418135e+01
3.415760e+01
3.413731e+01
3.412084e+01
3.411061e+01
3.411073e+01
3.412537e+01
3.415628e+01
3.420144e+01
3.425574e+01
3.431299e+01
3.436821e+01
3.441808e+01
3.446119e+01
3.449753e+01
3.452764e+01
3.455211e+01
3.457131e+01
3.458533e+01
3.459403e+01
3.459684e+01
3.459277e+01
3.458042e+01
3.455813e+01
3.452417e+01
3.447793e+01
3.442365e+01
3.437414e+01
3.434642e+01
3.434941e+01
3.437909e+01
3.442356e+01
3.447039e+01
3.451200e+01
3.454520e+01
3.456984e+01
3.458729e+01
3.459937e+01
3.460781e+01
3.461395e+01
3.461857e+01
3.462190e+01
3.462393e+01
3.462456e+01