# vtk DataFile Version 3.0
Scalar Field
ASCII
DATASET RECTILINEAR_GRID
DIMENSIONS 102 22 1
X_COORDINATES 102 double
0.000000 0.100000 0.200000 0.300000 0.400000 0.500000 0.600000 0.700000 0.800000 0.900000 1.000000 1.100000 1.200000 1.300000 1.400000 1.500000 1.600000 1.700000 1.800000 1.900000 2.000000 2.100000 2.200000 2.300000 2.400000 2.500000 2.600000 2.700000 2.800000 2.900000 3.000000 3.100000 3.200000 3.300000 3.400000 3.500000 3.600000 3.700000 3.800000 3.900000 4.000000 4.100000 4.200000 4.300000 4.400000 4.500000 4.600000 4.700000 4.800000 4.900000 5.000000 5.100000 5.200000 5.300000 5.400000 5.500000 5.600000 5.700000 5.800000 5.900000 6.000000 6.100000 6.200000 6.300000 6.400000 6.500000 6.600000 6.700000 6.800000 6.900000 7.000000 7.100000 7.200000 7.300000 7.400000 7.500000 7.600000 7.700000 7.800000 7.900000 8.000000 8.100000 8.200000 8.300000 8.400000 8.500000 8.600000 8.700000 8.800000 8.900000 9.000000 9.100000 9.200000 9.300000 9.400000 9.500000 9.600000 9.700000 9.800000 9.900000 10.000000 10.100000 
Y_COORDINATES 22 double
0.000000 0.100000 0.200000 0.300000 0.400000 0.500000 0.600000 0.700000 0.800000 0.900000 1.000000 1.100000 1.200000 1.300000 1.400000 1.500000 1.600000 1.700000 1.800000 1.900000 2.000000 2.100000 
Z_COORDINATES 1 double
0.0
POINT_DATA 2244
SCALARS Pressure double 1
LOOKUP_TABLE default
0.000000e+00
4.275563e+01
4.271933e+01
4.267805e+01
4.262794e+01
4.256501e+01
4.248554e+01
4.238888e+01
4.227552e+01
4.217128e+01
4.209626e+01
4.205566e+01
4.204548e+01
4.205917e+01
4.209045e+01
4.213360e+01
4.218289e+01
4.223250e+01
4.227748e+01
4.231489e+01
4.234396e+01
4.236554e+01
4.238115e+01
4.239238e+01
4.240054e+01
4.240661e+01
4.241125e+01
4.241492e+01
4.241790e+01
4.242038e+01
4.242250e+01
4.242434e+01
4.242599e+01
4.242747e+01
4.242885e+01
4.243013e+01
4.243135e+01
4.243252e+01
4.243364e+01
4.243474e+01
4.243581e+01
4.243685e+01
4.243787e+01
4.243886e+01
4.243983e+01
4.244078e+01
4.244170e+01
4.244260e+01
4.244347e+01
4.244432e+01
4.244514e+01
4.244593e+01
4.244669e+01
4.244743e+01
4.244815e+01
4.244883e+01
4.244950e+01
4.245013e+01
4.245074e+01
4.245133e+01
4.245189e+01
4.245243e+01
4.245295e+01
4.245345e+01
4.245392e+01
4.245437e+01
4.245480e+01
4.245521e+01
4.245560e+01
4.245597e+01
4.245632e+01
4.245665e+01
4.245696e+01
4.245725e+01
4.245753e+01
4.245779e+01
4.245802e+01
4.245824e+01
4.245845e+01
4.245863e+01
4.245880e+01
4.245895e+01
4.245908e+01
4.245920e+01
4.245930e+01
4.245938e+01
4.245945e+01
4.245950e+01
4.245953e+01
4.245954e+01
4.245954e+01
4.245952e+01
4.245948e+01
4.245942e+01
4.245934e+01
4.245924e+01
4.245912e+01
4.245896e+01
4.245876e+01
4.245848e+01
4.245828e+01
0.000000e+00
4.275563e+01
4.275548e+01
4.271918e+01
4.267790e+01
4.262779e+01
4.256485e+01
4.248539e+01
4.238873e+01
4.227536e+01
4.217113e+01
4.209610e+01
4.205551e+01
4.204533e+01
4.205902e+01
4.209029e+01
4.213345e+01
4.218273e+01
4.223234e+01
4.227733e+01
4.231474e+01
4.234381e+01
4.236538e+01
4.238100e+01
4.239222e+01
4.240038e+01
4.240645e+01
4.241110e+01
4.241477e+01
4.241775e+01
4.242023e+01
4.242235e+01
4.242419e+01
4.242583e+01
4.242732e+01
4.242869e+01
4.242998e+01
4.243120e+01
4.243236e+01
4.243349e+01
4.243459e+01
4.243565e+01
4.243670e+01
4.243771e+01
4.243871e+01
4.243968e+01
4.244063e+01
4.244155e+01
4.244245e+01
4.244332e+01
4.244416e+01
4.244498e+01
4.244578e+01
4.244654e+01
4.244728e+01
4.244799e+01
4.244868e+01
4.244934e+01
4.244998e+01
4.245059e+01
4.245118e+01
4.245174e+01
4.245228e+01
4.245280e+01
4.245329e+01
4.245377e+01
4.245422e+01
4.245465e+01
4.245506e+01
4.245545e+01
4.245582e+01
4.245617e+01
4.245650e+01
4.245681e+01
4.245710e+01
4.245738e+01
4.245763e+01
4.245787e+01
4.245809e+01
4.245829e+01
4.245848e+01
4.245865e+01
4.245880e+01
4.245893e+01
4.245905e+01
4.245915e+01
4.245923e+01
4.245929e+01
4.245934e+01
4.245937e+01
4.245939e+01
4.245938e+01
4.245936e+01
4.245932e+01
4.245927e+01
4.245919e+01
4.245909e+01
4.245897e+01
4.245881e+01
4.245861e+01
4.245832e+01
4.245813e+01
4.245828e+01
4.275450e+01
4.275434e+01
4.271954e+01
4.267942e+01
4.262987e+01
4.256635e+01
4.248442e+01
4.238329e+01
4.225885e+01
4.214948e+01
4.207582e+01
4.203936e+01
4.203350e+01
4.205065e+01
4.208427e+01
4.212874e+01
4.217871e+01
4.222894e+01
4.227474e+01
4.231313e+01
4.234313e+01
4.236537e+01
4.238134e+01
4.239269e+01
4.240083e+01
4.240681e+01
4.241135e+01
4.241493e+01
4.241783e+01
4.242026e+01
4.242233e+01
4.242415e+01
4.242577e+01
4.242724e+01
4.242861e+01
4.242990e+01
4.243112e+01
4.243229e+01
4.243343e+01
4.243453e+01
4.243560e+01
4.243665e+01
4.243768e+01
4.243868e+01
4.243965e+01
4.244060e+01
4.244153e+01
4.244243e+01
4.244330e+01
4.244415e+01
4.244497e+01
4.244576e+01
4.244653e+01
4.244727e+01
4.244798e+01
4.244866e+01
4.244932e+01
4.244996e+01
4.245057e+01
4.245116e+01
4.245172e+01
4.245226e+01
4.245277e+01
4.245327e+01
4.245374e+01
4.245419e+01
4.245462e+01
4.245503e+01
4.245542e+01
4.245578e+01
4.245613e+01
4.245646e+01
4.245678e+01
4.245707e+01
4.245734e+01
4.245760e+01
4.245784e+01
4.245806e+01
4.245826e+01
4.245844e+01
4.245861e+01
4.245876e+01
4.245890e+01
4.245901e+01
4.245911e+01
4.245919e+01
4.245926e+01
4.245931e+01
4.245934e+01
4.245935e+01
4.245935e+01
4.245933e+01
4.245929e+01
4.245923e+01
4.245916e+01
4.245906e+01
4.245894e+01
4.245879e+01
4.245861e+01
4.245841e+01
4.245822e+01
4.245837e+01
4.275311e+01
4.275296e+01
4.272127e+01
4.268385e+01
4.263596e+01
4.257182e+01
4.248499e+01
4.237344e+01
4.222213e+01
4.210272e+01
4.203374e+01
4.200705e+01
4.201011e+01
4.203371e+01
4.207141e+01
4.211812e+01
4.216933e+01
4.222075e+01
4.226828e+01
4.230882e+01
4.234090e+01
4.236475e+01
4.238166e+01
4.239338e+01
4.240155e+01
4.240740e+01
4.241178e+01
4.241520e+01
4.241797e+01
4.242030e+01
4.242230e+01
4.242406e+01
4.242565e+01
4.242711e+01
4.242847e+01
4.242976e+01
4.243099e+01
4.243218e+01
4.243333e+01
4.243445e+01
4.243555e+01
4.243661e+01
4.243765e+01
4.243866e+01
4.243965e+01
4.244061e+01
4.244154e+01
4.244244e+01
4.244332e+01
4.244417e+01
4.244499e+01
4.244578e+01
4.244654e+01
4.244728e+01
4.244799e+01
4.244867e+01
4.244933e+01
4.244996e+01
4.245057e+01
4.245115e+01
4.245171e+01
4.245225e+01
4.245276e+01
4.245325e+01
4.245372e+01
4.245417e+01
4.245460e+01
4.245501e+01
4.245539e+01
4.245576e+01
4.245611e+01
4.245644e+01
4.245675e+01
4.245704e+01
4.245731e+01
4.245757e+01
4.245781e+01
4.245803e+01
4.245823e+01
4.245841e+01
4.245858e+01
4.245873e+01
4.245886e+01
4.245898e+01
4.245908e+01
4.245916e+01
4.245922e+01
4.245927e+01
4.245930e+01
4.245932e+01
4.245931e+01
4.245929e+01
4.245926e+01
4.245920e+01
4.245913e+01
4.245903e+01
4.245892e+01
4.245878e+01
4.245863e+01
4.245846e+01
4.245828e+01
4.245844e+01
4.275196e+01
4.275181e+01
4.272504e+01
4.269214e+01
4.264751e+01
4.258309e+01
4.248806e+01
4.235459e+01
4.215109e+01
4.202146e+01
4.196721e+01
4.195937e+01
4.197628e+01
4.200881e+01
4.205190e+01
4.210181e+01
4.215500e+01
4.220813e+01
4.225817e+01
4.230194e+01
4.233724e+01
4.236355e+01
4.238191e+01
4.239423e+01
4.240247e+01
4.240816e+01
4.241231e+01
4.241552e+01
4.241812e+01
4.242031e+01
4.242222e+01
4.242392e+01
4.242548e+01
4.242692e+01
4.242829e+01
4.242959e+01
4.243084e+01
4.243205e+01
4.243323e+01
4.243438e+01
4.243550e+01
4.243658e+01
4.243764e+01
4.243867e+01
4.243967e+01
4.244064e+01
4.244158e+01
4.244249e+01
4.244337e+01
4.244422e+01
4.244504e+01
4.244583e+01
4.244659e+01
4.244732e+01
4.244803e+01
4.244871e+01
4.244936e+01
4.244999e+01
4.245059e+01
4.245117e+01
4.245173e+01
4.245226e+01
4.245277e+01
4.245326e+01
4.245372e+01
4.245417e+01
4.245459e+01
4.245500e+01
4.245538e+01
4.245575e+01
4.245609e+01
4.245642e+01
4.245673e+01
4.245702e+01
4.245729e+01
4.245754e+01
4.245778e+01
4.245800e+01
4.245820e+01
4.245838e+01
4.245855e+01
4.245870e+01
4.245883e+01
4.245895e+01
4.245905e+01
4.245913e+01
4.245919e+01
4.245924e+01
4.245927e+01
4.245929e+01
4.245928e+01
4.245926e+01
4.245923e+01
4.245917e+01
4.245910e+01
4.245901e+01
4.245890e+01
4.245878e+01
4.245864e+01
4.245849e+01
4.245833e+01
4.245848e+01
4.275166e+01
4.275151e+01
4.273165e+01
4.270565e+01
4.266712e+01
4.260451e+01
4.249784e+01
4.231899e+01
4.202306e+01
4.190045e+01
4.187824e+01
4.189855e+01
4.193279e+01
4.197587e+01
4.202547e+01
4.207961e+01
4.213582e+01
4.219135e+01
4.224468e+01
4.229267e+01
4.233217e+01
4.236174e+01
4.238204e+01
4.239518e+01
4.240353e+01
4.240902e+01
4.241290e+01
4.241585e+01
4.241824e+01
4.242028e+01
4.242209e+01
4.242373e+01
4.242526e+01
4.242670e+01
4.242807e+01
4.242940e+01
4.243069e+01
4.243194e+01
4.243315e+01
4.243433e+01
4.243548e+01
4.243660e+01
4.243768e+01
4.243873e+01
4.243974e+01
4.244072e+01
4.244167e+01
4.244258e+01
4.244346e+01
4.244431e+01
4.244512e+01
4.244591e+01
4.244666e+01
4.244739e+01
4.244809e+01
4.244877e+01
4.244941e+01
4.245004e+01
4.245063e+01
4.245121e+01
4.245175e+01
4.245228e+01
4.245279e+01
4.245327e+01
4.245373e+01
4.245417e+01
4.245459e+01
4.245500e+01
4.245538e+01
4.245574e+01
4.245608e+01
4.245641e+01
4.245671e+01
4.245700e+01
4.245727e+01
4.245753e+01
4.245776e+01
4.245798e+01
4.245818e+01
4.245836e+01
4.245853e+01
4.245868e+01
4.245881e+01
4.245892e+01
4.245902e+01
4.245910e+01
4.245917e+01
4.245921e+01
4.245924e+01
4.245926e+01
4.245926e+01
4.245924e+01
4.245920e+01
4.245915e+01
4.245908e+01
4.245899e+01
4.245889e+01
4.245878e+01
4.245865e+01
4.245852e+01
4.245836e+01
4.245851e+01
4.275281e+01
4.275265e+01
4.274167e+01
4.272560e+01
4.269828e+01
4.264505e+01
4.253078e+01
4.227040e+01
4.180345e+01
4.172634e+01
4.176562e+01
4.182532e+01
4.188070e+01
4.193578e+01
4.199270e+01
4.205210e+01
4.211265e+01
4.217159e+01
4.222905e+01
4.228236e+01
4.232693e+01
4.236019e+01
4.238252e+01
4.239638e+01
4.240474e+01
4.240995e+01
4.241350e+01
4.241617e+01
4.241834e+01
4.242023e+01
4.242195e+01
4.242353e+01
4.242504e+01
4.242648e+01
4.242789e+01
4.242925e+01
4.243058e+01
4.243188e+01
4.243314e+01
4.243436e+01
4.243554e+01
4.243668e+01
4.243779e+01
4.243885e+01
4.243988e+01
4.244086e+01
4.244181e+01
4.244272e+01
4.244360e+01
4.244444e+01
4.244525e+01
4.244603e+01
4.244678e+01
4.244750e+01
4.244819e+01
4.244885e+01
4.244949e+01
4.245010e+01
4.245069e+01
4.245126e+01
4.245180e+01
4.245232e+01
4.245282e+01
4.245330e+01
4.245375e+01
4.245419e+01
4.245461e+01
4.245500e+01
4.245538e+01
4.245574e+01
4.245608e+01
4.245640e+01
4.245671e+01
4.245699e+01
4.245726e+01
4.245751e+01
4.245774e+01
4.245796e+01
4.245816e+01
4.245834e+01
4.245851e+01
4.245865e+01
4.245878e+01
4.245890e+01
4.245900e+01
4.245908e+01
4.245914e+01
4.245919e+01
4.245922e+01
4.245923e+01
4.245923e+01
4.245921e+01
4.245918e+01
4.245913e+01
4.245906e+01
4.245898e+01
4.245888e+01
4.245877e+01
4.245865e+01
4.245853e+01
4.245838e+01
4.245853e+01
4.275567e+01
4.275552e+01
4.275487e+01
4.275177e+01
4.274299e+01
4.271677e+01
4.263203e+01
4.233261e+01
4.143353e+01
4.149500e+01
4.164520e+01
4.174822e+01
4.182512e+01
4.189255e+01
4.195697e+01
4.202235e+01
4.208862e+01
4.215238e+01
4.221455e+01
4.227423e+01
4.232434e+01
4.236089e+01
4.238440e+01
4.239825e+01
4.240622e+01
4.241099e+01
4.241415e+01
4.241654e+01
4.241850e+01
4.242022e+01
4.242183e+01
4.242338e+01
4.242489e+01
4.242636e+01
4.242781e+01
4.242923e+01
4.243061e+01
4.243195e+01
4.243325e+01
4.243451e+01
4.243572e+01
4.243688e+01
4.243800e+01
4.243907e+01
4.244010e+01
4.244108e+01
4.244202e+01
4.244293e+01
4.244379e+01
4.244463e+01
4.244542e+01
4.244619e+01
4.244693e+01
4.244763e+01
4.244831e+01
4.244897e+01
4.244959e+01
4.245020e+01
4.245077e+01
4.245133e+01
4.245186e+01
4.245238e+01
4.245287e+01
4.245334e+01
4.245379e+01
4.245422e+01
4.245463e+01
4.245502e+01
4.245539e+01
4.245575e+01
4.245608e+01
4.245640e+01
4.245670e+01
4.245699e+01
4.245725e+01
4.245750e+01
4.245773e+01
4.245795e+01
4.245814e+01
4.245832e+01
4.245849e+01
4.245863e+01
4.245876e+01
4.245888e+01
4.245897e+01
4.245906e+01
4.245912e+01
4.245917e+01
4.245920e+01
4.245921e+01
4.245921e+01
4.245919e+01
4.245916e+01
4.245911e+01
4.245904e+01
4.245896e+01
4.245887e+01
4.245877e+01
4.245865e+01
4.245854e+01
4.245839e+01
4.245854e+01
4.276000e+01
4.275985e+01
4.276959e+01
4.278063e+01
4.279530e+01
4.281467e+01
4.283135e+01
4.291542e+01
4.217463e+01
4.155099e+01
4.160667e+01
4.171327e+01
4.179696e+01
4.187117e+01
4.193770e+01
4.200518e+01
4.207471e+01
4.214212e+01
4.220659e+01
4.227158e+01
4.232657e+01
4.236548e+01
4.238907e+01
4.240187e+01
4.240878e+01
4.241263e+01
4.241500e+01
4.241690e+01
4.241860e+01
4.242023e+01
4.242183e+01
4.242340e+01
4.242496e+01
4.242649e+01
4.242799e+01
4.242946e+01
4.243088e+01
4.243225e+01
4.243358e+01
4.243485e+01
4.243607e+01
4.243723e+01
4.243834e+01
4.243940e+01
4.244042e+01
4.244139e+01
4.244232e+01
4.244320e+01
4.244405e+01
4.244487e+01
4.244565e+01
4.244639e+01
4.244711e+01
4.244780e+01
4.244847e+01
4.244910e+01
4.244972e+01
4.245031e+01
4.245087e+01
4.245142e+01
4.245194e+01
4.245244e+01
4.245292e+01
4.245339e+01
4.245383e+01
4.245425e+01
4.245466e+01
4.245504e+01
4.245541e+01
4.245576e+01
4.245609e+01
4.245641e+01
4.245671e+01
4.245699e+01
4.245725e+01
4.245750e+01
4.245772e+01
4.245794e+01
4.245813e+01
4.245831e+01
4.245847e+01
4.245862e+01
4.245875e+01
4.245886e+01
4.245896e+01
4.245904e+01
4.245910e+01
4.245915e+01
4.245918e+01
4.245919e+01
4.245919e+01
4.245917e+01
4.245914e+01
4.245909e+01
4.245903e+01
4.245895e+01
4.245886e+01
4.245876e+01
4.245865e+01
4.245854e+01
4.245839e+01
4.245855e+01
4.276506e+01
4.276491e+01
4.278307e+01
4.280550e+01
4.283865e+01
4.289297e+01
4.298639e+01
4.312254e+01
4.315923e+01
0.000000e+00
4.173617e+01
4.173602e+01
4.179930e+01
4.187559e+01
4.194524e+01
4.200962e+01
4.207689e+01
4.214319e+01
4.220557e+01
4.227152e+01
4.232741e+01
4.236623e+01
4.238979e+01
4.240249e+01
4.240858e+01
4.241222e+01
4.241484e+01
4.241698e+01
4.241888e+01
4.242065e+01
4.242234e+01
4.242397e+01
4.242557e+01
4.242713e+01
4.242864e+01
4.243011e+01
4.243152e+01
4.243289e+01
4.243419e+01
4.243544e+01
4.243663e+01
4.243776e+01
4.243884e+01
4.243987e+01
4.244086e+01
4.244180e+01
4.244269e+01
4.244355e+01
4.244437e+01
4.244516e+01
4.244591e+01
4.244664e+01
4.244733e+01
4.244800e+01
4.244865e+01
4.244927e+01
4.244986e+01
4.245044e+01
4.245099e+01
4.245152e+01
4.245203e+01
4.245252e+01
4.245299e+01
4.245344e+01
4.245388e+01
4.245429e+01
4.245469e+01
4.245507e+01
4.245543e+01
4.245578e+01
4.245611e+01
4.245642e+01
4.245671e+01
4.245699e+01
4.245725e+01
4.245749e+01
4.245772e+01
4.245793e+01
4.245812e+01
4.245830e+01
4.245846e+01
4.245861e+01
4.245873e+01
4.245885e+01
4.245894e+01
4.245902e+01
4.245908e+01
4.245913e+01
4.245916e+01
4.245917e+01
4.245917e+01
4.245915e+01
4.245912e+01
4.245907e+01
4.245901e+01
4.245894e+01
4.245885e+01
4.245875e+01
4.245865e+01
4.245854e+01
4.245839e+01
4.245854e+01
4.276996e+01
4.276981e+01
4.279295e+01
4.282124e+01
4.286119e+01
4.292102e+01
4.300821e+01
4.311522e+01
4.319560e+01
4.319576e+01
0.000000e+00
4.187786e+01
4.187770e+01
4.191256e+01
4.196460e+01
4.202664e+01
4.208904e+01
4.214893e+01
4.220736e+01
4.226728e+01
4.231711e+01
4.235356e+01
4.237666e+01
4.239177e+01
4.240217e+01
4.240917e+01
4.241394e+01
4.241735e+01
4.241994e+01
4.242203e+01
4.242383e+01
4.242548e+01
4.242702e+01
4.242850e+01
4.242993e+01
4.243131e+01
4.243264e+01
4.243391e+01
4.243514e+01
4.243631e+01
4.243742e+01
4.243849e+01
4.243951e+01
4.244049e+01
4.244142e+01
4.244230e+01
4.244316e+01
4.244397e+01
4.244475e+01
4.244550e+01
4.244623e+01
4.244692e+01
4.244759e+01
4.244823e+01
4.244885e+01
4.244945e+01
4.245002e+01
4.245058e+01
4.245111e+01
4.245163e+01
4.245213e+01
4.245261e+01
4.245307e+01
4.245351e+01
4.245393e+01
4.245434e+01
4.245473e+01
4.245511e+01
4.245546e+01
4.245580e+01
4.245613e+01
4.245643e+01
4.245672e+01
4.245700e+01
4.245725e+01
4.245749e+01
4.245772e+01
4.245793e+01
4.245812e+01
4.245829e+01
4.245845e+01
4.245860e+01
4.245872e+01
4.245883e+01
4.245893e+01
4.245901e+01
4.245907e+01
4.245911e+01
4.245914e+01
4.245916e+01
4.245916e+01
4.245914e+01
4.245911e+01
4.245906e+01
4.245900e+01
4.245892e+01
4.245884e+01
4.245874e+01
4.245864e+01
4.245853e+01
4.245838e+01
4.245854e+01
4.277411e+01
4.277396e+01
4.279844e+01
4.282744e+01
4.286576e+01
4.291780e+01
4.298651e+01
4.306026e+01
4.308531e+01
4.290436e+01
4.290451e+01
0.000000e+00
4.194025e+01
4.200249e+01
4.202070e+01
4.206465e+01
4.211454e+01
4.216060e+01
4.220304e+01
4.224384e+01
4.228328e+01
4.232067e+01
4.235320e+01
4.237803e+01
4.239490e+01
4.240589e+01
4.241315e+01
4.241817e+01
4.242171e+01
4.242428e+01
4.242625e+01
4.242787e+01
4.242929e+01
4.243060e+01
4.243185e+01
4.243304e+01
4.243420e+01
4.243531e+01
4.243639e+01
4.243744e+01
4.243844e+01
4.243940e+01
4.244033e+01
4.244122e+01
4.244208e+01
4.244290e+01
4.244369e+01
4.244445e+01
4.244519e+01
4.244589e+01
4.244657e+01
4.244723e+01
4.244787e+01
4.244848e+01
4.244907e+01
4.244965e+01
4.245020e+01
4.245073e+01
4.245125e+01
4.245175e+01
4.245223e+01
4.245270e+01
4.245315e+01
4.245358e+01
4.245400e+01
4.245439e+01
4.245478e+01
4.245514e+01
4.245549e+01
4.245583e+01
4.245615e+01
4.245645e+01
4.245673e+01
4.245700e+01
4.245726e+01
4.245750e+01
4.245772e+01
4.245792e+01
4.245811e+01
4.245829e+01
4.245845e+01
4.245859e+01
4.245871e+01
4.245882e+01
4.245892e+01
4.245899e+01
4.245905e+01
4.245910e+01
4.245913e+01
4.245914e+01
4.245914e+01
4.245912e+01
4.245909e+01
4.245904e+01
4.245898e+01
4.245891e+01
4.245882e+01
4.245873e+01
4.245863e+01
4.245852e+01
4.245837e+01
4.245853e+01
4.277731e+01
4.277716e+01
4.280003e+01
4.282603e+01
4.285767e+01
4.289688e+01
4.293856e+01
4.295916e+01
4.291271e+01
4.282429e+01
4.247221e+01
4.218562e+01
4.201752e+01
4.204629e+01
4.207281e+01
4.210832e+01
4.214097e+01
4.217151e+01
4.219238e+01
4.221841e+01
4.225342e+01
4.229764e+01
4.233841e+01
4.236946e+01
4.238906e+01
4.240228e+01
4.241165e+01
4.241838e+01
4.242315e+01
4.242649e+01
4.242885e+01
4.243058e+01
4.243193e+01
4.243308e+01
4.243412e+01
4.243510e+01
4.243605e+01
4.243697e+01
4.243787e+01
4.243875e+01
4.243961e+01
4.244045e+01
4.244126e+01
4.244205e+01
4.244282e+01
4.244356e+01
4.244428e+01
4.244498e+01
4.244565e+01
4.244631e+01
4.244695e+01
4.244756e+01
4.244816e+01
4.244874e+01
4.244931e+01
4.244985e+01
4.245038e+01
4.245090e+01
4.245140e+01
4.245188e+01
4.245234e+01
4.245280e+01
4.245323e+01
4.245365e+01
4.245406e+01
4.245445e+01
4.245482e+01
4.245518e+01
4.245553e+01
4.245586e+01
4.245617e+01
4.245647e+01
4.245675e+01
4.245702e+01
4.245727e+01
4.245750e+01
4.245772e+01
4.245792e+01
4.245811e+01
4.245828e+01
4.245844e+01
4.245858e+01
4.245871e+01
4.245881e+01
4.245891e+01
4.245898e+01
4.245904e+01
4.245909e+01
4.245912e+01
4.245913e+01
4.245913e+01
4.245911e+01
4.245908e+01
4.245903e+01
4.245897e+01
4.245890e+01
4.245881e+01
4.245871e+01
4.245861e+01
4.245850e+01
4.245836e+01
4.245851e+01
4.277967e+01
4.277951e+01
4.279877e+01
4.281956e+01
4.284272e+01
4.286618e+01
4.288116e+01
4.286773e+01
4.279323e+01
4.264687e+01
4.241178e+01
4.189873e+01
4.198844e+01
4.205682e+01
4.209789e+01
4.211932e+01
4.213843e+01
4.216633e+01
4.217964e+01
4.220213e+01
4.224176e+01
4.228969e+01
4.233416e+01
4.236486e+01
4.238582e+01
4.240038e+01
4.241081e+01
4.241842e+01
4.242398e+01
4.242797e+01
4.243078e+01
4.243278e+01
4.243423e+01
4.243536e+01
4.243630e+01
4.243713e+01
4.243791e+01
4.243866e+01
4.243940e+01
4.244012e+01
4.244084e+01
4.244154e+01
4.244224e+01
4.244292e+01
4.244359e+01
4.244425e+01
4.244490e+01
4.244553e+01
4.244614e+01
4.244674e+01
4.244733e+01
4.244790e+01
4.244846e+01
4.244901e+01
4.244954e+01
4.245006e+01
4.245057e+01
4.245106e+01
4.245154e+01
4.245200e+01
4.245246e+01
4.245289e+01
4.245332e+01
4.245373e+01
4.245412e+01
4.245450e+01
4.245487e+01
4.245522e+01
4.245556e+01
4.245589e+01
4.245619e+01
4.245649e+01
4.245676e+01
4.245703e+01
4.245728e+01
4.245751e+01
4.245772e+01
4.245793e+01
4.245811e+01
4.245828e+01
4.245844e+01
4.245858e+01
4.245870e+01
4.245881e+01
4.245890e+01
4.245897e+01
4.245903e+01
4.245908e+01
4.245911e+01
4.245912e+01
4.245912e+01
4.245910e+01
4.245907e+01
4.245902e+01
4.245896e+01
4.245888e+01
4.245879e+01
4.245870e+01
4.245859e+01
4.245848e+01
4.245834e+01
4.245849e+01
4.278139e+01
4.278124e+01
4.279585e+01
4.281072e+01
4.282489e+01
4.283479e+01
4.283241e+01
4.280367e+01
4.272881e+01
4.259076e+01
4.240109e+01
4.213436e+01
4.209931e+01
4.211174e+01
4.212869e+01
4.214032e+01
4.215228e+01
4.216792e+01
4.218289e+01
4.220882e+01
4.224877e+01
4.229549e+01
4.233519e+01
4.236502e+01
4.238665e+01
4.240197e+01
4.241269e+01
4.242020e+01
4.242552e+01
4.242935e+01
4.243216e+01
4.243425e+01
4.243582e+01
4.243704e+01
4.243800e+01
4.243882e+01
4.243953e+01
4.244019e+01
4.244081e+01
4.244142e+01
4.244202e+01
4.244261e+01
4.244320e+01
4.244378e+01
4.244436e+01
4.244494e+01
4.244551e+01
4.244607e+01
4.244662e+01
4.244717e+01
4.244771e+01
4.244824e+01
4.244876e+01
4.244927e+01
4.244978e+01
4.245027e+01
4.245075e+01
4.245122e+01
4.245168e+01
4.245213e+01
4.245256e+01
4.245299e+01
4.245340e+01
4.245380e+01
4.245419e+01
4.245456e+01
4.245492e+01
4.245526e+01
4.245560e+01
4.245591e+01
4.245622e+01
4.245651e+01
4.245678e+01
4.245704e+01
4.245728e+01
4.245751e+01
4.245773e+01
4.245793e+01
4.245811e+01
4.245828e+01
4.245843e+01
4.245857e+01
4.245869e+01
4.245880e+01
4.245889e+01
4.245897e+01
4.245903e+01
4.245907e+01
4.245910e+01
4.245911e+01
4.245911e+01
4.245909e+01
4.245906e+01
4.245901e+01
4.245894e+01
4.245887e+01
4.245878e+01
4.245868e+01
4.245857e+01
4.245845e+01
4.245831e+01
4.245846e+01
4.278271e+01
4.278256e+01
4.279233e+01
4.280138e+01
4.280784e+01
4.280817e+01
4.279615e+01
4.276272e+01
4.269684e+01
4.258811e+01
4.243803e+01
4.226462e+01
4.219425e+01
4.217261e+01
4.216834e+01
4.216897e+01
4.217314e+01
4.218291e+01
4.219860e+01
4.222574e+01
4.226397e+01
4.230528e+01
4.234067e+01
4.236839e+01
4.238893e+01
4.240365e+01
4.241401e+01
4.242131e+01
4.242655e+01
4.243038e+01
4.243323e+01
4.243539e+01
4.243704e+01
4.243832e+01
4.243934e+01
4.244016e+01
4.244086e+01
4.244147e+01
4.244203e+01
4.244256e+01
4.244308e+01
4.244358e+01
4.244408e+01
4.244458e+01
4.244508e+01
4.244558e+01
4.244608e+01
4.244658e+01
4.244708e+01
4.244757e+01
4.244807e+01
4.244856e+01
4.244904e+01
4.244952e+01
4.244999e+01
4.245046e+01
4.245092e+01
4.245137e+01
4.245181e+01
4.245224e+01
4.245266e+01
4.245308e+01
4.245348e+01
4.245387e+01
4.245424e+01
4.245461e+01
4.245496e+01
4.245530e+01
4.245563e+01
4.245594e+01
4.245624e+01
4.245652e+01
4.245680e+01
4.245705e+01
4.245729e+01
4.245752e+01
4.245773e+01
4.245793e+01
4.245811e+01
4.245828e+01
4.245843e+01
4.245857e+01
4.245869e+01
4.245880e+01
4.245889e+01
4.245896e+01
4.245902e+01
4.245906e+01
4.245909e+01
4.245910e+01
4.245910e+01
4.245908e+01
4.245905e+01
4.245900e+01
4.245893e+01
4.245885e+01
4.245876e+01
4.245865e+01
4.245854e+01
4.245842e+01
4.245828e+01
4.245843e+01
4.278380e+01
4.278365e+01
4.278892e+01
4.279290e+01
4.279349e+01
4.278753e+01
4.277046e+01
4.273646e+01
4.267920e+01
4.259283e+01
4.247629e+01
4.234512e+01
4.226604e+01
4.222556e+01
4.220562e+01
4.219627e+01
4.219431e+01
4.220067e+01
4.221666e+01
4.224387e+01
4.227940e+01
4.231603e+01
4.234798e+01
4.237331e+01
4.239218e+01
4.240570e+01
4.241527e+01
4.242213e+01
4.242717e+01
4.243096e+01
4.243387e+01
4.243612e+01
4.243786e+01
4.243923e+01
4.244031e+01
4.244117e+01
4.244189e+01
4.244249e+01
4.244302e+01
4.244351e+01
4.244397e+01
4.244441e+01
4.244484e+01
4.244528e+01
4.244571e+01
4.244615e+01
4.244659e+01
4.244704e+01
4.244749e+01
4.244794e+01
4.244839e+01
4.244884e+01
4.244929e+01
4.244974e+01
4.245019e+01
4.245063e+01
4.245107e+01
4.245150e+01
4.245193e+01
4.245235e+01
4.245275e+01
4.245316e+01
4.245355e+01
4.245393e+01
4.245430e+01
4.245465e+01
4.245500e+01
4.245533e+01
4.245566e+01
4.245596e+01
4.245626e+01
4.245654e+01
4.245681e+01
4.245706e+01
4.245730e+01
4.245753e+01
4.245774e+01
4.245793e+01
4.245812e+01
4.245828e+01
4.245843e+01
4.245857e+01
4.245869e+01
4.245879e+01
4.245888e+01
4.245896e+01
4.245901e+01
4.245906e+01
4.245908e+01
4.245910e+01
4.245909e+01
4.245907e+01
4.245904e+01
4.245899e+01
4.245892e+01
4.245884e+01
4.245874e+01
4.245863e+01
4.245851e+01
4.245838e+01
4.245823e+01
4.245839e+01
4.278467e+01
4.278452e+01
4.278602e+01
4.278601e+01
4.278237e+01
4.277241e+01
4.275270e+01
4.271930e+01
4.266825e+01
4.259627e+01
4.250287e+01
4.239818e+01
4.231886e+01
4.226744e+01
4.223636e+01
4.221873e+01
4.221189e+01
4.221630e+01
4.223252e+01
4.225947e+01
4.229259e+01
4.232577e+01
4.235468e+01
4.237764e+01
4.239476e+01
4.240714e+01
4.241606e+01
4.242261e+01
4.242753e+01
4.243131e+01
4.243426e+01
4.243658e+01
4.243841e+01
4.243985e+01
4.244099e+01
4.244190e+01
4.244264e+01
4.244326e+01
4.244378e+01
4.244425e+01
4.244467e+01
4.244507e+01
4.244546e+01
4.244585e+01
4.244623e+01
4.244662e+01
4.244702e+01
4.244742e+01
4.244783e+01
4.244824e+01
4.244866e+01
4.244908e+01
4.244951e+01
4.244993e+01
4.245036e+01
4.245078e+01
4.245120e+01
4.245162e+01
4.245203e+01
4.245243e+01
4.245283e+01
4.245322e+01
4.245360e+01
4.245398e+01
4.245434e+01
4.245469e+01
4.245503e+01
4.245536e+01
4.245568e+01
4.245598e+01
4.245628e+01
4.245656e+01
4.245682e+01
4.245707e+01
4.245731e+01
4.245753e+01
4.245774e+01
4.245794e+01
4.245812e+01
4.245828e+01
4.245843e+01
4.245857e+01
4.245869e+01
4.245879e+01
4.245888e+01
4.245895e+01
4.245901e+01
4.245905e+01
4.245908e+01
4.245909e+01
4.245909e+01
4.245907e+01
4.245903e+01
4.245898e+01
4.245891e+01
4.245882e+01
4.245872e+01
4.245860e+01
4.245847e+01
4.245833e+01
4.245818e+01
4.245833e+01
4.278534e+01
4.278519e+01
4.278384e+01
4.278093e+01
4.277442e+01
4.276198e+01
4.274091e+01
4.270830e+01
4.266140e+01
4.259827e+01
4.251919e+01
4.243118e+01
4.235531e+01
4.229853e+01
4.225960e+01
4.223559e+01
4.222517e+01
4.222860e+01
4.224521e+01
4.227174e+01
4.230283e+01
4.233339e+01
4.235984e+01
4.238080e+01
4.239652e+01
4.240802e+01
4.241648e+01
4.242283e+01
4.242769e+01
4.243148e+01
4.243447e+01
4.243685e+01
4.243873e+01
4.244023e+01
4.244143e+01
4.244239e+01
4.244316e+01
4.244379e+01
4.244432e+01
4.244478e+01
4.244519e+01
4.244556e+01
4.244592e+01
4.244628e+01
4.244663e+01
4.244699e+01
4.244735e+01
4.244772e+01
4.244809e+01
4.244848e+01
4.244887e+01
4.244927e+01
4.244967e+01
4.245008e+01
4.245049e+01
4.245089e+01
4.245130e+01
4.245170e+01
4.245210e+01
4.245250e+01
4.245289e+01
4.245327e+01
4.245365e+01
4.245402e+01
4.245437e+01
4.245472e+01
4.245506e+01
4.245538e+01
4.245570e+01
4.245600e+01
4.245629e+01
4.245657e+01
4.245683e+01
4.245708e+01
4.245732e+01
4.245754e+01
4.245775e+01
4.245794e+01
4.245812e+01
4.245828e+01
4.245843e+01
4.245857e+01
4.245869e+01
4.245879e+01
4.245888e+01
4.245895e+01
4.245901e+01
4.245905e+01
4.245908e+01
4.245909e+01
4.245908e+01
4.245906e+01
4.245902e+01
4.245897e+01
4.245890e+01
4.245881e+01
4.245870e+01
4.245857e+01
4.245843e+01
4.245827e+01
4.245811e+01
4.245826e+01
4.278581e+01
4.278566e+01
4.278241e+01
4.277763e+01
4.276936e+01
4.275551e+01
4.273380e+01
4.270188e+01
4.265763e+01
4.259973e+01
4.252888e+01
4.245050e+01
4.237787e+01
4.231869e+01
4.227503e+01
4.224681e+01
4.223426e+01
4.223733e+01
4.225409e+01
4.228011e+01
4.230983e+01
4.233856e+01
4.236322e+01
4.238275e+01
4.239749e+01
4.240844e+01
4.241663e+01
4.242286e+01
4.242769e+01
4.243150e+01
4.243453e+01
4.243695e+01
4.243888e+01
4.244043e+01
4.244167e+01
4.244266e+01
4.244346e+01
4.244411e+01
4.244465e+01
4.244511e+01
4.244551e+01
4.244588e+01
4.244622e+01
4.244656e+01
4.244689e+01
4.244722e+01
4.244756e+01
4.244791e+01
4.244827e+01
4.244864e+01
4.244901e+01
4.244940e+01
4.244978e+01
4.245018e+01
4.245057e+01
4.245097e+01
4.245137e+01
4.245176e+01
4.245216e+01
4.245255e+01
4.245293e+01
4.245331e+01
4.245368e+01
4.245404e+01
4.245440e+01
4.245474e+01
4.245507e+01
4.245540e+01
4.245571e+01
4.245601e+01
4.245630e+01
4.245657e+01
4.245684e+01
4.245709e+01
4.245732e+01
4.245754e+01
4.245775e+01
4.245794e+01
4.245812e+01
4.245828e+01
4.245843e+01
4.245857e+01
4.245868e+01
4.245879e+01
4.245888e+01
4.245895e+01
4.245901e+01
4.245905e+01
4.245907e+01
4.245908e+01
4.245908e+01
4.245906e+01
4.245902e+01
4.245896e+01
4.245889e+01
4.245880e+01
4.245869e+01
4.245855e+01
4.245838e+01
4.245819e+01
4.245802e+01
4.245817e+01
4.278606e+01
4.278590e+01
4.278171e+01
4.277602e+01
4.276693e+01
4.275249e+01
4.273061e+01
4.269920e+01
4.265638e+01
4.260107e+01
4.253409e+01
4.246013e+01
4.238922e+01
4.232895e+01
4.228291e+01
4.225264e+01
4.223907e+01
4.224185e+01
4.225846e+01
4.228407e+01
4.231304e+01
4.234086e+01
4.236464e+01
4.238348e+01
4.239778e+01
4.240849e+01
4.241657e+01
4.242277e+01
4.242761e+01
4.243144e+01
4.243449e+01
4.243694e+01
4.243891e+01
4.244048e+01
4.244174e+01
4.244276e+01
4.244357e+01
4.244424e+01
4.244478e+01
4.244525e+01
4.244565e+01
4.244602e+01
4.244636e+01
4.244669e+01
4.244701e+01
4.244734e+01
4.244767e+01
4.244801e+01
4.244836e+01
4.244871e+01
4.244908e+01
4.244946e+01
4.244984e+01
4.245022e+01
4.245061e+01
4.245101e+01
4.245140e+01
4.245179e+01
4.245218e+01
4.245257e+01
4.245295e+01
4.245332e+01
4.245369e+01
4.245405e+01
4.245441e+01
4.245475e+01
4.245508e+01
4.245541e+01
4.245572e+01
4.245602e+01
4.245630e+01
4.245658e+01
4.245684e+01
4.245709e+01
4.245732e+01
4.245754e+01
4.245775e+01
4.245794e+01
4.245812e+01
4.245828e+01
4.245843e+01
4.245857e+01
4.245868e+01
4.245879e+01
4.245888e+01
4.245895e+01
4.245901e+01
4.245905e+01
4.245907e+01
4.245908e+01
4.245908e+01
4.245906e+01
4.245902e+01
4.245896e+01
4.245889e+01
4.245879e+01
4.245868e+01
4.245853e+01
4.245834e+01
4.245807e+01
4.245791e+01
4.245806e+01
0.000000e+00
4.278606e+01
4.278186e+01
4.277617e+01
4.276708e+01
4.275264e+01
4.273077e+01
4.269935e+01
4.265653e+01
4.260122e+01
4.253424e+01
4.246029e+01
4.238937e+01
4.232911e+01
4.228306e+01
4.225279e+01
4.223922e+01
4.224200e+01
4.225862e+01
4.228423e+01
4.231319e+01
4.234101e+01
4.236479e+01
4.238363e+01
4.239793e+01
4.240865e+01
4.241673e+01
4.242292e+01
4.242776e+01
4.243159e+01
4.243464e+01
4.243709e+01
4.243906e+01
4.244063e+01
4.244190e+01
4.244291e+01
4.244373e+01
4.244439e+01
4.244494e+01
4.244540e+01
4.244581e+01
4.244617e+01
4.244651e+01
4.244684e+01
4.244716e+01
4.244749e+01
4.244782e+01
4.244816e+01
4.244851e+01
4.244887e+01
4.244923e+01
4.244961e+01
4.244999e+01
4.245038e+01
4.245077e+01
4.245116e+01
4.245155e+01
4.245194e+01
4.245233e+01
4.245272e+01
4.245310e+01