# vtk DataFile Version 3.0
Scalar Field
ASCII
DATASET RECTILINEAR_GRID
DIMENSIONS 102 22 1
X_COORDINATES 102 double
0.000000 0.100000 0.200000 0.300000 0.400000 0.500000 0.600000 0.700000 0.800000 0.900000 1.000000 1.100000 1.200000 1.300000 1.400000 1.500000 1.600000 1.700000 1.800000 1.900000 2.000000 2.100000 2.200000 2.300000 2.400000 2.500000 2.600000 2.700000 2.800000 2.900000 3.000000 3.100000 3.200000 3.300000 3.400000 3.500000 3.600000 3.700000 3.800000 3.900000 4.000000 4.100000 4.200000 4.300000 4.400000 4.500000 4.600000 4.700000 4.800000 4.900000 5.000000 5.100000 5.200000 5.300000 5.400000 5.500000 5.600000 5.700000 5.800000 5.900000 6.000000 6.100000 6.200000 6.300000 6.400000 6.500000 6.600000 6.700000 6.800000 6.900000 7.000000 7.100000 7.200000 7.300000 7.400000 7.500000 7.600000 7.700000 7.800000 7.900000 8.000000 8.100000 8.200000 8.300000 8.400000 8.500000 8.600000 8.700000 8.800000 8.900000 9.000000 9.100000 9.200000 9.300000 9.400000 9.500000 9.600000 9.700000 9.800000 9.900000 10.000000 10.100000 
Y_COORDINATES 22 double
0.000000 0.100000 0.200000 0.300000 0.400000 0.500000 0.600000 0.700000 0.800000 0.900000 1.000000 1.100000 1.200000 1.300000 1.400000 1.500000 1.600000 1.700000 1.800000 1.900000 2.000000 2.100000 
Z_COORDINATES 1 double
0.0
POINT_DATA 2244
SCALARS Pressure double 1
LOOKUP_TABLE default
0.000000e+00
3.234320e+01
3.231046e+01
3.227315e+01
3.222739e+01
3.216921e+01
3.209483e+01
3.200298e+01
3.189339e+01
3.178759e+01
3.170233e+01
3.164248e+01
3.160559e+01
3.158667e+01
3.158115e+01
3.158549e+01
3.159722e+01
3.161467e+01
3.163673e+01
3.166272e+01
3.169230e+01
3.172518e+01
3.176079e+01
3.179781e+01
3.183372e+01
3.186503e+01
3.188656e+01
3.189365e+01
3.188517e+01
3.186497e+01
3.183987e+01
3.181674e+01
3.180039e+01
3.179295e+01
3.179461e+01
3.180491e+01
3.182308e+01
3.184797e+01
3.187809e+01
3.191158e+01
3.194639e+01
3.198042e+01
3.201165e+01
3.203818e+01
3.205896e+01
3.207403e+01
3.208448e+01
3.209192e+01
3.209777e+01
3.210356e+01
3.210952e+01
3.211474e+01
3.211769e+01
3.211634e+01
3.210850e+01
3.209240e+01
3.206736e+01
3.203460e+01
3.199686e+01
3.195802e+01
3.192255e+01
3.189457e+01
3.187690e+01
3.187042e+01
3.187317e+01
3.188266e+01
3.189772e+01
3.191705e+01
3.193891e+01
3.196112e+01
3.198133e+01
3.199763e+01
3.200913e+01
3.201628e+01
3.202021e+01
3.202219e+01
3.202315e+01
3.202371e+01
3.202416e+01
3.202464e+01
3.202517e+01
3.202574e+01
3.202632e+01
3.202690e+01
3.202746e+01
3.202799e+01
3.202848e+01
3.202893e+01
3.202936e+01
3.202976e+01
3.203014e+01
3.203051e+01
3.203087e+01
3.203124e+01
3.203161e+01
3.203200e+01
3.203238e+01
3.203275e+01
3.203307e+01
3.203325e+01
3.203347e+01
0.000000e+00
3.234320e+01
3.234282e+01
3.231007e+01
3.227277e+01
3.222701e+01
3.216882e+01
3.209445e+01
3.200259e+01
3.189301e+01
3.178721e+01
3.170195e+01
3.164210e+01
3.160520e+01
3.158629e+01
3.158077e+01
3.158510e+01
3.159683e+01
3.161428e+01
3.163634e+01
3.166234e+01
3.169192e+01
3.172480e+01
3.176041e+01
3.179742e+01
3.183334e+01
3.186464e+01
3.188618e+01
3.189327e+01
3.188479e+01
3.186459e+01
3.183949e+01
3.181636e+01
3.180000e+01
3.179257e+01
3.179422e+01
3.180452e+01
3.182269e+01
3.184759e+01
3.187771e+01
3.191120e+01
3.194600e+01
3.198004e+01
3.201126e+01
3.203779e+01
3.205857e+01
3.207364e+01
3.208409e+01
3.209154e+01
3.209738e+01
3.210317e+01
3.210914e+01
3.211436e+01
3.211730e+01
3.211595e+01
3.210812e+01
3.209201e+01
3.206697e+01
3.203422e+01
3.199647e+01
3.195763e+01
3.192216e+01
3.189418e+01
3.187651e+01
3.187003e+01
3.187278e+01
3.188227e+01
3.189733e+01
3.191666e+01
3.193853e+01
3.196073e+01
3.198094e+01
3.199724e+01
3.200874e+01
3.201589e+01
3.201983e+01
3.202180e+01
3.202276e+01
3.202332e+01
3.202377e+01
3.202425e+01
3.202478e+01
3.202535e+01
3.202594e+01
3.202651e+01
3.202707e+01
3.202760e+01
3.202809e+01
3.202855e+01
3.202897e+01
3.202937e+01
3.202975e+01
3.203012e+01
3.203048e+01
3.203085e+01
3.203122e+01
3.203161e+01
3.203200e+01
3.203237e+01
3.203268e+01
3.203286e+01
3.203308e+01
3.203347e+01
3.234240e+01
3.234202e+01
3.231078e+01
3.227471e+01
3.222968e+01
3.217122e+01
3.209485e+01
3.199903e+01
3.187957e+01
3.176922e+01
3.168507e+01
3.162861e+01
3.159517e+01
3.157893e+01
3.157516e+01
3.158056e+01
3.159290e+01
3.161066e+01
3.163278e+01
3.165860e+01
3.168777e+01
3.172008e+01
3.175512e+01
3.179205e+01
3.182908e+01
3.186273e+01
3.188762e+01
3.189811e+01
3.189164e+01
3.187152e+01
3.184467e+01
3.181869e+01
3.179976e+01
3.179082e+01
3.179157e+01
3.180132e+01
3.181907e+01
3.184358e+01
3.187335e+01
3.190652e+01
3.194102e+01
3.197478e+01
3.200602e+01
3.203276e+01
3.205392e+01
3.206943e+01
3.208022e+01
3.208782e+01
3.209369e+01
3.209896e+01
3.210393e+01
3.210783e+01
3.210933e+01
3.210692e+01
3.209862e+01
3.208261e+01
3.205804e+01
3.202628e+01
3.199006e+01
3.195306e+01
3.191945e+01
3.189303e+01
3.187641e+01
3.187063e+01
3.187438e+01
3.188435e+01
3.189952e+01
3.191843e+01
3.193910e+01
3.195932e+01
3.197722e+01
3.199188e+01
3.200282e+01
3.201029e+01
3.201500e+01
3.201792e+01
3.201981e+01
3.202116e+01
3.202223e+01
3.202318e+01
3.202404e+01
3.202485e+01
3.202561e+01
3.202630e+01
3.202694e+01
3.202752e+01
3.202805e+01
3.202853e+01
3.202896e+01
3.202937e+01
3.202975e+01
3.203011e+01
3.203047e+01
3.203083e+01
3.203121e+01
3.203159e+01
3.203200e+01
3.203240e+01
3.203277e+01
3.203306e+01
3.203322e+01
3.203361e+01
3.234148e+01
3.234110e+01
3.231300e+01
3.227976e+01
3.223670e+01
3.217823e+01
3.209795e+01
3.199288e+01
3.184964e+01
3.173075e+01
3.165062e+01
3.160196e+01
3.157581e+01
3.156493e+01
3.156448e+01
3.157182e+01
3.158524e+01
3.160350e+01
3.162570e+01
3.165120e+01
3.167964e+01
3.171085e+01
3.174474e+01
3.178108e+01
3.181946e+01
3.185811e+01
3.189063e+01
3.190870e+01
3.190567e+01
3.188502e+01
3.185501e+01
3.182418e+01
3.180016e+01
3.178799e+01
3.178679e+01
3.179533e+01
3.181213e+01
3.183570e+01
3.186444e+01
3.189661e+01
3.193025e+01
3.196341e+01
3.199440e+01
3.202149e+01
3.204351e+01
3.206013e+01
3.207195e+01
3.208022e+01
3.208634e+01
3.209135e+01
3.209540e+01
3.209789e+01
3.209816e+01
3.209479e+01
3.208610e+01
3.207051e+01
3.204704e+01
3.201680e+01
3.198278e+01
3.194831e+01
3.191720e+01
3.189290e+01
3.187782e+01
3.187305e+01
3.187797e+01
3.188824e+01
3.190291e+01
3.192048e+01
3.193907e+01
3.195674e+01
3.197209e+01
3.198505e+01
3.199520e+01
3.200276e+01
3.200832e+01
3.201238e+01
3.201540e+01
3.201775e+01
3.201965e+01
3.202125e+01
3.202263e+01
3.202383e+01
3.202488e+01
3.202579e+01
3.202659e+01
3.202729e+01
3.202790e+01
3.202843e+01
3.202889e+01
3.202931e+01
3.202970e+01
3.203006e+01
3.203042e+01
3.203077e+01
3.203114e+01
3.203154e+01
3.203196e+01
3.203241e+01
3.203287e+01
3.203328e+01
3.203353e+01
3.203392e+01
3.234087e+01
3.234049e+01
3.231730e+01
3.228871e+01
3.224935e+01
3.219154e+01
3.210476e+01
3.198042e+01
3.179144e+01
3.166496e+01
3.159767e+01
3.156351e+01
3.154870e+01
3.154543e+01
3.154943e+01
3.155933e+01
3.157415e+01
3.159307e+01
3.161536e+01
3.164045e+01
3.166797e+01
3.169786e+01
3.173037e+01
3.176596e+01
3.180523e+01
3.184894e+01
3.189240e+01
3.192364e+01
3.192815e+01
3.190594e+01
3.187042e+01
3.183286e+01
3.180194e+01
3.178398e+01
3.177978e+01
3.178651e+01
3.180199e+01
3.182431e+01
3.185183e+01
3.188287e+01
3.191555e+01
3.194798e+01
3.197846e+01
3.200568e+01
3.202856e+01
3.204651e+01
3.205973e+01
3.206911e+01
3.207577e+01
3.208062e+01
3.208416e+01
3.208561e+01
3.208458e+01
3.208031e+01
3.207159e+01
3.205706e+01
3.203571e+01
3.200809e+01
3.197729e+01
3.194625e+01
3.191834e+01
3.189664e+01
3.188337e+01
3.187959e+01
3.188520e+01
3.189532e+01
3.190895e+01
3.192468e+01
3.194085e+01
3.195593e+01
3.196899e+01
3.198037e+01
3.198971e+01
3.199713e+01
3.200297e+01
3.200759e+01
3.201130e+01
3.201434e+01
3.201689e+01
3.201906e+01
3.202091e+01
3.202249e+01
3.202385e+01
3.202500e+01
3.202598e+01
3.202681e+01
3.202751e+01
3.202811e+01
3.202862e+01
3.202906e+01
3.202946e+01
3.202983e+01
3.203019e+01
3.203055e+01
3.203093e+01
3.203134e+01
3.203180e+01
3.203232e+01
3.203290e+01
3.203351e+01
3.203414e+01
3.203453e+01
3.234109e+01
3.234070e+01
3.232431e+01
3.230269e+01
3.226987e+01
3.221511e+01
3.211946e+01
3.195585e+01
3.168662e+01
3.156891e+01
3.152813e+01
3.151495e+01
3.151516e+01
3.152126e+01
3.153048e+01
3.154337e+01
3.155985e+01
3.157956e+01
3.160199e+01
3.162666e+01
3.165324e+01
3.168180e+01
3.171314e+01
3.174827e+01
3.178823e+01
3.183352e+01
3.188359e+01
3.193412e+01
3.195510e+01
3.193540e+01
3.189157e+01
3.184402e+01
3.180561e+01
3.178113e+01
3.177247e+01
3.177706e+01
3.179092e+01
3.181172e+01
3.183775e+01
3.186740e+01
3.189894e+01
3.193050e+01
3.196032e+01
3.198740e+01
3.201088e+01
3.202992e+01
3.204447e+01
3.205514e+01
3.206270e+01
3.206773e+01
3.207070e+01
3.207095e+01
3.206860e+01
3.206369e+01
3.205553e+01
3.204294e+01
3.202483e+01
3.200108e+01
3.197459e+01
3.194785e+01
3.192377e+01
3.190507e+01
3.189376e+01
3.189081e+01
3.189607e+01
3.190549e+01
3.191756e+01
3.193107e+01
3.194470e+01
3.195728e+01
3.196829e+01
3.197813e+01
3.198654e+01
3.199356e+01
3.199939e+01
3.200424e+01
3.200830e+01
3.201175e+01
3.201469e+01
3.201721e+01
3.201937e+01
3.202120e+01
3.202276e+01
3.202408e+01
3.202519e+01
3.202611e+01
3.202688e+01
3.202753e+01
3.202808e+01
3.202855e+01
3.202897e+01
3.202936e+01
3.202973e+01
3.203011e+01
3.203051e+01
3.203095e+01
3.203147e+01
3.203207e+01
3.203281e+01
3.203370e+01
3.203497e+01
3.203536e+01
3.234256e+01
3.234218e+01
3.233437e+01
3.232252e+01
3.230111e+01
3.225683e+01
3.215706e+01
3.192296e+01
3.150344e+01
3.143333e+01
3.144601e+01
3.146150e+01
3.147884e+01
3.149429e+01
3.150862e+01
3.152459e+01
3.154287e+01
3.156351e+01
3.158617e+01
3.161039e+01
3.163597e+01
3.166317e+01
3.169313e+01
3.172750e+01
3.176772e+01
3.181427e+01
3.186557e+01
3.191683e+01
3.195689e+01
3.195216e+01
3.191283e+01
3.185722e+01
3.181354e+01
3.178467e+01
3.177222e+01
3.177355e+01
3.178545e+01
3.180382e+01
3.182739e+01
3.185480e+01
3.188446e+01
3.191454e+01
3.194314e+01
3.196937e+01
3.199297e+01
3.201284e+01
3.202862e+01
3.204045e+01
3.204857e+01
3.205321e+01
3.205483e+01
3.205353e+01
3.204982e+01
3.204463e+01
3.203779e+01
3.202821e+01
3.201455e+01
3.199610e+01
3.197496e+01
3.195326e+01
3.193345e+01
3.191791e+01
3.190843e+01
3.190586e+01
3.190999e+01
3.191798e+01
3.192798e+01
3.193901e+01
3.195006e+01
3.196030e+01
3.196939e+01
3.197774e+01
3.198515e+01
3.199162e+01
3.199723e+01
3.200207e+01
3.200626e+01
3.200988e+01
3.201301e+01
3.201571e+01
3.201802e+01
3.201998e+01
3.202165e+01
3.202304e+01
3.202421e+01
3.202518e+01
3.202600e+01
3.202668e+01
3.202726e+01
3.202777e+01
3.202822e+01
3.202864e+01
3.202905e+01
3.202947e+01
3.202991e+01
3.203039e+01
3.203097e+01
3.203167e+01
3.203256e+01
3.203374e+01
3.203583e+01
3.203622e+01
3.234545e+01
3.234506e+01
3.234705e+01
3.234762e+01
3.234424e+01
3.232680e+01
3.225793e+01
3.198892e+01
3.117864e+01
3.125480e+01
3.137364e+01
3.141813e+01
3.144649e+01
3.146799e+01
3.148567e+01
3.150427e+01
3.152419e+01
3.154580e+01
3.156871e+01
3.159227e+01
3.161620e+01
3.164093e+01
3.166766e+01
3.169703e+01
3.172897e+01
3.176296e+01
3.180558e+01
3.186430e+01
3.190778e+01
3.190784e+01
3.188963e+01
3.186083e+01
3.182879e+01
3.180293e+01
3.178755e+01
3.178504e+01
3.179304e+01
3.180776e+01
3.182720e+01
3.185069e+01
3.187689e+01
3.190406e+01
3.193025e+01
3.195421e+01
3.197666e+01
3.199637e+01
3.201258e+01
3.202476e+01
3.203258e+01
3.203614e+01
3.203610e+01
3.203304e+01
3.202834e+01
3.202353e+01
3.201880e+01
3.201321e+01
3.200509e+01
3.199310e+01
3.197817e+01
3.196196e+01
3.194656e+01
3.193404e+01
3.192602e+01
3.192330e+01
3.192580e+01
3.193176e+01
3.193933e+01
3.194775e+01
3.195628e+01
3.196435e+01
3.197166e+01
3.197858e+01
3.198500e+01
3.199084e+01
3.199609e+01
3.200077e+01
3.200491e+01
3.200854e+01
3.201170e+01
3.201442e+01
3.201676e+01
3.201874e+01
3.202041e+01
3.202182e+01
3.202300e+01
3.202399e+01
3.202483e+01
3.202555e+01
3.202617e+01
3.202672e+01
3.202723e+01
3.202770e+01
3.202817e+01
3.202865e+01
3.202914e+01
3.202968e+01
3.203031e+01
3.203108e+01
3.203209e+01
3.203350e+01
3.203637e+01
3.203676e+01
3.234941e+01
3.234903e+01
3.236061e+01
3.237429e+01
3.239287e+01
3.241869e+01
3.244819e+01
3.254760e+01
3.186350e+01
3.132880e+01
3.140203e+01
3.141399e+01
3.143142e+01
3.145280e+01
3.147041e+01
3.149055e+01
3.151047e+01
3.153149e+01
3.155297e+01
3.157365e+01
3.159261e+01
3.160997e+01
3.162778e+01
3.164649e+01
3.166702e+01
3.169475e+01
3.172784e+01
3.176448e+01
3.179292e+01
3.181207e+01
3.182824e+01
3.184131e+01
3.184456e+01
3.183488e+01
3.182117e+01
3.181343e+01
3.181565e+01
3.182513e+01
3.183904e+01
3.185708e+01
3.187819e+01
3.190081e+01
3.192310e+01
3.194328e+01
3.196279e+01
3.198062e+01
3.199551e+01
3.200641e+01
3.201276e+01
3.201482e+01
3.201360e+01
3.200968e+01
3.200519e+01
3.200169e+01
3.199981e+01
3.199873e+01
3.199679e+01
3.199197e+01
3.198376e+01
3.197319e+01
3.196201e+01
3.195214e+01
3.194511e+01
3.194180e+01
3.194236e+01
3.194596e+01
3.195094e+01
3.195676e+01
3.196288e+01
3.196893e+01
3.197466e+01
3.198022e+01
3.198564e+01
3.199079e+01
3.199559e+01
3.199998e+01
3.200392e+01
3.200742e+01
3.201047e+01
3.201312e+01
3.201538e+01
3.201731e+01
3.201893e+01
3.202031e+01
3.202149e+01
3.202249e+01
3.202335e+01
3.202410e+01
3.202478e+01
3.202539e+01
3.202596e+01
3.202650e+01
3.202703e+01
3.202758e+01
3.202814e+01
3.202876e+01
3.202945e+01
3.203029e+01
3.203138e+01
3.203289e+01
3.203608e+01
3.203647e+01
3.235374e+01
3.235335e+01
3.237241e+01
3.239619e+01
3.243115e+01
3.248777e+01
3.258352e+01
3.271733e+01
3.275027e+01
0.000000e+00
3.142631e+01
3.142593e+01
3.144045e+01
3.146086e+01
3.147484e+01
3.149324e+01
3.151241e+01
3.153179e+01
3.155043e+01
3.156697e+01
3.158052e+01
3.159146e+01
3.160048e+01
3.160652e+01
3.161050e+01
3.161681e+01
3.162924e+01
3.165953e+01
3.170449e+01
3.175148e+01
3.179487e+01
3.183309e+01
3.186387e+01
3.187559e+01
3.186961e+01
3.185774e+01
3.185170e+01
3.185430e+01
3.186185e+01
3.187330e+01
3.188797e+01
3.190450e+01
3.192122e+01
3.193642e+01
3.195067e+01
3.196417e+01
3.197544e+01
3.198325e+01
3.198717e+01
3.198793e+01
3.198664e+01
3.198397e+01
3.198201e+01
3.198182e+01
3.198362e+01
3.198705e+01
3.199075e+01
3.199269e+01
3.199118e+01
3.198608e+01
3.197876e+01
3.197109e+01
3.196462e+01
3.196044e+01
3.195900e+01
3.196009e+01
3.196248e+01
3.196578e+01
3.196965e+01
3.197379e+01
3.197801e+01
3.198224e+01
3.198663e+01
3.199102e+01
3.199526e+01
3.199924e+01
3.200289e+01
3.200616e+01
3.200904e+01
3.201155e+01
3.201371e+01
3.201554e+01
3.201708e+01
3.201839e+01
3.201954e+01
3.202055e+01
3.202141e+01
3.202220e+01
3.202295e+01
3.202367e+01
3.202437e+01
3.202505e+01
3.202573e+01
3.202641e+01
3.202709e+01
3.202780e+01
3.202856e+01
3.202943e+01
3.203049e+01
3.203190e+01
3.203465e+01
3.203504e+01
3.235767e+01
3.235729e+01
3.238037e+01
3.240879e+01
3.244879e+01
3.250835e+01
3.259384e+01
3.269711e+01
3.278244e+01
3.278283e+01
0.000000e+00
3.149168e+01
3.149129e+01
3.150053e+01
3.151156e+01
3.152515e+01
3.154198e+01
3.155892e+01
3.157378e+01
3.158498e+01
3.159146e+01
3.159268e+01
3.158823e+01
3.157922e+01
3.156523e+01
3.155259e+01
3.154940e+01
3.158599e+01
3.165087e+01
3.172184e+01
3.178578e+01
3.183858e+01
3.188315e+01
3.191313e+01
3.192091e+01
3.191234e+01
3.189980e+01
3.189404e+01
3.189409e+01
3.189808e+01
3.190527e+01
3.191440e+01
3.192392e+01
3.193220e+01
3.193915e+01
3.194591e+01
3.195104e+01
3.195379e+01
3.195445e+01
3.195429e+01
3.195457e+01
3.195675e+01
3.196049e+01
3.196553e+01
3.197186e+01
3.197950e+01
3.198777e+01
3.199509e+01
3.199929e+01
3.199931e+01
3.199566e+01
3.198986e+01
3.198375e+01
3.197870e+01
3.197539e+01
3.197398e+01
3.197387e+01
3.197478e+01
3.197646e+01
3.197868e+01
3.198129e+01
3.198418e+01
3.198745e+01
3.199096e+01
3.199457e+01
3.199810e+01
3.200142e+01
3.200447e+01
3.200715e+01
3.200950e+01
3.201156e+01
3.201337e+01
3.201488e+01
3.201616e+01
3.201733e+01
3.201839e+01
3.201937e+01
3.202032e+01
3.202126e+01
3.202217e+01
3.202304e+01
3.202389e+01
3.202471e+01
3.202549e+01
3.202625e+01
3.202700e+01
3.202776e+01
3.202856e+01
3.202946e+01
3.203055e+01
3.203231e+01
3.203270e+01
3.236076e+01
3.236037e+01
3.238396e+01
3.241206e+01
3.244905e+01
3.249937e+01
3.256621e+01
3.263183e+01
3.266029e+01
3.244047e+01
3.244085e+01
0.000000e+00
3.151884e+01
3.154562e+01
3.155015e+01
3.156607e+01
3.158335e+01
3.159689e+01
3.160525e+01
3.160818e+01
3.160569e+01
3.159763e+01
3.158409e+01
3.156338e+01
3.153365e+01
3.149971e+01
3.149482e+01
3.154547e+01
3.162804e+01
3.171706e+01
3.179569e+01
3.185457e+01
3.190203e+01
3.194186e+01
3.196456e+01
3.196628e+01
3.195451e+01
3.194179e+01
3.193425e+01
3.193056e+01
3.192975e+01
3.193046e+01
3.193120e+01
3.193053e+01
3.192852e+01
3.192558e+01
3.192150e+01
3.191735e+01
3.191488e+01
3.191506e+01
3.192051e+01
3.193034e+01
3.194208e+01
3.195402e+01
3.196548e+01
3.197679e+01
3.198813e+01
3.199874e+01
3.200686e+01
3.201088e+01
3.201051e+01
3.200682e+01
3.200148e+01
3.199588e+01
3.199099e+01
3.198737e+01
3.198494e+01
3.198354e+01
3.198301e+01
3.198320e+01
3.198402e+01
3.198542e+01
3.198745e+01
3.199001e+01
3.199295e+01
3.199606e+01
3.199922e+01
3.200226e+01
3.200494e+01
3.200723e+01
3.200928e+01
3.201102e+01
3.201256e+01
3.201396e+01
3.201529e+01
3.201656e+01
3.201779e+01
3.201897e+01
3.202012e+01
3.202121e+01
3.202224e+01
3.202321e+01
3.202411e+01
3.202495e+01
3.202572e+01
3.202643e+01
3.202709e+01
3.202773e+01
3.202835e+01
3.202897e+01
3.202961e+01
3.203000e+01
3.236293e+01
3.236254e+01
3.238382e+01
3.240810e+01
3.243796e+01
3.247445e+01
3.251067e+01
3.252495e+01
3.247059e+01
3.236400e+01
3.197904e+01
3.168243e+01
3.152551e+01
3.156056e+01
3.157270e+01
3.159558e+01
3.161280e+01
3.162280e+01
3.162754e+01
3.162684e+01
3.161960e+01
3.160556e+01
3.158556e+01
3.155355e+01
3.150740e+01
3.146435e+01
3.147445e+01
3.153920e+01
3.163383e+01
3.173307e+01
3.181610e+01
3.187869e+01
3.192588e+01
3.196454e+01
3.199593e+01
3.201066e+01
3.200759e+01
3.199447e+01
3.198099e+01
3.197042e+01
3.196173e+01
3.195338e+01
3.194394e+01
3.193276e+01
3.191980e+01
3.190582e+01
3.189227e+01
3.188127e+01
3.187455e+01
3.187582e+01
3.188848e+01
3.190755e+01
3.192840e+01
3.194796e+01
3.196452e+01
3.197874e+01
3.199152e+01
3.200318e+01
3.201293e+01
3.201926e+01
3.202118e+01
3.201923e+01
3.201488e+01
3.200948e+01
3.200381e+01
3.199877e+01
3.199448e+01
3.199100e+01
3.198835e+01
3.198655e+01
3.198557e+01
3.198539e+01
3.198614e+01
3.198778e+01
3.199031e+01
3.199319e+01
3.199632e+01
3.199937e+01
3.200214e+01
3.200463e+01
3.200686e+01
3.200887e+01
3.201070e+01
3.201240e+01
3.201400e+01
3.201552e+01
3.201696e+01
3.201833e+01
3.201964e+01
3.202085e+01
3.202196e+01
3.202298e+01
3.202390e+01
3.202471e+01
3.202543e+01
3.202604e+01
3.202655e+01
3.202696e+01
3.202724e+01
3.202736e+01
3.202699e+01
3.202738e+01
3.236436e+01
3.236398e+01
3.238107e+01
3.239974e+01
3.242014e+01
3.243968e+01
3.244929e+01
3.242908e+01
3.234309e+01
3.218158e+01
3.192568e+01
3.138506e+01
3.148971e+01
3.156186e+01
3.159223e+01
3.161758e+01
3.162954e+01
3.163755e+01
3.164212e+01
3.164024e+01
3.163038e+01
3.161283e+01
3.158810e+01
3.154585e+01
3.149070e+01
3.146119e+01
3.148852e+01
3.156369e+01
3.166251e+01
3.176054e+01
3.183992e+01
3.190170e+01
3.194860e+01
3.198450e+01
3.201457e+01
3.203788e+01
3.204686e+01
3.204160e+01
3.202861e+01
3.201351e+01
3.199711e+01
3.197891e+01
3.195885e+01
3.193794e+01
3.191460e+01
3.189008e+01
3.186711e+01
3.184861e+01
3.183694e+01
3.184196e+01
3.186272e+01
3.189121e+01
3.192087e+01
3.194665e+01
3.196734e+01
3.198392e+01
3.199740e+01
3.200852e+01
3.201748e+01
3.202360e+01
3.202606e+01
3.202514e+01
3.202197e+01
3.201757e+01
3.201231e+01
3.200664e+01
3.200107e+01
3.199599e+01
3.199165e+01
3.198820e+01
3.198553e+01
3.198375e+01
3.198317e+01
3.198378e+01
3.198590e+01
3.198893e+01
3.199248e+01
3.199614e+01
3.199955e+01
3.200261e+01
3.200530e+01
3.200768e+01
3.200982e+01
3.201179e+01
3.201361e+01
3.201529e+01
3.201686e+01
3.201832e+01
3.201968e+01
3.202092e+01
3.202204e+01
3.202304e+01
3.202392e+01
3.202467e+01
3.202528e+01
3.202577e+01
3.202610e+01
3.202627e+01
3.202621e+01
3.202585e+01
3.202458e+01
3.202497e+01
3.236535e+01
3.236496e+01
3.237704e+01
3.238920e+01
3.240007e+01
3.240592e+01
3.239850e+01
3.236333e+01
3.227867e+01
3.212639e+01
3.192025e+01
3.163747e+01
3.160255e+01
3.161409e+01
3.162574e+01
3.163701e+01
3.164407e+01
3.164956e+01
3.164945e+01
3.164346e+01
3.163186e+01
3.161536e+01
3.159032e+01
3.154584e+01
3.150197e+01
3.149371e+01
3.153371e+01
3.161107e+01
3.170523e+01
3.179315e+01
3.186529e+01
3.192242e+01
3.196692e+01
3.200085e+01
3.202594e+01
3.204553e+01
3.206001e+01
3.206469e+01
3.205909e+01
3.204545e+01
3.202547e+01
3.200077e+01
3.197305e+01
3.194473e+01
3.191256e+01
3.187891e+01
3.184733e+01
3.182127e+01
3.180685e+01
3.181778e+01
3.184655e+01
3.188315e+01
3.191957e+01
3.194921e+01
3.197250e+01
3.199058e+01
3.200445e+01
3.201468e+01
3.202135e+01
3.202440e+01
3.202470e+01
3.202401e+01
3.202265e+01
3.202009e+01
3.201592e+01
3.201049e+01
3.200450e+01
3.199851e+01
3.199305e+01
3.198819e+01
3.198387e+01
3.198023e+01
3.197799e+01
3.197826e+01
3.198084e+01
3.198485e+01
3.198945e+01
3.199401e+01
3.199815e+01
3.200182e+01
3.200493e+01
3.200760e+01
3.200995e+01
3.201205e+01
3.201395e+01
3.201568e+01
3.201728e+01
3.201874e+01
3.202007e+01
3.202127e+01
3.202234e+01
3.202327e+01
3.202407e+01
3.202472e+01
3.202521e+01
3.202555e+01
3.202570e+01
3.202563e+01
3.202528e+01
3.202452e+01
3.202256e+01
3.202295e+01
3.236611e+01
3.236573e+01
3.237258e+01
3.237855e+01
3.238156e+01
3.237790e+01
3.236121e+01
3.232208e+01
3.224839e+01
3.212814e+01
3.196426e+01
3.177804e+01
3.170197e+01
3.167573e+01
3.166587e+01
3.166228e+01
3.165995e+01
3.165764e+01
3.165276e+01
3.164475e+01
3.163314e+01
3.161759e+01
3.159404e+01
3.156037e+01
3.153755e+01
3.154629e+01
3.159232e+01
3.166526e+01
3.174883e+01
3.182517e+01
3.188935e+01
3.194100e+01
3.198166e+01
3.201332e+01
3.203773e+01
3.205581e+01
3.206842e+01
3.207440e+01
3.207258e+01
3.206225e+01
3.204333e+01
3.201689e+01
3.198529e+01
3.195210e+01
3.191337e+01
3.187263e+01
3.183418e+01
3.180214e+01
3.178991e+01
3.180659e+01
3.184183e+01
3.188417e+01
3.192346e+01
3.195481e+01
3.197897e+01
3.199716e+01
3.201047e+01
3.201960e+01
3.202500e+01
3.202712e+01
3.202713e+01
3.202591e+01
3.202357e+01
3.202000e+01
3.201529e+01
3.200984e+01
3.200419e+01
3.199826e+01
3.199235e+01
3.198654e+01
3.198094e+01
3.197549e+01
3.197297e+01
3.197392e+01
3.197751e+01
3.198260e+01
3.198818e+01
3.199359e+01
3.199832e+01
3.200230e+01
3.200562e+01
3.200842e+01
3.201083e+01
3.201294e+01
3.201481e+01
3.201651e+01
3.201804e+01
3.201942e+01
3.202067e+01
3.202178e+01
3.202275e+01
3.202358e+01
3.202427e+01
3.202480e+01
3.202516e+01
3.202535e+01
3.202533e+01
3.202506e+01
3.202447e+01
3.202344e+01
3.202106e+01
3.202144e+01
3.236667e+01
3.236628e+01
3.236842e+01
3.236918e+01
3.236624e+01
3.235636e+01
3.233488e+01
3.229574e+01
3.223207e+01
3.213687e+01
3.200904e+01
3.186645e+01
3.177954e+01
3.173252e+01
3.170565e+01
3.168913e+01
3.167749e+01
3.166795e+01
3.165828e+01
3.164739e+01
3.163479e+01
3.161988e+01
3.160045e+01
3.158054e+01
3.157499e+01
3.159608e+01
3.164499e+01
3.171240e+01
3.178532e+01
3.185240e+01
3.190963e+01
3.195644e+01
3.199390e+01
3.202360e+01
3.204671e+01
3.206320e+01
3.207364e+01
3.207837e+01
3.207719e+01
3.206889e+01
3.205216e+01
3.202685e+01
3.199463e+01
3.195920e+01
3.191666e+01
3.187147e+01
3.182881e+01
3.179435e+01
3.178732e+01
3.180902e+01
3.184807e+01
3.189263e+01
3.193179e+01
3.196281e+01
3.198638e+01
3.200371e+01
3.201598e+01
3.202408e+01
3.202871e+01
3.203048e+01
3.203024e+01
3.202846e+01
3.202528e+01
3.202079e+01
3.201527e+01
3.200923e+01
3.200309e+01
3.199666e+01
3.199010e+01
3.198351e+01
3.197701e+01
3.197151e+01
3.196979e+01
3.197176e+01
3.197638e+01
3.198240e+01
3.198879e+01
3.199465e+01
3.199964e+01
3.200376e+01
3.200714e+01
3.200992e+01
3.201227e+01
3.201428e+01
3.201603e+01
3.201760e+01
3.201899e+01
3.202024e+01
3.202136e+01
3.202233e+01
3.202317e+01
3.202387e+01
3.202443e+01
3.202483e+01
3.202507e+01
3.202512e+01
3.202496e+01
3.202454e+01
3.202380e+01
3.202262e+01
3.202009e+01
3.202048e+01
3.236714e+01
3.236675e+01
3.236502e+01
3.236169e+01
3.235448e+01
3.234061e+01
3.231658e+01
3.227832e+01
3.222158e+01
3.214242e+01
3.203997e+01
3.192572e+01
3.183823e+01
3.177921e+01
3.174034e+01
3.171368e+01
3.169412e+01
3.167844e+01
3.166439e+01
3.165068e+01
3.163673e+01
3.162216e+01
3.160736e+01
3.159842e+01
3.160518e+01
3.163448e+01
3.168480e+01
3.174776e+01
3.181330e+01
3.187371e+01
3.192566e+01
3.196862e+01
3.200349e+01
3.203150e+01
3.205331e+01
3.206886e+01
3.207859e+01
3.208290e+01
3.208169e+01
3.207403e+01
3.205861e+01
3.203461e+01
3.200274e+01
3.196570e+01
3.192115e+01
3.187370e+01
3.182966e+01
3.179787e+01
3.179646e+01
3.182164e+01
3.186190e+01
3.190555e+01
3.194288e+01
3.197234e+01
3.199442e+01
3.201032e+01
3.202129e+01
3.202837e+01
3.203236e+01
3.203388e+01
3.203343e+01
3.203132e+01
3.202769e+01
3.202269e+01
3.201658e+01
3.200975e+01
3.200265e+01
3.199517e+01
3.198753e+01
3.198002e+01
3.197315e+01
3.196855e+01
3.196803e+01
3.197119e+01
3.197684e+01
3.198365e+01
3.199053e+01
3.199662e+01
3.200172e+01
3.200587e+01
3.200920e+01
3.201188e+01
3.201406e+01
3.201588e+01
3.201744e+01
3.201880e+01
3.202000e+01
3.202107e+01
3.202201e+01
3.202283e+01
3.202352e+01
3.202409e+01
3.202452e+01
3.202480e+01
3.202492e+01
3.202486e+01
3.202459e+01
3.202407e+01
3.202325e+01
3.202206e+01
3.201966e+01
3.202005e+01
3.236755e+01
3.236716e+01
3.236250e+01
3.235622e+01
3.234608e+01
3.232971e+01
3.230431e+01
3.226690e+01
3.221459e+01
3.214511e+01
3.205846e+01
3.196242e+01
3.187902e+01
3.181489e+01
3.176799e+01
3.173376e+01
3.170801e+01
3.168751e+01
3.166990e+01
3.165376e+01
3.163848e+01
3.162432e+01
3.161356e+01
3.161228e+01
3.162757e+01
3.166223e+01
3.171299e+01
3.177255e+01
3.183311e+01
3.188897e+01
3.193731e+01
3.197762e+01
3.201061e+01
3.203721e+01
3.205811e+01
3.207344e+01
3.208349e+01
3.208841e+01
3.208789e+01
3.208104e+01
3.206659e+01
3.204345e+01
3.201152e+01
3.197236e+01
3.192559e+01
3.187624e+01
3.183248e+01
3.180650e+01
3.180997e+01
3.183760e+01
3.187777e+01
3.191913e+01
3.195441e+01
3.198202e+01
3.200239e+01
3.201673e+01
3.202636e+01
3.203241e+01
3.203576e+01
3.203700e+01
3.203634e+01
3.203404e+01
3.203024e+01
3.202504e+01
3.201859e+01
3.201112e+01
3.200294e+01
3.199415e+01
3.198513e+01
3.197661e+01
3.196975e+01
3.196627e+01
3.196706e+01
3.197145e+01
3.197806e+01
3.198551e+01
3.199270e+01
3.199895e+01
3.200410e+01
3.200817e+01
3.201135e+01
3.201384e+01
3.201580e+01
3.201740e+01
3.201873e+01
3.201987e+01
3.202087e+01
3.202175e+01
3.202253e+01
3.202320e+01
3.202376e+01
3.202420e+01
3.202452e+01
3.202470e+01
3.202473e+01
3.202459e+01
3.202424e+01
3.202367e+01
3.202284e+01
3.202171e+01
3.201974e+01
3.202013e+01
3.236786e+01
3.236748e+01
3.236089e+01
3.235269e+01
3.234075e+01
3.232292e+01
3.229685e+01
3.226010e+01
3.221048e+01
3.214655e+01
3.206891e+01
3.198348e+01
3.190407e+01
3.183820e+01
3.178693e+01
3.174795e+01
3.171803e+01
3.169417e+01
3.167402e+01
3.165607e+01
3.163980e+01
3.162617e+01
3.161853e+01
3.162234e+01
3.164245e+01
3.167975e+01
3.173045e+01
3.178792e+01
3.184554e+01
3.189860e+01
3.194465e+01
3.198323e+01
3.201496e+01
3.204072e+01
3.206123e+01
3.207680e+01
3.208750e+01
3.209335e+01
3.209388e+01
3.208814e+01
3.207480e+01
3.205254e+01
3.202049e+01
3.197904e+01
3.192932e+01
3.187755e+01
3.183457e+01
3.181366e+01
3.182106e+01
3.185053e+01
3.189038e+01
3.193002e+01
3.196356e+01
3.198946e+01
3.200828e+01
3.202130e+01
3.202989e+01
3.203518e+01
3.203805e+01
3.203909e+01
3.203834e+01
3.203602e+01
3.203226e+01
3.202710e+01
3.202058e+01
3.201271e+01
3.200358e+01
3.199349e+01
3.198313e+01
3.197370e+01
3.196702e+01
3.196450e+01
3.196643e+01
3.197188e+01
3.197933e+01
3.198725e+01
3.199461e+01
3.200093e+01
3.200606e+01
3.201006e+01
3.201312e+01
3.201545e+01
3.201723e+01
3.201863e+01
3.201977e+01
3.202072e+01
3.202155e+01
3.202227e+01
3.202290e+01
3.202345e+01
3.202390e+01
3.202425e+01
3.202449e+01
3.202459e+01
3.202455e+01
3.202435e+01
3.202397e+01
3.202337e+01
3.202255e+01
3.202151e+01
3.202016e+01
3.202055e+01
3.236804e+01
3.236766e+01
3.236011e+01
3.235098e+01
3.233821e+01
3.231977e+01
3.229349e+01
3.225721e+01
3.220900e+01
3.214774e+01
3.207428e+01
3.199370e+01
3.191646e+01
3.185003e+01
3.179676e+01
3.175545e+01
3.172340e+01
3.169780e+01
3.167630e+01
3.165738e+01
3.164064e+01
3.162745e+01
3.162144e+01
3.162754e+01
3.164956e+01
3.168767e+01
3.173801e+01
3.179437e+01
3.185061e+01
3.190247e+01
3.194760e+01
3.198551e+01
3.201674e+01
3.204214e+01
3.206243e+01
3.207808e+01
3.208930e+01
3.209595e+01
3.209744e+01
3.209274e+01
3.208050e+01
3.205923e+01
3.202749e+01
3.198442e+01
3.193179e+01
3.187728e+01
3.183456e+01
3.181662e+01
3.182647e+01
3.185691e+01
3.189630e+01
3.193493e+01
3.196764e+01
3.199284e+01
3.201103e+01
3.202351e+01
3.203165e+01
3.203662e+01
3.203926e+01
3.204008e+01
3.203927e+01
3.203699e+01
3.203332e+01
3.202827e+01
3.202181e+01
3.201381e+01
3.200417e+01
3.199333e+01
3.198218e+01
3.197238e+01
3.196587e+01
3.196389e+01
3.196641e+01
3.197235e+01
3.198008e+01
3.198810e+01
3.199551e+01
3.200187e+01
3.200701e+01
3.201101e+01
3.201404e+01
3.201631e+01
3.201801e+01
3.201932e+01
3.202035e+01
3.202121e+01
3.202193e+01
3.202257e+01
3.202312e+01
3.202360e+01
3.202399e+01
3.202429e+01
3.202447e+01
3.202454e+01
3.202447e+01
3.202424e+01
3.202383e+01
3.202322e+01
3.202240e+01
3.202140e+01
3.202044e+01
3.202083e+01
0.000000e+00
3.236804e+01
3.236049e+01
3.235136e+01
3.233860e+01
3.232015e+01
3.229388e+01
3.225760e+01
3.220939e+01
3.214813e+01
3.207466e+01
3.199408e+01
3.191684e+01
3.185041e+01
3.179715e+01
3.175583e+01
3.172379e+01
3.169818e+01
3.167669e+01
3.165776e+01
3.164102e+01
3.162783e+01
3.162182e+01
3.162793e+01
3.164994e+01
3.168805e+01
3.173840e+01
3.179476e+01
3.185100e+01
3.190285e+01
3.194798e+01
3.198589e+01
3.201713e+01
3.204252e+01
3.206281e+01
3.207847e+01
3.208969e+01
3.209634e+01
3.209783e+01
3.209313e+01
3.208089e+01
3.205961e+01
3.202788e+01
3.198481e+01
3.193218e+01
3.187767e+01
3.183495e+01
3.181701e+01
3.182686e+01
3.185730e+01
3.189669e+01
3.193532e+01
3.196803e+01
3.199323e+01
3.201142e+01
3.202389e+01
3.203203e+01
3.203700e+01
3.203965e+01
3.204046e+01
3.203965e+01