# vtk DataFile Version 3.0
Scalar Field
ASCII
DATASET RECTILINEAR_GRID
DIMENSIONS 102 22 1
X_COORDINATES 102 double
0.000000 0.100000 0.200000 0.300000 0.400000 0.500000 0.600000 0.700000 0.800000 0.900000 1.000000 1.100000 1.200000 1.300000 1.400000 1.500000 1.600000 1.700000 1.800000 1.900000 2.000000 2.100000 2.200000 2.300000 2.400000 2.500000 2.600000 2.700000 2.800000 2.900000 3.000000 3.100000 3.200000 3.300000 3.400000 3.500000 3.600000 3.700000 3.800000 3.900000 4.000000 4.100000 4.200000 4.300000 4.400000 4.500000 4.600000 4.700000 4.800000 4.900000 5.000000 5.100000 5.200000 5.300000 5.400000 5.500000 5.600000 5.700000 5.800000 5.900000 6.000000 6.100000 6.200000 6.300000 6.400000 6.500000 6.600000 6.700000 6.800000 6.900000 7.000000 7.100000 7.200000 7.300000 7.400000 7.500000 7.600000 7.700000 7.800000 7.900000 8.000000 8.100000 8.200000 8.300000 8.400000 8.500000 8.600000 8.700000 8.800000 8.900000 9.000000 9.100000 9.200000 9.300000 9.400000 9.500000 9.600000 9.700000 9.800000 9.900000 10.000000 10.100000 
Y_COORDINATES 22 double
0.000000 0.100000 0.200000 0.300000 0.400000 0.500000 0.600000 0.700000 0.800000 0.900000 1.000000 1.100000 1.200000 1.300000 1.400000 1.500000 1.600000 1.700000 1.800000 1.900000 2.000000 2.100000 
Z_COORDINATES 1 double
0.0
POINT_DATA 2244
SCALARS Pressure double 1
LOOKUP_TABLE default
0.000000e+00
3.025382e+01
3.022143e+01
3.018333e+01
3.013639e+01
3.007696e+01
3.000263e+01
2.991457e+01
2.982097e+01
2.974835e+01
2.970993e+01
2.970283e+01
2.971679e+01
2.974154e+01
2.976969e+01
2.979686e+01
2.982094e+01
2.984124e+01
2.985787e+01
2.987125e+01
2.988194e+01
2.989051e+01
2.989743e+01
2.990313e+01
2.990793e+01
2.991207e+01
2.991573e+01
2.991906e+01
2.992214e+01
2.992504e+01
2.992780e+01
2.993045e+01
2.993301e+01
2.993549e+01
2.993790e+01
2.994024e+01
2.994250e+01
2.994471e+01
2.994685e+01
2.994892e+01
2.995093e+01
2.995288e+01
2.995477e+01
2.995660e+01
2.995838e+01
2.996009e+01
2.996176e+01
2.996337e+01
2.996492e+01
2.996643e+01
2.996789e+01
2.996930e+01
2.997067e+01
2.997199e+01
2.997327e+01
2.997451e+01
2.997570e+01
2.997685e+01
2.997796e+01
2.997903e+01
2.998007e+01
2.998106e+01
2.998202e+01
2.998293e+01
2.998382e+01
2.998466e+01
2.998547e+01
2.998624e+01
2.998698e+01
2.998768e+01
2.998834e+01
2.998897e+01
2.998956e+01
2.999012e+01
2.999064e+01
2.999113e+01
2.999158e+01
2.999200e+01
2.999239e+01
2.999274e+01
2.999305e+01
2.999333e+01
2.999358e+01
2.999379e+01
2.999397e+01
2.999411e+01
2.999422e+01
2.999429e+01
2.999433e+01
2.999433e+01
2.999431e+01
2.999424e+01
2.999414e+01
2.999401e+01
2.999383e+01
2.999362e+01
2.999337e+01
2.999307e+01
2.999272e+01
2.999227e+01
2.999174e+01
0.000000e+00
3.025382e+01
3.025527e+01
3.022288e+01
3.018477e+01
3.013783e+01
3.007841e+01
3.000408e+01
2.991602e+01
2.982242e+01
2.974980e+01
2.971138e+01
2.970428e+01
2.971823e+01
2.974299e+01
2.977114e+01
2.979831e+01
2.982238e+01
2.984269e+01
2.985932e+01
2.987270e+01
2.988339e+01
2.989196e+01
2.989888e+01
2.990458e+01
2.990938e+01
2.991351e+01
2.991718e+01
2.992051e+01
2.992359e+01
2.992648e+01
2.992925e+01
2.993190e+01
2.993446e+01
2.993694e+01
2.993935e+01
2.994168e+01
2.994395e+01
2.994616e+01
2.994830e+01
2.995037e+01
2.995238e+01
2.995433e+01
2.995622e+01
2.995805e+01
2.995983e+01
2.996154e+01
2.996321e+01
2.996482e+01
2.996637e+01
2.996788e+01
2.996934e+01
2.997075e+01
2.997212e+01
2.997344e+01
2.997472e+01
2.997596e+01
2.997715e+01
2.997830e+01
2.997941e+01
2.998048e+01
2.998152e+01
2.998251e+01
2.998347e+01
2.998438e+01
2.998527e+01
2.998611e+01
2.998692e+01
2.998769e+01
2.998843e+01
2.998913e+01
2.998979e+01
2.999042e+01
2.999101e+01
2.999157e+01
2.999209e+01
2.999258e+01
2.999304e+01
2.999345e+01
2.999384e+01
2.999419e+01
2.999450e+01
2.999478e+01
2.999503e+01
2.999524e+01
2.999542e+01
2.999556e+01
2.999567e+01
2.999574e+01
2.999578e+01
2.999579e+01
2.999576e+01
2.999569e+01
2.999559e+01
2.999546e+01
2.999528e+01
2.999507e+01
2.999482e+01
2.999453e+01
2.999417e+01
2.999372e+01
2.999319e+01
2.999174e+01
3.025250e+01
3.025395e+01
3.022328e+01
3.018664e+01
3.014077e+01
3.008169e+01
3.000643e+01
2.991560e+01
2.981200e+01
2.973284e+01
2.969354e+01
2.968927e+01
2.970723e+01
2.973576e+01
2.976695e+01
2.979627e+01
2.982170e+01
2.984276e+01
2.985971e+01
2.987316e+01
2.988379e+01
2.989224e+01
2.989904e+01
2.990463e+01
2.990934e+01
2.991343e+01
2.991707e+01
2.992038e+01
2.992347e+01
2.992637e+01
2.992915e+01
2.993181e+01
2.993439e+01
2.993688e+01
2.993929e+01
2.994164e+01
2.994391e+01
2.994612e+01
2.994826e+01
2.995033e+01
2.995235e+01
2.995429e+01
2.995618e+01
2.995801e+01
2.995978e+01
2.996150e+01
2.996316e+01
2.996476e+01
2.996632e+01
2.996783e+01
2.996928e+01
2.997069e+01
2.997206e+01
2.997338e+01
2.997465e+01
2.997589e+01
2.997708e+01
2.997823e+01
2.997934e+01
2.998041e+01
2.998144e+01
2.998244e+01
2.998339e+01
2.998431e+01
2.998519e+01
2.998603e+01
2.998684e+01
2.998761e+01
2.998835e+01
2.998905e+01
2.998971e+01
2.999034e+01
2.999093e+01
2.999149e+01
2.999201e+01
2.999250e+01
2.999296e+01
2.999337e+01
2.999376e+01
2.999411e+01
2.999442e+01
2.999470e+01
2.999495e+01
2.999516e+01
2.999534e+01
2.999548e+01
2.999559e+01
2.999566e+01
2.999570e+01
2.999571e+01
2.999568e+01
2.999561e+01
2.999551e+01
2.999538e+01
2.999521e+01
2.999500e+01
2.999475e+01
2.999446e+01
2.999412e+01
2.999374e+01
2.999323e+01
2.999178e+01
3.025090e+01
3.025235e+01
3.022522e+01
3.019179e+01
3.014842e+01
3.009014e+01
3.001234e+01
2.991481e+01
2.978714e+01
2.969482e+01
2.965517e+01
2.965743e+01
2.968379e+01
2.972013e+01
2.975767e+01
2.979163e+01
2.982006e+01
2.984279e+01
2.986049e+01
2.987411e+01
2.988461e+01
2.989282e+01
2.989938e+01
2.990477e+01
2.990934e+01
2.991333e+01
2.991693e+01
2.992023e+01
2.992332e+01
2.992625e+01
2.992905e+01
2.993174e+01
2.993434e+01
2.993685e+01
2.993928e+01
2.994164e+01
2.994392e+01
2.994613e+01
2.994828e+01
2.995035e+01
2.995236e+01
2.995431e+01
2.995619e+01
2.995801e+01
2.995978e+01
2.996149e+01
2.996314e+01
2.996474e+01
2.996629e+01
2.996780e+01
2.996925e+01
2.997065e+01
2.997201e+01
2.997333e+01
2.997460e+01
2.997583e+01
2.997702e+01
2.997817e+01
2.997928e+01
2.998035e+01
2.998138e+01
2.998237e+01
2.998333e+01
2.998424e+01
2.998512e+01
2.998596e+01
2.998677e+01
2.998754e+01
2.998828e+01
2.998898e+01
2.998964e+01
2.999027e+01
2.999086e+01
2.999142e+01
2.999194e+01
2.999243e+01
2.999288e+01
2.999330e+01
2.999368e+01
2.999403e+01
2.999435e+01
2.999463e+01
2.999487e+01
2.999508e+01
2.999526e+01
2.999540e+01
2.999551e+01
2.999559e+01
2.999563e+01
2.999563e+01
2.999560e+01
2.999554e+01
2.999544e+01
2.999530e+01
2.999514e+01
2.999493e+01
2.999469e+01
2.999441e+01
2.999409e+01
2.999374e+01
2.999324e+01
2.999179e+01
3.024963e+01
3.025108e+01
3.022934e+01
3.020101e+01
3.016182e+01
3.010488e+01
3.002173e+01
2.990906e+01
2.973433e+01
2.962618e+01
2.959197e+01
2.960668e+01
2.964657e+01
2.969510e+01
2.974266e+01
2.978413e+01
2.981750e+01
2.984295e+01
2.986177e+01
2.987560e+01
2.988586e+01
2.989368e+01
2.989987e+01
2.990497e+01
2.990934e+01
2.991322e+01
2.991677e+01
2.992006e+01
2.992317e+01
2.992613e+01
2.992897e+01
2.993170e+01
2.993433e+01
2.993687e+01
2.993933e+01
2.994170e+01
2.994399e+01
2.994621e+01
2.994835e+01
2.995042e+01
2.995243e+01
2.995437e+01
2.995624e+01
2.995806e+01
2.995982e+01
2.996152e+01
2.996316e+01
2.996476e+01
2.996630e+01
2.996779e+01
2.996924e+01
2.997064e+01
2.997199e+01
2.997330e+01
2.997457e+01
2.997580e+01
2.997698e+01
2.997813e+01
2.997923e+01
2.998030e+01
2.998133e+01
2.998232e+01
2.998327e+01
2.998418e+01
2.998506e+01
2.998590e+01
2.998671e+01
2.998748e+01
2.998821e+01
2.998891e+01
2.998957e+01
2.999020e+01
2.999079e+01
2.999135e+01
2.999187e+01
2.999236e+01
2.999281e+01
2.999323e+01
2.999361e+01
2.999396e+01
2.999428e+01
2.999456e+01
2.999480e+01
2.999501e+01
2.999519e+01
2.999533e+01
2.999544e+01
2.999551e+01
2.999555e+01
2.999556e+01
2.999553e+01
2.999547e+01
2.999537e+01
2.999524e+01
2.999507e+01
2.999487e+01
2.999463e+01
2.999436e+01
2.999406e+01
2.999373e+01
2.999324e+01
2.999179e+01
3.024942e+01
3.025087e+01
3.023640e+01
3.021541e+01
3.018306e+01
3.012942e+01
3.003773e+01
2.988778e+01
2.962438e+01
2.951490e+01
2.950379e+01
2.953759e+01
2.959451e+01
2.965888e+01
2.972032e+01
2.977297e+01
2.981395e+01
2.984346e+01
2.986382e+01
2.987777e+01
2.988756e+01
2.989480e+01
2.990048e+01
2.990522e+01
2.990936e+01
2.991313e+01
2.991663e+01
2.991993e+01
2.992307e+01
2.992608e+01
2.992897e+01
2.993174e+01
2.993441e+01
2.993698e+01
2.993946e+01
2.994184e+01
2.994414e+01
2.994636e+01
2.994850e+01
2.995056e+01
2.995256e+01
2.995448e+01
2.995635e+01
2.995815e+01
2.995989e+01
2.996158e+01
2.996322e+01
2.996480e+01
2.996633e+01
2.996781e+01
2.996925e+01
2.997064e+01
2.997199e+01
2.997329e+01
2.997456e+01
2.997578e+01
2.997696e+01
2.997810e+01
2.997920e+01
2.998026e+01
2.998128e+01
2.998227e+01
2.998322e+01
2.998413e+01
2.998501e+01
2.998585e+01
2.998665e+01
2.998742e+01
2.998815e+01
2.998885e+01
2.998951e+01
2.999014e+01
2.999073e+01
2.999129e+01
2.999181e+01
2.999230e+01
2.999275e+01
2.999317e+01
2.999355e+01
2.999390e+01
2.999421e+01
2.999449e+01
2.999474e+01
2.999495e+01
2.999512e+01
2.999527e+01
2.999537e+01
2.999545e+01
2.999549e+01
2.999549e+01
2.999546e+01
2.999540e+01
2.999530e+01
2.999517e+01
2.999501e+01
2.999481e+01
2.999458e+01
2.999431e+01
2.999402e+01
2.999371e+01
2.999323e+01
2.999178e+01
3.025092e+01
3.025237e+01
3.024690e+01
3.023593e+01
3.021492e+01
3.017115e+01
3.007391e+01
2.984856e+01
2.942139e+01
2.935061e+01
2.939550e+01
2.945916e+01
2.953210e+01
2.961028e+01
2.968756e+01
2.975622e+01
2.980904e+01
2.984473e+01
2.986704e+01
2.988081e+01
2.988977e+01
2.989616e+01
2.990121e+01
2.990553e+01
2.990946e+01
2.991312e+01
2.991659e+01
2.991992e+01
2.992310e+01
2.992616e+01
2.992909e+01
2.993191e+01
2.993461e+01
2.993720e+01
2.993969e+01
2.994208e+01
2.994438e+01
2.994659e+01
2.994872e+01
2.995077e+01
2.995275e+01
2.995466e+01
2.995650e+01
2.995829e+01
2.996001e+01
2.996169e+01
2.996330e+01
2.996487e+01
2.996639e+01
2.996786e+01
2.996929e+01
2.997067e+01
2.997201e+01
2.997330e+01
2.997455e+01
2.997577e+01
2.997694e+01
2.997808e+01
2.997917e+01
2.998023e+01
2.998125e+01
2.998223e+01
2.998318e+01
2.998409e+01
2.998496e+01
2.998580e+01
2.998660e+01
2.998737e+01
2.998810e+01
2.998880e+01
2.998946e+01
2.999008e+01
2.999067e+01
2.999123e+01
2.999175e+01
2.999224e+01
2.999269e+01
2.999310e+01
2.999349e+01
2.999384e+01
2.999415e+01
2.999443e+01
2.999467e+01
2.999488e+01
2.999506e+01
2.999520e+01
2.999531e+01
2.999539e+01
2.999542e+01
2.999543e+01
2.999540e+01
2.999534e+01
2.999524e+01
2.999511e+01
2.999495e+01
2.999476e+01
2.999453e+01
2.999427e+01
2.999399e+01
2.999368e+01
2.999321e+01
2.999176e+01
3.025445e+01
3.025589e+01
3.026054e+01
3.026210e+01
3.025874e+01
3.024016e+01
3.016958e+01
2.990508e+01
2.906405e+01
2.909921e+01
2.924731e+01
2.936554e+01
2.946757e+01
2.955747e+01
2.964470e+01
2.973018e+01
2.980137e+01
2.984746e+01
2.987218e+01
2.988501e+01
2.989250e+01
2.989777e+01
2.990209e+01
2.990602e+01
2.990974e+01
2.991331e+01
2.991678e+01
2.992013e+01
2.992336e+01
2.992646e+01
2.992943e+01
2.993227e+01
2.993499e+01
2.993758e+01
2.994007e+01
2.994245e+01
2.994473e+01
2.994692e+01
2.994902e+01
2.995105e+01
2.995300e+01
2.995489e+01
2.995671e+01
2.995847e+01
2.996018e+01
2.996183e+01
2.996343e+01
2.996497e+01
2.996648e+01
2.996793e+01
2.996934e+01
2.997071e+01
2.997204e+01
2.997332e+01
2.997457e+01
2.997577e+01
2.997694e+01
2.997807e+01
2.997916e+01
2.998021e+01
2.998123e+01
2.998220e+01
2.998315e+01
2.998405e+01
2.998492e+01
2.998576e+01
2.998656e+01
2.998732e+01
2.998805e+01
2.998875e+01
2.998941e+01
2.999003e+01
2.999062e+01
2.999118e+01
2.999170e+01
2.999218e+01
2.999263e+01
2.999305e+01
2.999343e+01
2.999378e+01
2.999409e+01
2.999437e+01
2.999462e+01
2.999483e+01
2.999500e+01
2.999515e+01
2.999525e+01
2.999533e+01
2.999537e+01
2.999537e+01
2.999534e+01
2.999528e+01
2.999519e+01
2.999506e+01
2.999490e+01
2.999470e+01
2.999448e+01
2.999423e+01
2.999395e+01
2.999365e+01
2.999318e+01
2.999173e+01
3.025979e+01
3.026124e+01
3.027571e+01
3.029046e+01
3.030873e+01
3.033165e+01
3.035298e+01
3.044884e+01
2.975500e+01
2.908377e+01
2.907122e+01
2.926515e+01
2.940935e+01
2.952120e+01
2.961758e+01
2.972215e+01
2.980792e+01
2.985713e+01
2.987978e+01
2.988996e+01
2.989560e+01
2.989971e+01
2.990334e+01
2.990687e+01
2.991040e+01
2.991392e+01
2.991738e+01
2.992074e+01
2.992399e+01
2.992710e+01
2.993007e+01
2.993289e+01
2.993559e+01
2.993816e+01
2.994061e+01
2.994295e+01
2.994520e+01
2.994735e+01
2.994942e+01
2.995141e+01
2.995333e+01
2.995518e+01
2.995697e+01
2.995870e+01
2.996038e+01
2.996200e+01
2.996358e+01
2.996510e+01
2.996659e+01
2.996802e+01
2.996942e+01
2.997077e+01
2.997209e+01
2.997336e+01
2.997459e+01
2.997579e+01
2.997695e+01
2.997807e+01
2.997915e+01
2.998020e+01
2.998121e+01
2.998218e+01
2.998312e+01
2.998402e+01
2.998489e+01
2.998572e+01
2.998652e+01
2.998728e+01
2.998801e+01
2.998870e+01
2.998936e+01
2.998999e+01
2.999057e+01
2.999113e+01
2.999165e+01
2.999213e+01
2.999258e+01
2.999300e+01
2.999338e+01
2.999373e+01
2.999404e+01
2.999432e+01
2.999456e+01
2.999477e+01
2.999495e+01
2.999509e+01
2.999520e+01
2.999527e+01
2.999531e+01
2.999532e+01
2.999529e+01
2.999523e+01
2.999513e+01
2.999501e+01
2.999485e+01
2.999465e+01
2.999443e+01
2.999418e+01
2.999391e+01
2.999361e+01
2.999314e+01
2.999169e+01
3.026630e+01
3.026774e+01
3.028985e+01
3.031485e+01
3.034972e+01
3.040397e+01
3.049454e+01
3.061642e+01
3.065290e+01
0.000000e+00
2.928907e+01
2.929052e+01
2.940282e+01
2.951341e+01
2.961448e+01
2.972229e+01
2.981813e+01
2.987007e+01
2.989003e+01
2.989663e+01
2.989961e+01
2.990229e+01
2.990523e+01
2.990844e+01
2.991182e+01
2.991524e+01
2.991864e+01
2.992194e+01
2.992513e+01
2.992817e+01
2.993107e+01
2.993383e+01
2.993646e+01
2.993896e+01
2.994134e+01
2.994362e+01
2.994580e+01
2.994789e+01
2.994991e+01
2.995185e+01
2.995372e+01
2.995552e+01
2.995727e+01
2.995897e+01
2.996061e+01
2.996221e+01
2.996375e+01
2.996526e+01
2.996672e+01
2.996813e+01
2.996951e+01
2.997085e+01
2.997215e+01
2.997341e+01
2.997463e+01
2.997581e+01
2.997696e+01
2.997808e+01
2.997915e+01
2.998019e+01
2.998120e+01
2.998217e+01
2.998310e+01
2.998400e+01
2.998487e+01
2.998570e+01
2.998649e+01
2.998725e+01
2.998798e+01
2.998867e+01
2.998932e+01
2.998994e+01
2.999053e+01
2.999108e+01
2.999160e+01
2.999209e+01
2.999254e+01
2.999295e+01
2.999333e+01
2.999368e+01
2.999399e+01
2.999427e+01
2.999452e+01
2.999473e+01
2.999490e+01
2.999504e+01
2.999515e+01
2.999522e+01
2.999526e+01
2.999527e+01
2.999524e+01
2.999518e+01
2.999508e+01
2.999496e+01
2.999480e+01
2.999461e+01
2.999439e+01
2.999414e+01
2.999387e+01
2.999357e+01
2.999310e+01
2.999165e+01
3.027323e+01
3.027468e+01
3.030086e+01
3.033063e+01
3.037098e+01
3.042924e+01
3.051144e+01
3.060921e+01
3.069227e+01
3.069082e+01
0.000000e+00
2.942901e+01
2.943046e+01
2.951750e+01
2.961213e+01
2.972245e+01
2.982817e+01
2.987943e+01
2.989639e+01
2.990135e+01
2.990366e+01
2.990584e+01
2.990841e+01
2.991131e+01
2.991442e+01
2.991761e+01
2.992078e+01
2.992388e+01
2.992688e+01
2.992975e+01
2.993249e+01
2.993511e+01
2.993760e+01
2.993998e+01
2.994226e+01
2.994444e+01
2.994653e+01
2.994854e+01
2.995048e+01
2.995236e+01
2.995417e+01
2.995592e+01
2.995762e+01
2.995927e+01
2.996088e+01
2.996244e+01
2.996395e+01
2.996543e+01
2.996686e+01
2.996826e+01
2.996962e+01
2.997094e+01
2.997222e+01
2.997346e+01
2.997467e+01
2.997585e+01
2.997699e+01
2.997809e+01
2.997916e+01
2.998020e+01
2.998119e+01
2.998216e+01
2.998309e+01
2.998398e+01
2.998484e+01
2.998567e+01
2.998646e+01
2.998722e+01
2.998794e+01
2.998863e+01
2.998929e+01
2.998991e+01
2.999049e+01
2.999105e+01
2.999156e+01
2.999205e+01
2.999250e+01
2.999291e+01
2.999329e+01
2.999364e+01
2.999395e+01
2.999423e+01
2.999447e+01
2.999468e+01
2.999486e+01
2.999500e+01
2.999510e+01
2.999518e+01
2.999522e+01
2.999522e+01
2.999519e+01
2.999513e+01
2.999504e+01
2.999491e+01
2.999475e+01
2.999456e+01
2.999434e+01
2.999409e+01
2.999382e+01
2.999352e+01
2.999306e+01
2.999161e+01
3.028010e+01
3.028155e+01
3.030813e+01
3.033763e+01
3.037529e+01
3.042596e+01
3.049140e+01
3.055410e+01
3.058441e+01
3.037899e+01
3.037754e+01
0.000000e+00
2.948462e+01
2.954168e+01
2.959255e+01
2.968756e+01
2.978223e+01
2.985470e+01
2.989299e+01
2.990590e+01
2.990956e+01
2.991152e+01
2.991356e+01
2.991590e+01
2.991846e+01
2.992115e+01
2.992388e+01
2.992659e+01
2.992925e+01
2.993182e+01
2.993431e+01
2.993670e+01
2.993900e+01
2.994122e+01
2.994334e+01
2.994539e+01
2.994737e+01
2.994928e+01
2.995113e+01
2.995293e+01
2.995467e+01
2.995636e+01
2.995801e+01
2.995961e+01
2.996117e+01
2.996269e+01
2.996417e+01
2.996561e+01
2.996702e+01
2.996839e+01
2.996973e+01
2.997103e+01
2.997230e+01
2.997353e+01
2.997473e+01
2.997589e+01
2.997702e+01
2.997811e+01
2.997918e+01
2.998020e+01
2.998120e+01
2.998215e+01
2.998308e+01
2.998397e+01
2.998483e+01
2.998565e+01
2.998644e+01
2.998720e+01
2.998792e+01
2.998860e+01
2.998926e+01
2.998988e+01
2.999046e+01
2.999101e+01
2.999153e+01
2.999201e+01
2.999246e+01
2.999287e+01
2.999325e+01
2.999360e+01
2.999391e+01
2.999419e+01
2.999443e+01
2.999464e+01
2.999482e+01
2.999496e+01
2.999506e+01
2.999514e+01
2.999518e+01
2.999518e+01
2.999515e+01
2.999509e+01
2.999499e+01
2.999487e+01
2.999471e+01
2.999452e+01
2.999430e+01
2.999405e+01
2.999377e+01
2.999348e+01
2.999301e+01
2.999156e+01
3.028675e+01
3.028819e+01
3.031215e+01
3.033793e+01
3.036911e+01
3.040608e+01
3.044266e+01
3.045900e+01
3.040997e+01
3.031132e+01
2.994513e+01
2.964094e+01
2.949154e+01
2.954945e+01
2.957706e+01
2.963815e+01
2.973808e+01
2.983345e+01
2.988780e+01
2.990921e+01
2.991610e+01
2.991866e+01
2.992029e+01
2.992190e+01
2.992369e+01
2.992566e+01
2.992775e+01
2.992992e+01
2.993211e+01
2.993430e+01
2.993645e+01
2.993856e+01
2.994062e+01
2.994262e+01
2.994456e+01
2.994646e+01
2.994830e+01
2.995009e+01
2.995184e+01
2.995354e+01
2.995520e+01
2.995683e+01
2.995841e+01
2.995996e+01
2.996147e+01
2.996295e+01
2.996440e+01
2.996581e+01
2.996719e+01
2.996854e+01
2.996985e+01
2.997113e+01
2.997238e+01
2.997360e+01
2.997478e+01
2.997593e+01
2.997705e+01
2.997814e+01
2.997919e+01
2.998021e+01
2.998120e+01
2.998215e+01
2.998307e+01
2.998396e+01
2.998482e+01
2.998564e+01
2.998642e+01
2.998717e+01
2.998789e+01
2.998858e+01
2.998923e+01
2.998985e+01
2.999043e+01
2.999098e+01
2.999150e+01
2.999198e+01
2.999243e+01
2.999284e+01
2.999322e+01
2.999356e+01
2.999388e+01
2.999415e+01
2.999440e+01
2.999460e+01
2.999478e+01
2.999492e+01
2.999503e+01
2.999510e+01
2.999514e+01
2.999514e+01
2.999511e+01
2.999505e+01
2.999495e+01
2.999483e+01
2.999467e+01
2.999447e+01
2.999425e+01
2.999400e+01
2.999373e+01
2.999343e+01
2.999296e+01
2.999151e+01
3.029324e+01
3.029469e+01
3.031412e+01
3.033401e+01
3.035539e+01
3.037589e+01
3.038720e+01
3.037149e+01
3.029440e+01
3.014168e+01
2.989637e+01
2.933966e+01
2.943653e+01
2.953468e+01
2.957999e+01
2.964895e+01
2.974275e+01
2.982559e+01
2.987658e+01
2.990583e+01
2.991939e+01
2.992465e+01
2.992673e+01
2.992796e+01
2.992911e+01
2.993042e+01
2.993189e+01
2.993350e+01
2.993521e+01
2.993697e+01
2.993876e+01
2.994056e+01
2.994235e+01
2.994412e+01
2.994586e+01
2.994758e+01
2.994928e+01
2.995094e+01
2.995257e+01
2.995418e+01
2.995576e+01
2.995731e+01
2.995883e+01
2.996032e+01
2.996178e+01
2.996322e+01
2.996463e+01
2.996601e+01
2.996736e+01
2.996868e+01
2.996997e+01
2.997124e+01
2.997247e+01
2.997367e+01
2.997484e+01
2.997598e+01
2.997709e+01
2.997817e+01
2.997921e+01
2.998023e+01
2.998121e+01
2.998216e+01
2.998307e+01
2.998396e+01
2.998481e+01
2.998562e+01
2.998641e+01
2.998716e+01
2.998787e+01
2.998856e+01
2.998921e+01
2.998982e+01
2.999041e+01
2.999095e+01
2.999147e+01
2.999195e+01
2.999240e+01
2.999281e+01
2.999319e+01
2.999353e+01
2.999384e+01
2.999412e+01
2.999436e+01
2.999457e+01
2.999475e+01
2.999489e+01
2.999499e+01
2.999507e+01
2.999510e+01
2.999511e+01
2.999508e+01
2.999502e+01
2.999492e+01
2.999479e+01
2.999463e+01
2.999443e+01
2.999421e+01
2.999395e+01
2.999368e+01
2.999337e+01
2.999290e+01
2.999145e+01
3.029961e+01
3.030106e+01
3.031468e+01
3.032752e+01
3.033916e+01
3.034612e+01
3.034096e+01
3.031089e+01
3.023649e+01
3.009830e+01
2.990343e+01
2.961899e+01
2.958106e+01
2.960146e+01
2.963526e+01
2.969605e+01
2.977647e+01
2.984148e+01
2.988406e+01
2.990798e+01
2.992058e+01
2.992703e+01
2.993034e+01
2.993218e+01
2.993345e+01
2.993455e+01
2.993568e+01
2.993690e+01
2.993822e+01
2.993961e+01
2.994107e+01
2.994256e+01
2.994409e+01
2.994563e+01
2.994717e+01
2.994872e+01
2.995026e+01
2.995179e+01
2.995331e+01
2.995481e+01
2.995631e+01
2.995778e+01
2.995924e+01
2.996067e+01
2.996209e+01
2.996348e+01
2.996485e+01
2.996620e+01
2.996752e+01
2.996882e+01
2.997009e+01
2.997134e+01
2.997255e+01
2.997374e+01
2.997490e+01
2.997603e+01
2.997713e+01
2.997820e+01
2.997924e+01
2.998024e+01
2.998122e+01
2.998216e+01
2.998307e+01
2.998395e+01
2.998480e+01
2.998561e+01
2.998639e+01
2.998714e+01
2.998786e+01
2.998854e+01
2.998919e+01
2.998980e+01
2.999038e+01
2.999093e+01
2.999144e+01
2.999192e+01
2.999237e+01
2.999278e+01
2.999316e+01
2.999351e+01
2.999382e+01
2.999409e+01
2.999434e+01
2.999454e+01
2.999472e+01
2.999486e+01
2.999497e+01
2.999504e+01
2.999507e+01
2.999508e+01
2.999505e+01
2.999498e+01
2.999489e+01
2.999475e+01
2.999459e+01
2.999439e+01
2.999417e+01
2.999391e+01
2.999362e+01
2.999332e+01
2.999284e+01
2.999139e+01
3.030550e+01
3.030695e+01
3.031459e+01
3.032070e+01
3.032411e+01
3.032135e+01
3.030672e+01
3.027204e+01
3.020719e+01
3.010157e+01
2.995322e+01
2.977399e+01
2.970139e+01
2.968333e+01
2.970190e+01
2.975157e+01
2.981063e+01
2.985857e+01
2.989064e+01
2.991021e+01
2.992177e+01
2.992857e+01
2.993258e+01
2.993501e+01
2.993660e+01
2.993779e+01
2.993883e+01
2.993985e+01
2.994090e+01
2.994203e+01
2.994321e+01
2.994445e+01
2.994574e+01
2.994707e+01
2.994842e+01
2.994980e+01
2.995120e+01
2.995260e+01
2.995401e+01
2.995542e+01
2.995683e+01
2.995823e+01
2.995962e+01
2.996101e+01
2.996238e+01
2.996373e+01
2.996507e+01
2.996638e+01
2.996768e+01
2.996895e+01
2.997020e+01
2.997143e+01
2.997263e+01
2.997381e+01
2.997495e+01
2.997607e+01
2.997716e+01
2.997823e+01
2.997926e+01
2.998026e+01
2.998123e+01
2.998217e+01
2.998308e+01
2.998395e+01
2.998479e+01
2.998561e+01
2.998639e+01
2.998713e+01
2.998784e+01
2.998852e+01
2.998917e+01
2.998979e+01
2.999037e+01
2.999091e+01
2.999142e+01
2.999190e+01
2.999235e+01
2.999276e+01
2.999314e+01
2.999348e+01
2.999379e+01
2.999407e+01
2.999431e+01
2.999452e+01
2.999469e+01
2.999483e+01
2.999494e+01
2.999501e+01
2.999505e+01
2.999505e+01
2.999502e+01
2.999496e+01
2.999486e+01
2.999472e+01
2.999456e+01
2.999436e+01
2.999412e+01
2.999386e+01
2.999357e+01
2.999325e+01
2.999278e+01
2.999133e+01
3.031088e+01
3.031233e+01
3.031451e+01
3.031482e+01
3.031177e+01
3.030228e+01
3.028212e+01
3.024604e+01
3.018846e+01
3.010429e+01
2.999143e+01
2.985927e+01
2.977904e+01
2.975231e+01
2.976431e+01
2.979707e+01
2.983680e+01
2.987121e+01
2.989581e+01
2.991212e+01
2.992270e+01
2.992955e+01
2.993398e+01
2.993686e+01
2.993880e+01
2.994017e+01
2.994126e+01
2.994222e+01
2.994314e+01
2.994408e+01
2.994507e+01
2.994611e+01
2.994721e+01
2.994836e+01
2.994955e+01
2.995079e+01
2.995205e+01
2.995334e+01
2.995465e+01
2.995597e+01
2.995730e+01
2.995864e+01
2.995998e+01
2.996131e+01
2.996264e+01
2.996395e+01
2.996526e+01
2.996655e+01
2.996782e+01
2.996907e+01
2.997030e+01
2.997152e+01
2.997270e+01
2.997387e+01
2.997500e+01
2.997611e+01
2.997720e+01
2.997825e+01
2.997928e+01
2.998027e+01
2.998124e+01
2.998217e+01
2.998308e+01
2.998395e+01
2.998479e+01
2.998560e+01
2.998638e+01
2.998712e+01
2.998783e+01
2.998851e+01
2.998916e+01
2.998977e+01
2.999035e+01
2.999090e+01
2.999141e+01
2.999189e+01
2.999233e+01
2.999274e+01
2.999312e+01
2.999346e+01
2.999377e+01
2.999405e+01
2.999429e+01
2.999450e+01
2.999467e+01
2.999481e+01
2.999492e+01
2.999499e+01
2.999503e+01
2.999503e+01
2.999500e+01
2.999493e+01
2.999483e+01
2.999470e+01
2.999453e+01
2.999432e+01
2.999409e+01
2.999381e+01
2.999351e+01
2.999319e+01
2.999271e+01
2.999125e+01
3.031561e+01
3.031706e+01
3.031468e+01
3.031031e+01
3.030242e+01
3.028827e+01
3.026458e+01
3.022773e+01
3.017431e+01
3.010185e+01
3.001010e+01
2.990843e+01
2.983929e+01
2.981057e+01
2.981145e+01
2.983000e+01
2.985614e+01
2.988082e+01
2.990000e+01
2.991381e+01
2.992350e+01
2.993022e+01
2.993487e+01
2.993806e+01
2.994027e+01
2.994185e+01
2.994304e+01
2.994401e+01
2.994488e+01
2.994573e+01
2.994659e+01
2.994749e+01
2.994844e+01
2.994945e+01
2.995051e+01
2.995162e+01
2.995278e+01
2.995397e+01
2.995519e+01
2.995644e+01
2.995771e+01
2.995899e+01
2.996028e+01
2.996157e+01
2.996286e+01
2.996414e+01
2.996542e+01
2.996668e+01
2.996794e+01
2.996917e+01
2.997039e+01
2.997159e+01
2.997276e+01
2.997392e+01
2.997505e+01
2.997615e+01
2.997722e+01
2.997827e+01
2.997929e+01
2.998029e+01
2.998125e+01
2.998218e+01
2.998308e+01
2.998395e+01
2.998479e+01
2.998560e+01
2.998637e+01
2.998712e+01
2.998783e+01
2.998850e+01
2.998915e+01
2.998976e+01
2.999034e+01
2.999088e+01
2.999140e+01
2.999187e+01
2.999232e+01
2.999273e+01
2.999311e+01
2.999345e+01
2.999376e+01
2.999404e+01
2.999428e+01
2.999448e+01
2.999466e+01
2.999480e+01
2.999490e+01
2.999497e+01
2.999501e+01
2.999501e+01
2.999498e+01
2.999491e+01
2.999481e+01
2.999468e+01
2.999450e+01
2.999429e+01
2.999405e+01
2.999377e+01
2.999346e+01
2.999312e+01
2.999263e+01
2.999118e+01
3.031948e+01
3.032093e+01
3.031505e+01
3.030722e+01
3.029587e+01
3.027853e+01
3.025245e+01
3.021487e+01
3.016347e+01
3.009718e+01
3.001760e+01
2.993579e+01
2.987725e+01
2.984811e+01
2.984255e+01
2.985244e+01
2.986983e+01
2.988796e+01
2.990331e+01
2.991522e+01
2.992414e+01
2.993068e+01
2.993541e+01
2.993880e+01
2.994122e+01
2.994297e+01
2.994426e+01
2.994528e+01
2.994614e+01
2.994694e+01
2.994772e+01
2.994853e+01
2.994938e+01
2.995029e+01
2.995126e+01
2.995228e+01
2.995335e+01
2.995447e+01
2.995562e+01
2.995681e+01
2.995803e+01
2.995926e+01
2.996051e+01
2.996177e+01
2.996303e+01
2.996429e+01
2.996555e+01
2.996679e+01
2.996803e+01
2.996925e+01
2.997046e+01
2.997164e+01
2.997281e+01
2.997396e+01
2.997508e+01
2.997618e+01
2.997725e+01
2.997829e+01
2.997931e+01
2.998030e+01
2.998126e+01
2.998218e+01
2.998308e+01
2.998395e+01
2.998479e+01
2.998559e+01
2.998637e+01
2.998711e+01
2.998782e+01
2.998850e+01
2.998914e+01
2.998975e+01
2.999033e+01
2.999087e+01
2.999139e+01
2.999186e+01
2.999231e+01
2.999272e+01
2.999310e+01
2.999344e+01
2.999375e+01
2.999402e+01
2.999426e+01
2.999447e+01
2.999465e+01
2.999479e+01
2.999489e+01
2.999496e+01
2.999500e+01
2.999500e+01
2.999497e+01
2.999490e+01
2.999480e+01
2.999466e+01
2.999448e+01
2.999427e+01
2.999402e+01
2.999373e+01
2.999340e+01
2.999304e+01
2.999254e+01
2.999109e+01
3.032226e+01
3.032371e+01
3.031549e+01
3.030538e+01
3.029183e+01
3.027247e+01
3.024487e+01
3.020666e+01
3.015610e+01
3.009303e+01
3.002082e+01
2.995067e+01
2.989881e+01
2.987013e+01
2.986137e+01
2.986635e+01
2.987857e+01
2.989266e+01
2.990555e+01
2.991619e+01
2.992455e+01
2.993093e+01
2.993570e+01
2.993920e+01
2.994176e+01
2.994362e+01
2.994501e+01
2.994607e+01
2.994695e+01
2.994773e+01
2.994847e+01
2.994922e+01
2.995002e+01
2.995086e+01
2.995176e+01
2.995272e+01
2.995374e+01
2.995480e+01
2.995592e+01
2.995707e+01
2.995825e+01
2.995945e+01
2.996067e+01
2.996191e+01
2.996315e+01
2.996439e+01
2.996563e+01
2.996687e+01
2.996809e+01
2.996931e+01
2.997050e+01
2.997168e+01
2.997284e+01
2.997398e+01
2.997510e+01
2.997619e+01
2.997726e+01
2.997830e+01
2.997932e+01
2.998030e+01
2.998126e+01
2.998219e+01
2.998309e+01
2.998395e+01
2.998479e+01
2.998559e+01
2.998637e+01
2.998711e+01
2.998782e+01
2.998849e+01
2.998914e+01
2.998975e+01
2.999032e+01
2.999087e+01
2.999138e+01
2.999186e+01
2.999230e+01
2.999271e+01
2.999309e+01
2.999343e+01
2.999374e+01
2.999402e+01
2.999426e+01
2.999446e+01
2.999464e+01
2.999478e+01
2.999488e+01
2.999495e+01
2.999499e+01
2.999499e+01
2.999496e+01
2.999489e+01
2.999479e+01
2.999465e+01
2.999447e+01
2.999425e+01
2.999400e+01
2.999369e+01
2.999334e+01
2.999294e+01
2.999243e+01
2.999098e+01
3.032374e+01
3.032519e+01
3.031582e+01
3.030463e+01
3.029006e+01
3.026981e+01
3.024153e+01
3.020302e+01
3.015276e+01
3.009107e+01
3.002241e+01
2.995749e+01
2.990871e+01
2.988038e+01
2.987020e+01
2.987290e+01
2.988268e+01
2.989486e+01
2.990656e+01
2.991659e+01
2.992468e+01
2.993098e+01
2.993576e+01
2.993934e+01
2.994197e+01
2.994390e+01
2.994533e+01
2.994643e+01
2.994732e+01
2.994810e+01
2.994883e+01
2.994956e+01
2.995033e+01
2.995114e+01
2.995201e+01
2.995294e+01
2.995393e+01
2.995497e+01
2.995606e+01
2.995719e+01
2.995836e+01
2.995955e+01
2.996076e+01
2.996198e+01
2.996321e+01
2.996444e+01
2.996568e+01
2.996690e+01
2.996812e+01
2.996933e+01
2.997053e+01
2.997170e+01
2.997286e+01
2.997400e+01
2.997511e+01
2.997620e+01
2.997727e+01
2.997831e+01
2.997932e+01
2.998031e+01
2.998126e+01
2.998219e+01
2.998309e+01
2.998395e+01
2.998479e+01
2.998559e+01
2.998636e+01
2.998711e+01
2.998781e+01
2.998849e+01
2.998913e+01
2.998974e+01
2.999032e+01
2.999086e+01
2.999138e+01
2.999185e+01
2.999230e+01
2.999271e+01
2.999308e+01
2.999343e+01
2.999374e+01
2.999401e+01
2.999425e+01
2.999446e+01
2.999463e+01
2.999477e+01
2.999488e+01
2.999495e+01
2.999498e+01
2.999499e+01
2.999495e+01
2.999489e+01
2.999478e+01
2.999464e+01
2.999446e+01
2.999424e+01
2.999398e+01
2.999367e+01
2.999329e+01
2.999281e+01
2.999230e+01
2.999085e+01
0.000000e+00
3.032374e+01
3.031437e+01
3.030318e+01
3.028862e+01
3.026837e+01
3.024009e+01
3.020158e+01
3.015131e+01
3.008962e+01
3.002096e+01
2.995604e+01
2.990726e+01
2.987894e+01
2.986876e+01
2.987145e+01
2.988124e+01
2.989341e+01
2.990511e+01
2.991514e+01
2.992323e+01
2.992953e+01
2.993432e+01
2.993789e+01
2.994052e+01
2.994245e+01
2.994389e+01
2.994498e+01
2.994587e+01
2.994665e+01
2.994738e+01
2.994811e+01
2.994888e+01
2.994969e+01
2.995056e+01
2.995149e+01
2.995248e+01
2.995353e+01
2.995462e+01
2.995574e+01
2.995691e+01
2.995810e+01
2.995931e+01
2.996053e+01
2.996176e+01
2.996299e+01
2.996423e+01
2.996546e+01
2.996667e+01
2.996788e+01
2.996908e+01
2.997025e+01
2.997141e+01
2.997255e+01
2.997366e+01
2.997475e+01
2.997582e+01
2.997686e+01
2.997787e+01
2.997886e+01
2.997981e+01