# vtk DataFile Version 3.0
Scalar Field
ASCII
DATASET RECTILINEAR_GRID
DIMENSIONS 102 22 1
X_COORDINATES 102 double
0.000000 0.100000 0.200000 0.300000 0.400000 0.500000 0.600000 0.700000 0.800000 0.900000 1.000000 1.100000 1.200000 1.300000 1.400000 1.500000 1.600000 1.700000 1.800000 1.900000 2.000000 2.100000 2.200000 2.300000 2.400000 2.500000 2.600000 2.700000 2.800000 2.900000 3.000000 3.100000 3.200000 3.300000 3.400000 3.500000 3.600000 3.700000 3.800000 3.900000 4.000000 4.100000 4.200000 4.300000 4.400000 4.500000 4.600000 4.700000 4.800000 4.900000 5.000000 5.100000 5.200000 5.300000 5.400000 5.500000 5.600000 5.700000 5.800000 5.900000 6.000000 6.100000 6.200000 6.300000 6.400000 6.500000 6.600000 6.700000 6.800000 6.900000 7.000000 7.100000 7.200000 7.300000 7.400000 7.500000 7.600000 7.700000 7.800000 7.900000 8.000000 8.100000 8.200000 8.300000 8.400000 8.500000 8.600000 8.700000 8.800000 8.900000 9.000000 9.100000 9.200000 9.300000 9.400000 9.500000 9.600000 9.700000 9.800000 9.900000 10.000000 10.100000 
Y_COORDINATES 22 double
0.000000 0.100000 0.200000 0.300000 0.400000 0.500000 0.600000 0.700000 0.800000 0.900000 1.000000 1.100000 1.200000 1.300000 1.400000 1.500000 1.600000 1.700000 1.800000 1.900000 2.000000 2.100000 
Z_COORDINATES 1 double
0.0
POINT_DATA 2244
SCALARS Pressure double 1
LOOKUP_TABLE default
0.000000e+00
5.146585e+01
5.143256e+01
5.139495e+01
5.134902e+01
5.129059e+01
5.121555e+01
5.112218e+01
5.100922e+01
5.089813e+01
5.080609e+01
5.073874e+01
5.069456e+01
5.066926e+01
5.065847e+01
5.065873e+01
5.066758e+01
5.068330e+01
5.070466e+01
5.073072e+01
5.076077e+01
5.079427e+01
5.083086e+01
5.087026e+01
5.091201e+01
5.095528e+01
5.099843e+01
5.103841e+01
5.107051e+01
5.108603e+01
5.107601e+01
5.103950e+01
5.098691e+01
5.093364e+01
5.089261e+01
5.086895e+01
5.086086e+01
5.086415e+01
5.087515e+01
5.089124e+01
5.091060e+01
5.093192e+01
5.095412e+01
5.097620e+01
5.099718e+01
5.101614e+01
5.103245e+01
5.104582e+01
5.105632e+01
5.106427e+01
5.107012e+01
5.107433e+01
5.107732e+01
5.107942e+01
5.108090e+01
5.108192e+01
5.108262e+01
5.108310e+01
5.108340e+01
5.108358e+01
5.108366e+01
5.108367e+01
5.108362e+01
5.108353e+01
5.108340e+01
5.108325e+01
5.108307e+01
5.108288e+01
5.108268e+01
5.108248e+01
5.108226e+01
5.108205e+01
5.108184e+01
5.108163e+01
5.108143e+01
5.108123e+01
5.108104e+01
5.108086e+01
5.108069e+01
5.108053e+01
5.108038e+01
5.108023e+01
5.108010e+01
5.107997e+01
5.107986e+01
5.107975e+01
5.107965e+01
5.107957e+01
5.107949e+01
5.107942e+01
5.107936e+01
5.107931e+01
5.107928e+01
5.107926e+01
5.107925e+01
5.107926e+01
5.107928e+01
5.107932e+01
5.107935e+01
5.107936e+01
5.107957e+01
0.000000e+00
5.146585e+01
5.146549e+01
5.143220e+01
5.139459e+01
5.134866e+01
5.129023e+01
5.121519e+01
5.112182e+01
5.100886e+01
5.089777e+01
5.080573e+01
5.073838e+01
5.069419e+01
5.066890e+01
5.065811e+01
5.065837e+01
5.066721e+01
5.068294e+01
5.070430e+01
5.073036e+01
5.076040e+01
5.079391e+01
5.083050e+01
5.086989e+01
5.091164e+01
5.095491e+01
5.099807e+01
5.103804e+01
5.107015e+01
5.108566e+01
5.107565e+01
5.103914e+01
5.098654e+01
5.093327e+01
5.089224e+01
5.086858e+01
5.086050e+01
5.086378e+01
5.087479e+01
5.089088e+01
5.091024e+01
5.093156e+01
5.095376e+01
5.097584e+01
5.099681e+01
5.101577e+01
5.103208e+01
5.104546e+01
5.105596e+01
5.106391e+01
5.106975e+01
5.107396e+01
5.107695e+01
5.107906e+01
5.108053e+01
5.108156e+01
5.108226e+01
5.108273e+01
5.108304e+01
5.108322e+01
5.108330e+01
5.108331e+01
5.108326e+01
5.108317e+01
5.108304e+01
5.108288e+01
5.108271e+01
5.108252e+01
5.108232e+01
5.108211e+01
5.108190e+01
5.108169e+01
5.108147e+01
5.108127e+01
5.108106e+01
5.108086e+01
5.108068e+01
5.108050e+01
5.108033e+01
5.108016e+01
5.108001e+01
5.107987e+01
5.107973e+01
5.107961e+01
5.107949e+01
5.107939e+01
5.107929e+01
5.107920e+01
5.107912e+01
5.107905e+01
5.107900e+01
5.107895e+01
5.107892e+01
5.107890e+01
5.107889e+01
5.107890e+01
5.107892e+01
5.107895e+01
5.107898e+01
5.107899e+01
5.107921e+01
5.107957e+01
5.146460e+01
5.146424e+01
5.143247e+01
5.139611e+01
5.135091e+01
5.129220e+01
5.121517e+01
5.111785e+01
5.099498e+01
5.087949e+01
5.078873e+01
5.072478e+01
5.068400e+01
5.066141e+01
5.065241e+01
5.065375e+01
5.066321e+01
5.067926e+01
5.070074e+01
5.072679e+01
5.075673e+01
5.079003e+01
5.082630e+01
5.086526e+01
5.090649e+01
5.094930e+01
5.099243e+01
5.103354e+01
5.106730e+01
5.108488e+01
5.107718e+01
5.104213e+01
5.098999e+01
5.093553e+01
5.089164e+01
5.086574e+01
5.085688e+01
5.086013e+01
5.087144e+01
5.088791e+01
5.090759e+01
5.092912e+01
5.095140e+01
5.097349e+01
5.099452e+01
5.101360e+01
5.103009e+01
5.104370e+01
5.105446e+01
5.106267e+01
5.106875e+01
5.107316e+01
5.107633e+01
5.107858e+01
5.108018e+01
5.108130e+01
5.108208e+01
5.108261e+01
5.108296e+01
5.108317e+01
5.108327e+01
5.108329e+01
5.108325e+01
5.108316e+01
5.108303e+01
5.108288e+01
5.108270e+01
5.108251e+01
5.108230e+01
5.108209e+01
5.108188e+01
5.108167e+01
5.108146e+01
5.108125e+01
5.108105e+01
5.108085e+01
5.108066e+01
5.108049e+01
5.108032e+01
5.108016e+01
5.108000e+01
5.107986e+01
5.107973e+01
5.107961e+01
5.107949e+01
5.107939e+01
5.107929e+01
5.107920e+01
5.107912e+01
5.107905e+01
5.107900e+01
5.107895e+01
5.107891e+01
5.107889e+01
5.107889e+01
5.107890e+01
5.107892e+01
5.107896e+01
5.107902e+01
5.107909e+01
5.107933e+01
5.107969e+01
5.146279e+01
5.146243e+01
5.143385e+01
5.140034e+01
5.135714e+01
5.129845e+01
5.121753e+01
5.111100e+01
5.096437e+01
5.084086e+01
5.075443e+01
5.069817e+01
5.066441e+01
5.064719e+01
5.064159e+01
5.064490e+01
5.065543e+01
5.067197e+01
5.069357e+01
5.071949e+01
5.074913e+01
5.078198e+01
5.081763e+01
5.085575e+01
5.089600e+01
5.093793e+01
5.098077e+01
5.102347e+01
5.106302e+01
5.108818e+01
5.108593e+01
5.105017e+01
5.099493e+01
5.093707e+01
5.088970e+01
5.086059e+01
5.085070e+01
5.085385e+01
5.086552e+01
5.088245e+01
5.090253e+01
5.092431e+01
5.094668e+01
5.096871e+01
5.098965e+01
5.100882e+01
5.102563e+01
5.103971e+01
5.105102e+01
5.105978e+01
5.106639e+01
5.107126e+01
5.107482e+01
5.107741e+01
5.107927e+01
5.108061e+01
5.108157e+01
5.108223e+01
5.108268e+01
5.108296e+01
5.108312e+01
5.108317e+01
5.108315e+01
5.108307e+01
5.108294e+01
5.108279e+01
5.108261e+01
5.108241e+01
5.108221e+01
5.108200e+01
5.108179e+01
5.108158e+01
5.108137e+01
5.108117e+01
5.108097e+01
5.108078e+01
5.108060e+01
5.108043e+01
5.108027e+01
5.108011e+01
5.107997e+01
5.107983e+01
5.107971e+01
5.107959e+01
5.107948e+01
5.107937e+01
5.107928e+01
5.107919e+01
5.107912e+01
5.107905e+01
5.107899e+01
5.107895e+01
5.107891e+01
5.107889e+01
5.107888e+01
5.107889e+01
5.107892e+01
5.107897e+01
5.107904e+01
5.107915e+01
5.107940e+01
5.107977e+01
5.146089e+01
5.146053e+01
5.143693e+01
5.140813e+01
5.136866e+01
5.131066e+01
5.122327e+01
5.109739e+01
5.090551e+01
5.077584e+01
5.070274e+01
5.066041e+01
5.063686e+01
5.062731e+01
5.062630e+01
5.063218e+01
5.064411e+01
5.066128e+01
5.068299e+01
5.070866e+01
5.073782e+01
5.077001e+01
5.080482e+01
5.084183e+01
5.088082e+01
5.092178e+01
5.096472e+01
5.100970e+01
5.105703e+01
5.109482e+01
5.110235e+01
5.106738e+01
5.100387e+01
5.093850e+01
5.088649e+01
5.085432e+01
5.084289e+01
5.084649e+01
5.085860e+01
5.087592e+01
5.089628e+01
5.091825e+01
5.094071e+01
5.096273e+01
5.098352e+01
5.100274e+01
5.101982e+01
5.103436e+01
5.104625e+01
5.105566e+01
5.106290e+01
5.106839e+01
5.107250e+01
5.107554e+01
5.107779e+01
5.107944e+01
5.108064e+01
5.108149e+01
5.108207e+01
5.108245e+01
5.108267e+01
5.108278e+01
5.108279e+01
5.108274e+01
5.108264e+01
5.108250e+01
5.108234e+01
5.108216e+01
5.108198e+01
5.108178e+01
5.108159e+01
5.108139e+01
5.108120e+01
5.108102e+01
5.108083e+01
5.108066e+01
5.108049e+01
5.108033e+01
5.108018e+01
5.108004e+01
5.107991e+01
5.107978e+01
5.107966e+01
5.107955e+01
5.107945e+01
5.107936e+01
5.107927e+01
5.107919e+01
5.107912e+01
5.107905e+01
5.107900e+01
5.107895e+01
5.107892e+01
5.107889e+01
5.107888e+01
5.107889e+01
5.107892e+01
5.107897e+01
5.107905e+01
5.107917e+01
5.107943e+01
5.107980e+01
5.145946e+01
5.145910e+01
5.144238e+01
5.142062e+01
5.138775e+01
5.133285e+01
5.123662e+01
5.107148e+01
5.080107e+01
5.068185e+01
5.063576e+01
5.061313e+01
5.060251e+01
5.060259e+01
5.060694e+01
5.061577e+01
5.062933e+01
5.064726e+01
5.066908e+01
5.069441e+01
5.072291e+01
5.075426e+01
5.078809e+01
5.082396e+01
5.086165e+01
5.090199e+01
5.094605e+01
5.099432e+01
5.104505e+01
5.109551e+01
5.111705e+01
5.108884e+01
5.101848e+01
5.094394e+01
5.088604e+01
5.085080e+01
5.083761e+01
5.084126e+01
5.085423e+01
5.087166e+01
5.089180e+01
5.091348e+01
5.093569e+01
5.095747e+01
5.097789e+01
5.099693e+01
5.101414e+01
5.102905e+01
5.104145e+01
5.105142e+01
5.105925e+01
5.106529e+01
5.106989e+01
5.107336e+01
5.107596e+01
5.107789e+01
5.107931e+01
5.108033e+01
5.108104e+01
5.108153e+01
5.108184e+01
5.108201e+01
5.108209e+01
5.108210e+01
5.108206e+01
5.108197e+01
5.108186e+01
5.108174e+01
5.108159e+01
5.108144e+01
5.108128e+01
5.108112e+01
5.108096e+01
5.108080e+01
5.108064e+01
5.108049e+01
5.108034e+01
5.108020e+01
5.108007e+01
5.107995e+01
5.107983e+01
5.107972e+01
5.107962e+01
5.107952e+01
5.107943e+01
5.107935e+01
5.107927e+01
5.107919e+01
5.107912e+01
5.107906e+01
5.107901e+01
5.107896e+01
5.107893e+01
5.107890e+01
5.107889e+01
5.107889e+01
5.107892e+01
5.107896e+01
5.107904e+01
5.107917e+01
5.107943e+01
5.107979e+01
5.145901e+01
5.145865e+01
5.145062e+01
5.143870e+01
5.141732e+01
5.137299e+01
5.127279e+01
5.103756e+01
5.061929e+01
5.055204e+01
5.056019e+01
5.056350e+01
5.056588e+01
5.057481e+01
5.058455e+01
5.059622e+01
5.061161e+01
5.063048e+01
5.065247e+01
5.067736e+01
5.070503e+01
5.073533e+01
5.076803e+01
5.080274e+01
5.083901e+01
5.087825e+01
5.092312e+01
5.097627e+01
5.103334e+01
5.108280e+01
5.110707e+01
5.108234e+01
5.102535e+01
5.095370e+01
5.089710e+01
5.085997e+01
5.084359e+01
5.084463e+01
5.085681e+01
5.087384e+01
5.089294e+01
5.091345e+01
5.093458e+01
5.095542e+01
5.097497e+01
5.099312e+01
5.100993e+01
5.102476e+01
5.103731e+01
5.104758e+01
5.105577e+01
5.106218e+01
5.106714e+01
5.107093e+01
5.107379e+01
5.107594e+01
5.107753e+01
5.107869e+01
5.107953e+01
5.108013e+01
5.108054e+01
5.108083e+01
5.108101e+01
5.108113e+01
5.108119e+01
5.108121e+01
5.108119e+01
5.108116e+01
5.108109e+01
5.108100e+01
5.108090e+01
5.108078e+01
5.108066e+01
5.108054e+01
5.108042e+01
5.108030e+01
5.108019e+01
5.108008e+01
5.107997e+01
5.107987e+01
5.107978e+01
5.107969e+01
5.107960e+01
5.107952e+01
5.107944e+01
5.107936e+01
5.107929e+01
5.107922e+01
5.107916e+01
5.107910e+01
5.107904e+01
5.107899e+01
5.107895e+01
5.107892e+01
5.107890e+01
5.107890e+01
5.107891e+01
5.107895e+01
5.107903e+01
5.107914e+01
5.107939e+01
5.107975e+01
5.145975e+01
5.145938e+01
5.146126e+01
5.146184e+01
5.145856e+01
5.144122e+01
5.137216e+01
5.110264e+01
5.029621e+01
5.038296e+01
5.050033e+01
5.052885e+01
5.053831e+01
5.054778e+01
5.056164e+01
5.057502e+01
5.059259e+01
5.061270e+01
5.063488e+01
5.065912e+01
5.068553e+01
5.071425e+01
5.074530e+01
5.077832e+01
5.081255e+01
5.084738e+01
5.088330e+01
5.092384e+01
5.098074e+01
5.103936e+01
5.105132e+01
5.103095e+01
5.099811e+01
5.095644e+01
5.091614e+01
5.088466e+01
5.086645e+01
5.086248e+01
5.087012e+01
5.088496e+01
5.090182e+01
5.092008e+01
5.093911e+01
5.095807e+01
5.097601e+01
5.099240e+01
5.100796e+01
5.102202e+01
5.103417e+01
5.104430e+01
5.105253e+01
5.105908e+01
5.106420e+01
5.106816e+01
5.107118e+01
5.107346e+01
5.107517e+01
5.107646e+01
5.107743e+01
5.107817e+01
5.107874e+01
5.107919e+01
5.107954e+01
5.107983e+01
5.108007e+01
5.108025e+01
5.108037e+01
5.108044e+01
5.108047e+01
5.108048e+01
5.108046e+01
5.108042e+01
5.108036e+01
5.108030e+01
5.108023e+01
5.108016e+01
5.108009e+01
5.108001e+01
5.107994e+01
5.107986e+01
5.107979e+01
5.107971e+01
5.107964e+01
5.107957e+01
5.107950e+01
5.107943e+01
5.107936e+01
5.107929e+01
5.107923e+01
5.107917e+01
5.107911e+01
5.107905e+01
5.107901e+01
5.107896e+01
5.107894e+01
5.107892e+01
5.107892e+01
5.107894e+01
5.107900e+01
5.107910e+01
5.107931e+01
5.107968e+01
5.146142e+01
5.146106e+01
5.147262e+01
5.148638e+01
5.150512e+01
5.153114e+01
5.156060e+01
5.165877e+01
5.097785e+01
5.046410e+01
5.054451e+01
5.053376e+01
5.053482e+01
5.053771e+01
5.054629e+01
5.055992e+01
5.058121e+01
5.060253e+01
5.062424e+01
5.064662e+01
5.066990e+01
5.069424e+01
5.071952e+01
5.074507e+01
5.077034e+01
5.079555e+01
5.082108e+01
5.086311e+01
5.091212e+01
5.094953e+01
5.096022e+01
5.095912e+01
5.095576e+01
5.094951e+01
5.093629e+01
5.091814e+01
5.090239e+01
5.089421e+01
5.089530e+01
5.090464e+01
5.091823e+01
5.093317e+01
5.094907e+01
5.096518e+01
5.098063e+01
5.099467e+01
5.100812e+01
5.102064e+01
5.103176e+01
5.104128e+01
5.104918e+01
5.105560e+01
5.106070e+01
5.106471e+01
5.106783e+01
5.107023e+01
5.107207e+01
5.107351e+01
5.107466e+01
5.107557e+01
5.107635e+01
5.107703e+01
5.107761e+01
5.107810e+01
5.107853e+01
5.107891e+01
5.107924e+01
5.107951e+01
5.107973e+01
5.107991e+01
5.108003e+01
5.108012e+01
5.108017e+01
5.108019e+01
5.108018e+01
5.108016e+01
5.108013e+01
5.108009e+01
5.108003e+01
5.107998e+01
5.107991e+01
5.107985e+01
5.107978e+01
5.107971e+01
5.107964e+01
5.107957e+01
5.107950e+01
5.107943e+01
5.107935e+01
5.107928e+01
5.107922e+01
5.107915e+01
5.107909e+01
5.107903e+01
5.107899e+01
5.107895e+01
5.107893e+01
5.107894e+01
5.107897e+01
5.107903e+01
5.107920e+01
5.107957e+01
5.146337e+01
5.146301e+01
5.148212e+01
5.150600e+01
5.154110e+01
5.159788e+01
5.169356e+01
5.182825e+01
5.185745e+01
0.000000e+00
5.053697e+01
5.053660e+01
5.053475e+01
5.054634e+01
5.054992e+01
5.056225e+01
5.058411e+01
5.060806e+01
5.062941e+01
5.064958e+01
5.066902e+01
5.068791e+01
5.070625e+01
5.072298e+01
5.073852e+01
5.075187e+01
5.076688e+01
5.078805e+01
5.081555e+01
5.084634e+01
5.087721e+01
5.090400e+01
5.092755e+01
5.094747e+01
5.095857e+01
5.095690e+01
5.094641e+01
5.093584e+01
5.093075e+01
5.093299e+01
5.094146e+01
5.095184e+01
5.096357e+01
5.097587e+01
5.098793e+01
5.099907e+01
5.100971e+01
5.102002e+01
5.102952e+01
5.103793e+01
5.104516e+01
5.105122e+01
5.105618e+01
5.106018e+01
5.106339e+01
5.106594e+01
5.106789e+01
5.106949e+01
5.107086e+01
5.107195e+01
5.107297e+01
5.107392e+01
5.107484e+01
5.107572e+01
5.107655e+01
5.107731e+01
5.107799e+01
5.107857e+01
5.107906e+01
5.107946e+01
5.107978e+01
5.108002e+01
5.108018e+01
5.108029e+01
5.108036e+01
5.108038e+01
5.108038e+01
5.108036e+01
5.108032e+01
5.108026e+01
5.108020e+01
5.108013e+01
5.108005e+01
5.107997e+01
5.107989e+01
5.107980e+01
5.107972e+01
5.107963e+01
5.107954e+01
5.107946e+01
5.107937e+01
5.107929e+01
5.107921e+01
5.107913e+01
5.107906e+01
5.107900e+01
5.107896e+01
5.107893e+01
5.107893e+01
5.107895e+01
5.107906e+01
5.107943e+01
5.146490e+01
5.146453e+01
5.148772e+01
5.151623e+01
5.155630e+01
5.161589e+01
5.170131e+01
5.180426e+01
5.188591e+01
5.188628e+01
0.000000e+00
5.057094e+01
5.057058e+01
5.057426e+01
5.058211e+01
5.059346e+01
5.061478e+01
5.063800e+01
5.065903e+01
5.067807e+01
5.069507e+01
5.070965e+01
5.072087e+01
5.072690e+01
5.072764e+01
5.072466e+01
5.071848e+01
5.071531e+01
5.072625e+01
5.076622e+01
5.081960e+01
5.087210e+01
5.091718e+01
5.095419e+01
5.098171e+01
5.099420e+01
5.099258e+01
5.098271e+01
5.097294e+01
5.096854e+01
5.097031e+01
5.097510e+01
5.098174e+01
5.098936e+01
5.099721e+01
5.100472e+01
5.101201e+01
5.101947e+01
5.102673e+01
5.103354e+01
5.103976e+01
5.104528e+01
5.105000e+01
5.105398e+01
5.105734e+01
5.106022e+01
5.106252e+01
5.106456e+01
5.106632e+01
5.106794e+01
5.106949e+01
5.107099e+01
5.107242e+01
5.107375e+01
5.107498e+01
5.107610e+01
5.107709e+01
5.107795e+01
5.107868e+01
5.107928e+01
5.107976e+01
5.108013e+01
5.108040e+01
5.108059e+01
5.108072e+01
5.108078e+01
5.108080e+01
5.108079e+01
5.108075e+01
5.108069e+01
5.108062e+01
5.108053e+01
5.108043e+01
5.108033e+01
5.108023e+01
5.108012e+01
5.108001e+01
5.107990e+01
5.107979e+01
5.107968e+01
5.107957e+01
5.107946e+01
5.107936e+01
5.107926e+01
5.107916e+01
5.107907e+01
5.107899e+01
5.107893e+01
5.107888e+01
5.107886e+01
5.107890e+01
5.107926e+01
5.146561e+01
5.146524e+01
5.148897e+01
5.151713e+01
5.155413e+01
5.160412e+01
5.167052e+01
5.173633e+01
5.176191e+01
5.154619e+01
5.154655e+01
0.000000e+00
5.059273e+01
5.061415e+01
5.061509e+01
5.063553e+01
5.066605e+01
5.069260e+01
5.071142e+01
5.072698e+01
5.073866e+01
5.074467e+01
5.074478e+01
5.073828e+01
5.072741e+01
5.070756e+01
5.067923e+01
5.065297e+01
5.066153e+01
5.071502e+01
5.078849e+01
5.086182e+01
5.092210e+01
5.096774e+01
5.100307e+01
5.102592e+01
5.103310e+01
5.102768e+01
5.101706e+01
5.100798e+01
5.100320e+01
5.100192e+01
5.100281e+01
5.100498e+01
5.100783e+01
5.101095e+01
5.101434e+01
5.101827e+01
5.102260e+01
5.102726e+01
5.103217e+01
5.103717e+01
5.104226e+01
5.104680e+01
5.105079e+01
5.105422e+01
5.105721e+01
5.105993e+01
5.106246e+01
5.106481e+01
5.106700e+01
5.106903e+01
5.107090e+01
5.107260e+01
5.107413e+01
5.107550e+01
5.107669e+01
5.107772e+01
5.107858e+01
5.107931e+01
5.107989e+01
5.108036e+01
5.108071e+01
5.108097e+01
5.108114e+01
5.108124e+01
5.108129e+01
5.108129e+01
5.108125e+01
5.108119e+01
5.108110e+01
5.108099e+01
5.108088e+01
5.108075e+01
5.108062e+01
5.108049e+01
5.108036e+01
5.108022e+01
5.108008e+01
5.107994e+01
5.107981e+01
5.107967e+01
5.107954e+01
5.107940e+01
5.107928e+01
5.107915e+01
5.107904e+01
5.107893e+01
5.107883e+01
5.107876e+01
5.107870e+01
5.107907e+01
5.146548e+01
5.146511e+01
5.148656e+01
5.151088e+01
5.154051e+01
5.157680e+01
5.161284e+01
5.162655e+01
5.157094e+01
5.146471e+01
5.107825e+01
5.077274e+01
5.058781e+01
5.061252e+01
5.062655e+01
5.066134e+01
5.070431e+01
5.073445e+01
5.074978e+01
5.076298e+01
5.077220e+01
5.077371e+01
5.076626e+01
5.075079e+01
5.073052e+01
5.069546e+01
5.064721e+01
5.060951e+01
5.062878e+01
5.069517e+01
5.078272e+01
5.086900e+01
5.093531e+01
5.098434e+01
5.102107e+01
5.104780e+01
5.106160e+01
5.106126e+01
5.105285e+01
5.104370e+01
5.103571e+01
5.102969e+01
5.102496e+01
5.102127e+01
5.101859e+01
5.101686e+01
5.101594e+01
5.101591e+01
5.101702e+01
5.101950e+01
5.102341e+01
5.102816e+01
5.103363e+01
5.103898e+01
5.104405e+01
5.104874e+01
5.105293e+01
5.105666e+01
5.106000e+01
5.106301e+01
5.106574e+01
5.106819e+01
5.107036e+01
5.107229e+01
5.107399e+01
5.107547e+01
5.107675e+01
5.107784e+01
5.107876e+01
5.107953e+01
5.108016e+01
5.108066e+01
5.108106e+01
5.108135e+01
5.108155e+01
5.108168e+01
5.108175e+01
5.108176e+01
5.108173e+01
5.108166e+01
5.108157e+01
5.108145e+01
5.108132e+01
5.108118e+01
5.108103e+01
5.108087e+01
5.108071e+01
5.108055e+01
5.108038e+01
5.108022e+01
5.108005e+01
5.107989e+01
5.107972e+01
5.107956e+01
5.107940e+01
5.107924e+01
5.107908e+01
5.107893e+01
5.107878e+01
5.107864e+01
5.107850e+01
5.107886e+01
5.146473e+01
5.146437e+01
5.148166e+01
5.150029e+01
5.152058e+01
5.153989e+01
5.154916e+01
5.152834e+01
5.144182e+01
5.127840e+01
5.101941e+01
5.046651e+01
5.056238e+01
5.062820e+01
5.065862e+01
5.069231e+01
5.073279e+01
5.075380e+01
5.077049e+01
5.078745e+01
5.079750e+01
5.079567e+01
5.078242e+01
5.076040e+01
5.073238e+01
5.068611e+01
5.062546e+01
5.059698e+01
5.062834e+01
5.070379e+01
5.079793e+01
5.088425e+01
5.095055e+01
5.099933e+01
5.103423e+01
5.105862e+01
5.107305e+01
5.107568e+01
5.107085e+01
5.106579e+01
5.105902e+01
5.105107e+01
5.104217e+01
5.103377e+01
5.102663e+01
5.102101e+01
5.101620e+01
5.101241e+01
5.101020e+01
5.101024e+01
5.101281e+01
5.101796e+01
5.102489e+01
5.103227e+01
5.103919e+01
5.104528e+01
5.105060e+01
5.105516e+01
5.105909e+01
5.106253e+01
5.106555e+01
5.106819e+01
5.107052e+01
5.107254e+01
5.107431e+01
5.107583e+01
5.107713e+01
5.107823e+01
5.107916e+01
5.107993e+01
5.108055e+01
5.108105e+01
5.108144e+01
5.108174e+01
5.108194e+01
5.108208e+01
5.108215e+01
5.108216e+01
5.108214e+01
5.108207e+01
5.108197e+01
5.108185e+01
5.108171e+01
5.108156e+01
5.108139e+01
5.108122e+01
5.108104e+01
5.108086e+01
5.108067e+01
5.108048e+01
5.108029e+01
5.108010e+01
5.107991e+01
5.107971e+01
5.107952e+01
5.107932e+01
5.107912e+01
5.107893e+01
5.107873e+01
5.107853e+01
5.107828e+01
5.107865e+01
5.146368e+01
5.146331e+01
5.147562e+01
5.148781e+01
5.149854e+01
5.150408e+01
5.149619e+01
5.146039e+01
5.137513e+01
5.122180e+01
5.101297e+01
5.072387e+01
5.068356e+01
5.069213e+01
5.070526e+01
5.072474e+01
5.074960e+01
5.076842e+01
5.078588e+01
5.079786e+01
5.080093e+01
5.079466e+01
5.078038e+01
5.075957e+01
5.073091e+01
5.068019e+01
5.062688e+01
5.061639e+01
5.065741e+01
5.073433e+01
5.082488e+01
5.090333e+01
5.096473e+01
5.101030e+01
5.104218e+01
5.106172e+01
5.106963e+01
5.106967e+01
5.106952e+01
5.107055e+01
5.106771e+01
5.106045e+01
5.105073e+01
5.104052e+01
5.103114e+01
5.102300e+01
5.101492e+01
5.100765e+01
5.100167e+01
5.099951e+01
5.100270e+01
5.101014e+01
5.101939e+01
5.102868e+01
5.103717e+01
5.104424e+01
5.105016e+01
5.105514e+01
5.105936e+01
5.106298e+01
5.106610e+01
5.106880e+01
5.107114e+01
5.107316e+01
5.107490e+01
5.107638e+01
5.107765e+01
5.107872e+01
5.107961e+01
5.108035e+01
5.108095e+01
5.108143e+01
5.108180e+01
5.108209e+01
5.108229e+01
5.108242e+01
5.108248e+01
5.108250e+01
5.108247e+01
5.108241e+01
5.108231e+01
5.108219e+01
5.108204e+01
5.108188e+01
5.108171e+01
5.108152e+01
5.108133e+01
5.108113e+01
5.108092e+01
5.108072e+01
5.108050e+01
5.108029e+01
5.108007e+01
5.107985e+01
5.107963e+01
5.107940e+01
5.107916e+01
5.107892e+01
5.107867e+01
5.107841e+01
5.107807e+01
5.107843e+01
5.146266e+01
5.146229e+01
5.146941e+01
5.147542e+01
5.147825e+01
5.147421e+01
5.145696e+01
5.141713e+01
5.134276e+01
5.122196e+01
5.105665e+01
5.086744e+01
5.078887e+01
5.076215e+01
5.075525e+01
5.075961e+01
5.077059e+01
5.078227e+01
5.079143e+01
5.079605e+01
5.079446e+01
5.078662e+01
5.077393e+01
5.075728e+01
5.073090e+01
5.068827e+01
5.065562e+01
5.065968e+01
5.070400e+01
5.077529e+01
5.085401e+01
5.092220e+01
5.097655e+01
5.101705e+01
5.104480e+01
5.106125e+01
5.106879e+01
5.107094e+01
5.107169e+01
5.107076e+01
5.106667e+01
5.105966e+01
5.105078e+01
5.104132e+01
5.103241e+01
5.102284e+01
5.101279e+01
5.100262e+01
5.099430e+01
5.099285e+01
5.099803e+01
5.100733e+01
5.101819e+01
5.102865e+01
5.103760e+01
5.104503e+01
5.105118e+01
5.105626e+01
5.106051e+01
5.106410e+01
5.106715e+01
5.106976e+01
5.107200e+01
5.107393e+01
5.107557e+01
5.107698e+01
5.107817e+01
5.107917e+01
5.108001e+01
5.108070e+01
5.108126e+01
5.108172e+01
5.108207e+01
5.108234e+01
5.108253e+01
5.108266e+01
5.108273e+01
5.108275e+01
5.108273e+01
5.108266e+01
5.108257e+01
5.108245e+01
5.108230e+01
5.108214e+01
5.108196e+01
5.108177e+01
5.108157e+01
5.108136e+01
5.108114e+01
5.108092e+01
5.108069e+01
5.108045e+01
5.108021e+01
5.107997e+01
5.107972e+01
5.107946e+01
5.107918e+01
5.107890e+01
5.107860e+01
5.107829e+01
5.107786e+01
5.107823e+01
5.146170e+01
5.146134e+01
5.146376e+01
5.146454e+01
5.146139e+01
5.145108e+01
5.142897e+01
5.138908e+01
5.132464e+01
5.122891e+01
5.110051e+01
5.095689e+01
5.086945e+01
5.082379e+01
5.080108e+01
5.079225e+01
5.079161e+01
5.079442e+01
5.079641e+01
5.079559e+01
5.079067e+01
5.078160e+01
5.076949e+01
5.075357e+01
5.073078e+01
5.070226e+01
5.068803e+01
5.070327e+01
5.074841e+01
5.081231e+01
5.087948e+01
5.093856e+01
5.098616e+01
5.102181e+01
5.104635e+01
5.106140e+01
5.106929e+01
5.107256e+01
5.107313e+01
5.107101e+01
5.106599e+01
5.105854e+01
5.104963e+01
5.104054e+01
5.103098e+01
5.102058e+01
5.100946e+01
5.099809e+01
5.099098e+01
5.099153e+01
5.099837e+01
5.100883e+01
5.102037e+01
5.103083e+01
5.103975e+01
5.104712e+01
5.105316e+01
5.105809e+01
5.106215e+01
5.106554e+01
5.106838e+01
5.107080e+01
5.107287e+01
5.107464e+01
5.107616e+01
5.107745e+01
5.107856e+01
5.107950e+01
5.108028e+01
5.108094e+01
5.108147e+01
5.108190e+01
5.108224e+01
5.108251e+01
5.108269e+01
5.108282e+01
5.108289e+01
5.108291e+01
5.108289e+01
5.108284e+01
5.108275e+01
5.108263e+01
5.108249e+01
5.108233e+01
5.108215e+01
5.108195e+01
5.108175e+01
5.108153e+01
5.108130e+01
5.108107e+01
5.108083e+01
5.108058e+01
5.108033e+01
5.108006e+01
5.107979e+01
5.107950e+01
5.107920e+01
5.107888e+01
5.107853e+01
5.107817e+01
5.107767e+01
5.107804e+01
5.146093e+01
5.146056e+01
5.145912e+01
5.145582e+01
5.144837e+01
5.143403e+01
5.140935e+01
5.137029e+01
5.131275e+01
5.123303e+01
5.113036e+01
5.101632e+01
5.092982e+01
5.087333e+01
5.083921e+01
5.082011e+01
5.081038e+01
5.080555e+01
5.080181e+01
5.079685e+01
5.078935e+01
5.077902e+01
5.076631e+01
5.075066e+01
5.073175e+01
5.071502e+01
5.071401e+01
5.073701e+01
5.078231e+01
5.084021e+01
5.089918e+01
5.095131e+01
5.099354e+01
5.102540e+01
5.104768e+01
5.106196e+01
5.107019e+01
5.107410e+01
5.107475e+01
5.107236e+01
5.106706e+01
5.105934e+01
5.104996e+01
5.103997e+01
5.102905e+01
5.101729e+01
5.100524e+01
5.099465e+01
5.099026e+01
5.099309e+01
5.100141e+01
5.101252e+01
5.102386e+01
5.103405e+01
5.104266e+01
5.104971e+01
5.105543e+01
5.106006e+01
5.106384e+01
5.106695e+01
5.106955e+01
5.107175e+01
5.107362e+01
5.107523e+01
5.107661e+01
5.107779e+01
5.107881e+01
5.107968e+01
5.108042e+01
5.108104e+01
5.108155e+01
5.108197e+01
5.108231e+01
5.108257e+01
5.108276e+01
5.108289e+01
5.108297e+01
5.108300e+01
5.108299e+01
5.108294e+01
5.108285e+01
5.108274e+01
5.108261e+01
5.108245e+01
5.108227e+01
5.108208e+01
5.108187e+01
5.108165e+01
5.108142e+01
5.108118e+01
5.108093e+01
5.108067e+01
5.108041e+01
5.108013e+01
5.107983e+01
5.107952e+01
5.107919e+01
5.107884e+01
5.107846e+01
5.107806e+01
5.107750e+01
5.107787e+01
5.146039e+01
5.146002e+01
5.145566e+01
5.144939e+01
5.143901e+01
5.142215e+01
5.139608e+01
5.135787e+01
5.130477e+01
5.123472e+01
5.114801e+01
5.105275e+01
5.097120e+01
5.091046e+01
5.086887e+01
5.084210e+01
5.082551e+01
5.081494e+01
5.080684e+01
5.079875e+01
5.078922e+01
5.077766e+01
5.076407e+01
5.074862e+01
5.073328e+01
5.072477e+01
5.073248e+01
5.076079e+01
5.080592e+01
5.085955e+01
5.091306e+01
5.096044e+01
5.099897e+01
5.102816e+01
5.104890e+01
5.106268e+01
5.107111e+01
5.107544e+01
5.107634e+01
5.107408e+01
5.106888e+01
5.106109e+01
5.105119e+01
5.103985e+01
5.102711e+01
5.101364e+01
5.100108e+01
5.099240e+01
5.099068e+01
5.099564e+01
5.100510e+01
5.101643e+01
5.102749e+01
5.103725e+01
5.104541e+01
5.105206e+01
5.105741e+01
5.106172e+01
5.106522e+01
5.106809e+01
5.107048e+01
5.107249e+01
5.107419e+01
5.107565e+01
5.107691e+01
5.107800e+01
5.107894e+01
5.107975e+01
5.108045e+01
5.108104e+01
5.108153e+01
5.108195e+01
5.108228e+01
5.108254e+01
5.108274e+01
5.108288e+01
5.108297e+01
5.108301e+01
5.108301e+01
5.108297e+01
5.108289e+01
5.108279e+01
5.108266e+01
5.108251e+01
5.108234e+01
5.108215e+01
5.108194e+01
5.108172e+01
5.108149e+01
5.108125e+01
5.108099e+01
5.108073e+01
5.108045e+01
5.108016e+01
5.107985e+01
5.107953e+01
5.107918e+01
5.107880e+01
5.107839e+01
5.107795e+01
5.107737e+01
5.107773e+01
5.146006e+01
5.145970e+01
5.145341e+01
5.144522e+01
5.143303e+01
5.141471e+01
5.138795e+01
5.135040e+01
5.130000e+01
5.123553e+01
5.115792e+01
5.107351e+01
5.099639e+01
5.093437e+01
5.088876e+01
5.085724e+01
5.083616e+01
5.082175e+01
5.081068e+01
5.080047e+01
5.078949e+01
5.077692e+01
5.076259e+01
5.074742e+01
5.073496e+01
5.073199e+01
5.074502e+01
5.077590e+01
5.082052e+01
5.087148e+01
5.092164e+01
5.096599e+01
5.100213e+01
5.102971e+01
5.104958e+01
5.106310e+01
5.107168e+01
5.107633e+01
5.107752e+01
5.107556e+01
5.107064e+01
5.106291e+01
5.105256e+01
5.103988e+01
5.102534e+01
5.101039e+01
5.099784e+01
5.099099e+01
5.099140e+01
5.099803e+01
5.100827e+01
5.101957e+01
5.103032e+01
5.103970e+01
5.104748e+01
5.105379e+01
5.105885e+01
5.106292e+01
5.106621e+01
5.106890e+01
5.107113e+01
5.107300e+01
5.107458e+01
5.107594e+01
5.107711e+01
5.107812e+01
5.107900e+01
5.107976e+01
5.108042e+01
5.108099e+01
5.108147e+01
5.108188e+01
5.108221e+01
5.108247e+01
5.108268e+01
5.108283e+01
5.108292e+01
5.108297e+01
5.108298e+01
5.108295e+01
5.108289e+01
5.108279e+01
5.108267e+01
5.108252e+01
5.108235e+01
5.108217e+01
5.108197e+01
5.108175e+01
5.108152e+01
5.108127e+01
5.108102e+01
5.108075e+01
5.108047e+01
5.108017e+01
5.107986e+01
5.107952e+01
5.107915e+01
5.107876e+01
5.107832e+01
5.107784e+01
5.107726e+01
5.107763e+01
5.145992e+01
5.145956e+01
5.145230e+01
5.144319e+01
5.143016e+01
5.141121e+01
5.138424e+01
5.134715e+01
5.129816e+01
5.123638e+01
5.116297e+01
5.108348e+01
5.100870e+01
5.094634e+01
5.089890e+01
5.086507e+01
5.084174e+01
5.082538e+01
5.081278e+01
5.080147e+01
5.078974e+01
5.077660e+01
5.076191e+01
5.074709e+01
5.073634e+01
5.073594e+01
5.075112e+01
5.078278e+01
5.082684e+01
5.087640e+01
5.092498e+01
5.096799e+01
5.100314e+01
5.103009e+01
5.104965e+01
5.106311e+01
5.107177e+01
5.107654e+01
5.107793e+01
5.107623e+01
5.107158e+01
5.106403e+01
5.105351e+01
5.104001e+01
5.102437e+01
5.100875e+01
5.099656e+01
5.099083e+01
5.099234e+01
5.099960e+01
5.100999e+01
5.102114e+01
5.103170e+01
5.104088e+01
5.104848e+01
5.105463e+01
5.105956e+01
5.106350e+01
5.106669e+01
5.106929e+01
5.107144e+01
5.107325e+01
5.107477e+01
5.107608e+01
5.107721e+01
5.107819e+01
5.107904e+01
5.107978e+01
5.108042e+01
5.108097e+01
5.108144e+01
5.108184e+01
5.108217e+01
5.108243e+01
5.108264e+01
5.108279e+01
5.108289e+01
5.108294e+01
5.108295e+01
5.108293e+01
5.108287e+01
5.108277e+01
5.108266e+01
5.108251e+01
5.108235e+01
5.108216e+01
5.108196e+01
5.108175e+01
5.108152e+01
5.108127e+01
5.108102e+01
5.108075e+01
5.108046e+01
5.108016e+01
5.107985e+01
5.107950e+01
5.107913e+01
5.107872e+01
5.107825e+01
5.107771e+01
5.107715e+01
5.107752e+01
0.000000e+00
5.145992e+01
5.145267e+01
5.144355e+01
5.143052e+01
5.141158e+01
5.138461e+01
5.134752e+01
5.129853e+01
5.123674e+01
5.116333e+01
5.108385e+01
5.100906e+01
5.094670e+01
5.089926e+01
5.086544e+01
5.084211e+01
5.082574e+01
5.081314e+01
5.080184e+01
5.079011e+01
5.077697e+01
5.076227e+01
5.074746e+01
5.073670e+01
5.073630e+01
5.075148e+01
5.078314e+01
5.082720e+01
5.087676e+01
5.092534e+01
5.096836e+01
5.100351e+01
5.103045e+01
5.105001e+01
5.106348e+01
5.107214e+01
5.107690e+01
5.107830e+01
5.107660e+01
5.107194e+01
5.106439e+01
5.105388e+01
5.104037e+01
5.102474e+01
5.100911e+01
5.099693e+01
5.099120e+01
5.099270e+01
5.099997e+01
5.101035e+01
5.102151e+01
5.103207e+01
5.104125e+01
5.104885e+01
5.105500e+01
5.105992e+01
5.106387e+01
5.106705e+01
5.106966e+01
5.107181e+01