# vtk DataFile Version 3.0
Scalar Field
ASCII
DATASET RECTILINEAR_GRID
DIMENSIONS 102 22 1
X_COORDINATES 102 double
0.000000 0.100000 0.200000 0.300000 0.400000 0.500000 0.600000 0.700000 0.800000 0.900000 1.000000 1.100000 1.200000 1.300000 1.400000 1.500000 1.600000 1.700000 1.800000 1.900000 2.000000 2.100000 2.200000 2.300000 2.400000 2.500000 2.600000 2.700000 2.800000 2.900000 3.000000 3.100000 3.200000 3.300000 3.400000 3.500000 3.600000 3.700000 3.800000 3.900000 4.000000 4.100000 4.200000 4.300000 4.400000 4.500000 4.600000 4.700000 4.800000 4.900000 5.000000 5.100000 5.200000 5.300000 5.400000 5.500000 5.600000 5.700000 5.800000 5.900000 6.000000 6.100000 6.200000 6.300000 6.400000 6.500000 6.600000 6.700000 6.800000 6.900000 7.000000 7.100000 7.200000 7.300000 7.400000 7.500000 7.600000 7.700000 7.800000 7.900000 8.000000 8.100000 8.200000 8.300000 8.400000 8.500000 8.600000 8.700000 8.800000 8.900000 9.000000 9.100000 9.200000 9.300000 9.400000 9.500000 9.600000 9.700000 9.800000 9.900000 10.000000 10.100000 
Y_COORDINATES 22 double
0.000000 0.100000 0.200000 0.300000 0.400000 0.500000 0.600000 0.700000 0.800000 0.900000 1.000000 1.100000 1.200000 1.300000 1.400000 1.500000 1.600000 1.700000 1.800000 1.900000 2.000000 2.100000 
Z_COORDINATES 1 double
0.0
POINT_DATA 2244
SCALARS Pressure double 1
LOOKUP_TABLE default
0.000000e+00
3.238369e+01
3.235740e+01
3.232669e+01
3.228847e+01
3.223925e+01
3.217582e+01
3.209714e+01
3.200343e+01
3.191296e+01
3.183956e+01
3.178689e+01
3.175251e+01
3.173191e+01
3.172052e+01
3.171419e+01
3.170917e+01
3.170243e+01
3.169277e+01
3.168172e+01
3.167280e+01
3.166942e+01
3.167304e+01
3.168306e+01
3.169815e+01
3.171708e+01
3.173904e+01
3.176375e+01
3.179125e+01
3.182170e+01
3.185507e+01
3.189101e+01
3.192879e+01
3.196737e+01
3.200555e+01
3.204202e+01
3.207539e+01
3.210441e+01
3.212852e+01
3.214813e+01
3.216447e+01
3.217907e+01
3.219305e+01
3.220450e+01
3.221004e+01
3.220508e+01
3.218525e+01
3.214805e+01
3.209575e+01
3.203507e+01
3.197587e+01
3.192848e+01
3.190005e+01
3.189160e+01
3.189708e+01
3.191235e+01
3.193405e+01
3.195917e+01
3.198497e+01
3.200912e+01
3.202988e+01
3.204643e+01
3.205882e+01
3.206767e+01
3.207382e+01
3.207809e+01
3.208111e+01
3.208332e+01
3.208502e+01
3.208638e+01
3.208752e+01
3.208848e+01
3.208932e+01
3.209003e+01
3.209065e+01
3.209117e+01
3.209162e+01
3.209198e+01
3.209228e+01
3.209253e+01
3.209271e+01
3.209286e+01
3.209296e+01
3.209302e+01
3.209307e+01
3.209309e+01
3.209310e+01
3.209310e+01
3.209309e+01
3.209309e+01
3.209310e+01
3.209313e+01
3.209318e+01
3.209325e+01
3.209336e+01
3.209350e+01
3.209368e+01
3.209388e+01
3.209408e+01
3.209426e+01
3.209452e+01
0.000000e+00
3.238369e+01
3.238416e+01
3.235786e+01
3.232715e+01
3.228893e+01
3.223972e+01
3.217628e+01
3.209761e+01
3.200389e+01
3.191342e+01
3.184002e+01
3.178735e+01
3.175297e+01
3.173237e+01
3.172099e+01
3.171466e+01
3.170963e+01
3.170289e+01
3.169323e+01
3.168218e+01
3.167326e+01
3.166989e+01
3.167350e+01
3.168352e+01
3.169862e+01
3.171754e+01
3.173951e+01
3.176422e+01
3.179172e+01
3.182217e+01
3.185553e+01
3.189147e+01
3.192926e+01
3.196784e+01
3.200602e+01
3.204249e+01
3.207586e+01
3.210488e+01
3.212898e+01
3.214860e+01
3.216494e+01
3.217954e+01
3.219352e+01
3.220497e+01
3.221051e+01
3.220554e+01
3.218571e+01
3.214851e+01
3.209622e+01
3.203554e+01
3.197634e+01
3.192895e+01
3.190052e+01
3.189207e+01
3.189755e+01
3.191282e+01
3.193452e+01
3.195964e+01
3.198543e+01
3.200959e+01
3.203035e+01
3.204690e+01
3.205929e+01
3.206814e+01
3.207429e+01
3.207856e+01
3.208157e+01
3.208379e+01
3.208548e+01
3.208685e+01
3.208799e+01
3.208895e+01
3.208978e+01
3.209050e+01
3.209112e+01
3.209164e+01
3.209209e+01
3.209245e+01
3.209275e+01
3.209299e+01
3.209318e+01
3.209332e+01
3.209343e+01
3.209349e+01
3.209354e+01
3.209356e+01
3.209357e+01
3.209357e+01
3.209356e+01
3.209356e+01
3.209357e+01
3.209360e+01
3.209365e+01
3.209372e+01
3.209383e+01
3.209397e+01
3.209414e+01
3.209435e+01
3.209455e+01
3.209473e+01
3.209499e+01
3.209452e+01
3.238342e+01
3.238389e+01
3.235900e+01
3.232948e+01
3.229197e+01
3.224254e+01
3.217721e+01
3.209462e+01
3.199170e+01
3.189668e+01
3.182383e+01
3.177392e+01
3.174255e+01
3.172453e+01
3.171530e+01
3.171093e+01
3.170781e+01
3.170262e+01
3.169370e+01
3.168246e+01
3.167283e+01
3.166888e+01
3.167256e+01
3.168288e+01
3.169825e+01
3.171726e+01
3.173905e+01
3.176335e+01
3.179028e+01
3.182009e+01
3.185284e+01
3.188824e+01
3.192558e+01
3.196381e+01
3.200168e+01
3.203793e+01
3.207126e+01
3.210029e+01
3.212437e+01
3.214378e+01
3.215972e+01
3.217349e+01
3.218571e+01
3.219464e+01
3.219777e+01
3.219157e+01
3.217170e+01
3.213524e+01
3.208485e+01
3.202724e+01
3.197152e+01
3.192698e+01
3.190004e+01
3.189252e+01
3.189885e+01
3.191394e+01
3.193471e+01
3.195827e+01
3.198217e+01
3.200462e+01
3.202451e+01
3.204104e+01
3.205401e+01
3.206369e+01
3.207071e+01
3.207578e+01
3.207948e+01
3.208222e+01
3.208434e+01
3.208602e+01
3.208739e+01
3.208854e+01
3.208950e+01
3.209031e+01
3.209100e+01
3.209157e+01
3.209204e+01
3.209243e+01
3.209275e+01
3.209299e+01
3.209318e+01
3.209332e+01
3.209342e+01
3.209349e+01
3.209352e+01
3.209354e+01
3.209354e+01
3.209354e+01
3.209353e+01
3.209352e+01
3.209353e+01
3.209355e+01
3.209359e+01
3.209367e+01
3.209377e+01
3.209391e+01
3.209409e+01
3.209431e+01
3.209456e+01
3.209482e+01
3.209514e+01
3.209467e+01
3.238338e+01
3.238385e+01
3.236189e+01
3.233502e+01
3.229943e+01
3.225006e+01
3.218110e+01
3.208965e+01
3.196478e+01
3.186125e+01
3.179125e+01
3.174781e+01
3.172271e+01
3.170968e+01
3.170441e+01
3.170373e+01
3.170439e+01
3.170253e+01
3.169506e+01
3.168331e+01
3.167218e+01
3.166697e+01
3.167077e+01
3.168178e+01
3.169775e+01
3.171692e+01
3.173833e+01
3.176176e+01
3.178747e+01
3.181585e+01
3.184714e+01
3.188119e+01
3.191739e+01
3.195471e+01
3.199189e+01
3.202766e+01
3.206078e+01
3.208991e+01
3.211424e+01
3.213377e+01
3.214951e+01
3.216283e+01
3.217384e+01
3.218104e+01
3.218226e+01
3.217465e+01
3.215489e+01
3.212013e+01
3.207204e+01
3.201814e+01
3.196651e+01
3.192544e+01
3.190068e+01
3.189386e+01
3.190113e+01
3.191566e+01
3.193488e+01
3.195638e+01
3.197813e+01
3.199857e+01
3.201700e+01
3.203296e+01
3.204611e+01
3.205658e+01
3.206470e+01
3.207088e+01
3.207558e+01
3.207919e+01
3.208201e+01
3.208425e+01
3.208607e+01
3.208756e+01
3.208879e+01
3.208981e+01
3.209065e+01
3.209133e+01
3.209189e+01
3.209233e+01
3.209268e+01
3.209295e+01
3.209314e+01
3.209329e+01
3.209338e+01
3.209344e+01
3.209347e+01
3.209348e+01
3.209347e+01
3.209345e+01
3.209344e+01
3.209343e+01
3.209343e+01
3.209344e+01
3.209348e+01
3.209355e+01
3.209365e+01
3.209379e+01
3.209399e+01
3.209423e+01
3.209453e+01
3.209487e+01
3.209531e+01
3.209484e+01
3.238388e+01
3.238435e+01
3.236695e+01
3.234448e+01
3.231248e+01
3.226397e+01
3.218925e+01
3.208010e+01
3.191318e+01
3.180149e+01
3.174185e+01
3.171060e+01
3.169489e+01
3.168889e+01
3.168903e+01
3.169331e+01
3.169942e+01
3.170297e+01
3.169814e+01
3.168515e+01
3.167122e+01
3.166378e+01
3.166737e+01
3.167990e+01
3.169706e+01
3.171670e+01
3.173760e+01
3.175971e+01
3.178352e+01
3.180977e+01
3.183892e+01
3.187103e+01
3.190560e+01
3.194164e+01
3.197785e+01
3.201288e+01
3.204556e+01
3.207475e+01
3.209952e+01
3.211958e+01
3.213563e+01
3.214885e+01
3.216001e+01
3.216567e+01
3.216455e+01
3.215534e+01
3.213610e+01
3.210474e+01
3.206111e+01
3.201272e+01
3.196641e+01
3.192939e+01
3.190676e+01
3.190003e+01
3.190727e+01
3.192090e+01
3.193830e+01
3.195757e+01
3.197707e+01
3.199545e+01
3.201210e+01
3.202706e+01
3.203987e+01
3.205046e+01
3.205902e+01
3.206583e+01
3.207125e+01
3.207558e+01
3.207907e+01
3.208191e+01
3.208423e+01
3.208613e+01
3.208769e+01
3.208896e+01
3.208999e+01
3.209082e+01
3.209148e+01
3.209199e+01
3.209239e+01
3.209269e+01
3.209291e+01
3.209306e+01
3.209317e+01
3.209323e+01
3.209326e+01
3.209327e+01
3.209327e+01
3.209326e+01
3.209324e+01
3.209323e+01
3.209323e+01
3.209325e+01
3.209328e+01
3.209335e+01
3.209345e+01
3.209360e+01
3.209380e+01
3.209408e+01
3.209443e+01
3.209487e+01
3.209552e+01
3.209505e+01
3.238530e+01
3.238577e+01
3.237465e+01
3.235873e+01
3.233308e+01
3.228798e+01
3.220595e+01
3.206178e+01
3.182062e+01
3.171459e+01
3.167740e+01
3.166426e+01
3.166102e+01
3.166375e+01
3.167008e+01
3.167956e+01
3.169179e+01
3.170322e+01
3.170424e+01
3.168944e+01
3.167060e+01
3.165941e+01
3.166182e+01
3.167715e+01
3.169653e+01
3.171743e+01
3.173785e+01
3.175826e+01
3.177953e+01
3.180289e+01
3.182916e+01
3.185865e+01
3.189104e+01
3.192542e+01
3.196045e+01
3.199463e+01
3.202665e+01
3.205587e+01
3.208130e+01
3.210258e+01
3.212007e+01
3.213397e+01
3.214396e+01
3.214768e+01
3.214384e+01
3.213336e+01
3.211565e+01
3.208907e+01
3.205255e+01
3.201160e+01
3.197213e+01
3.194002e+01
3.191972e+01
3.191285e+01
3.191817e+01
3.193051e+01
3.194579e+01
3.196265e+01
3.197977e+01
3.199604e+01
3.201068e+01
3.202420e+01
3.203614e+01
3.204635e+01
3.205489e+01
3.206194e+01
3.206774e+01
3.207252e+01
3.207646e+01
3.207971e+01
3.208240e+01
3.208461e+01
3.208642e+01
3.208789e+01
3.208908e+01
3.209003e+01
3.209077e+01
3.209136e+01
3.209181e+01
3.209215e+01
3.209240e+01
3.209259e+01
3.209272e+01
3.209282e+01
3.209288e+01
3.209291e+01
3.209293e+01
3.209294e+01
3.209294e+01
3.209294e+01
3.209295e+01
3.209297e+01
3.209301e+01
3.209308e+01
3.209318e+01
3.209334e+01
3.209355e+01
3.209386e+01
3.209427e+01
3.209481e+01
3.209572e+01
3.209525e+01
3.238790e+01
3.238836e+01
3.238512e+01
3.237830e+01
3.236356e+01
3.232907e+01
3.224505e+01
3.203858e+01
3.165835e+01
3.159205e+01
3.160123e+01
3.161383e+01
3.162463e+01
3.163670e+01
3.164886e+01
3.166185e+01
3.167729e+01
3.169664e+01
3.171042e+01
3.169846e+01
3.167300e+01
3.165593e+01
3.165694e+01
3.167351e+01
3.169733e+01
3.172166e+01
3.174170e+01
3.176017e+01
3.177826e+01
3.179804e+01
3.182069e+01
3.184684e+01
3.187638e+01
3.190854e+01
3.194198e+01
3.197501e+01
3.200600e+01
3.203517e+01
3.206166e+01
3.208487e+01
3.210408e+01
3.211791e+01
3.212519e+01
3.212526e+01
3.211837e+01
3.210758e+01
3.209307e+01
3.207313e+01
3.204593e+01
3.201426e+01
3.198292e+01
3.195647e+01
3.193872e+01
3.193146e+01
3.193420e+01
3.194429e+01
3.195703e+01
3.197120e+01
3.198573e+01
3.199967e+01
3.201234e+01
3.202405e+01
3.203474e+01
3.204417e+01
3.205232e+01
3.205927e+01
3.206516e+01
3.207012e+01
3.207429e+01
3.207778e+01
3.208067e+01
3.208307e+01
3.208503e+01
3.208662e+01
3.208791e+01
3.208893e+01
3.208975e+01
3.209039e+01
3.209089e+01
3.209129e+01
3.209160e+01
3.209185e+01
3.209205e+01
3.209220e+01
3.209232e+01
3.209241e+01
3.209248e+01
3.209253e+01
3.209256e+01
3.209259e+01
3.209261e+01
3.209264e+01
3.209269e+01
3.209276e+01
3.209287e+01
3.209303e+01
3.209325e+01
3.209357e+01
3.209402e+01
3.209466e+01
3.209583e+01
3.209536e+01
3.239168e+01
3.239215e+01
3.239774e+01
3.240230e+01
3.240440e+01
3.239566e+01
3.234267e+01
3.210635e+01
3.136458e+01
3.142752e+01
3.152899e+01
3.157084e+01
3.159235e+01
3.160927e+01
3.162573e+01
3.164269e+01
3.165817e+01
3.167856e+01
3.169975e+01
3.170212e+01
3.167720e+01
3.165528e+01
3.165540e+01
3.167403e+01
3.170350e+01
3.173184e+01
3.175333e+01
3.177039e+01
3.178486e+01
3.180065e+01
3.181897e+01
3.184080e+01
3.186643e+01
3.189529e+01
3.192614e+01
3.195721e+01
3.198636e+01
3.201464e+01
3.204172e+01
3.206595e+01
3.208501e+01
3.209674e+01
3.210021e+01
3.209602e+01
3.208748e+01
3.207832e+01
3.206888e+01
3.205735e+01
3.204099e+01
3.201999e+01
3.199750e+01
3.197707e+01
3.196204e+01
3.195442e+01
3.195453e+01
3.196133e+01
3.197121e+01
3.198242e+01
3.199412e+01
3.200554e+01
3.201612e+01
3.202587e+01
3.203507e+01
3.204347e+01
3.205098e+01
3.205759e+01
3.206333e+01
3.206827e+01
3.207248e+01
3.207602e+01
3.207898e+01
3.208143e+01
3.208344e+01
3.208508e+01
3.208641e+01
3.208748e+01
3.208835e+01
3.208906e+01
3.208964e+01
3.209012e+01
3.209052e+01
3.209087e+01
3.209117e+01
3.209142e+01
3.209162e+01
3.209178e+01
3.209192e+01
3.209202e+01
3.209211e+01
3.209218e+01
3.209224e+01
3.209231e+01
3.209237e+01
3.209246e+01
3.209257e+01
3.209273e+01
3.209295e+01
3.209326e+01
3.209372e+01
3.209439e+01
3.209576e+01
3.209529e+01
3.239627e+01
3.239673e+01
3.241077e+01
3.242702e+01
3.244906e+01
3.248034e+01
3.252046e+01
3.263535e+01
3.199950e+01
3.148087e+01
3.153516e+01
3.155149e+01
3.156769e+01
3.158202e+01
3.159735e+01
3.161450e+01
3.162878e+01
3.164946e+01
3.166512e+01
3.166810e+01
3.165590e+01
3.164501e+01
3.165113e+01
3.167296e+01
3.170981e+01
3.174396e+01
3.177098e+01
3.178976e+01
3.180223e+01
3.181496e+01
3.182885e+01
3.184550e+01
3.186584e+01
3.188973e+01
3.191616e+01
3.194349e+01
3.196971e+01
3.199377e+01
3.201765e+01
3.203963e+01
3.205647e+01
3.206504e+01
3.206575e+01
3.206020e+01
3.205328e+01
3.204815e+01
3.204528e+01
3.204289e+01
3.203798e+01
3.202826e+01
3.201474e+01
3.200026e+01
3.198794e+01
3.198009e+01
3.197779e+01
3.198096e+01
3.198754e+01
3.199550e+01
3.200415e+01
3.201287e+01
3.202122e+01
3.202898e+01
3.203655e+01
3.204377e+01
3.205046e+01
3.205654e+01
3.206194e+01
3.206667e+01
3.207074e+01
3.207420e+01
3.207710e+01
3.207952e+01
3.208151e+01
3.208315e+01
3.208450e+01
3.208562e+01
3.208654e+01
3.208733e+01
3.208801e+01
3.208860e+01
3.208911e+01
3.208956e+01
3.208997e+01
3.209035e+01
3.209068e+01
3.209098e+01
3.209123e+01
3.209146e+01
3.209164e+01
3.209180e+01
3.209193e+01
3.209204e+01
3.209214e+01
3.209224e+01
3.209236e+01
3.209250e+01
3.209269e+01
3.209297e+01
3.209338e+01
3.209400e+01
3.209537e+01
3.209490e+01
3.240099e+01
3.240145e+01
3.242176e+01
3.244656e+01
3.248264e+01
3.254047e+01
3.263747e+01
3.276870e+01
3.279038e+01
0.000000e+00
3.156001e+01
3.156048e+01
3.157226e+01
3.157928e+01
3.158487e+01
3.159172e+01
3.159678e+01
3.160183e+01
3.160222e+01
3.159339e+01
3.158075e+01
3.158199e+01
3.160754e+01
3.165433e+01
3.170816e+01
3.175359e+01
3.179308e+01
3.181662e+01
3.183031e+01
3.184055e+01
3.185111e+01
3.186226e+01
3.187616e+01
3.189332e+01
3.191304e+01
3.193380e+01
3.195356e+01
3.196984e+01
3.198787e+01
3.200490e+01
3.201645e+01
3.202134e+01
3.202117e+01
3.201981e+01
3.202003e+01
3.202238e+01
3.202701e+01
3.203299e+01
3.203792e+01
3.203863e+01
3.203375e+01
3.202481e+01
3.201504e+01
3.200707e+01
3.200261e+01
3.200225e+01
3.200524e+01
3.200973e+01
3.201518e+01
3.202107e+01
3.202704e+01
3.203287e+01
3.203869e+01
3.204456e+01
3.205025e+01
3.205560e+01
3.206050e+01
3.206487e+01
3.206870e+01
3.207199e+01
3.207477e+01
3.207711e+01
3.207905e+01
3.208065e+01
3.208199e+01
3.208316e+01
3.208415e+01
3.208500e+01
3.208579e+01
3.208654e+01
3.208726e+01
3.208794e+01
3.208858e+01
3.208917e+01
3.208971e+01
3.209020e+01
3.209062e+01
3.209099e+01
3.209130e+01
3.209156e+01
3.209176e+01
3.209193e+01
3.209206e+01
3.209217e+01
3.209227e+01
3.209237e+01
3.209251e+01
3.209271e+01
3.209301e+01
3.209349e+01
3.209458e+01
3.209411e+01
3.240521e+01
3.240568e+01
3.242890e+01
3.245699e+01
3.249629e+01
3.255422e+01
3.263828e+01
3.273877e+01
3.281300e+01
3.281254e+01
0.000000e+00
3.158078e+01
3.158125e+01
3.158351e+01
3.157990e+01
3.157441e+01
3.156499e+01
3.155039e+01
3.152895e+01
3.150172e+01
3.147922e+01
3.148797e+01
3.153273e+01
3.160595e+01
3.169159e+01
3.176945e+01
3.182803e+01
3.186069e+01
3.187485e+01
3.188162e+01
3.188740e+01
3.189285e+01
3.189933e+01
3.190814e+01
3.191889e+01
3.193012e+01
3.193973e+01
3.194720e+01
3.195534e+01
3.196086e+01
3.196365e+01
3.196599e+01
3.197091e+01
3.198018e+01
3.199155e+01
3.200358e+01
3.201602e+01
3.202885e+01
3.204104e+01
3.204986e+01
3.205257e+01
3.204928e+01
3.204209e+01
3.203416e+01
3.202793e+01
3.202444e+01
3.202371e+01
3.202467e+01
3.202683e+01
3.202979e+01
3.203323e+01
3.203695e+01
3.204091e+01
3.204524e+01
3.204974e+01
3.205422e+01
3.205851e+01
3.206245e+01
3.206600e+01
3.206909e+01
3.207173e+01
3.207403e+01
3.207602e+01
3.207765e+01
3.207908e+01
3.208035e+01
3.208152e+01
3.208262e+01
3.208370e+01
3.208474e+01
3.208573e+01
3.208666e+01
3.208753e+01
3.208833e+01
3.208906e+01
3.208970e+01
3.209027e+01
3.209075e+01
3.209115e+01
3.209148e+01
3.209174e+01
3.209194e+01
3.209208e+01
3.209219e+01
3.209226e+01
3.209232e+01
3.209238e+01
3.209246e+01
3.209260e+01
3.209285e+01
3.209343e+01
3.209296e+01
3.240862e+01
3.240909e+01
3.243185e+01
3.245855e+01
3.249409e+01
3.254334e+01
3.260659e+01
3.266242e+01
3.269034e+01
3.244541e+01
3.244495e+01
0.000000e+00
3.157734e+01
3.157436e+01
3.157092e+01
3.155894e+01
3.153980e+01
3.151271e+01
3.147709e+01
3.143677e+01
3.141663e+01
3.144080e+01
3.150591e+01
3.159931e+01
3.170369e+01
3.180214e+01
3.187882e+01
3.192483e+01
3.194400e+01
3.194612e+01
3.194464e+01
3.194165e+01
3.193943e+01
3.193846e+01
3.193838e+01
3.193765e+01
3.193436e+01
3.192840e+01
3.192089e+01
3.191330e+01
3.190803e+01
3.190920e+01
3.192379e+01
3.194622e+01
3.197054e+01
3.199302e+01
3.201271e+01
3.203034e+01
3.204668e+01
3.206036e+01
3.206872e+01
3.207040e+01
3.206651e+01
3.205973e+01
3.205250e+01
3.204646e+01
3.204232e+01
3.203986e+01
3.203873e+01
3.203863e+01
3.203933e+01
3.204065e+01
3.204257e+01
3.204514e+01
3.204825e+01
3.205174e+01
3.205541e+01
3.205905e+01
3.206260e+01
3.206579e+01
3.206842e+01
3.207081e+01
3.207284e+01
3.207464e+01
3.207632e+01
3.207791e+01
3.207944e+01
3.208090e+01
3.208229e+01
3.208361e+01
3.208485e+01
3.208599e+01
3.208704e+01
3.208798e+01
3.208882e+01
3.208956e+01
3.209019e+01
3.209073e+01
3.209117e+01
3.209153e+01
3.209181e+01
3.209201e+01
3.209215e+01
3.209223e+01
3.209227e+01
3.209226e+01
3.209223e+01
3.209218e+01
3.209213e+01
3.209210e+01
3.209205e+01
3.209158e+01
3.241123e+01
3.241170e+01
3.243147e+01
3.245385e+01
3.248128e+01
3.251375e+01
3.254419e+01
3.255053e+01
3.249117e+01
3.237377e+01
3.196423e+01
3.166443e+01
3.154086e+01
3.158447e+01
3.157345e+01
3.155314e+01
3.152714e+01
3.149321e+01
3.145035e+01
3.140821e+01
3.140187e+01
3.144222e+01
3.152247e+01
3.162722e+01
3.173846e+01
3.184127e+01
3.192795e+01
3.198575e+01
3.201406e+01
3.202338e+01
3.202142e+01
3.200980e+01
3.199805e+01
3.198563e+01
3.197119e+01
3.195440e+01
3.193685e+01
3.191547e+01
3.189231e+01
3.187127e+01
3.185678e+01
3.186075e+01
3.188641e+01
3.192216e+01
3.195894e+01
3.199063e+01
3.201575e+01
3.203623e+01
3.205383e+01
3.206895e+01
3.208011e+01
3.208532e+01
3.208442e+01
3.207945e+01
3.207266e+01
3.206544e+01
3.205909e+01
3.205384e+01
3.204967e+01
3.204656e+01
3.204444e+01
3.204326e+01
3.204298e+01
3.204369e+01
3.204542e+01
3.204806e+01
3.205148e+01
3.205492e+01
3.205855e+01
3.206185e+01
3.206482e+01
3.206754e+01
3.207003e+01
3.207231e+01
3.207444e+01
3.207643e+01
3.207830e+01
3.208006e+01
3.208171e+01
3.208325e+01
3.208465e+01
3.208591e+01
3.208705e+01
3.208806e+01
3.208894e+01
3.208970e+01
3.209035e+01
3.209090e+01
3.209134e+01
3.209169e+01
3.209195e+01
3.209213e+01
3.209224e+01
3.209228e+01
3.209225e+01
3.209217e+01
3.209203e+01
3.209184e+01
3.209160e+01
3.209128e+01
3.209065e+01
3.209018e+01
3.241346e+01
3.241393e+01
3.242884e+01
3.244464e+01
3.246150e+01
3.247645e+01
3.248015e+01
3.245264e+01
3.235792e+01
3.218745e+01
3.191850e+01
3.136556e+01
3.149818e+01
3.155416e+01
3.156020e+01
3.154900e+01
3.152474e+01
3.148826e+01
3.144431e+01
3.141608e+01
3.142675e+01
3.148007e+01
3.156684e+01
3.167237e+01
3.177616e+01
3.186517e+01
3.194201e+01
3.200858e+01
3.205215e+01
3.207167e+01
3.208137e+01
3.206856e+01
3.204861e+01
3.202513e+01
3.199866e+01
3.197021e+01
3.194146e+01
3.190675e+01
3.186996e+01
3.183637e+01
3.181473e+01
3.182685e+01
3.186355e+01
3.191054e+01
3.195681e+01
3.199388e+01
3.202256e+01
3.204469e+01
3.206198e+01
3.207570e+01
3.208599e+01
3.209179e+01
3.209271e+01
3.209013e+01
3.208505e+01
3.207843e+01
3.207120e+01
3.206405e+01
3.205756e+01
3.205203e+01
3.204763e+01
3.204422e+01
3.204177e+01
3.204057e+01
3.204095e+01
3.204260e+01
3.204581e+01
3.204974e+01
3.205403e+01
3.205820e+01
3.206201e+01
3.206542e+01
3.206846e+01
3.207121e+01
3.207373e+01
3.207602e+01
3.207812e+01
3.208006e+01
3.208183e+01
3.208345e+01
3.208490e+01
3.208621e+01
3.208737e+01
3.208839e+01
3.208927e+01
3.209002e+01
3.209066e+01
3.209118e+01
3.209160e+01
3.209191e+01
3.209214e+01
3.209228e+01
3.209234e+01
3.209232e+01
3.209222e+01
3.209205e+01
3.209181e+01
3.209147e+01
3.209103e+01
3.209045e+01
3.208936e+01
3.208889e+01
3.241514e+01
3.241560e+01
3.242487e+01
3.243363e+01
3.244060e+01
3.244183e+01
3.242885e+01
3.238702e+01
3.229393e+01
3.213126e+01
3.191402e+01
3.162225e+01
3.159164e+01
3.159159e+01
3.158367e+01
3.156729e+01
3.154220e+01
3.150728e+01
3.147370e+01
3.146170e+01
3.148369e+01
3.154047e+01
3.162343e+01
3.171962e+01
3.180901e+01
3.188723e+01
3.195196e+01
3.199990e+01
3.203504e+01
3.207162e+01
3.209457e+01
3.209020e+01
3.207379e+01
3.204919e+01
3.201754e+01
3.198216e+01
3.194523e+01
3.190079e+01
3.185396e+01
3.181060e+01
3.179152e+01
3.181192e+01
3.185738e+01
3.191193e+01
3.196180e+01
3.200102e+01
3.203098e+01
3.205354e+01
3.207017e+01
3.208164e+01
3.208816e+01
3.209036e+01
3.209047e+01
3.209012e+01
3.208828e+01
3.208387e+01
3.207729e+01
3.206966e+01
3.206201e+01
3.205496e+01
3.204890e+01
3.204341e+01
3.203881e+01
3.203532e+01
3.203423e+01
3.203601e+01
3.204016e+01
3.204545e+01
3.205097e+01
3.205615e+01
3.206080e+01
3.206482e+01
3.206829e+01
3.207133e+01
3.207404e+01
3.207646e+01
3.207864e+01
3.208062e+01
3.208240e+01
3.208402e+01
3.208546e+01
3.208674e+01
3.208787e+01
3.208885e+01
3.208969e+01
3.209041e+01
3.209100e+01
3.209148e+01
3.209185e+01
3.209213e+01
3.209231e+01
3.209240e+01
3.209240e+01
3.209232e+01
3.209216e+01
3.209191e+01
3.209155e+01
3.209109e+01
3.209048e+01
3.208969e+01
3.208824e+01
3.208777e+01
3.241652e+01
3.241698e+01
3.242070e+01
3.242302e+01
3.242203e+01
3.241386e+01
3.239197e+01
3.234672e+01
3.226543e+01
3.213520e+01
3.196043e+01
3.176441e+01
3.168327e+01
3.164599e+01
3.161959e+01
3.159478e+01
3.156829e+01
3.153881e+01
3.151814e+01
3.151815e+01
3.154608e+01
3.160089e+01
3.167533e+01
3.175659e+01
3.183323e+01
3.190110e+01
3.195847e+01
3.200497e+01
3.204214e+01
3.207139e+01
3.208478e+01
3.208431e+01
3.207372e+01
3.205270e+01
3.202265e+01
3.198699e+01
3.194725e+01
3.189823e+01
3.184642e+01
3.179930e+01
3.178925e+01
3.181694e+01
3.186698e+01
3.192359e+01
3.197231e+01
3.201065e+01
3.203972e+01
3.206112e+01
3.207621e+01
3.208596e+01
3.209124e+01
3.209301e+01
3.209302e+01
3.209159e+01
3.208841e+01
3.208338e+01
3.207694e+01
3.206977e+01
3.206254e+01
3.205532e+01
3.204817e+01
3.204121e+01
3.203455e+01
3.202944e+01
3.202854e+01
3.203151e+01
3.203698e+01
3.204354e+01
3.205015e+01
3.205614e+01
3.206124e+01
3.206555e+01
3.206921e+01
3.207235e+01
3.207509e+01
3.207750e+01
3.207964e+01
3.208156e+01
3.208327e+01
3.208480e+01
3.208616e+01
3.208737e+01
3.208842e+01
3.208933e+01
3.209011e+01
3.209076e+01
3.209130e+01
3.209172e+01
3.209205e+01
3.209228e+01
3.209241e+01
3.209245e+01
3.209241e+01
3.209227e+01
3.209205e+01
3.209172e+01
3.209128e+01
3.209070e+01
3.208997e+01
3.208901e+01
3.208732e+01
3.208685e+01
3.241775e+01
3.241822e+01
3.241704e+01
3.241402e+01
3.240706e+01
3.239277e+01
3.236632e+01
3.232139e+01
3.225069e+01
3.214646e+01
3.200784e+01
3.185429e+01
3.175812e+01
3.169930e+01
3.165777e+01
3.162458e+01
3.159594e+01
3.157190e+01
3.156021e+01
3.156810e+01
3.159893e+01
3.165032e+01
3.171571e+01
3.178528e+01
3.185171e+01
3.191145e+01
3.196310e+01
3.200638e+01
3.204014e+01
3.206283e+01
3.207299e+01
3.207277e+01
3.206381e+01
3.204578e+01
3.201902e+01
3.198632e+01
3.194709e+01
3.189880e+01
3.184764e+01
3.180805e+01
3.180648e+01
3.183799e+01
3.188788e+01
3.194100e+01
3.198604e+01
3.202163e+01
3.204849e+01
3.206798e+01
3.208144e+01
3.208999e+01
3.209463e+01
3.209627e+01
3.209581e+01
3.209346e+01
3.208925e+01
3.208340e+01
3.207640e+01
3.206900e+01
3.206145e+01
3.205365e+01
3.204571e+01
3.203778e+01
3.203006e+01
3.202546e+01
3.202573e+01
3.202997e+01
3.203659e+01
3.204413e+01
3.205135e+01
3.205761e+01
3.206288e+01
3.206726e+01
3.207092e+01
3.207400e+01
3.207663e+01
3.207891e+01
3.208092e+01
3.208268e+01
3.208425e+01
3.208564e+01
3.208688e+01
3.208796e+01
3.208891e+01
3.208973e+01
3.209043e+01
3.209101e+01
3.209149e+01
3.209187e+01
3.209215e+01
3.209234e+01
3.209243e+01
3.209244e+01
3.209235e+01
3.209217e+01
3.209189e+01
3.209150e+01
3.209099e+01
3.209034e+01
3.208951e+01
3.208845e+01
3.208662e+01
3.208615e+01
3.241889e+01
3.241936e+01
3.241419e+01
3.240702e+01
3.239577e+01
3.237755e+01
3.234867e+01
3.230476e+01
3.224123e+01
3.215354e+01
3.204060e+01
3.191463e+01
3.181562e+01
3.174409e+01
3.169163e+01
3.165154e+01
3.162082e+01
3.160018e+01
3.159413e+01
3.160673e+01
3.163877e+01
3.168700e+01
3.174541e+01
3.180683e+01
3.186587e+01
3.191964e+01
3.196676e+01
3.200634e+01
3.203676e+01
3.205691e+01
3.206658e+01
3.206679e+01
3.205833e+01
3.204125e+01
3.201584e+01
3.198417e+01
3.194511e+01
3.189911e+01
3.185337e+01
3.182555e+01
3.183125e+01
3.186439e+01
3.191159e+01
3.195942e+01
3.200024e+01
3.203254e+01
3.205679e+01
3.207421e+01
3.208612e+01
3.209368e+01
3.209787e+01
3.209937e+01
3.209865e+01
3.209590e+01
3.209124e+01
3.208493e+01
3.207737e+01
3.206916e+01
3.206060e+01
3.205165e+01
3.204256e+01
3.203379e+01
3.202627e+01
3.202316e+01
3.202496e+01
3.203051e+01
3.203811e+01
3.204626e+01
3.205367e+01
3.206001e+01
3.206527e+01
3.206956e+01
3.207307e+01
3.207596e+01
3.207839e+01
3.208046e+01
3.208224e+01
3.208381e+01
3.208519e+01
3.208641e+01
3.208749e+01
3.208844e+01
3.208928e+01
3.209000e+01
3.209063e+01
3.209115e+01
3.209157e+01
3.209190e+01
3.209215e+01
3.209230e+01
3.209237e+01
3.209235e+01
3.209223e+01
3.209202e+01
3.209170e+01
3.209127e+01
3.209071e+01
3.209000e+01
3.208911e+01
3.208801e+01
3.208615e+01
3.208568e+01
3.241988e+01
3.242035e+01
3.241220e+01
3.240202e+01
3.238786e+01
3.236715e+01
3.233693e+01
3.229392e+01
3.223486e+01
3.215699e+01
3.205999e+01
3.195192e+01
3.185591e+01
3.177875e+01
3.171904e+01
3.167377e+01
3.164140e+01
3.162274e+01
3.162020e+01
3.163540e+01
3.166747e+01
3.171282e+01
3.176615e+01
3.182201e+01
3.187601e+01
3.192552e+01
3.196914e+01
3.200581e+01
3.203420e+01
3.205353e+01
3.206361e+01
3.206475e+01
3.205717e+01
3.204077e+01
3.201567e+01
3.198304e+01
3.194270e+01
3.189782e+01
3.185846e+01
3.184110e+01
3.185300e+01
3.188715e+01
3.193148e+01
3.197513e+01
3.201239e+01
3.204174e+01
3.206367e+01
3.207934e+01
3.209002e+01
3.209684e+01
3.210070e+01
3.210206e+01
3.210123e+01
3.209838e+01
3.209365e+01
3.208721e+01
3.207930e+01
3.207026e+01
3.206040e+01
3.204989e+01
3.203935e+01
3.202989e+01
3.202334e+01
3.202183e+01
3.202523e+01
3.203202e+01
3.204040e+01
3.204887e+01
3.205641e+01
3.206274e+01
3.206784e+01
3.207192e+01
3.207518e+01
3.207781e+01
3.207998e+01
3.208180e+01
3.208337e+01
3.208473e+01
3.208593e+01
3.208699e+01
3.208794e+01
3.208877e+01
3.208951e+01
3.209015e+01
3.209071e+01
3.209117e+01
3.209155e+01
3.209185e+01
3.209207e+01
3.209220e+01
3.209225e+01
3.209220e+01
3.209207e+01
3.209184e+01
3.209150e+01
3.209104e+01
3.209044e+01
3.208970e+01
3.208879e+01
3.208768e+01
3.208593e+01
3.208546e+01
3.242063e+01
3.242110e+01
3.241098e+01
3.239887e+01
3.238290e+01
3.236076e+01
3.232987e+01
3.228752e+01
3.223114e+01
3.215884e+01
3.207086e+01
3.197322e+01
3.188065e+01
3.180144e+01
3.173783e+01
3.168948e+01
3.165607e+01
3.163839e+01
3.163757e+01
3.165391e+01
3.168565e+01
3.172904e+01
3.177923e+01
3.183159e+01
3.188238e+01
3.192918e+01
3.197053e+01
3.200531e+01
3.203261e+01
3.205169e+01
3.206230e+01
3.206436e+01
3.205772e+01
3.204206e+01
3.201705e+01
3.198291e+01
3.194059e+01
3.189600e+01
3.186185e+01
3.185159e+01
3.186782e+01
3.190279e+01
3.194499e+01
3.198574e+01
3.202045e+01
3.204776e+01
3.206810e+01
3.208259e+01
3.209247e+01
3.209881e+01
3.210246e+01
3.210380e+01
3.210302e+01
3.210029e+01
3.209573e+01
3.208940e+01
3.208137e+01
3.207169e+01
3.206057e+01
3.204848e+01
3.203655e+01
3.202667e+01
3.202109e+01
3.202096e+01
3.202571e+01
3.203356e+01
3.204253e+01
3.205117e+01
3.205874e+01
3.206497e+01
3.206993e+01
3.207382e+01
3.207686e+01
3.207927e+01
3.208122e+01
3.208284e+01
3.208422e+01
3.208541e+01
3.208646e+01
3.208740e+01
3.208823e+01
3.208898e+01
3.208964e+01
3.209022e+01
3.209072e+01
3.209115e+01
3.209150e+01
3.209177e+01
3.209196e+01
3.209208e+01
3.209211e+01
3.209206e+01
3.209191e+01
3.209167e+01
3.209131e+01
3.209083e+01
3.209022e+01
3.208946e+01
3.208854e+01
3.208745e+01
3.208593e+01
3.208546e+01
3.242106e+01
3.242152e+01
3.241043e+01
3.239739e+01
3.238060e+01
3.235786e+01
3.232679e+01
3.228493e+01
3.222997e+01
3.216035e+01
3.207651e+01
3.198363e+01
3.189294e+01
3.181297e+01
3.174755e+01
3.169769e+01
3.166375e+01
3.164639e+01
3.164621e+01
3.166285e+01
3.169422e+01
3.173655e+01
3.178517e+01
3.183587e+01
3.188513e+01
3.193062e+01
3.197084e+01
3.200471e+01
3.203147e+01
3.205056e+01
3.206162e+01
3.206437e+01
3.205849e+01
3.204350e+01
3.201872e+01
3.198349e+01
3.193967e+01
3.189537e+01
3.186451e+01
3.185775e+01
3.187557e+01
3.191012e+01
3.195091e+01
3.199025e+01
3.202384e+01
3.205030e+01
3.207000e+01
3.208402e+01
3.209357e+01
3.209973e+01
3.210325e+01
3.210453e+01
3.210381e+01
3.210123e+01
3.209686e+01
3.209071e+01
3.208273e+01
3.207278e+01
3.206091e+01
3.204784e+01
3.203514e+01
3.202520e+01
3.202020e+01
3.202085e+01
3.202625e+01
3.203451e+01
3.204362e+01
3.205230e+01
3.205987e+01
3.206608e+01
3.207100e+01
3.207481e+01
3.207776e+01
3.208007e+01
3.208190e+01
3.208341e+01
3.208468e+01
3.208578e+01
3.208675e+01
3.208762e+01
3.208839e+01
3.208909e+01
3.208971e+01
3.209026e+01
3.209074e+01
3.209114e+01
3.209148e+01
3.209174e+01
3.209192e+01
3.209202e+01
3.209205e+01
3.209199e+01
3.209183e+01
3.209157e+01
3.209121e+01
3.209072e+01
3.209010e+01
3.208932e+01
3.208839e+01
3.208727e+01
3.208596e+01
3.208550e+01
0.000000e+00
3.242106e+01
3.240996e+01
3.239693e+01
3.238014e+01
3.235739e+01
3.232633e+01
3.228447e+01
3.222951e+01
3.215988e+01
3.207605e+01
3.198316e+01
3.189247e+01
3.181250e+01
3.174709e+01
3.169723e+01
3.166328e+01
3.164593e+01
3.164574e+01
3.166238e+01
3.169376e+01
3.173609e+01
3.178471e+01
3.183540e+01
3.188466e+01
3.193015e+01
3.197037e+01
3.200425e+01
3.203100e+01
3.205010e+01
3.206116e+01
3.206390e+01
3.205802e+01
3.204303e+01
3.201826e+01
3.198302e+01
3.193921e+01
3.189490e+01
3.186404e+01
3.185729e+01
3.187510e+01
3.190966e+01
3.195045e+01
3.198978e+01
3.202337e+01
3.204983e+01
3.206953e+01
3.208355e+01
3.209311e+01
3.209926e+01
3.210278e+01
3.210406e+01
3.210334e+01
3.210076e+01
3.209639e+01
3.209024e+01
3.208226e+01
3.207232e+01
3.206044e+01
3.204737e+01
3.203467e+01