# vtk DataFile Version 3.0
Vector Field
ASCII
DATASET RECTILINEAR_GRID
DIMENSIONS 102 22 1
X_COORDINATES 102 double
0.000000 0.100000 0.200000 0.300000 0.400000 0.500000 0.600000 0.700000 0.800000 0.900000 1.000000 1.100000 1.200000 1.300000 1.400000 1.500000 1.600000 1.700000 1.800000 1.900000 2.000000 2.100000 2.200000 2.300000 2.400000 2.500000 2.600000 2.700000 2.800000 2.900000 3.000000 3.100000 3.200000 3.300000 3.400000 3.500000 3.600000 3.700000 3.800000 3.900000 4.000000 4.100000 4.200000 4.300000 4.400000 4.500000 4.600000 4.700000 4.800000 4.900000 5.000000 5.100000 5.200000 5.300000 5.400000 5.500000 5.600000 5.700000 5.800000 5.900000 6.000000 6.100000 6.200000 6.300000 6.400000 6.500000 6.600000 6.700000 6.800000 6.900000 7.000000 7.100000 7.200000 7.300000 7.400000 7.500000 7.600000 7.700000 7.800000 7.900000 8.000000 8.100000 8.200000 8.300000 8.400000 8.500000 8.600000 8.700000 8.800000 8.900000 9.000000 9.100000 9.200000 9.300000 9.400000 9.500000 9.600000 9.700000 9.800000 9.900000 10.000000 10.100000 
Y_COORDINATES 22 double
0.000000 0.100000 0.200000 0.300000 0.400000 0.500000 0.600000 0.700000 0.800000 0.900000 1.000000 1.100000 1.200000 1.300000 1.400000 1.500000 1.600000 1.700000 1.800000 1.900000 2.000000 2.100000 
Z_COORDINATES 1 double
0.0
POINT_DATA 2244
VECTORS Velocity double
0.000000e+00 0.000000e+00 0.0
-1.031248e+00 0.000000e+00 0.0
-1.065905e+00 0.000000e+00 0.0
-1.107021e+00 0.000000e+00 0.0
-1.157474e+00 0.000000e+00 0.0
-1.219038e+00 0.000000e+00 0.0
-1.290127e+00 0.000000e+00 0.0
-1.367990e+00 0.000000e+00 0.0
-1.431479e+00 0.000000e+00 0.0
-1.466082e+00 0.000000e+00 0.0
-1.468144e+00 0.000000e+00 0.0
-1.440615e+00 0.000000e+00 0.0
-1.390378e+00 0.000000e+00 0.0
-1.326935e+00 0.000000e+00 0.0
-1.260374e+00 0.000000e+00 0.0
-1.198836e+00 0.000000e+00 0.0
-1.147067e+00 0.000000e+00 0.0
-1.106346e+00 0.000000e+00 0.0
-1.075621e+00 0.000000e+00 0.0
-1.052909e+00 0.000000e+00 0.0
-1.036174e+00 0.000000e+00 0.0
-1.023741e+00 0.000000e+00 0.0
-1.014387e+00 0.000000e+00 0.0
-1.007273e+00 0.000000e+00 0.0
-1.001836e+00 0.000000e+00 0.0
-9.976924e-01 0.000000e+00 0.0
-9.945752e-01 0.000000e+00 0.0
-9.922855e-01 0.000000e+00 0.0
-9.906684e-01 0.000000e+00 0.0
-9.895980e-01 0.000000e+00 0.0
-9.889683e-01 0.000000e+00 0.0
-9.886885e-01 0.000000e+00 0.0
-9.886794e-01 0.000000e+00 0.0
-9.888740e-01 0.000000e+00 0.0
-9.892166e-01 0.000000e+00 0.0
-9.896615e-01 0.000000e+00 0.0
-9.901715e-01 0.000000e+00 0.0
-9.907172e-01 0.000000e+00 0.0
-9.912756e-01 0.000000e+00 0.0
-9.918293e-01 0.000000e+00 0.0
-9.923653e-01 0.000000e+00 0.0
-9.928745e-01 0.000000e+00 0.0
-9.933509e-01 0.000000e+00 0.0
-9.937907e-01 0.000000e+00 0.0
-9.941923e-01 0.000000e+00 0.0
-9.945552e-01 0.000000e+00 0.0
-9.948801e-01 0.000000e+00 0.0
-9.951683e-01 0.000000e+00 0.0
-9.954216e-01 0.000000e+00 0.0
-9.956423e-01 0.000000e+00 0.0
-9.958326e-01 0.000000e+00 0.0
-9.959950e-01 0.000000e+00 0.0
-9.961319e-01 0.000000e+00 0.0
-9.962455e-01 0.000000e+00 0.0
-9.963381e-01 0.000000e+00 0.0
-9.964117e-01 0.000000e+00 0.0
-9.964683e-01 0.000000e+00 0.0
-9.965096e-01 0.000000e+00 0.0
-9.965374e-01 0.000000e+00 0.0
-9.965530e-01 0.000000e+00 0.0
-9.965579e-01 0.000000e+00 0.0
-9.965532e-01 0.000000e+00 0.0
-9.965401e-01 0.000000e+00 0.0
-9.965195e-01 0.000000e+00 0.0
-9.964923e-01 0.000000e+00 0.0
-9.964593e-01 0.000000e+00 0.0
-9.964212e-01 0.000000e+00 0.0
-9.963785e-01 0.000000e+00 0.0
-9.963319e-01 0.000000e+00 0.0
-9.962818e-01 0.000000e+00 0.0
-9.962286e-01 0.000000e+00 0.0
-9.961728e-01 0.000000e+00 0.0
-9.961145e-01 0.000000e+00 0.0
-9.960542e-01 0.000000e+00 0.0
-9.959921e-01 0.000000e+00 0.0
-9.959284e-01 0.000000e+00 0.0
-9.958633e-01 0.000000e+00 0.0
-9.957969e-01 0.000000e+00 0.0
-9.957295e-01 0.000000e+00 0.0
-9.956611e-01 0.000000e+00 0.0
-9.955918e-01 0.000000e+00 0.0
-9.955218e-01 0.000000e+00 0.0
-9.954511e-01 0.000000e+00 0.0
-9.953799e-01 0.000000e+00 0.0
-9.953082e-01 0.000000e+00 0.0
-9.952360e-01 0.000000e+00 0.0
-9.951635e-01 0.000000e+00 0.0
-9.950907e-01 0.000000e+00 0.0
-9.950178e-01 0.000000e+00 0.0
-9.949450e-01 0.000000e+00 0.0
-9.948725e-01 0.000000e+00 0.0
-9.948008e-01 0.000000e+00 0.0
-9.947304e-01 0.000000e+00 0.0
-9.946623e-01 0.000000e+00 0.0
-9.945982e-01 0.000000e+00 0.0
-9.945411e-01 0.000000e+00 0.0
-9.944965e-01 0.000000e+00 0.0
-9.944769e-01 0.000000e+00 0.0
-9.945118e-01 0.000000e+00 0.0
-9.947304e-01 0.000000e+00 0.0
-9.947304e-01 0.000000e+00 0.0
0.000000e+00 0.000000e+00 0.0
1.000000e+00 -3.169485e-02 0.0
1.031386e+00 -3.177332e-02 0.0
1.066131e+00 -3.496783e-02 0.0
1.107289e+00 -4.138184e-02 0.0
1.157757e+00 -5.069015e-02 0.0
1.219384e+00 -6.185067e-02 0.0
1.290672e+00 -7.151031e-02 0.0
1.369083e+00 -7.863377e-02 0.0
1.433692e+00 -6.483189e-02 0.0
1.470290e+00 -3.682153e-02 0.0
1.475196e+00 -5.128334e-03 0.0
1.450788e+00 2.418445e-02 0.0
1.402947e+00 4.761809e-02 0.0
1.340301e+00 6.242306e-02 0.0
1.272738e+00 6.734009e-02 0.0
1.208925e+00 6.359044e-02 0.0
1.154435e+00 5.426670e-02 0.0
1.111243e+00 4.296980e-02 0.0
1.078613e+00 3.240699e-02 0.0
1.054579e+00 2.381052e-02 0.0
1.036986e+00 1.736987e-02 0.0
1.024011e+00 1.275288e-02 0.0
1.014305e+00 9.482538e-03 0.0
1.006947e+00 7.135021e-03 0.0
1.001324e+00 5.400347e-03 0.0
9.970267e-01 4.074196e-03 0.0
9.937746e-01 3.029187e-03 0.0
9.913639e-01 2.187722e-03 0.0
9.896387e-01 1.502262e-03 0.0
9.884732e-01 9.425222e-04 0.0
9.877624e-01 4.878740e-04 0.0
9.874161e-01 1.233324e-04 0.0
9.873555e-01 -1.623251e-04 0.0
9.875126e-01 -3.800634e-04 0.0
9.878304e-01 -5.408196e-04 0.0
9.882618e-01 -6.543519e-04 0.0
9.887682e-01 -7.292820e-04 0.0
9.893184e-01 -7.731898e-04 0.0
9.898881e-01 -7.926493e-04 0.0
9.904583e-01 -7.932104e-04 0.0
9.910149e-01 -7.795810e-04 0.0
9.915477e-01 -7.557372e-04 0.0
9.920496e-01 -7.249040e-04 0.0
9.925163e-01 -6.896473e-04 0.0
9.929453e-01 -6.519709e-04 0.0
9.933357e-01 -6.134074e-04 0.0
9.936879e-01 -5.750998e-04 0.0
9.940027e-01 -5.378751e-04 0.0
9.942821e-01 -5.023071e-04 0.0
9.945279e-01 -4.687708e-04 0.0
9.947424e-01 -4.374871e-04 0.0
9.949279e-01 -4.085601e-04 0.0
9.950869e-01 -3.820073e-04 0.0
9.952217e-01 -3.577837e-04 0.0
9.953345e-01 -3.358002e-04 0.0
9.954275e-01 -3.159391e-04 0.0
9.955026e-01 -2.980649e-04 0.0
9.955616e-01 -2.820327e-04 0.0
9.956063e-01 -2.676948e-04 0.0
9.956382e-01 -2.549050e-04 0.0
9.956587e-01 -2.435220e-04 0.0
9.956691e-01 -2.334111e-04 0.0
9.956705e-01 -2.244460e-04 0.0
9.956640e-01 -2.165093e-04 0.0
9.956505e-01 -2.094927e-04 0.0
9.956308e-01 -2.032972e-04 0.0
9.956056e-01 -1.978327e-04 0.0
9.955756e-01 -1.930175e-04 0.0
9.955414e-01 -1.887780e-04 0.0
9.955034e-01 -1.850482e-04 0.0
9.954622e-01 -1.817688e-04 0.0
9.954180e-01 -1.788868e-04 0.0
9.953713e-01 -1.763551e-04 0.0
9.953225e-01 -1.741316e-04 0.0
9.952716e-01 -1.721789e-04 0.0
9.952190e-01 -1.704640e-04 0.0
9.951650e-01 -1.689575e-04 0.0
9.951096e-01 -1.676334e-04 0.0
9.950530e-01 -1.664688e-04 0.0
9.949954e-01 -1.654437e-04 0.0
9.949369e-01 -1.645408e-04 0.0
9.948776e-01 -1.637452e-04 0.0
9.948176e-01 -1.630451e-04 0.0
9.947570e-01 -1.624314e-04 0.0
9.946959e-01 -1.618989e-04 0.0
9.946343e-01 -1.614473e-04 0.0
9.945724e-01 -1.610827e-04 0.0
9.945101e-01 -1.608212e-04 0.0
9.944478e-01 -1.606929e-04 0.0
9.943855e-01 -1.607497e-04 0.0
9.943235e-01 -1.610758e-04 0.0
9.942623e-01 -1.618086e-04 0.0
9.942024e-01 -1.631736e-04 0.0
9.941449e-01 -1.655498e-04 0.0
9.940915e-01 -1.696064e-04 0.0
9.940451e-01 -1.766202e-04 0.0
9.940113e-01 -1.892989e-04 0.0
9.940028e-01 -2.145274e-04 0.0
9.940494e-01 -2.696742e-04 0.0
9.942821e-01 -4.556730e-04 0.0
9.947304e-01 -6.713886e-04 0.0
0.000000e+00 -6.892202e-04 0.0
1.000000e+00 -6.327570e-02 0.0
1.031499e+00 -6.349488e-02 0.0
1.066361e+00 -6.988865e-02 0.0
1.107754e+00 -8.283291e-02 0.0
1.158845e+00 -1.018396e-01 0.0
1.222178e+00 -1.252409e-01 0.0
1.296245e+00 -1.456355e-01 0.0
1.383492e+00 -1.659393e-01 0.0
1.451930e+00 -1.333283e-01 0.0
1.488305e+00 -7.325477e-02 0.0
1.492854e+00 -9.734842e-03 0.0
1.469478e+00 4.750221e-02 0.0
1.423626e+00 9.341169e-02 0.0
1.362495e+00 1.234964e-01 0.0
1.294709e+00 1.350679e-01 0.0
1.228891e+00 1.293501e-01 0.0
1.171586e+00 1.115137e-01 0.0
1.125806e+00 8.869143e-02 0.0
1.091269e+00 6.688568e-02 0.0
1.066048e+00 4.897384e-02 0.0
1.047820e+00 3.553968e-02 0.0
1.034561e+00 2.595301e-02 0.0
1.024780e+00 1.920594e-02 0.0
1.017467e+00 1.438938e-02 0.0
1.011966e+00 1.084374e-02 0.0
1.007841e+00 8.141203e-03 0.0
1.004792e+00 6.019096e-03 0.0
1.002603e+00 4.318832e-03 0.0
1.001104e+00 2.943263e-03 0.0
1.000158e+00 1.829938e-03 0.0
9.996525e-01 9.356292e-04 0.0
9.994900e-01 2.277052e-04 0.0
9.995904e-01 -3.209233e-04 0.0
9.998871e-01 -7.348822e-04 0.0
1.000324e+00 -1.036261e-03 0.0
1.000857e+00 -1.244712e-03 0.0
1.001447e+00 -1.377625e-03 0.0
1.002066e+00 -1.450243e-03 0.0
1.002691e+00 -1.475762e-03 0.0
1.003305e+00 -1.465490e-03 0.0
1.003896e+00 -1.428835e-03 0.0
1.004455e+00 -1.373443e-03 0.0
1.004978e+00 -1.305493e-03 0.0
1.005460e+00 -1.229888e-03 0.0
1.005900e+00 -1.150440e-03 0.0
1.006299e+00 -1.070045e-03 0.0
1.006656e+00 -9.908436e-04 0.0
1.006974e+00 -9.143629e-04 0.0
1.007256e+00 -8.416443e-04 0.0
1.007502e+00 -7.733486e-04 0.0
1.007716e+00 -7.098441e-04 0.0
1.007901e+00 -6.512791e-04 0.0
1.008058e+00 -5.976399e-04 0.0
1.008191e+00 -5.487973e-04 0.0
1.008302e+00 -5.045422e-04 0.0
1.008392e+00 -4.646144e-04 0.0
1.008465e+00 -4.287232e-04 0.0
1.008521e+00 -3.965637e-04 0.0
1.008563e+00 -3.678286e-04 0.0
1.008592e+00 -3.422163e-04 0.0
1.008610e+00 -3.194368e-04 0.0
1.008617e+00 -2.992156e-04 0.0
1.008616e+00 -2.812958e-04 0.0
1.008607e+00 -2.654394e-04 0.0
1.008591e+00 -2.514276e-04 0.0
1.008568e+00 -2.390605e-04 0.0
1.008540e+00 -2.281568e-04 0.0
1.008508e+00 -2.185521e-04 0.0
1.008471e+00 -2.100988e-04 0.0
1.008430e+00 -2.026642e-04 0.0
1.008386e+00 -1.961294e-04 0.0
1.008340e+00 -1.903885e-04 0.0
1.008291e+00 -1.853470e-04 0.0
1.008239e+00 -1.809207e-04 0.0
1.008186e+00 -1.770351e-04 0.0
1.008131e+00 -1.736237e-04 0.0
1.008074e+00 -1.706281e-04 0.0
1.008017e+00 -1.679962e-04 0.0
1.007958e+00 -1.656824e-04 0.0
1.007898e+00 -1.636467e-04 0.0
1.007837e+00 -1.618541e-04 0.0
1.007775e+00 -1.602752e-04 0.0
1.007713e+00 -1.588857e-04 0.0
1.007650e+00 -1.576672e-04 0.0
1.007586e+00 -1.566085e-04 0.0
1.007522e+00 -1.557078e-04 0.0
1.007458e+00 -1.549755e-04 0.0
1.007394e+00 -1.544404e-04 0.0
1.007329e+00 -1.541568e-04 0.0
1.007264e+00 -1.542192e-04 0.0
1.007200e+00 -1.547840e-04 0.0
1.007136e+00 -1.561027e-04 0.0
1.007073e+00 -1.585815e-04 0.0
1.007012e+00 -1.628873e-04 0.0
1.006954e+00 -1.701495e-04 0.0
1.006902e+00 -1.823718e-04 0.0
1.006858e+00 -2.033183e-04 0.0
1.006826e+00 -2.405098e-04 0.0
1.006807e+00 -3.087725e-04 0.0
1.006732e+00 -4.395090e-04 0.0
1.006604e+00 -6.010758e-04 0.0
0.000000e+00 -6.176660e-04 0.0
1.000000e+00 -9.147079e-02 0.0
1.028133e+00 -9.185097e-02 0.0
1.059766e+00 -1.015793e-01 0.0
1.098330e+00 -1.214557e-01 0.0
1.147712e+00 -1.512790e-01 0.0
1.212117e+00 -1.897049e-01 0.0
1.291071e+00 -2.246474e-01 0.0
1.400071e+00 -2.749974e-01 0.0
1.475124e+00 -2.084391e-01 0.0
1.507281e+00 -1.054702e-01 0.0
1.506572e+00 -9.084501e-03 0.0
1.481210e+00 7.280661e-02 0.0
1.436125e+00 1.384387e-01 0.0
1.375913e+00 1.836501e-01 0.0
1.306847e+00 2.040754e-01 0.0
1.236987e+00 1.991523e-01 0.0
1.174246e+00 1.741961e-01 0.0
1.123520e+00 1.393599e-01 0.0
1.085647e+00 1.047002e-01 0.0
1.058785e+00 7.577772e-02 0.0
1.040115e+00 5.415179e-02 0.0
1.027077e+00 3.893223e-02 0.0
1.017822e+00 2.840310e-02 0.0
1.011156e+00 2.099710e-02 0.0
1.006339e+00 1.560231e-02 0.0
1.002901e+00 1.152180e-02 0.0
1.000520e+00 8.341220e-03 0.0
9.989656e-01 5.815301e-03 0.0
9.980563e-01 3.794464e-03 0.0
9.976469e-01 2.181106e-03 0.0
9.976183e-01 9.060900e-04 0.0
9.978722e-01 -8.431297e-05 0.0
9.983295e-01 -8.364687e-04 0.0
9.989268e-01 -1.390328e-03 0.0
9.996130e-01 -1.780636e-03 0.0
1.000348e+00 -2.037850e-03 0.0
1.001101e+00 -2.188542e-03 0.0
1.001848e+00 -2.255641e-03 0.0
1.002573e+00 -2.258658e-03 0.0
1.003263e+00 -2.213927e-03 0.0
1.003911e+00 -2.134875e-03 0.0
1.004512e+00 -2.032344e-03 0.0
1.005063e+00 -1.914945e-03 0.0
1.005564e+00 -1.789400e-03 0.0
1.006016e+00 -1.660846e-03 0.0
1.006421e+00 -1.533110e-03 0.0
1.006781e+00 -1.408956e-03 0.0
1.007099e+00 -1.290302e-03 0.0
1.007378e+00 -1.178402e-03 0.0
1.007620e+00 -1.073994e-03 0.0
1.007830e+00 -9.774282e-04 0.0
1.008009e+00 -8.887657e-04 0.0
1.008161e+00 -8.078591e-04 0.0
1.008288e+00 -7.344152e-04 0.0
1.008394e+00 -6.680441e-04 0.0
1.008479e+00 -6.082966e-04 0.0
1.008547e+00 -5.546923e-04 0.0
1.008599e+00 -5.067408e-04 0.0
1.008637e+00 -4.639563e-04 0.0
1.008662e+00 -4.258688e-04 0.0
1.008677e+00 -3.920305e-04 0.0
1.008681e+00 -3.620208e-04 0.0
1.008677e+00 -3.354486e-04 0.0
1.008666e+00 -3.119532e-04 0.0
1.008647e+00 -2.912045e-04 0.0
1.008623e+00 -2.729018e-04 0.0
1.008593e+00 -2.567729e-04 0.0
1.008559e+00 -2.425722e-04 0.0
1.008521e+00 -2.300789e-04 0.0
1.008479e+00 -2.190952e-04 0.0
1.008435e+00 -2.094442e-04 0.0
1.008387e+00 -2.009683e-04 0.0
1.008337e+00 -1.935270e-04 0.0
1.008285e+00 -1.869956e-04 0.0
1.008231e+00 -1.812634e-04 0.0
1.008175e+00 -1.762322e-04 0.0
1.008118e+00 -1.718150e-04 0.0
1.008060e+00 -1.679351e-04 0.0
1.008001e+00 -1.645246e-04 0.0
1.007940e+00 -1.615241e-04 0.0
1.007879e+00 -1.588819e-04 0.0
1.007817e+00 -1.565539e-04 0.0
1.007755e+00 -1.545035e-04 0.0
1.007692e+00 -1.527025e-04 0.0
1.007628e+00 -1.511329e-04 0.0
1.007564e+00 -1.497892e-04 0.0
1.007499e+00 -1.486831e-04 0.0
1.007435e+00 -1.478508e-04 0.0
1.007370e+00 -1.473640e-04 0.0
1.007305e+00 -1.473474e-04 0.0
1.007240e+00 -1.480062e-04 0.0
1.007175e+00 -1.496688e-04 0.0
1.007111e+00 -1.528559e-04 0.0
1.007048e+00 -1.583968e-04 0.0
1.006988e+00 -1.676275e-04 0.0
1.006930e+00 -1.827356e-04 0.0
1.006876e+00 -2.073469e-04 0.0
1.006824e+00 -2.473874e-04 0.0
1.006769e+00 -3.116499e-04 0.0
1.006680e+00 -4.083522e-04 0.0
1.006548e+00 -5.277525e-04 0.0
0.000000e+00 -5.433210e-04 0.0
1.000000e+00 -1.144361e-01 0.0
1.022925e+00 -1.149992e-01 0.0
1.049332e+00 -1.280440e-01 0.0
1.082926e+00 -1.551078e-01 0.0
1.128783e+00 -1.971941e-01 0.0
1.193990e+00 -2.549701e-01 0.0
1.282692e+00 -3.134082e-01 0.0
1.432325e+00 -4.246882e-01 0.0
1.511482e+00 -2.876540e-01 0.0
1.532523e+00 -1.265699e-01 0.0
1.521046e+00 2.334235e-03 0.0
1.490374e+00 1.034210e-01 0.0
1.445013e+00 1.837412e-01 0.0
1.386525e+00 2.420806e-01 0.0
1.317509e+00 2.730326e-01 0.0
1.243870e+00 2.727338e-01 0.0
1.174308e+00 2.436996e-01 0.0
1.116389e+00 1.972205e-01 0.0
1.073477e+00 1.475548e-01 0.0
1.044322e+00 1.048744e-01 0.0
1.025413e+00 7.300195e-02 0.0
1.013249e+00 5.103891e-02 0.0
1.005320e+00 3.627364e-02 0.0
1.000103e+00 2.615602e-02 0.0
9.967194e-01 1.892747e-02 0.0
9.946446e-01 1.353852e-02 0.0
9.935331e-01 9.394503e-03 0.0
9.931373e-01 6.152933e-03 0.0
9.932669e-01 3.606727e-03 0.0
9.937717e-01 1.618139e-03 0.0
9.945320e-01 8.763997e-05 0.0
9.954564e-01 -1.066911e-03 0.0
9.964752e-01 -1.913434e-03 0.0
9.975352e-01 -2.508512e-03 0.0
9.985970e-01 -2.900527e-03 0.0
9.996320e-01 -3.131020e-03 0.0
1.000621e+00 -3.235406e-03 0.0
1.001550e+00 -3.243508e-03 0.0
1.002414e+00 -3.180074e-03 0.0
1.003207e+00 -3.065337e-03 0.0
1.003929e+00 -2.915580e-03 0.0
1.004583e+00 -2.743662e-03 0.0
1.005169e+00 -2.559574e-03 0.0
1.005692e+00 -2.370927e-03 0.0
1.006157e+00 -2.183381e-03 0.0
1.006566e+00 -2.001017e-03 0.0
1.006926e+00 -1.826664e-03 0.0
1.007240e+00 -1.662172e-03 0.0
1.007512e+00 -1.508634e-03 0.0
1.007746e+00 -1.366572e-03 0.0
1.007947e+00 -1.236084e-03 0.0
1.008117e+00 -1.116962e-03 0.0
1.008259e+00 -1.008783e-03 0.0
1.008378e+00 -9.109813e-04 0.0
1.008475e+00 -8.229036e-04 0.0
1.008552e+00 -7.438500e-04 0.0
1.008612e+00 -6.731048e-04 0.0
1.008657e+00 -6.099587e-04 0.0
1.008689e+00 -5.537237e-04 0.0
1.008708e+00 -5.037448e-04 0.0
1.008718e+00 -4.594054e-04 0.0
1.008718e+00 -4.201321e-04 0.0
1.008709e+00 -3.853956e-04 0.0
1.008694e+00 -3.547108e-04 0.0
1.008672e+00 -3.276361e-04 0.0
1.008645e+00 -3.037710e-04 0.0
1.008613e+00 -2.827542e-04 0.0
1.008576e+00 -2.642608e-04 0.0
1.008536e+00 -2.479993e-04 0.0
1.008492e+00 -2.337093e-04 0.0
1.008446e+00 -2.211584e-04 0.0
1.008397e+00 -2.101397e-04 0.0
1.008346e+00 -2.004693e-04 0.0
1.008292e+00 -1.919840e-04 0.0
1.008238e+00 -1.845389e-04 0.0
1.008181e+00 -1.780058e-04 0.0
1.008123e+00 -1.722712e-04 0.0
1.008065e+00 -1.672348e-04 0.0
1.008005e+00 -1.628082e-04 0.0
1.007944e+00 -1.589136e-04 0.0
1.007882e+00 -1.554833e-04 0.0
1.007820e+00 -1.524590e-04 0.0
1.007757e+00 -1.497920e-04 0.0
1.007694e+00 -1.474441e-04 0.0
1.007630e+00 -1.453888e-04 0.0
1.007565e+00 -1.436150e-04 0.0
1.007501e+00 -1.421315e-04 0.0
1.007436e+00 -1.409757e-04 0.0
1.007370e+00 -1.402256e-04 0.0
1.007305e+00 -1.400193e-04 0.0
1.007239e+00 -1.405845e-04 0.0
1.007174e+00 -1.422822e-04 0.0
1.007108e+00 -1.456751e-04 0.0
1.007043e+00 -1.516303e-04 0.0
1.006979e+00 -1.614743e-04 0.0
1.006915e+00 -1.772136e-04 0.0
1.006851e+00 -2.017983e-04 0.0
1.006785e+00 -2.392450e-04 0.0
1.006709e+00 -2.940000e-04 0.0
1.006610e+00 -3.669172e-04 0.0
1.006479e+00 -4.548352e-04 0.0
0.000000e+00 -4.693899e-04 0.0
1.000000e+00 -1.302407e-01 0.0
1.015779e+00 -1.310012e-01 0.0
1.034556e+00 -1.468789e-01 0.0
1.059930e+00 -1.805402e-01 0.0
1.098184e+00 -2.355066e-01 0.0
1.160299e+00 -3.171429e-01 0.0
1.261699e+00 -4.148663e-01 0.0
1.465269e+00 -6.283165e-01 0.0
1.527924e+00 -3.503675e-01 0.0
1.527650e+00 -1.263534e-01 0.0
1.504807e+00 2.511887e-02 0.0
1.470379e+00 1.377908e-01 0.0
1.427357e+00 2.267052e-01 0.0
1.375121e+00 2.942586e-01 0.0
1.312372e+00 3.357233e-01 0.0
1.240207e+00 3.448403e-01 0.0
1.166131e+00 3.177171e-01 0.0
1.100936e+00 2.623573e-01 0.0
1.052083e+00 1.963500e-01 0.0
1.020335e+00 1.365645e-01 0.0
1.001764e+00 9.151458e-02 0.0
9.915662e-01 6.117858e-02 0.0
9.862077e-01 4.157403e-02 0.0
9.836309e-01 2.867463e-02 0.0
9.827459e-01 1.975430e-02 0.0
9.829549e-01 1.327137e-02 0.0
9.838874e-01 8.403828e-03 0.0
9.852900e-01 4.692199e-03 0.0
9.869732e-01 1.865395e-03 0.0
9.887963e-01 -2.631943e-04 0.0
9.906617e-01 -1.835866e-03 0.0
9.925006e-01 -2.963960e-03 0.0
9.942653e-01 -3.736390e-03 0.0
9.959252e-01 -4.226534e-03 0.0
9.974623e-01 -4.495807e-03 0.0
9.988686e-01 -4.595425e-03 0.0
1.000143e+00 -4.567696e-03 0.0
1.001288e+00 -4.447088e-03 0.0
1.002311e+00 -4.261332e-03 0.0
1.003220e+00 -4.032425e-03 0.0
1.004024e+00 -3.777477e-03 0.0
1.004732e+00 -3.509596e-03 0.0
1.005352e+00 -3.238622e-03 0.0
1.005895e+00 -2.971756e-03 0.0
1.006368e+00 -2.714099e-03 0.0
1.006778e+00 -2.469107e-03 0.0
1.007132e+00 -2.238960e-03 0.0
1.007436e+00 -2.024868e-03 0.0
1.007697e+00 -1.827315e-03 0.0
1.007918e+00 -1.646251e-03 0.0
1.008105e+00 -1.481245e-03 0.0
1.008262e+00 -1.331607e-03 0.0
1.008391e+00 -1.196476e-03 0.0
1.008497e+00 -1.074889e-03 0.0
1.008582e+00 -9.658378e-04 0.0
1.008648e+00 -8.683028e-04 0.0
1.008698e+00 -7.812828e-04 0.0
1.008734e+00 -7.038135e-04 0.0
1.008757e+00 -6.349802e-04 0.0
1.008769e+00 -5.739258e-04 0.0
1.008771e+00 -5.198545e-04 0.0
1.008765e+00 -4.720338e-04 0.0
1.008751e+00 -4.297935e-04 0.0
1.008731e+00 -3.925237e-04 0.0
1.008705e+00 -3.596725e-04 0.0
1.008673e+00 -3.307419e-04 0.0
1.008638e+00 -3.052845e-04 0.0
1.008598e+00 -2.828994e-04 0.0
1.008555e+00 -2.632283e-04 0.0
1.008509e+00 -2.459516e-04 0.0
1.008461e+00 -2.307850e-04 0.0
1.008410e+00 -2.174757e-04 0.0
1.008357e+00 -2.057996e-04 0.0
1.008302e+00 -1.955578e-04 0.0
1.008246e+00 -1.865744e-04 0.0
1.008189e+00 -1.786934e-04 0.0
1.008130e+00 -1.717772e-04 0.0
1.008070e+00 -1.657040e-04 0.0
1.008010e+00 -1.603664e-04 0.0
1.007948e+00 -1.556698e-04 0.0
1.007886e+00 -1.515316e-04 0.0
1.007823e+00 -1.478804e-04 0.0
1.007760e+00 -1.446554e-04 0.0
1.007696e+00 -1.418080e-04 0.0
1.007632e+00 -1.393022e-04 0.0
1.007567e+00 -1.371186e-04 0.0
1.007502e+00 -1.352588e-04 0.0
1.007437e+00 -1.337539e-04 0.0
1.007371e+00 -1.326766e-04 0.0
1.007305e+00 -1.321604e-04 0.0
1.007239e+00 -1.324274e-04 0.0
1.007172e+00 -1.338286e-04 0.0
1.007105e+00 -1.369022e-04 0.0
1.007038e+00 -1.424534e-04 0.0
1.006970e+00 -1.516561e-04 0.0
1.006901e+00 -1.661596e-04 0.0
1.006829e+00 -1.881347e-04 0.0
1.006751e+00 -2.200630e-04 0.0
1.006663e+00 -2.639000e-04 0.0
1.006556e+00 -3.183290e-04 0.0
1.006425e+00 -3.822462e-04 0.0
0.000000e+00 -3.957914e-04 0.0
1.000000e+00 -1.371405e-01 0.0
1.006875e+00 -1.380993e-01 0.0
1.015405e+00 -1.554666e-01 0.0
1.027961e+00 -1.931542e-01 0.0
1.050416e+00 -2.580199e-01 0.0
1.096041e+00 -3.628268e-01 0.0
1.195450e+00 -5.143331e-01 0.0
1.440751e+00 -8.736756e-01 0.0
1.444757e+00 -3.544314e-01 0.0
1.414558e+00 -9.621281e-02 0.0
1.382978e+00 5.664069e-02 0.0
1.352610e+00 1.681008e-01 0.0
1.321659e+00 2.575983e-01 0.0
1.286138e+00 3.297217e-01 0.0
1.242083e+00 3.797194e-01 0.0
1.186587e+00 4.002788e-01 0.0
1.121673e+00 3.825728e-01 0.0
1.058357e+00 3.256151e-01 0.0
1.008811e+00 2.458373e-01 0.0
9.781380e-01 1.671798e-01 0.0
9.632724e-01 1.063220e-01 0.0
9.581787e-01 6.621415e-02 0.0
9.581008e-01 4.159373e-02 0.0
9.603735e-01 2.634379e-02 0.0
9.637406e-01 1.632905e-02 0.0
9.676118e-01 9.342030e-03 0.0
9.716529e-01 4.304578e-03 0.0
9.756535e-01 6.334296e-04 0.0
9.794830e-01 -2.022269e-03 0.0
9.830641e-01 -3.902432e-03 0.0
9.863531e-01 -5.183020e-03 0.0
9.893296e-01 -5.998665e-03 0.0
9.919915e-01 -6.456426e-03 0.0
9.943493e-01 -6.642570e-03 0.0
9.964222e-01 -6.626874e-03 0.0
9.982338e-01 -6.465180e-03 0.0
9.998096e-01 -6.201641e-03 0.0
1.001175e+00 -5.870896e-03 0.0
1.002355e+00 -5.499611e-03 0.0
1.003373e+00 -5.107954e-03 0.0
1.004248e+00 -4.710934e-03 0.0
1.005000e+00 -4.319444e-03 0.0
1.005644e+00 -3.941151e-03 0.0
1.006195e+00 -3.581220e-03 0.0
1.006666e+00 -3.242901e-03 0.0
1.007067e+00 -2.928000e-03 0.0
1.007407e+00 -2.637247e-03 0.0
1.007694e+00 -2.370587e-03 0.0
1.007936e+00 -2.127409e-03 0.0
1.008139e+00 -1.906718e-03 0.0
1.008306e+00 -1.707270e-03 0.0
1.008444e+00 -1.527676e-03 0.0
1.008556e+00 -1.366471e-03 0.0
1.008645e+00 -1.222177e-03 0.0
1.008715e+00 -1.093339e-03 0.0
1.008767e+00 -9.785538e-04 0.0
1.008804e+00 -8.764874e-04 0.0
1.008828e+00 -7.858892e-04 0.0
1.008840e+00 -7.055965e-04 0.0
1.008843e+00 -6.345368e-04 0.0
1.008836e+00 -5.717281e-04 0.0
1.008822e+00 -5.162755e-04 0.0
1.008802e+00 -4.673679e-04 0.0
1.008775e+00 -4.242730e-04 0.0
1.008744e+00 -3.863317e-04 0.0
1.008708e+00 -3.529532e-04 0.0
1.008668e+00 -3.236088e-04 0.0
1.008625e+00 -2.978266e-04 0.0
1.008578e+00 -2.751864e-04 0.0
1.008530e+00 -2.553147e-04 0.0
1.008479e+00 -2.378798e-04 0.0
1.008425e+00 -2.225877e-04 0.0
1.008371e+00 -2.091780e-04 0.0
1.008314e+00 -1.974203e-04 0.0
1.008257e+00 -1.871106e-04 0.0
1.008198e+00 -1.780688e-04 0.0
1.008138e+00 -1.701357e-04 0.0
1.008077e+00 -1.631706e-04 0.0
1.008016e+00 -1.570494e-04 0.0
1.007954e+00 -1.516626e-04 0.0
1.007891e+00 -1.469142e-04 0.0
1.007828e+00 -1.427204e-04 0.0
1.007764e+00 -1.390095e-04 0.0
1.007699e+00 -1.357220e-04 0.0
1.007635e+00 -1.328114e-04 0.0
1.007570e+00 -1.302477e-04 0.0
1.007504e+00 -1.280207e-04 0.0
1.007438e+00 -1.261482e-04 0.0
1.007372e+00 -1.246863e-04 0.0
1.007306e+00 -1.237468e-04 0.0
1.007239e+00 -1.235202e-04 0.0
1.007171e+00 -1.243102e-04 0.0
1.007102e+00 -1.265782e-04 0.0
1.007033e+00 -1.309985e-04 0.0
1.006961e+00 -1.385154e-04 0.0
1.006887e+00 -1.503741e-04 0.0
1.006809e+00 -1.680576e-04 0.0
1.006724e+00 -1.929944e-04 0.0
1.006628e+00 -2.258720e-04 0.0
1.006516e+00 -2.650018e-04 0.0
1.006386e+00 -3.099426e-04 0.0
0.000000e+00 -3.224816e-04 0.0
1.000000e+00 -1.341095e-01 0.0
9.969295e-01 -1.352517e-01 0.0
9.931343e-01 -1.517295e-01 0.0
9.878964e-01 -1.879745e-01 0.0
9.823876e-01 -2.525692e-01 0.0
9.830002e-01 -3.634975e-01 0.0
1.018867e+00 -5.502576e-01 0.0
1.195816e+00 -1.050683e+00 0.0
1.078236e+00 -2.367451e-01 0.0
9.916325e-01 -9.502366e-03 0.0
9.669527e-01 8.126237e-02 0.0
9.742288e-01 1.607666e-01 0.0
9.937548e-01 2.380140e-01 0.0
1.009857e+00 3.135615e-01 0.0
1.014274e+00 3.752446e-01 0.0
1.005097e+00 4.093977e-01 0.0
9.809513e-01 4.066599e-01 0.0
9.502144e-01 3.562938e-01 0.0
9.247034e-01 2.712901e-01 0.0
9.111087e-01 1.807165e-01 0.0
9.086518e-01 1.087208e-01 0.0
9.131923e-01 6.161543e-02 0.0
9.212195e-01 3.350834e-02 0.0
9.305678e-01 1.693739e-02 0.0
9.400817e-01 6.756958e-03 0.0
9.491395e-01 2.260853e-04 0.0
9.574559e-01 -4.069960e-03 0.0
9.649148e-01 -6.883694e-03 0.0
9.714999e-01 -8.665442e-03 0.0
9.772434e-01 -9.704145e-03 0.0
9.822049e-01 -1.020265e-02 0.0
9.864582e-01 -1.031018e-02 0.0
9.900831e-01 -1.013945e-02 0.0
9.931582e-01 -9.775812e-03 0.0
9.957576e-01 -9.284512e-03 0.0
9.979494e-01 -8.715158e-03 0.0
9.997943e-01 -8.104633e-03 0.0
1.001345e+00 -7.479959e-03 0.0
1.002648e+00 -6.860546e-03 0.0
1.003742e+00 -6.259895e-03 0.0
1.004660e+00 -5.687026e-03 0.0
1.005430e+00 -5.147602e-03 0.0
1.006075e+00 -4.644792e-03 0.0
1.006616e+00 -4.179944e-03 0.0
1.007068e+00 -3.753095e-03 0.0
1.007445e+00 -3.363361e-03 0.0
1.007759e+00 -3.009234e-03 0.0
1.008019e+00 -2.688795e-03 0.0
1.008233e+00 -2.399885e-03 0.0
1.008408e+00 -2.140225e-03 0.0
1.008550e+00 -1.907505e-03 0.0
1.008664e+00 -1.699444e-03 0.0
1.008753e+00 -1.513840e-03 0.0
1.008821e+00 -1.348596e-03 0.0
1.008872e+00 -1.201738e-03 0.0
1.008906e+00 -1.071429e-03 0.0
1.008928e+00 -9.559712e-04 0.0
1.008937e+00 -8.538050e-04 0.0
1.008937e+00 -7.635073e-04 0.0
1.008928e+00 -6.837851e-04 0.0
1.008912e+00 -6.134685e-04 0.0
1.008889e+00 -5.515031e-04 0.0
1.008860e+00 -4.969411e-04 0.0
1.008827e+00 -4.489335e-04 0.0
1.008789e+00 -4.067214e-04 0.0
1.008747e+00 -3.696277e-04 0.0
1.008703e+00 -3.370498e-04 0.0
1.008655e+00 -3.084520e-04 0.0
1.008605e+00 -2.833593e-04 0.0
1.008553e+00 -2.613503e-04 0.0
1.008499e+00 -2.420522e-04 0.0
1.008443e+00 -2.251351e-04 0.0
1.008386e+00 -2.103077e-04 0.0
1.008328e+00 -1.973124e-04 0.0
1.008269e+00 -1.859219e-04 0.0
1.008208e+00 -1.759353e-04 0.0
1.008147e+00 -1.671755e-04 0.0
1.008085e+00 -1.594858e-04 0.0
1.008023e+00 -1.527281e-04 0.0
1.007960e+00 -1.467801e-04 0.0
1.007896e+00 -1.415344e-04 0.0
1.007832e+00 -1.368964e-04 0.0
1.007768e+00 -1.327841e-04 0.0
1.007703e+00 -1.291273e-04 0.0
1.007638e+00 -1.258687e-04 0.0
1.007572e+00 -1.229654e-04 0.0
1.007507e+00 -1.203919e-04 0.0
1.007440e+00 -1.181464e-04 0.0
1.007374e+00 -1.162587e-04 0.0
1.007307e+00 -1.148037e-04 0.0
1.007239e+00 -1.139197e-04 0.0
1.007170e+00 -1.138332e-04 0.0
1.007100e+00 -1.148913e-04 0.0
1.007029e+00 -1.175955e-04 0.0
1.006955e+00 -1.226298e-04 0.0
1.006877e+00 -1.308528e-04 0.0
1.006794e+00 -1.432067e-04 0.0
1.006703e+00 -1.604613e-04 0.0
1.006602e+00 -1.827462e-04 0.0
1.006487e+00 -2.086505e-04 0.0
1.006357e+00 -2.379129e-04 0.0
0.000000e+00 -2.494477e-04 0.0
1.000000e+00 -1.215346e-01 0.0
9.873580e-01 -1.228327e-01 0.0
9.711550e-01 -1.355846e-01 0.0
9.462910e-01 -1.631687e-01 0.0
9.047821e-01 -2.111185e-01 0.0
8.315664e-01 -2.903400e-01 0.0
7.076707e-01 -4.264200e-01 0.0
2.370746e-01 -5.799807e-01 0.0
-1.079714e+00 5.763599e-01 0.0
0.000000e+00 3.794100e-02 0.0
1.039677e-01 -3.243059e-02 0.0
2.916446e-01 -2.696855e-02 0.0
4.481371e-01 8.146341e-02 0.0
5.581486e-01 2.034918e-01 0.0
6.278749e-01 3.054601e-01 0.0
6.694219e-01 3.677926e-01 0.0
6.914337e-01 3.845899e-01 0.0
7.071732e-01 3.404962e-01 0.0
7.301272e-01 2.482779e-01 0.0
7.627983e-01 1.479873e-01 0.0
7.995195e-01 7.194141e-02 0.0
8.343657e-01 2.671107e-02 0.0
8.646228e-01 3.193029e-03 0.0
8.899717e-01 -8.469655e-03 0.0
9.109707e-01 -1.430018e-02 0.0
9.283387e-01 -1.720009e-02 0.0
9.427071e-01 -1.849649e-02 0.0
9.545910e-01 -1.882579e-02 0.0
9.644077e-01 -1.854024e-02 0.0
9.725017e-01 -1.785630e-02 0.0
9.791618e-01 -1.692094e-02 0.0
9.846319e-01 -1.583842e-02 0.0
9.891178e-01 -1.468352e-02 0.0
9.927928e-01 -1.350900e-02 0.0
9.958019e-01 -1.235176e-02 0.0
9.982654e-01 -1.123684e-02 0.0
1.000283e+00 -1.018011e-02 0.0
1.001935e+00 -9.190779e-03 0.0
1.003290e+00 -8.273334e-03 0.0
1.004401e+00 -7.428925e-03 0.0
1.005312e+00 -6.656443e-03 0.0
1.006060e+00 -5.953285e-03 0.0
1.006673e+00 -5.315907e-03 0.0
1.007175e+00 -4.740216e-03 0.0
1.007585e+00 -4.221850e-03 0.0
1.007920e+00 -3.756365e-03 0.0
1.008192e+00 -3.339370e-03 0.0
1.008412e+00 -2.966618e-03 0.0
1.008588e+00 -2.634060e-03 0.0
1.008727e+00 -2.337883e-03 0.0
1.008836e+00 -2.074528e-03 0.0
1.008919e+00 -1.840701e-03 0.0
1.008981e+00 -1.633367e-03 0.0
1.009023e+00 -1.449751e-03 0.0
1.009051e+00 -1.287323e-03 0.0
1.009065e+00 -1.143786e-03 0.0
1.009068e+00 -1.017066e-03 0.0
1.009061e+00 -9.052892e-04 0.0
1.009046e+00 -8.067746e-04 0.0
1.009024e+00 -7.200133e-04 0.0
1.008996e+00 -6.436558e-04 0.0
1.008963e+00 -5.764975e-04 0.0
1.008926e+00 -5.174649e-04 0.0
1.008884e+00 -4.656028e-04 0.0
1.008839e+00 -4.200630e-04 0.0
1.008792e+00 -3.800931e-04 0.0
1.008741e+00 -3.450264e-04 0.0
1.008689e+00 -3.142731e-04 0.0
1.008635e+00 -2.873115e-04 0.0
1.008579e+00 -2.636809e-04 0.0
1.008522e+00 -2.429745e-04 0.0
1.008463e+00 -2.248337e-04 0.0
1.008404e+00 -2.089418e-04 0.0
1.008343e+00 -1.950200e-04 0.0
1.008282e+00 -1.828222e-04 0.0
1.008220e+00 -1.721314e-04 0.0
1.008157e+00 -1.627564e-04 0.0
1.008094e+00 -1.545281e-04 0.0
1.008031e+00 -1.472972e-04 0.0
1.007967e+00 -1.409316e-04 0.0
1.007902e+00 -1.353144e-04 0.0
1.007837e+00 -1.303423e-04 0.0
1.007772e+00 -1.259241e-04 0.0
1.007707e+00 -1.219798e-04 0.0
1.007641e+00 -1.184410e-04 0.0
1.007576e+00 -1.152507e-04 0.0
1.007509e+00 -1.123657e-04 0.0
1.007443e+00 -1.097598e-04 0.0
1.007376e+00 -1.074290e-04 0.0
1.007308e+00 -1.054004e-04 0.0
1.007240e+00 -1.037439e-04 0.0
1.007170e+00 -1.025884e-04 0.0
1.007099e+00 -1.021418e-04 0.0
1.007026e+00 -1.027106e-04 0.0
1.006950e+00 -1.047116e-04 0.0
1.006870e+00 -1.086568e-04 0.0
1.006784e+00 -1.150794e-04 0.0
1.006689e+00 -1.243630e-04 0.0
1.006585e+00 -1.364666e-04 0.0
1.006468e+00 -1.504943e-04 0.0
1.006339e+00 -1.661660e-04 0.0
0.000000e+00 -1.766954e-04 0.0
1.000000e+00 -1.015548e-01 0.0
9.799186e-01 -1.029742e-01 0.0
9.543254e-01 -1.100496e-01 0.0
9.151925e-01 -1.240939e-01 0.0
8.484562e-01 -1.444403e-01 0.0
7.248898e-01 -1.668317e-01 0.0
4.672517e-01 -1.688401e-01 0.0
-1.225747e-02 -1.003649e-01 0.0
-1.900470e-04 0.000000e+00 0.0
0.000000e+00 -0.000000e+00 0.0
0.000000e+00 -1.593116e-02 0.0