# vtk DataFile Version 3.0
Vector Field
ASCII
DATASET RECTILINEAR_GRID
DIMENSIONS 102 22 1
X_COORDINATES 102 double
0.000000 0.100000 0.200000 0.300000 0.400000 0.500000 0.600000 0.700000 0.800000 0.900000 1.000000 1.100000 1.200000 1.300000 1.400000 1.500000 1.600000 1.700000 1.800000 1.900000 2.000000 2.100000 2.200000 2.300000 2.400000 2.500000 2.600000 2.700000 2.800000 2.900000 3.000000 3.100000 3.200000 3.300000 3.400000 3.500000 3.600000 3.700000 3.800000 3.900000 4.000000 4.100000 4.200000 4.300000 4.400000 4.500000 4.600000 4.700000 4.800000 4.900000 5.000000 5.100000 5.200000 5.300000 5.400000 5.500000 5.600000 5.700000 5.800000 5.900000 6.000000 6.100000 6.200000 6.300000 6.400000 6.500000 6.600000 6.700000 6.800000 6.900000 7.000000 7.100000 7.200000 7.300000 7.400000 7.500000 7.600000 7.700000 7.800000 7.900000 8.000000 8.100000 8.200000 8.300000 8.400000 8.500000 8.600000 8.700000 8.800000 8.900000 9.000000 9.100000 9.200000 9.300000 9.400000 9.500000 9.600000 9.700000 9.800000 9.900000 10.000000 10.100000 
Y_COORDINATES 22 double
0.000000 0.100000 0.200000 0.300000 0.400000 0.500000 0.600000 0.700000 0.800000 0.900000 1.000000 1.100000 1.200000 1.300000 1.400000 1.500000 1.600000 1.700000 1.800000 1.900000 2.000000 2.100000 
Z_COORDINATES 1 double
0.0
POINT_DATA 2244
VECTORS Velocity double
0.000000e+00 0.000000e+00 0.0
-1.024228e+00 0.000000e+00 0.0
-1.051527e+00 0.000000e+00 0.0
-1.084840e+00 0.000000e+00 0.0
-1.127105e+00 0.000000e+00 0.0
-1.180865e+00 0.000000e+00 0.0
-1.246381e+00 0.000000e+00 0.0
-1.324704e+00 0.000000e+00 0.0
-1.401481e+00 0.000000e+00 0.0
-1.467493e+00 0.000000e+00 0.0
-1.521382e+00 0.000000e+00 0.0
-1.565235e+00 0.000000e+00 0.0
-1.601310e+00 0.000000e+00 0.0
-1.630779e+00 0.000000e+00 0.0
-1.653512e+00 0.000000e+00 0.0
-1.668563e+00 0.000000e+00 0.0
-1.675151e+00 0.000000e+00 0.0
-1.673498e+00 0.000000e+00 0.0
-1.664500e+00 0.000000e+00 0.0
-1.649249e+00 0.000000e+00 0.0
-1.628769e+00 0.000000e+00 0.0
-1.603820e+00 0.000000e+00 0.0
-1.574801e+00 0.000000e+00 0.0
-1.541779e+00 0.000000e+00 0.0
-1.504594e+00 0.000000e+00 0.0
-1.463006e+00 0.000000e+00 0.0
-1.416846e+00 0.000000e+00 0.0
-1.366093e+00 0.000000e+00 0.0
-1.310873e+00 0.000000e+00 0.0
-1.251437e+00 0.000000e+00 0.0
-1.188324e+00 0.000000e+00 0.0
-1.122920e+00 0.000000e+00 0.0
-1.058051e+00 0.000000e+00 0.0
-9.984248e-01 0.000000e+00 0.0
-9.508853e-01 0.000000e+00 0.0
-9.236897e-01 0.000000e+00 0.0
-9.242414e-01 0.000000e+00 0.0
-9.564968e-01 0.000000e+00 0.0
-1.021030e+00 0.000000e+00 0.0
-1.115702e+00 0.000000e+00 0.0
-1.235051e+00 0.000000e+00 0.0
-1.367737e+00 0.000000e+00 0.0
-1.496457e+00 0.000000e+00 0.0
-1.602306e+00 0.000000e+00 0.0
-1.669213e+00 0.000000e+00 0.0
-1.690794e+00 0.000000e+00 0.0
-1.673014e+00 0.000000e+00 0.0
-1.624282e+00 0.000000e+00 0.0
-1.551909e+00 0.000000e+00 0.0
-1.462778e+00 0.000000e+00 0.0
-1.363103e+00 0.000000e+00 0.0
-1.258308e+00 0.000000e+00 0.0
-1.153868e+00 0.000000e+00 0.0
-1.055514e+00 0.000000e+00 0.0
-9.689874e-01 0.000000e+00 0.0
-8.993322e-01 0.000000e+00 0.0
-8.499902e-01 0.000000e+00 0.0
-8.221873e-01 0.000000e+00 0.0
-8.148240e-01 0.000000e+00 0.0
-8.247892e-01 0.000000e+00 0.0
-8.486362e-01 0.000000e+00 0.0
-8.830953e-01 0.000000e+00 0.0
-9.251695e-01 0.000000e+00 0.0
-9.721229e-01 0.000000e+00 0.0
-1.021459e+00 0.000000e+00 0.0
-1.070959e+00 0.000000e+00 0.0
-1.118680e+00 0.000000e+00 0.0
-1.162967e+00 0.000000e+00 0.0
-1.202458e+00 0.000000e+00 0.0
-1.236112e+00 0.000000e+00 0.0
-1.263178e+00 0.000000e+00 0.0
-1.283236e+00 0.000000e+00 0.0
-1.296242e+00 0.000000e+00 0.0
-1.302472e+00 0.000000e+00 0.0
-1.302165e+00 0.000000e+00 0.0
-1.295187e+00 0.000000e+00 0.0
-1.281304e+00 0.000000e+00 0.0
-1.260323e+00 0.000000e+00 0.0
-1.232410e+00 0.000000e+00 0.0
-1.198708e+00 0.000000e+00 0.0
-1.161943e+00 0.000000e+00 0.0
-1.126282e+00 0.000000e+00 0.0
-1.095989e+00 0.000000e+00 0.0
-1.073946e+00 0.000000e+00 0.0
-1.061174e+00 0.000000e+00 0.0
-1.057119e+00 0.000000e+00 0.0
-1.060033e+00 0.000000e+00 0.0
-1.067685e+00 0.000000e+00 0.0
-1.078033e+00 0.000000e+00 0.0
-1.089492e+00 0.000000e+00 0.0
-1.100927e+00 0.000000e+00 0.0
-1.111592e+00 0.000000e+00 0.0
-1.121061e+00 0.000000e+00 0.0
-1.129151e+00 0.000000e+00 0.0
-1.135842e+00 0.000000e+00 0.0
-1.141219e+00 0.000000e+00 0.0
-1.145422e+00 0.000000e+00 0.0
-1.148606e+00 0.000000e+00 0.0
-1.150904e+00 0.000000e+00 0.0
-1.152481e+00 0.000000e+00 0.0
-1.152481e+00 0.000000e+00 0.0
0.000000e+00 0.000000e+00 0.0
1.000000e+00 -2.445118e-02 0.0
1.024070e+00 -2.430707e-02 0.0
1.051206e+00 -2.727217e-02 0.0
1.084335e+00 -3.326552e-02 0.0
1.126383e+00 -4.218374e-02 0.0
1.179878e+00 -5.363180e-02 0.0
1.245072e+00 -6.533001e-02 0.0
1.322977e+00 -7.804053e-02 0.0
1.399288e+00 -7.644725e-02 0.0
1.464847e+00 -6.569577e-02 0.0
1.518364e+00 -5.365298e-02 0.0
1.562008e+00 -4.378025e-02 0.0
1.598142e+00 -3.627075e-02 0.0
1.628040e+00 -3.003397e-02 0.0
1.651619e+00 -2.371549e-02 0.0
1.667873e+00 -1.638972e-02 0.0
1.675813e+00 -8.076585e-03 0.0
1.675428e+00 2.484995e-04 0.0
1.667533e+00 7.759097e-03 0.0
1.653200e+00 1.419714e-02 0.0
1.633481e+00 1.958211e-02 0.0
1.609192e+00 2.415296e-02 0.0
1.580791e+00 2.826474e-02 0.0
1.548387e+00 3.226808e-02 0.0
1.511834e+00 3.641619e-02 0.0
1.470883e+00 4.081514e-02 0.0
1.425330e+00 4.541696e-02 0.0
1.375121e+00 5.007248e-02 0.0
1.320366e+00 5.461835e-02 0.0
1.261304e+00 5.892551e-02 0.0
1.198407e+00 6.276143e-02 0.0
1.132853e+00 6.541693e-02 0.0
1.067164e+00 6.555276e-02 0.0
1.005625e+00 6.140342e-02 0.0
9.546295e-01 5.085896e-02 0.0
9.221943e-01 3.229887e-02 0.0
9.160212e-01 6.036830e-03 0.0
9.406897e-01 -2.480481e-02 0.0
9.973288e-01 -5.677539e-02 0.0
1.084571e+00 -8.737837e-02 0.0
1.198046e+00 -1.136114e-01 0.0
1.328566e+00 -1.306566e-01 0.0
1.460203e+00 -1.317730e-01 0.0
1.574393e+00 -1.143260e-01 0.0
1.653798e+00 -7.954218e-02 0.0
1.688663e+00 -3.500110e-02 0.0
1.681669e+00 6.858054e-03 0.0
1.641354e+00 4.017825e-02 0.0
1.574971e+00 6.624672e-02 0.0
1.489434e+00 8.540047e-02 0.0
1.391300e+00 9.799831e-02 0.0
1.286414e+00 1.047492e-01 0.0
1.180481e+00 1.057971e-01 0.0
1.079396e+00 1.009485e-01 0.0
9.890772e-01 9.018233e-02 0.0
9.148463e-01 7.409457e-02 0.0
8.605489e-01 5.416102e-02 0.0
8.278694e-01 3.254320e-02 0.0
8.161438e-01 1.158925e-02 0.0
8.225595e-01 -6.552111e-03 0.0
8.435660e-01 -2.114284e-02 0.0
8.758139e-01 -3.238426e-02 0.0
9.162236e-01 -4.054613e-02 0.0
9.620037e-01 -4.591645e-02 0.0
1.010613e+00 -4.874614e-02 0.0
1.059796e+00 -4.931908e-02 0.0
1.107576e+00 -4.791582e-02 0.0
1.152265e+00 -4.482549e-02 0.0
1.192462e+00 -4.033373e-02 0.0
1.227083e+00 -3.475761e-02 0.0
1.255337e+00 -2.838998e-02 0.0
1.276741e+00 -2.154106e-02 0.0
1.291176e+00 -1.457052e-02 0.0
1.298861e+00 -7.821862e-03 0.0
1.300107e+00 -1.382261e-03 0.0
1.294856e+00 5.113998e-03 0.0
1.282906e+00 1.181451e-02 0.0
1.264050e+00 1.871945e-02 0.0
1.238333e+00 2.558071e-02 0.0
1.206576e+00 3.162022e-02 0.0
1.171018e+00 3.542108e-02 0.0
1.135439e+00 3.544304e-02 0.0
1.104109e+00 3.119391e-02 0.0
1.080281e+00 2.369111e-02 0.0
1.065396e+00 1.474849e-02 0.0
1.059289e+00 5.970708e-03 0.0
1.060514e+00 -1.361323e-03 0.0
1.066941e+00 -6.563559e-03 0.0
1.076493e+00 -9.688371e-03 0.0
1.087497e+00 -1.114089e-02 0.0
1.098742e+00 -1.138101e-02 0.0
1.109400e+00 -1.079444e-02 0.0
1.118983e+00 -9.719846e-03 0.0
1.127260e+00 -8.413039e-03 0.0
1.134176e+00 -7.051941e-03 0.0
1.139790e+00 -5.750579e-03 0.0
1.144225e+00 -4.571704e-03 0.0
1.147624e+00 -3.535097e-03 0.0
1.150107e+00 -2.620296e-03 0.0
1.151837e+00 -1.865697e-03 0.0
1.152481e+00 -7.805091e-04 0.0
0.000000e+00 -6.472858e-04 0.0
1.000000e+00 -4.915620e-02 0.0
1.024418e+00 -4.886080e-02 0.0
1.051939e+00 -5.482900e-02 0.0
1.085613e+00 -6.697543e-02 0.0
1.128671e+00 -8.527697e-02 0.0
1.184294e+00 -1.092903e-01 0.0
1.252916e+00 -1.339876e-01 0.0
1.340140e+00 -1.652998e-01 0.0
1.421477e+00 -1.578200e-01 0.0
1.487529e+00 -1.317830e-01 0.0
1.539770e+00 -1.059303e-01 0.0
1.582151e+00 -8.619630e-02 0.0
1.617716e+00 -7.187188e-02 0.0
1.647971e+00 -6.032451e-02 0.0
1.672832e+00 -4.861138e-02 0.0
1.691073e+00 -3.466653e-02 0.0
1.701283e+00 -1.832238e-02 0.0
1.703098e+00 -1.601789e-03 0.0
1.697374e+00 1.344773e-02 0.0
1.685265e+00 2.627017e-02 0.0
1.667898e+00 3.691428e-02 0.0
1.646138e+00 4.587678e-02 0.0
1.620468e+00 5.389899e-02 0.0
1.590992e+00 6.170851e-02 0.0
1.557549e+00 6.982379e-02 0.0
1.519860e+00 7.846906e-02 0.0
1.477691e+00 8.755042e-02 0.0
1.430970e+00 9.675756e-02 0.0
1.379839e+00 1.057139e-01 0.0
1.324673e+00 1.140561e-01 0.0
1.266119e+00 1.212797e-01 0.0
1.205191e+00 1.263098e-01 0.0
1.143701e+00 1.270071e-01 0.0
1.084960e+00 1.201089e-01 0.0
1.033914e+00 1.018692e-01 0.0
9.967842e-01 6.939303e-02 0.0
9.794551e-01 2.333037e-02 0.0
9.841753e-01 -2.956053e-02 0.0
1.008918e+00 -8.155359e-02 0.0
1.053194e+00 -1.316895e-01 0.0
1.119619e+00 -1.800726e-01 0.0
1.208734e+00 -2.198067e-01 0.0
1.312941e+00 -2.360159e-01 0.0
1.417758e+00 -2.191789e-01 0.0
1.506998e+00 -1.688176e-01 0.0
1.566535e+00 -9.457335e-02 0.0
1.588970e+00 -1.561280e-02 0.0
1.579183e+00 4.993039e-02 0.0
1.544428e+00 1.009657e-01 0.0
1.490766e+00 1.390268e-01 0.0
1.423227e+00 1.655020e-01 0.0
1.346354e+00 1.815866e-01 0.0
1.264653e+00 1.874625e-01 0.0
1.183349e+00 1.822166e-01 0.0
1.107569e+00 1.659270e-01 0.0
1.041805e+00 1.398231e-01 0.0
9.894987e-01 1.064314e-01 0.0
9.527951e-01 6.921120e-02 0.0
9.325104e-01 3.183839e-02 0.0
9.280127e-01 -2.089956e-03 0.0
9.368969e-01 -3.006261e-02 0.0
9.562577e-01 -5.178066e-02 0.0
9.833834e-01 -6.770745e-02 0.0
1.015893e+00 -7.846210e-02 0.0
1.051585e+00 -8.447315e-02 0.0
1.088483e+00 -8.625229e-02 0.0
1.124958e+00 -8.442725e-02 0.0
1.159585e+00 -7.948772e-02 0.0
1.191107e+00 -7.189169e-02 0.0
1.218456e+00 -6.214217e-02 0.0
1.240824e+00 -5.079306e-02 0.0
1.257699e+00 -3.845201e-02 0.0
1.268814e+00 -2.572107e-02 0.0
1.273957e+00 -1.299991e-02 0.0
1.272619e+00 -8.035869e-05 0.0
1.264372e+00 1.332606e-02 0.0
1.249114e+00 2.703626e-02 0.0
1.227220e+00 4.057771e-02 0.0
1.199946e+00 5.281987e-02 0.0
1.169810e+00 6.172048e-02 0.0
1.140602e+00 6.459327e-02 0.0
1.116424e+00 5.958497e-02 0.0
1.100084e+00 4.749861e-02 0.0
1.092624e+00 3.111549e-02 0.0
1.093439e+00 1.389796e-02 0.0
1.100516e+00 -1.141267e-03 0.0
1.111469e+00 -1.235007e-02 0.0
1.124310e+00 -1.944010e-02 0.0
1.137532e+00 -2.294632e-02 0.0
1.150115e+00 -2.375929e-02 0.0
1.161492e+00 -2.279397e-02 0.0
1.171444e+00 -2.078209e-02 0.0
1.179928e+00 -1.823873e-02 0.0
1.187010e+00 -1.553134e-02 0.0
1.192832e+00 -1.290905e-02 0.0
1.197566e+00 -1.052071e-02 0.0
1.201386e+00 -8.427210e-03 0.0
1.204426e+00 -6.610326e-03 0.0
1.206751e+00 -4.980659e-03 0.0
1.208277e+00 -3.427874e-03 0.0
1.208345e+00 -8.842115e-04 0.0
0.000000e+00 -6.031501e-04 0.0
1.000000e+00 -7.066087e-02 0.0
1.021227e+00 -7.022421e-02 0.0
1.045630e+00 -7.926710e-02 0.0
1.076517e+00 -9.789774e-02 0.0
1.117847e+00 -1.266427e-01 0.0
1.174334e+00 -1.658133e-01 0.0
1.247648e+00 -2.073366e-01 0.0
1.353673e+00 -2.713604e-01 0.0
1.439999e+00 -2.441821e-01 0.0
1.501082e+00 -1.929010e-01 0.0
1.545675e+00 -1.505596e-01 0.0
1.581085e+00 -1.216411e-01 0.0
1.611359e+00 -1.021821e-01 0.0
1.638340e+00 -8.734076e-02 0.0
1.662061e+00 -7.236799e-02 0.0
1.680969e+00 -5.360989e-02 0.0
1.692743e+00 -3.013186e-02 0.0
1.695971e+00 -4.866057e-03 0.0
1.691426e+00 1.795728e-02 0.0
1.680425e+00 3.723551e-02 0.0
1.664252e+00 5.305261e-02 0.0
1.643914e+00 6.617844e-02 0.0
1.619979e+00 7.779914e-02 0.0
1.592569e+00 8.908257e-02 0.0
1.561472e+00 1.008855e-01 0.0
1.526323e+00 1.135820e-01 0.0
1.486791e+00 1.270471e-01 0.0
1.442727e+00 1.407864e-01 0.0
1.394262e+00 1.541428e-01 0.0
1.341835e+00 1.664476e-01 0.0
1.286160e+00 1.769189e-01 0.0
1.228308e+00 1.841263e-01 0.0
1.170082e+00 1.851976e-01 0.0
1.114477e+00 1.756792e-01 0.0
1.065208e+00 1.511022e-01 0.0
1.025211e+00 1.093547e-01 0.0
9.952165e-01 5.328910e-02 0.0
9.747805e-01 -9.160119e-03 0.0
9.648903e-01 -7.169896e-02 0.0
9.692009e-01 -1.360357e-01 0.0
9.935372e-01 -2.044444e-01 0.0
1.042352e+00 -2.686569e-01 0.0
1.115364e+00 -3.090638e-01 0.0
1.202039e+00 -3.058896e-01 0.0
1.288730e+00 -2.555440e-01 0.0
1.361601e+00 -1.674799e-01 0.0
1.409222e+00 -6.326923e-02 0.0
1.427757e+00 3.136012e-02 0.0
1.422724e+00 1.059631e-01 0.0
1.398957e+00 1.627580e-01 0.0
1.360683e+00 2.037402e-01 0.0
1.311760e+00 2.304737e-01 0.0
1.255715e+00 2.434727e-01 0.0
1.196121e+00 2.417743e-01 0.0
1.137449e+00 2.245636e-01 0.0
1.083988e+00 1.932493e-01 0.0
1.039032e+00 1.513515e-01 0.0
1.004513e+00 1.036941e-01 0.0
9.814800e-01 5.483625e-02 0.0
9.702475e-01 9.107000e-03 0.0
9.699231e-01 -2.977379e-02 0.0
9.785694e-01 -6.046261e-02 0.0
9.941725e-01 -8.334607e-02 0.0
1.015039e+00 -9.936458e-02 0.0
1.039629e+00 -1.090987e-01 0.0
1.066348e+00 -1.130068e-01 0.0
1.093558e+00 -1.116722e-01 0.0
1.119768e+00 -1.057343e-01 0.0
1.143679e+00 -9.583736e-02 0.0
1.164211e+00 -8.271041e-02 0.0
1.180548e+00 -6.716529e-02 0.0
1.192114e+00 -5.005377e-02 0.0
1.198472e+00 -3.211478e-02 0.0
1.199035e+00 -1.359831e-02 0.0
1.192928e+00 5.990814e-03 0.0
1.180000e+00 2.621846e-02 0.0
1.160710e+00 4.629098e-02 0.0
1.136467e+00 6.478520e-02 0.0
1.109999e+00 7.925261e-02 0.0
1.085348e+00 8.633514e-02 0.0
1.066794e+00 8.311242e-02 0.0
1.056357e+00 6.998592e-02 0.0
1.053932e+00 4.988831e-02 0.0
1.058015e+00 2.699633e-02 0.0
1.066413e+00 5.465116e-03 0.0
1.077065e+00 -1.182975e-02 0.0
1.088656e+00 -2.397623e-02 0.0
1.100345e+00 -3.116449e-02 0.0
1.111582e+00 -3.421960e-02 0.0
1.122044e+00 -3.425686e-02 0.0
1.131503e+00 -3.228794e-02 0.0
1.139787e+00 -2.910217e-02 0.0
1.146824e+00 -2.531064e-02 0.0
1.152629e+00 -2.137200e-02 0.0
1.157290e+00 -1.760630e-02 0.0
1.160938e+00 -1.420391e-02 0.0
1.163710e+00 -1.123473e-02 0.0
1.165723e+00 -8.659219e-03 0.0
1.167051e+00 -6.343874e-03 0.0
1.167683e+00 -4.095742e-03 0.0
1.167279e+00 -5.154936e-04 0.0
0.000000e+00 -5.392636e-05 0.0
1.000000e+00 -8.727148e-02 0.0
1.016348e+00 -8.670835e-02 0.0
1.035767e+00 -9.872217e-02 0.0
1.061773e+00 -1.239389e-01 0.0
1.099382e+00 -1.642874e-01 0.0
1.155853e+00 -2.223200e-01 0.0
1.236952e+00 -2.884712e-01 0.0
1.374068e+00 -4.085114e-01 0.0
1.456470e+00 -3.266198e-01 0.0
1.500110e+00 -2.365769e-01 0.0
1.527531e+00 -1.780160e-01 0.0
1.548354e+00 -1.424989e-01 0.0
1.567020e+00 -1.208839e-01 0.0
1.585891e+00 -1.062471e-01 0.0
1.605647e+00 -9.215997e-02 0.0
1.624852e+00 -7.285000e-02 0.0
1.640206e+00 -4.552131e-02 0.0
1.647805e+00 -1.250111e-02 0.0
1.646998e+00 1.872891e-02 0.0
1.639401e+00 4.479688e-02 0.0
1.626539e+00 6.587910e-02 0.0
1.609696e+00 8.298585e-02 0.0
1.589549e+00 9.791088e-02 0.0
1.566222e+00 1.123734e-01 0.0
1.539413e+00 1.276599e-01 0.0
1.508601e+00 1.443576e-01 0.0
1.473281e+00 1.623323e-01 0.0
1.433153e+00 1.808790e-01 0.0
1.388278e+00 1.989818e-01 0.0
1.339146e+00 2.155435e-01 0.0
1.286638e+00 2.293920e-01 0.0
1.231903e+00 2.388260e-01 0.0
1.176575e+00 2.404896e-01 0.0
1.123315e+00 2.289037e-01 0.0
1.074645e+00 1.997360e-01 0.0
1.030048e+00 1.539166e-01 0.0
9.853933e-01 9.790827e-02 0.0
9.405507e-01 3.564691e-02 0.0
9.049632e-01 -3.614697e-02 0.0
8.888599e-01 -1.199680e-01 0.0
8.960760e-01 -2.116961e-01 0.0
9.238391e-01 -2.964556e-01 0.0
9.696394e-01 -3.548996e-01 0.0
1.030179e+00 -3.664650e-01 0.0
1.098221e+00 -3.236212e-01 0.0
1.164709e+00 -2.340037e-01 0.0
1.219807e+00 -1.184027e-01 0.0
1.254845e+00 -3.712996e-03 0.0
1.270157e+00 9.061495e-02 0.0
1.268775e+00 1.641043e-01 0.0
1.253768e+00 2.187119e-01 0.0
1.228155e+00 2.560510e-01 0.0
1.194854e+00 2.767385e-01 0.0
1.156404e+00 2.801884e-01 0.0
1.115864e+00 2.650686e-01 0.0
1.076409e+00 2.326678e-01 0.0
1.040906e+00 1.868192e-01 0.0
1.011729e+00 1.328361e-01 0.0
9.901819e-01 7.634732e-02 0.0
9.766819e-01 2.257149e-02 0.0
9.712360e-01 -2.436352e-02 0.0
9.731541e-01 -6.241625e-02 0.0
9.816103e-01 -9.183784e-02 0.0
9.954280e-01 -1.132178e-01 0.0
1.013198e+00 -1.269042e-01 0.0
1.033332e+00 -1.331765e-01 0.0
1.054165e+00 -1.325402e-01 0.0
1.074159e+00 -1.257642e-01 0.0
1.092003e+00 -1.137174e-01 0.0
1.106650e+00 -9.739282e-02 0.0
1.117297e+00 -7.784783e-02 0.0
1.123298e+00 -5.609031e-02 0.0
1.123958e+00 -3.280974e-02 0.0
1.118209e+00 -7.885362e-03 0.0
1.105597e+00 1.856728e-02 0.0
1.086762e+00 4.501806e-02 0.0
1.063358e+00 6.965885e-02 0.0
1.038353e+00 8.975443e-02 0.0
1.015937e+00 1.016336e-01 0.0
1.000464e+00 1.017725e-01 0.0
9.935775e-01 8.996332e-02 0.0
9.943571e-01 6.917064e-02 0.0
1.000620e+00 4.358950e-02 0.0
1.009937e+00 1.764388e-02 0.0
1.020352e+00 -4.985017e-03 0.0
1.031068e+00 -2.258169e-02 0.0
1.041825e+00 -3.476841e-02 0.0
1.052490e+00 -4.186493e-02 0.0
1.062890e+00 -4.465553e-02 0.0
1.072777e+00 -4.417945e-02 0.0
1.081855e+00 -4.140141e-02 0.0
1.089876e+00 -3.715859e-02 0.0
1.096684e+00 -3.215452e-02 0.0
1.102222e+00 -2.694598e-02 0.0
1.106512e+00 -2.193198e-02 0.0
1.109623e+00 -1.734988e-02 0.0
1.111637e+00 -1.328468e-02 0.0
1.112635e+00 -9.692683e-03 0.0
1.112705e+00 -6.449638e-03 0.0
1.111912e+00 -3.338029e-03 0.0
1.110798e+00 5.630337e-04 0.0
0.000000e+00 1.262210e-03 0.0
1.000000e+00 -9.728074e-02 0.0
1.009766e+00 -9.661065e-02 0.0
1.022027e+00 -1.110189e-01 0.0
1.040064e+00 -1.420107e-01 0.0
1.069766e+00 -1.940249e-01 0.0
1.121582e+00 -2.741719e-01 0.0
1.210208e+00 -3.771330e-01 0.0
1.385338e+00 -5.836771e-01 0.0
1.437112e+00 -3.784287e-01 0.0
1.442410e+00 -2.419111e-01 0.0
1.438276e+00 -1.739174e-01 0.0
1.433267e+00 -1.375250e-01 0.0
1.430187e+00 -1.178396e-01 0.0
1.431697e+00 -1.077926e-01 0.0
1.440366e+00 -1.008651e-01 0.0
1.456471e+00 -8.898986e-02 0.0
1.477106e+00 -6.619258e-02 0.0
1.496213e+00 -3.164305e-02 0.0
1.506225e+00 8.681360e-03 0.0
1.508545e+00 4.244071e-02 0.0
1.505051e+00 6.933767e-02 0.0
1.497635e+00 9.036607e-02 0.0
1.487169e+00 1.083418e-01 0.0
1.473791e+00 1.257160e-01 0.0
1.457020e+00 1.443954e-01 0.0
1.436059e+00 1.652824e-01 0.0
1.410088e+00 1.882684e-01 0.0
1.378529e+00 2.124020e-01 0.0
1.341260e+00 2.362151e-01 0.0
1.298728e+00 2.580405e-01 0.0
1.251933e+00 2.761512e-01 0.0
1.202186e+00 2.885376e-01 0.0
1.150749e+00 2.918908e-01 0.0
1.099053e+00 2.805642e-01 0.0
1.047768e+00 2.509856e-01 0.0
9.941610e-01 2.074880e-01 0.0
9.333656e-01 1.586682e-01 0.0
8.710247e-01 9.795222e-02 0.0
8.287964e-01 6.045730e-03 0.0
8.193981e-01 -1.106052e-01 0.0
8.322862e-01 -2.246198e-01 0.0
8.552796e-01 -3.194846e-01 0.0
8.841817e-01 -3.838372e-01 0.0
9.208015e-01 -4.031204e-01 0.0
9.648861e-01 -3.677413e-01 0.0
1.013554e+00 -2.827076e-01 0.0
1.060950e+00 -1.658339e-01 0.0
1.099265e+00 -4.206302e-02 0.0
1.123785e+00 6.605865e-02 0.0
1.135107e+00 1.527466e-01 0.0
1.134896e+00 2.188872e-01 0.0
1.125235e+00 2.656767e-01 0.0
1.108385e+00 2.935535e-01 0.0
1.086415e+00 3.021220e-01 0.0
1.061171e+00 2.902772e-01 0.0
1.034830e+00 2.589734e-01 0.0
1.009549e+00 2.120650e-01 0.0
9.871155e-01 1.552339e-01 0.0
9.687199e-01 9.470736e-02 0.0
9.552877e-01 3.596812e-02 0.0
9.478689e-01 -1.698033e-02 0.0
9.470450e-01 -6.162793e-02 0.0
9.524957e-01 -9.732414e-02 0.0
9.631612e-01 -1.239189e-01 0.0
9.775467e-01 -1.413253e-01 0.0
9.939738e-01 -1.496392e-01 0.0
1.010738e+00 -1.493397e-01 0.0
1.026259e+00 -1.413212e-01 0.0
1.039239e+00 -1.267334e-01 0.0
1.048679e+00 -1.068683e-01 0.0
1.053794e+00 -8.299838e-02 0.0
1.053843e+00 -5.617416e-02 0.0
1.047864e+00 -2.686676e-02 0.0
1.034905e+00 5.038238e-03 0.0
1.015879e+00 3.755768e-02 0.0
9.926772e-01 6.818416e-02 0.0
9.684275e-01 9.387296e-02 0.0
9.473060e-01 1.108403e-01 0.0
9.334406e-01 1.154634e-01 0.0
9.283740e-01 1.068035e-01 0.0
9.305908e-01 8.771095e-02 0.0
9.375545e-01 6.217139e-02 0.0
9.467033e-01 3.440513e-02 0.0
9.562467e-01 8.064833e-03 0.0
9.656142e-01 -1.438810e-02 0.0
9.750446e-01 -3.204763e-02 0.0
9.848182e-01 -4.457764e-02 0.0
9.950007e-01 -5.208301e-02 0.0
1.005390e+00 -5.508027e-02 0.0
1.015572e+00 -5.439685e-02 0.0
1.025086e+00 -5.095101e-02 0.0
1.033536e+00 -4.564477e-02 0.0
1.040642e+00 -3.929581e-02 0.0
1.046239e+00 -3.257840e-02 0.0
1.050255e+00 -2.598421e-02 0.0
1.052678e+00 -1.980816e-02 0.0
1.053524e+00 -1.416621e-02 0.0
1.052846e+00 -9.050201e-03 0.0
1.050807e+00 -4.445892e-03 0.0
1.047764e+00 -3.311554e-04 0.0
1.045748e+00 2.544060e-03 0.0
0.000000e+00 3.487920e-03 0.0
1.000000e+00 -9.924553e-02 0.0
1.001745e+00 -9.849215e-02 0.0
1.004598e+00 -1.139069e-01 0.0
1.010491e+00 -1.479393e-01 0.0
1.024516e+00 -2.080859e-01 0.0
1.058558e+00 -3.082496e-01 0.0
1.139627e+00 -4.582376e-01 0.0
1.344761e+00 -7.888459e-01 0.0
1.316304e+00 -3.500075e-01 0.0
1.252991e+00 -1.786336e-01 0.0
1.202695e+00 -1.236571e-01 0.0
1.161403e+00 -9.626818e-02 0.0
1.125205e+00 -8.167758e-02 0.0
1.095255e+00 -7.787764e-02 0.0
1.078553e+00 -8.419910e-02 0.0
1.081110e+00 -9.158236e-02 0.0
1.102780e+00 -8.789788e-02 0.0
1.138230e+00 -6.712838e-02 0.0
1.177466e+00 -3.059054e-02 0.0
1.206243e+00 1.362842e-02 0.0
1.225968e+00 4.957703e-02 0.0
1.240845e+00 7.545366e-02 0.0
1.252242e+00 9.690875e-02 0.0
1.260545e+00 1.173775e-01 0.0
1.264988e+00 1.399170e-01 0.0
1.264324e+00 1.659106e-01 0.0
1.257233e+00 1.953238e-01 0.0
1.242719e+00 2.268805e-01 0.0
1.220382e+00 2.585165e-01 0.0
1.190575e+00 2.878125e-01 0.0
1.154494e+00 3.121968e-01 0.0
1.114098e+00 3.288977e-01 0.0
1.070455e+00 3.354987e-01 0.0
1.018675e+00 3.323083e-01 0.0
9.460162e-01 3.236088e-01 0.0
8.490044e-01 3.044642e-01 0.0
7.587433e-01 2.488938e-01 0.0
7.182354e-01 1.384245e-01 0.0
7.291336e-01 -4.888028e-03 0.0
7.602656e-01 -1.417727e-01 0.0
7.903411e-01 -2.547309e-01 0.0
8.135387e-01 -3.427177e-01 0.0
8.323812e-01 -4.027153e-01 0.0
8.524064e-01 -4.231812e-01 0.0
8.773282e-01 -3.926987e-01 0.0
9.080070e-01 -3.134220e-01 0.0
9.423898e-01 -2.002522e-01 0.0
9.753399e-01 -7.504864e-02 0.0
1.000570e+00 4.079287e-02 0.0
1.016499e+00 1.367819e-01 0.0
1.023476e+00 2.118750e-01 0.0
1.022715e+00 2.664019e-01 0.0
1.015855e+00 3.003782e-01 0.0
1.004577e+00 3.133638e-01 0.0
9.900562e-01 3.047628e-01 0.0
9.735288e-01 2.754652e-01 0.0
9.562700e-01 2.292883e-01 0.0
9.395473e-01 1.719209e-01 0.0
9.247823e-01 1.094368e-01 0.0
9.136654e-01 4.704947e-02 0.0
9.079395e-01 -1.129006e-02 0.0
9.086541e-01 -6.237806e-02 0.0
9.153632e-01 -1.040688e-01 0.0
9.266259e-01 -1.352172e-01 0.0
9.406540e-01 -1.553890e-01 0.0
9.556603e-01 -1.646810e-01 0.0
9.699758e-01 -1.636909e-01 0.0
9.820939e-01 -1.534749e-01 0.0
9.908111e-01 -1.354861e-01 0.0
9.952073e-01 -1.113001e-01 0.0
9.945143e-01 -8.234098e-02 0.0
9.879196e-01 -4.961500e-02 0.0
9.745156e-01 -1.349836e-02 0.0
9.550736e-01 2.444464e-02 0.0
9.318914e-01 6.070433e-02 0.0
9.081641e-01 9.187586e-02 0.0
8.878601e-01 1.141414e-01 0.0
8.746450e-01 1.240198e-01 0.0
8.699939e-01 1.200789e-01 0.0
8.720813e-01 1.046806e-01 0.0
8.782523e-01 8.150435e-02 0.0
8.860075e-01 5.438063e-02 0.0
8.937447e-01 2.663230e-02 0.0
9.010736e-01 7.003756e-04 0.0
9.086290e-01 -2.197911e-02 0.0
9.170907e-01 -4.054490e-02 0.0
9.267491e-01 -5.427160e-02 0.0
9.374695e-01 -6.283909e-02 0.0
9.487798e-01 -6.642615e-02 0.0
9.600101e-01 -6.566269e-02 0.0
9.704862e-01 -6.146274e-02 0.0
9.796416e-01 -5.483577e-02 0.0
9.870549e-01 -4.674461e-02 0.0
9.924420e-01 -3.800114e-02 0.0
9.956288e-01 -2.920662e-02 0.0
9.965259e-01 -2.074084e-02 0.0
9.951352e-01 -1.281107e-02 0.0
9.916180e-01 -5.568572e-03 0.0
9.865307e-01 6.058120e-04 0.0
9.810167e-01 5.147191e-03 0.0
9.782279e-01 5.297293e-03 0.0
0.000000e+00 6.425350e-03 0.0
1.000000e+00 -9.248231e-02 0.0
9.930438e-01 -9.167214e-02 0.0
9.848933e-01 -1.057920e-01 0.0
9.744072e-01 -1.374888e-01 0.0
9.618228e-01 -1.955371e-01 0.0
9.517866e-01 -2.982489e-01 0.0
9.700217e-01 -4.765082e-01 0.0
1.117742e+00 -9.366018e-01 0.0
9.480075e-01 -1.802078e-01 0.0
7.874766e-01 -1.803762e-02 0.0
6.971738e-01 -3.338976e-02 0.0
6.296199e-01 -2.874984e-02 0.0
5.641663e-01 -1.625957e-02 0.0
4.992122e-01 -1.295907e-02 0.0
4.549249e-01 -3.994738e-02 0.0
4.518359e-01 -8.852885e-02 0.0
4.856038e-01 -1.217014e-01 0.0
5.425068e-01 -1.240669e-01 0.0
6.141662e-01 -1.022855e-01 0.0
6.914899e-01 -6.373083e-02 0.0
7.602437e-01 -1.921229e-02 0.0
8.155628e-01 2.009897e-02 0.0
8.632382e-01 4.919785e-02 0.0
9.065149e-01 7.406522e-02 0.0
9.442473e-01 1.021490e-01 0.0
9.745640e-01 1.355583e-01 0.0
9.953855e-01 1.744669e-01 0.0
1.005079e+00 2.171513e-01 0.0
1.002621e+00 2.609394e-01 0.0
9.873945e-01 3.030031e-01 0.0
9.586970e-01 3.408588e-01 0.0
9.146966e-01 3.728625e-01 0.0
8.509414e-01 3.992183e-01 0.0
7.612887e-01 4.219255e-01 0.0
6.567286e-01 4.281332e-01 0.0
5.821985e-01 3.789588e-01 0.0
5.724138e-01 2.586428e-01 0.0
6.171806e-01 9.362221e-02 0.0
6.800021e-01 -6.774509e-02 0.0
7.351479e-01 -1.969540e-01 0.0
7.739211e-01 -2.935397e-01 0.0
7.957390e-01 -3.645712e-01 0.0
8.061255e-01 -4.131373e-01 0.0
8.135047e-01 -4.305960e-01 0.0
8.239323e-01 -4.031619e-01 0.0
8.397615e-01 -3.292867e-01 0.0
8.608604e-01 -2.213866e-01 0.0
8.843948e-01 -9.861865e-02 0.0
9.051711e-01 1.998104e-02 0.0
9.201729e-01 1.217445e-01 0.0
9.287755e-01 2.032368e-01 0.0
9.314924e-01 2.636493e-01 0.0
9.294194e-01 3.024157e-01 0.0
9.237710e-01 3.189766e-01 0.0
9.152402e-01 3.132581e-01 0.0
9.042957e-01 2.863741e-01 0.0
8.916567e-01 2.418917e-01 0.0
8.787225e-01 1.848196e-01 0.0
8.677238e-01 1.203999e-01 0.0
8.611643e-01 5.357347e-02 0.0
8.608435e-01 -1.100483e-02 0.0
8.670556e-01 -6.862582e-02 0.0
8.783922e-01 -1.154409e-01 0.0
8.927546e-01 -1.496152e-01 0.0
9.081419e-01 -1.708119e-01 0.0
9.228602e-01 -1.794349e-01 0.0
9.354378e-01 -1.763041e-01 0.0
9.445887e-01 -1.626613e-01 0.0
9.492731e-01 -1.402061e-01 0.0
9.486620e-01 -1.107246e-01 0.0
9.420433e-01 -7.575785e-02 0.0
9.288212e-01 -3.642853e-02 0.0
9.093758e-01 5.911475e-03 0.0
8.864801e-01 4.730482e-02 0.0
8.633242e-01 8.382462e-02 0.0
8.435313e-01 1.116331e-01 0.0
8.302458e-01 1.273913e-01 0.0
8.247145e-01 1.295155e-01 0.0
8.252688e-01 1.194890e-01 0.0
8.293091e-01 1.006047e-01 0.0
8.345507e-01 7.622707e-02 0.0
8.396249e-01 4.927087e-02 0.0
8.443237e-01 2.189794e-02 0.0
8.494071e-01 -4.418639e-03 0.0
8.559460e-01 -2.855360e-02 0.0
8.644798e-01 -4.911430e-02 0.0
8.749608e-01 -6.478822e-02 0.0
8.868857e-01 -7.479951e-02 0.0
8.994737e-01 -7.904974e-02 0.0
9.118280e-01 -7.805258e-02 0.0
9.230959e-01 -7.276631e-02 0.0
9.325696e-01 -6.434505e-02 0.0
9.397049e-01 -5.391542e-02 0.0
9.441109e-01 -4.244282e-02 0.0
9.455450e-01 -3.067632e-02 0.0
9.439423e-01 -1.917366e-02 0.0
9.395087e-01 -8.413104e-03 0.0
9.329295e-01 9.750143e-04 0.0
9.255590e-01 7.940789e-03 0.0
9.190733e-01 1.159725e-02 0.0
9.161308e-01 8.204195e-03 0.0
0.000000e+00 9.423987e-03 0.0
1.000000e+00 -7.766716e-02 0.0
9.850189e-01 -7.682732e-02 0.0
9.662321e-01 -8.704071e-02 0.0
9.383441e-01 -1.096363e-01 0.0
8.926356e-01 -1.498641e-01 0.0
8.117291e-01 -2.173780e-01 0.0
6.692596e-01 -3.340742e-01 0.0
1.804092e-01 -4.476862e-01 0.0
-9.471047e-01 4.495278e-01 0.0
0.000000e+00 -1.156636e-02 0.0
-6.237964e-02 1.081602e-02 0.0
-8.625743e-02 -4.907588e-03 0.0
-6.107671e-02 -4.147584e-02 0.0
-1.092021e-02 -6.315111e-02 0.0
1.112935e-02 -6.203249e-02 0.0
1.301760e-02 -9.045265e-02 0.0
2.425077e-02 -1.329701e-01 0.0
6.168565e-02 -1.615373e-01 0.0
1.234911e-01 -1.641265e-01 0.0
2.046001e-01 -1.448754e-01 0.0
2.960575e-01 -1.107052e-01 0.0
3.885459e-01 -7.242496e-02 0.0
4.728942e-01 -3.518599e-02 0.0
5.440205e-01 2.903385e-03 0.0
6.050740e-01 4.105994e-02 0.0
6.563555e-01 8.424128e-02 0.0
6.949570e-01 1.358298e-01 0.0
7.184061e-01 1.936667e-01 0.0
7.246743e-01 2.546357e-01 0.0
7.116681e-01 3.159737e-01 0.0
6.769005e-01 3.755908e-01 0.0
6.178735e-01 4.318539e-01 0.0
5.356514e-01 4.814049e-01 0.0
4.496712e-01 5.078702e-01 0.0
4.059321e-01 4.718367e-01 0.0
4.246993e-01 3.601560e-01 0.0
4.947702e-01 1.885364e-01 0.0
5.858259e-01 2.530990e-03 0.0
6.690437e-01 -1.509984e-01 0.0
7.354567e-01 -2.634027e-01 0.0
7.804498e-01 -3.385683e-01 0.0
8.026469e-01 -3.868039e-01 0.0
8.062420e-01 -4.167679e-01 0.0
8.016794e-01 -4.260690e-01 0.0
7.990595e-01 -4.005776e-01 0.0
8.020915e-01 -3.323543e-01 0.0
8.109420e-01 -2.302727e-01 0.0
8.239178e-01 -1.116300e-01 0.0
8.373577e-01 6.505553e-03 0.0
8.479907e-01 1.110760e-01 0.0
8.545641e-01 1.966279e-01 0.0
8.570101e-01 2.611677e-01 0.0
8.558752e-01 3.035150e-01 0.0
8.517916e-01 3.230246e-01 0.0
8.449844e-01 3.200297e-01 0.0
8.356578e-01 2.956652e-01 0.0
8.249018e-01 2.526121e-01 0.0
8.150854e-01 1.946004e-01 0.0
8.092524e-01 1.261973e-01 0.0
8.098445e-01 5.294585e-02 0.0
8.176774e-01 -1.887330e-02 0.0
8.315294e-01 -8.251338e-02 0.0
8.488977e-01 -1.328448e-01 0.0
8.671906e-01 -1.679437e-01 0.0
8.843709e-01 -1.880277e-01 0.0
8.989838e-01 -1.940835e-01 0.0
9.098824e-01 -1.872382e-01 0.0
9.161356e-01 -1.689500e-01 0.0
9.169423e-01 -1.410484e-01 0.0
9.116362e-01 -1.054541e-01 0.0
8.997868e-01 -6.394404e-02 0.0
8.816954e-01 -1.837265e-02 0.0
8.599040e-01 2.766720e-02 0.0
8.377112e-01 6.946205e-02 0.0
8.183613e-01 1.031389e-01 0.0
8.044991e-01 1.254597e-01 0.0
7.971565e-01 1.346983e-01 0.0
7.951258e-01 1.315107e-01 0.0
7.960465e-01 1.185326e-01 0.0
7.979654e-01 9.865023e-02 0.0
7.997718e-01 7.438513e-02 0.0
8.013928e-01 4.761429e-02 0.0
8.035818e-01 1.967336e-02 0.0
8.074868e-01 -8.359265e-03 0.0
8.139751e-01 -3.507744e-02 0.0
8.231952e-01 -5.837002e-02 0.0
8.347151e-01 -7.634372e-02 0.0
8.477235e-01 -8.784351e-02 0.0
8.612166e-01 -9.257838e-02 0.0
8.741393e-01 -9.101087e-02 0.0
8.855286e-01 -8.419128e-02 0.0
8.945918e-01 -7.344383e-02 0.0
9.007158e-01 -6.007498e-02 0.0
9.034789e-01 -4.524151e-02 0.0
9.027048e-01 -2.993778e-02 0.0
8.985904e-01 -1.509493e-02 0.0
8.918866e-01 -1.744891e-03 0.0
8.840143e-01 8.811769e-03 0.0
8.765718e-01 1.534764e-02 0.0
8.711885e-01 1.694497e-02 0.0
8.686821e-01 1.067506e-02 0.0
0.000000e+00 1.190606e-02 0.0
1.000000e+00 -5.706138e-02 0.0
9.792535e-01 -5.621706e-02 0.0
9.530465e-01 -6.086919e-02 0.0
9.135733e-01 -7.019867e-02 0.0
8.470342e-01 -8.336049e-02 0.0
7.242358e-01 -9.461521e-02 0.0
4.727707e-01 -8.264468e-02 0.0
-4.462867e-03 2.961257e-02 0.0
-9.476684e-05 0.000000e+00 0.0
0.000000e+00 -0.000000e+00 0.0
0.000000e+00 -2.563311e-02 0.0
-2.518570e-02 2.024257e-02 0.0
-6.338886e-02 -3.308226e-03 0.0
-1.045200e-01 -2.205553e-02 0.0
-1.406575e-01 -2.593054e-02 0.0
-1.756068e-01 -5.553889e-02 0.0
-2.040441e-01 -1.045682e-01 0.0
-2.104933e-01 -1.551237e-01 0.0