# vtk DataFile Version 3.0
Vector Field
ASCII
DATASET RECTILINEAR_GRID
DIMENSIONS 102 22 1
X_COORDINATES 102 double
0.000000 0.100000 0.200000 0.300000 0.400000 0.500000 0.600000 0.700000 0.800000 0.900000 1.000000 1.100000 1.200000 1.300000 1.400000 1.500000 1.600000 1.700000 1.800000 1.900000 2.000000 2.100000 2.200000 2.300000 2.400000 2.500000 2.600000 2.700000 2.800000 2.900000 3.000000 3.100000 3.200000 3.300000 3.400000 3.500000 3.600000 3.700000 3.800000 3.900000 4.000000 4.100000 4.200000 4.300000 4.400000 4.500000 4.600000 4.700000 4.800000 4.900000 5.000000 5.100000 5.200000 5.300000 5.400000 5.500000 5.600000 5.700000 5.800000 5.900000 6.000000 6.100000 6.200000 6.300000 6.400000 6.500000 6.600000 6.700000 6.800000 6.900000 7.000000 7.100000 7.200000 7.300000 7.400000 7.500000 7.600000 7.700000 7.800000 7.900000 8.000000 8.100000 8.200000 8.300000 8.400000 8.500000 8.600000 8.700000 8.800000 8.900000 9.000000 9.100000 9.200000 9.300000 9.400000 9.500000 9.600000 9.700000 9.800000 9.900000 10.000000 10.100000 
Y_COORDINATES 22 double
0.000000 0.100000 0.200000 0.300000 0.400000 0.500000 0.600000 0.700000 0.800000 0.900000 1.000000 1.100000 1.200000 1.300000 1.400000 1.500000 1.600000 1.700000 1.800000 1.900000 2.000000 2.100000 
Z_COORDINATES 1 double
0.0
POINT_DATA 2244
VECTORS Velocity double
0.000000e+00 0.000000e+00 0.0
-1.029211e+00 0.000000e+00 0.0
-1.061507e+00 0.000000e+00 0.0
-1.100164e+00 0.000000e+00 0.0
-1.148188e+00 0.000000e+00 0.0
-1.208074e+00 0.000000e+00 0.0
-1.279719e+00 0.000000e+00 0.0
-1.363772e+00 0.000000e+00 0.0
-1.443432e+00 0.000000e+00 0.0
-1.507580e+00 0.000000e+00 0.0
-1.553847e+00 0.000000e+00 0.0
-1.583901e+00 0.000000e+00 0.0
-1.600345e+00 0.000000e+00 0.0
-1.605760e+00 0.000000e+00 0.0
-1.602521e+00 0.000000e+00 0.0
-1.592409e+00 0.000000e+00 0.0
-1.576693e+00 0.000000e+00 0.0
-1.556259e+00 0.000000e+00 0.0
-1.531717e+00 0.000000e+00 0.0
-1.503489e+00 0.000000e+00 0.0
-1.471880e+00 0.000000e+00 0.0
-1.437097e+00 0.000000e+00 0.0
-1.399250e+00 0.000000e+00 0.0
-1.358350e+00 0.000000e+00 0.0
-1.314479e+00 0.000000e+00 0.0
-1.268311e+00 0.000000e+00 0.0
-1.221874e+00 0.000000e+00 0.0
-1.179272e+00 0.000000e+00 0.0
-1.147174e+00 0.000000e+00 0.0
-1.134288e+00 0.000000e+00 0.0
-1.149013e+00 0.000000e+00 0.0
-1.196220e+00 0.000000e+00 0.0
-1.273633e+00 0.000000e+00 0.0
-1.369681e+00 0.000000e+00 0.0
-1.467184e+00 0.000000e+00 0.0
-1.548955e+00 0.000000e+00 0.0
-1.602097e+00 0.000000e+00 0.0
-1.622286e+00 0.000000e+00 0.0
-1.614656e+00 0.000000e+00 0.0
-1.586475e+00 0.000000e+00 0.0
-1.543197e+00 0.000000e+00 0.0
-1.488453e+00 0.000000e+00 0.0
-1.424412e+00 0.000000e+00 0.0
-1.352447e+00 0.000000e+00 0.0
-1.273778e+00 0.000000e+00 0.0
-1.190085e+00 0.000000e+00 0.0
-1.104205e+00 0.000000e+00 0.0
-1.020181e+00 0.000000e+00 0.0
-9.429355e-01 0.000000e+00 0.0
-8.776535e-01 0.000000e+00 0.0
-8.288077e-01 0.000000e+00 0.0
-7.992121e-01 0.000000e+00 0.0
-7.894699e-01 0.000000e+00 0.0
-7.979740e-01 0.000000e+00 0.0
-8.224042e-01 0.000000e+00 0.0
-8.603362e-01 0.000000e+00 0.0
-9.092046e-01 0.000000e+00 0.0
-9.662555e-01 0.000000e+00 0.0
-1.028502e+00 0.000000e+00 0.0
-1.092835e+00 0.000000e+00 0.0
-1.156202e+00 0.000000e+00 0.0
-1.215820e+00 0.000000e+00 0.0
-1.269215e+00 0.000000e+00 0.0
-1.314297e+00 0.000000e+00 0.0
-1.349496e+00 0.000000e+00 0.0
-1.373900e+00 0.000000e+00 0.0
-1.387317e+00 0.000000e+00 0.0
-1.389900e+00 0.000000e+00 0.0
-1.381178e+00 0.000000e+00 0.0
-1.360323e+00 0.000000e+00 0.0
-1.326487e+00 0.000000e+00 0.0
-1.279519e+00 0.000000e+00 0.0
-1.221455e+00 0.000000e+00 0.0
-1.158011e+00 0.000000e+00 0.0
-1.097872e+00 0.000000e+00 0.0
-1.048933e+00 0.000000e+00 0.0
-1.015523e+00 0.000000e+00 0.0
-9.985742e-01 0.000000e+00 0.0
-9.962327e-01 0.000000e+00 0.0
-1.004824e+00 0.000000e+00 0.0
-1.020366e+00 0.000000e+00 0.0
-1.039543e+00 0.000000e+00 0.0
-1.059926e+00 0.000000e+00 0.0
-1.079820e+00 0.000000e+00 0.0
-1.098113e+00 0.000000e+00 0.0
-1.114128e+00 0.000000e+00 0.0
-1.127495e+00 0.000000e+00 0.0
-1.138060e+00 0.000000e+00 0.0
-1.145836e+00 0.000000e+00 0.0
-1.150961e+00 0.000000e+00 0.0
-1.153666e+00 0.000000e+00 0.0
-1.154182e+00 0.000000e+00 0.0
-1.152626e+00 0.000000e+00 0.0
-1.149090e+00 0.000000e+00 0.0
-1.143700e+00 0.000000e+00 0.0
-1.136639e+00 0.000000e+00 0.0
-1.128180e+00 0.000000e+00 0.0
-1.118766e+00 0.000000e+00 0.0
-1.109166e+00 0.000000e+00 0.0
-1.100520e+00 0.000000e+00 0.0
-1.100520e+00 0.000000e+00 0.0
0.000000e+00 0.000000e+00 0.0
1.000000e+00 -2.899862e-02 0.0
1.029089e+00 -2.889184e-02 0.0
1.061269e+00 -3.206641e-02 0.0
1.099810e+00 -3.842716e-02 0.0
1.147726e+00 -4.780224e-02 0.0
1.207528e+00 -5.968818e-02 0.0
1.279138e+00 -7.149635e-02 0.0
1.363259e+00 -8.400715e-02 0.0
1.443167e+00 -7.979425e-02 0.0
1.507777e+00 -6.449638e-02 0.0
1.554701e+00 -4.681055e-02 0.0
1.585547e+00 -3.073296e-02 0.0
1.602820e+00 -1.715871e-02 0.0
1.608988e+00 -6.054620e-03 0.0
1.606375e+00 2.726645e-03 0.0
1.596770e+00 9.718662e-03 0.0
1.581463e+00 1.542073e-02 0.0
1.561359e+00 2.021725e-02 0.0
1.537079e+00 2.439422e-02 0.0
1.509043e+00 2.814972e-02 0.0
1.477546e+00 3.161066e-02 0.0
1.442794e+00 3.486492e-02 0.0
1.404906e+00 3.800211e-02 0.0
1.363900e+00 4.112005e-02 0.0
1.319809e+00 4.420405e-02 0.0
1.273112e+00 4.681081e-02 0.0
1.225480e+00 4.774597e-02 0.0
1.180502e+00 4.509137e-02 0.0
1.144299e+00 3.631678e-02 0.0
1.125322e+00 1.909084e-02 0.0
1.132493e+00 -7.057393e-03 0.0
1.171968e+00 -3.936104e-02 0.0
1.243733e+00 -7.165122e-02 0.0
1.338514e+00 -9.466805e-02 0.0
1.439929e+00 -1.013006e-01 0.0
1.530002e+00 -8.995922e-02 0.0
1.593752e+00 -6.363621e-02 0.0
1.623726e+00 -2.986076e-02 0.0
1.622842e+00 9.982698e-04 0.0
1.598960e+00 2.399522e-02 0.0
1.558324e+00 4.075033e-02 0.0
1.505249e+00 5.318817e-02 0.0
1.442393e+00 6.296941e-02 0.0
1.371370e+00 7.113756e-02 0.0
1.293426e+00 7.805755e-02 0.0
1.210097e+00 8.344263e-02 0.0
1.123939e+00 8.627177e-02 0.0
1.038775e+00 8.527831e-02 0.0
9.593882e-01 7.950009e-02 0.0
8.909868e-01 6.851521e-02 0.0
8.382645e-01 5.283615e-02 0.0
8.044171e-01 3.396124e-02 0.0
7.904945e-01 1.403634e-02 0.0
7.952772e-01 -4.668829e-03 0.0
8.164071e-01 -2.101609e-02 0.0
8.514629e-01 -3.494201e-02 0.0
8.978911e-01 -4.631436e-02 0.0
9.529829e-01 -5.497787e-02 0.0
1.013812e+00 -6.071495e-02 0.0
1.077323e+00 -6.339736e-02 0.0
1.140479e+00 -6.304244e-02 0.0
1.200487e+00 -5.989388e-02 0.0
1.254859e+00 -5.425821e-02 0.0
1.301462e+00 -4.648938e-02 0.0
1.338642e+00 -3.706630e-02 0.0
1.365357e+00 -2.660058e-02 0.0
1.381269e+00 -1.579779e-02 0.0
1.386544e+00 -5.161305e-03 0.0
1.380908e+00 5.749679e-03 0.0
1.363614e+00 1.740762e-02 0.0
1.333803e+00 2.992502e-02 0.0
1.291038e+00 4.287922e-02 0.0
1.236564e+00 5.458753e-02 0.0
1.174922e+00 6.175584e-02 0.0
1.114093e+00 6.094348e-02 0.0
1.062412e+00 5.179458e-02 0.0
1.025166e+00 3.736020e-02 0.0
1.004137e+00 2.114287e-02 0.0
9.981840e-01 6.066763e-03 0.0
1.004072e+00 -5.774498e-03 0.0
1.017827e+00 -1.364099e-02 0.0
1.035964e+00 -1.802247e-02 0.0
1.055852e+00 -1.977465e-02 0.0
1.075643e+00 -1.967698e-02 0.0
1.094097e+00 -1.833932e-02 0.0
1.110445e+00 -1.623460e-02 0.0
1.124257e+00 -1.369792e-02 0.0
1.135337e+00 -1.096601e-02 0.0
1.143663e+00 -8.212203e-03 0.0
1.149349e+00 -5.571819e-03 0.0
1.152609e+00 -3.146260e-03 0.0
1.153688e+00 -9.650707e-04 0.0
1.152734e+00 1.068052e-03 0.0
1.149841e+00 3.007207e-03 0.0
1.145130e+00 4.824672e-03 0.0
1.138776e+00 6.468304e-03 0.0
1.131036e+00 7.853793e-03 0.0
1.122321e+00 8.828731e-03 0.0
1.113344e+00 9.090882e-03 0.0
1.105189e+00 8.268878e-03 0.0
1.100520e+00 4.783380e-03 0.0
0.000000e+00 4.952329e-03 0.0
1.000000e+00 -5.850759e-02 0.0
1.029506e+00 -5.828428e-02 0.0
1.062132e+00 -6.466272e-02 0.0
1.101272e+00 -7.753797e-02 0.0
1.150257e+00 -9.675691e-02 0.0
1.212285e+00 -1.216868e-01 0.0
1.287427e+00 -1.466090e-01 0.0
1.381587e+00 -1.781367e-01 0.0
1.467019e+00 -1.651971e-01 0.0
1.532611e+00 -1.300583e-01 0.0
1.579033e+00 -9.320324e-02 0.0
1.609620e+00 -6.129022e-02 0.0
1.627280e+00 -3.478961e-02 0.0
1.634361e+00 -1.310568e-02 0.0
1.633077e+00 4.040399e-03 0.0
1.625118e+00 1.770739e-02 0.0
1.611704e+00 2.886468e-02 0.0
1.593700e+00 3.825106e-02 0.0
1.571697e+00 4.642676e-02 0.0
1.546087e+00 5.378907e-02 0.0
1.517133e+00 6.059456e-02 0.0
1.485016e+00 6.701131e-02 0.0
1.449867e+00 7.318048e-02 0.0
1.411797e+00 7.922012e-02 0.0
1.370967e+00 8.506380e-02 0.0
1.327754e+00 9.005337e-02 0.0
1.283185e+00 9.234483e-02 0.0
1.239802e+00 8.850384e-02 0.0
1.202189e+00 7.395962e-02 0.0
1.177045e+00 4.426402e-02 0.0
1.171873e+00 -1.855146e-03 0.0
1.191545e+00 -5.900347e-02 0.0
1.237642e+00 -1.177192e-01 0.0
1.308008e+00 -1.650043e-01 0.0
1.394964e+00 -1.882266e-01 0.0
1.485429e+00 -1.803947e-01 0.0
1.564576e+00 -1.427537e-01 0.0
1.618323e+00 -8.357796e-02 0.0
1.638842e+00 -1.949131e-02 0.0
1.630902e+00 3.196478e-02 0.0
1.602697e+00 6.898554e-02 0.0
1.559914e+00 9.600025e-02 0.0
1.506224e+00 1.166896e-01 0.0
1.444027e+00 1.333642e-01 0.0
1.375265e+00 1.468490e-01 0.0
1.301941e+00 1.567960e-01 0.0
1.226111e+00 1.621317e-01 0.0
1.150474e+00 1.609448e-01 0.0
1.078582e+00 1.514220e-01 0.0
1.014259e+00 1.328675e-01 0.0
9.611331e-01 1.059922e-01 0.0
9.221786e-01 7.294540e-02 0.0
8.992877e-01 3.695694e-02 0.0
8.929091e-01 1.739504e-03 0.0
9.015696e-01 -2.964690e-02 0.0
9.229674e-01 -5.631020e-02 0.0
9.546799e-01 -7.799707e-02 0.0
9.943451e-01 -9.461339e-02 0.0
1.039507e+00 -1.058469e-01 0.0
1.087683e+00 -1.115435e-01 0.0
1.136443e+00 -1.117734e-01 0.0
1.183458e+00 -1.068792e-01 0.0
1.226509e+00 -9.727866e-02 0.0
1.263647e+00 -8.359800e-02 0.0
1.293331e+00 -6.672105e-02 0.0
1.314500e+00 -4.773928e-02 0.0
1.326448e+00 -2.771592e-02 0.0
1.328336e+00 -7.020080e-03 0.0
1.319136e+00 1.497987e-02 0.0
1.298419e+00 3.815437e-02 0.0
1.266587e+00 6.178657e-02 0.0
1.225618e+00 8.387790e-02 0.0
1.179768e+00 1.004666e-01 0.0
1.135304e+00 1.062497e-01 0.0
1.098317e+00 9.796084e-02 0.0
1.072419e+00 7.772173e-02 0.0
1.058826e+00 5.098354e-02 0.0
1.056460e+00 2.353804e-02 0.0
1.062646e+00 -8.905447e-05 0.0
1.074347e+00 -1.744570e-02 0.0
1.089199e+00 -2.846409e-02 0.0
1.105388e+00 -3.418145e-02 0.0
1.121560e+00 -3.591686e-02 0.0
1.136867e+00 -3.495421e-02 0.0
1.150794e+00 -3.223638e-02 0.0
1.162987e+00 -2.839810e-02 0.0
1.173228e+00 -2.390918e-02 0.0
1.181421e+00 -1.912884e-02 0.0
1.187570e+00 -1.433216e-02 0.0
1.191743e+00 -9.714832e-03 0.0
1.193995e+00 -5.368894e-03 0.0
1.194299e+00 -1.238643e-03 0.0
1.192613e+00 2.783864e-03 0.0
1.188982e+00 6.667801e-03 0.0
1.183501e+00 1.033507e-02 0.0
1.176344e+00 1.365555e-02 0.0
1.167808e+00 1.641877e-02 0.0
1.158362e+00 1.830442e-02 0.0
1.148684e+00 1.879879e-02 0.0
1.139649e+00 1.733367e-02 0.0
1.134294e+00 1.016795e-02 0.0
0.000000e+00 1.042927e-02 0.0
1.000000e+00 -8.460189e-02 0.0
1.026094e+00 -8.426422e-02 0.0
1.055400e+00 -9.393972e-02 0.0
1.091597e+00 -1.137055e-01 0.0
1.138782e+00 -1.439124e-01 0.0
1.201771e+00 -1.846458e-01 0.0
1.281887e+00 -2.266956e-01 0.0
1.396583e+00 -2.928031e-01 0.0
1.488069e+00 -2.566535e-01 0.0
1.549891e+00 -1.918505e-01 0.0
1.590705e+00 -1.339870e-01 0.0
1.617043e+00 -8.759851e-02 0.0
1.632124e+00 -4.984132e-02 0.0
1.637675e+00 -1.862695e-02 0.0
1.635590e+00 6.155246e-03 0.0
1.627348e+00 2.597847e-02 0.0
1.614042e+00 4.220077e-02 0.0
1.596477e+00 5.584518e-02 0.0
1.575206e+00 6.772783e-02 0.0
1.550568e+00 7.845650e-02 0.0
1.522767e+00 8.842563e-02 0.0
1.491937e+00 9.787044e-02 0.0
1.458207e+00 1.069408e-01 0.0
1.421741e+00 1.157153e-01 0.0
1.382785e+00 1.240492e-01 0.0
1.341727e+00 1.311415e-01 0.0
1.299318e+00 1.347830e-01 0.0
1.257156e+00 1.306953e-01 0.0
1.217808e+00 1.133381e-01 0.0
1.184036e+00 7.806501e-02 0.0
1.158582e+00 2.362871e-02 0.0
1.145300e+00 -4.569139e-02 0.0
1.147673e+00 -1.200622e-01 0.0
1.170591e+00 -1.878931e-01 0.0
1.221273e+00 -2.388785e-01 0.0
1.297944e+00 -2.570368e-01 0.0
1.388108e+00 -2.328881e-01 0.0
1.473269e+00 -1.687083e-01 0.0
1.533080e+00 -7.927326e-02 0.0
1.556401e+00 8.673799e-03 0.0
1.551691e+00 7.372543e-02 0.0
1.527077e+00 1.206433e-01 0.0
1.488125e+00 1.556714e-01 0.0
1.438723e+00 1.827964e-01 0.0
1.381757e+00 2.038447e-01 0.0
1.319504e+00 2.190783e-01 0.0
1.254061e+00 2.276042e-01 0.0
1.187811e+00 2.272246e-01 0.0
1.123814e+00 2.154486e-01 0.0
1.065236e+00 1.914752e-01 0.0
1.015013e+00 1.562453e-01 0.0
9.756111e-01 1.123767e-01 0.0
9.487621e-01 6.383572e-02 0.0
9.353250e-01 1.520623e-02 0.0
9.347574e-01 -2.904959e-02 0.0
9.451965e-01 -6.671961e-02 0.0
9.645977e-01 -9.736856e-02 0.0
9.911251e-01 -1.211111e-01 0.0
1.023116e+00 -1.378079e-01 0.0
1.058634e+00 -1.470317e-01 0.0
1.095460e+00 -1.485704e-01 0.0
1.131354e+00 -1.427437e-01 0.0
1.164225e+00 -1.301195e-01 0.0
1.192259e+00 -1.116028e-01 0.0
1.214000e+00 -8.843216e-02 0.0
1.228334e+00 -6.204356e-02 0.0
1.234270e+00 -3.362235e-02 0.0
1.230479e+00 -3.199217e-03 0.0
1.216293e+00 2.919624e-02 0.0
1.192286e+00 6.219019e-02 0.0
1.160495e+00 9.360755e-02 0.0
1.124924e+00 1.194784e-01 0.0
1.091343e+00 1.340781e-01 0.0
1.065424e+00 1.321976e-01 0.0
1.049255e+00 1.141599e-01 0.0
1.042172e+00 8.483467e-02 0.0
1.042275e+00 5.090999e-02 0.0
1.047353e+00 1.848969e-02 0.0
1.055434e+00 -8.140042e-03 0.0
1.065434e+00 -2.741574e-02 0.0
1.076699e+00 -3.969993e-02 0.0
1.088651e+00 -4.610343e-02 0.0
1.100717e+00 -4.795334e-02 0.0
1.112350e+00 -4.655718e-02 0.0
1.123045e+00 -4.290164e-02 0.0
1.132406e+00 -3.772944e-02 0.0
1.140163e+00 -3.163657e-02 0.0
1.146168e+00 -2.510378e-02 0.0
1.150366e+00 -1.850080e-02 0.0
1.152746e+00 -1.206492e-02 0.0
1.153257e+00 -5.850045e-03 0.0
1.151747e+00 3.007532e-04 0.0
1.148173e+00 6.387397e-03 0.0
1.142576e+00 1.229447e-02 0.0
1.135075e+00 1.786611e-02 0.0
1.125912e+00 2.284780e-02 0.0
1.115523e+00 2.683788e-02 0.0
1.104613e+00 2.924464e-02 0.0
1.094277e+00 2.916395e-02 0.0
1.085776e+00 2.586436e-02 0.0
1.080771e+00 1.520249e-02 0.0
0.000000e+00 1.541740e-02 0.0
1.000000e+00 -1.054686e-01 0.0
1.020870e+00 -1.050207e-01 0.0
1.044877e+00 -1.179168e-01 0.0
1.075940e+00 -1.447390e-01 0.0
1.119289e+00 -1.872316e-01 0.0
1.182411e+00 -2.477385e-01 0.0
1.270990e+00 -3.152447e-01 0.0
1.419285e+00 -4.410683e-01 0.0
1.507831e+00 -3.451698e-01 0.0
1.554211e+00 -2.382011e-01 0.0
1.582286e+00 -1.620326e-01 0.0
1.601018e+00 -1.063009e-01 0.0
1.612674e+00 -6.146751e-02 0.0
1.617194e+00 -2.311753e-02 0.0
1.615046e+00 8.333309e-03 0.0
1.607312e+00 3.374161e-02 0.0
1.594923e+00 5.462032e-02 0.0
1.578619e+00 7.217821e-02 0.0
1.558914e+00 8.746234e-02 0.0
1.536077e+00 1.013231e-01 0.0
1.510215e+00 1.143171e-01 0.0
1.481374e+00 1.267416e-01 0.0
1.449626e+00 1.387188e-01 0.0
1.415151e+00 1.502191e-01 0.0
1.378287e+00 1.609434e-01 0.0
1.339459e+00 1.699988e-01 0.0
1.298991e+00 1.752808e-01 0.0
1.257194e+00 1.725221e-01 0.0
1.214574e+00 1.559880e-01 0.0
1.170708e+00 1.219603e-01 0.0
1.122364e+00 7.200286e-02 0.0
1.067190e+00 9.512376e-03 0.0
1.010186e+00 -6.302924e-02 0.0
9.652383e-01 -1.429155e-01 0.0
9.553127e-01 -2.289232e-01 0.0
9.996576e-01 -3.013521e-01 0.0
1.086862e+00 -3.200630e-01 0.0
1.194669e+00 -2.764859e-01 0.0
1.297321e+00 -1.818949e-01 0.0
1.371124e+00 -6.509951e-02 0.0
1.406694e+00 3.818516e-02 0.0
1.414485e+00 1.128819e-01 0.0
1.401830e+00 1.683563e-01 0.0
1.373956e+00 2.106997e-01 0.0
1.334913e+00 2.429177e-01 0.0
1.287983e+00 2.660373e-01 0.0
1.235927e+00 2.796903e-01 0.0
1.181136e+00 2.820451e-01 0.0
1.126364e+00 2.702501e-01 0.0
1.074702e+00 2.431674e-01 0.0
1.029112e+00 2.018647e-01 0.0
9.919358e-01 1.495828e-01 0.0
9.646131e-01 9.118813e-02 0.0
9.476892e-01 3.215983e-02 0.0
9.410902e-01 -2.242094e-02 0.0
9.438053e-01 -6.940505e-02 0.0
9.547980e-01 -1.083315e-01 0.0
9.727906e-01 -1.390740e-01 0.0
9.961104e-01 -1.610980e-01 0.0
1.022787e+00 -1.736783e-01 0.0
1.050681e+00 -1.764353e-01 0.0
1.077649e+00 -1.696814e-01 0.0
1.101768e+00 -1.542090e-01 0.0
1.121424e+00 -1.312293e-01 0.0
1.135288e+00 -1.022664e-01 0.0
1.142185e+00 -6.891029e-02 0.0
1.140827e+00 -3.223441e-02 0.0
1.129892e+00 7.765407e-03 0.0
1.110041e+00 4.907664e-02 0.0
1.083346e+00 8.891499e-02 0.0
1.053604e+00 1.233790e-01 0.0
1.026162e+00 1.469501e-01 0.0
1.006438e+00 1.538319e-01 0.0
9.964890e-01 1.421764e-01 0.0
9.947446e-01 1.159341e-01 0.0
9.983343e-01 8.127469e-02 0.0
1.004610e+00 4.466403e-02 0.0
1.011892e+00 1.123741e-02 0.0
1.019635e+00 -1.585371e-02 0.0
1.028072e+00 -3.582241e-02 0.0
1.037396e+00 -4.899497e-02 0.0
1.047500e+00 -5.617673e-02 0.0
1.057981e+00 -5.840480e-02 0.0
1.068271e+00 -5.681781e-02 0.0
1.077803e+00 -5.240405e-02 0.0
1.086104e+00 -4.600028e-02 0.0
1.092829e+00 -3.833237e-02 0.0
1.097761e+00 -3.000551e-02 0.0
1.100760e+00 -2.147036e-02 0.0
1.101690e+00 -1.296506e-02 0.0
1.100317e+00 -4.446948e-03 0.0
1.096434e+00 4.213350e-03 0.0
1.090060e+00 1.279059e-02 0.0
1.081334e+00 2.105006e-02 0.0
1.070571e+00 2.865884e-02 0.0
1.058344e+00 3.510461e-02 0.0
1.045556e+00 3.965612e-02 0.0
1.033480e+00 4.135047e-02 0.0
1.023512e+00 3.916174e-02 0.0
1.016553e+00 3.285285e-02 0.0
1.012404e+00 1.938103e-02 0.0
0.000000e+00 1.942670e-02 0.0
1.000000e+00 -1.192516e-01 0.0
1.013794e+00 -1.187012e-01 0.0
1.030163e+00 -1.342559e-01 0.0
1.052824e+00 -1.673702e-01 0.0
1.087957e+00 -2.223357e-01 0.0
1.146362e+00 -3.061137e-01 0.0
1.243134e+00 -4.119868e-01 0.0
1.431208e+00 -6.291126e-01 0.0
1.488531e+00 -4.024632e-01 0.0
1.499166e+00 -2.488063e-01 0.0
1.503488e+00 -1.663246e-01 0.0
1.509644e+00 -1.124274e-01 0.0
1.517523e+00 -6.931715e-02 0.0
1.523860e+00 -2.942515e-02 0.0
1.524901e+00 7.322309e-03 0.0
1.520747e+00 3.792544e-02 0.0
1.512293e+00 6.310370e-02 0.0
1.500256e+00 8.424512e-02 0.0
1.485120e+00 1.026274e-01 0.0
1.467055e+00 1.194181e-01 0.0
1.446017e+00 1.353851e-01 0.0
1.421889e+00 1.508994e-01 0.0
1.394593e+00 1.660436e-01 0.0
1.364188e+00 1.806541e-01 0.0
1.330911e+00 1.942503e-01 0.0
1.295058e+00 2.058813e-01 0.0
1.256452e+00 2.139162e-01 0.0
1.213493e+00 2.155113e-01 0.0
1.164122e+00 2.053877e-01 0.0
1.106730e+00 1.793820e-01 0.0
1.035552e+00 1.432109e-01 0.0
9.373972e-01 1.076969e-01 0.0
8.164569e-01 5.794075e-02 0.0
7.201709e-01 -4.659987e-02 0.0
6.842448e-01 -1.929674e-01 0.0
7.076857e-01 -3.247633e-01 0.0
7.845545e-01 -3.969021e-01 0.0
8.925577e-01 -3.844594e-01 0.0
1.009829e+00 -2.991362e-01 0.0
1.115309e+00 -1.705500e-01 0.0
1.189933e+00 -3.640909e-02 0.0
1.232116e+00 7.072869e-02 0.0
1.249955e+00 1.505470e-01 0.0
1.248872e+00 2.118122e-01 0.0
1.233128e+00 2.586915e-01 0.0
1.206358e+00 2.928366e-01 0.0
1.171776e+00 3.143016e-01 0.0
1.132075e+00 3.217760e-01 0.0
1.089885e+00 3.124696e-01 0.0
1.048235e+00 2.848477e-01 0.0
1.009913e+00 2.402162e-01 0.0
9.770452e-01 1.824803e-01 0.0
9.509939e-01 1.172691e-01 0.0
9.326634e-01 5.051997e-02 0.0
9.229882e-01 -1.271601e-02 0.0
9.222459e-01 -6.863305e-02 0.0
9.296283e-01 -1.156842e-01 0.0
9.435652e-01 -1.529812e-01 0.0
9.621086e-01 -1.796117e-01 0.0
9.831869e-01 -1.947269e-01 0.0
1.004720e+00 -1.979391e-01 0.0
1.024685e+00 -1.896168e-01 0.0
1.041345e+00 -1.708384e-01 0.0
1.053307e+00 -1.431621e-01 0.0
1.059407e+00 -1.083370e-01 0.0
1.058489e+00 -6.796197e-02 0.0
1.049243e+00 -2.295867e-02 0.0
1.031713e+00 2.532505e-02 0.0
1.008057e+00 7.276163e-02 0.0
9.818268e-01 1.151753e-01 0.0
9.578822e-01 1.473534e-01 0.0
9.411949e-01 1.636670e-01 0.0
9.343284e-01 1.607282e-01 0.0
9.354553e-01 1.410792e-01 0.0
9.413537e-01 1.100654e-01 0.0
9.489382e-01 7.371994e-02 0.0
9.563132e-01 3.731868e-02 0.0
9.629910e-01 4.589374e-03 0.0
9.696092e-01 -2.244222e-02 0.0
9.770091e-01 -4.319251e-02 0.0
9.856094e-01 -5.756556e-02 0.0
9.953277e-01 -6.586535e-02 0.0
1.005687e+00 -6.873412e-02 0.0
1.015985e+00 -6.708654e-02 0.0
1.025518e+00 -6.190688e-02 0.0
1.033691e+00 -5.414345e-02 0.0
1.040060e+00 -4.467154e-02 0.0
1.044308e+00 -3.422465e-02 0.0
1.046180e+00 -2.331222e-02 0.0
1.045377e+00 -1.213197e-02 0.0
1.041516e+00 -5.564155e-04 0.0
1.034582e+00 1.117683e-02 0.0
1.024786e+00 2.261610e-02 0.0
1.012590e+00 3.327582e-02 0.0
9.987957e-01 4.248315e-02 0.0
9.845862e-01 4.934386e-02 0.0
9.714663e-01 5.280578e-02 0.0
9.609974e-01 5.184903e-02 0.0
9.538465e-01 4.634237e-02 0.0
9.497867e-01 3.694238e-02 0.0
9.468509e-01 2.234662e-02 0.0
0.000000e+00 2.220189e-02 0.0
1.000000e+00 -1.243388e-01 0.0
1.005111e+00 -1.236989e-01 0.0
1.011384e+00 -1.404989e-01 0.0
1.021181e+00 -1.771374e-01 0.0
1.039895e+00 -2.410204e-01 0.0
1.079762e+00 -3.459510e-01 0.0
1.168442e+00 -5.006368e-01 0.0
1.385783e+00 -8.464248e-01 0.0
1.358856e+00 -3.755060e-01 0.0
1.300517e+00 -1.904380e-01 0.0
1.265692e+00 -1.314695e-01 0.0
1.251219e+00 -9.792466e-02 0.0
1.253320e+00 -7.138881e-02 0.0
1.266722e+00 -4.279761e-02 0.0
1.280932e+00 -6.857646e-03 0.0
1.288827e+00 3.005975e-02 0.0
1.291870e+00 6.009061e-02 0.0
1.291184e+00 8.496042e-02 0.0
1.287540e+00 1.063008e-01 0.0
1.280980e+00 1.260085e-01 0.0
1.271185e+00 1.452098e-01 0.0
1.257738e+00 1.643756e-01 0.0
1.240259e+00 1.835519e-01 0.0
1.218504e+00 2.024396e-01 0.0
1.192399e+00 2.203844e-01 0.0
1.161787e+00 2.365230e-01 0.0
1.125396e+00 2.503371e-01 0.0
1.078157e+00 2.627799e-01 0.0
1.005867e+00 2.777072e-01 0.0
8.855567e-01 2.997220e-01 0.0
7.099610e-01 3.188363e-01 0.0
5.546891e-01 2.629984e-01 0.0
5.009629e-01 1.116967e-01 0.0
5.198151e-01 -6.542243e-02 0.0
5.526955e-01 -2.258181e-01 0.0
5.848764e-01 -3.569146e-01 0.0
6.320723e-01 -4.440683e-01 0.0
7.065655e-01 -4.589230e-01 0.0
8.003415e-01 -3.928825e-01 0.0
8.985990e-01 -2.687778e-01 0.0
9.851782e-01 -1.229587e-01 0.0
1.045677e+00 1.026010e-02 0.0
1.082858e+00 1.133951e-01 0.0
1.101005e+00 1.936946e-01 0.0
1.103724e+00 2.560024e-01 0.0
1.094268e+00 3.023225e-01 0.0
1.075687e+00 3.329123e-01 0.0
1.050746e+00 3.467467e-01 0.0
1.021642e+00 3.416030e-01 0.0
9.908200e-01 3.156996e-01 0.0
9.605575e-01 2.705084e-01 0.0
9.328719e-01 2.101955e-01 0.0
9.098093e-01 1.403614e-01 0.0
8.935426e-01 6.681635e-02 0.0
8.859163e-01 -5.059938e-03 0.0
8.874803e-01 -7.016743e-02 0.0
8.967056e-01 -1.248798e-01 0.0
9.111547e-01 -1.674005e-01 0.0
9.284619e-01 -1.968893e-01 0.0
9.465738e-01 -2.128090e-01 0.0
9.636428e-01 -2.149784e-01 0.0
9.779233e-01 -2.038676e-01 0.0
9.879674e-01 -1.808528e-01 0.0
9.926502e-01 -1.478152e-01 0.0
9.910244e-01 -1.066815e-01 0.0
9.821724e-01 -5.908029e-02 0.0
9.656160e-01 -6.372614e-03 0.0
9.435544e-01 4.741640e-02 0.0
9.193344e-01 9.701139e-02 0.0
8.972597e-01 1.372797e-01 0.0
8.817434e-01 1.628994e-01 0.0
8.754009e-01 1.700392e-01 0.0
8.769371e-01 1.592217e-01 0.0
8.830875e-01 1.349586e-01 0.0
8.906708e-01 1.025118e-01 0.0
8.976027e-01 6.681776e-02 0.0
9.033115e-01 3.163966e-02 0.0
9.084759e-01 -5.453948e-04 0.0
9.143854e-01 -2.832199e-02 0.0
9.219157e-01 -5.069306e-02 0.0
9.312599e-01 -6.688005e-02 0.0
9.420370e-01 -7.661275e-02 0.0
9.535072e-01 -8.017459e-02 0.0
9.647664e-01 -7.831595e-02 0.0
9.749460e-01 -7.205682e-02 0.0
9.833293e-01 -6.249693e-02 0.0
9.893648e-01 -5.067737e-02 0.0
9.926204e-01 -3.745056e-02 0.0
9.927011e-01 -2.336318e-02 0.0
9.891890e-01 -8.590146e-03 0.0
9.819506e-01 6.711705e-03 0.0
9.713897e-01 2.176746e-02 0.0
9.581959e-01 3.583968e-02 0.0
9.434437e-01 4.805769e-02 0.0
9.285796e-01 5.737697e-02 0.0
9.152562e-01 6.269708e-02 0.0
9.049964e-01 6.309523e-02 0.0
8.983367e-01 5.853854e-02 0.0
8.947710e-01 4.993775e-02 0.0
8.931820e-01 3.856114e-02 0.0
8.912336e-01 2.432469e-02 0.0
0.000000e+00 2.404698e-02 0.0
1.000000e+00 -1.198827e-01 0.0
9.955872e-01 -1.191724e-01 0.0
9.899488e-01 -1.348309e-01 0.0
9.822936e-01 -1.694525e-01 0.0
9.730579e-01 -2.317551e-01 0.0
9.670963e-01 -3.399597e-01 0.0
9.902555e-01 -5.237664e-01 0.0
1.143961e+00 -1.000101e+00 0.0
9.675517e-01 -1.991505e-01 0.0
8.010624e-01 -2.400306e-02 0.0
7.212102e-01 -5.158767e-02 0.0
6.793746e-01 -5.605935e-02 0.0
6.717865e-01 -6.377113e-02 0.0
6.977375e-01 -6.871897e-02 0.0
7.444662e-01 -5.355665e-02 0.0
7.928577e-01 -1.830214e-02 0.0
8.286837e-01 2.429427e-02 0.0
8.557266e-01 5.794713e-02 0.0
8.772725e-01 8.478461e-02 0.0
8.934494e-01 1.098612e-01 0.0
9.033744e-01 1.353144e-01 0.0
9.057748e-01 1.620049e-01 0.0
8.989178e-01 1.904386e-01 0.0
8.803701e-01 2.210169e-01 0.0
8.467679e-01 2.540163e-01 0.0
7.936637e-01 2.896569e-01 0.0
7.158571e-01 3.281734e-01 0.0
6.092194e-01 3.694472e-01 0.0
4.763020e-01 4.106543e-01 0.0
3.464103e-01 4.296434e-01 0.0
2.945445e-01 3.707318e-01 0.0
3.312543e-01 2.263183e-01 0.0
4.144373e-01 2.854331e-02 0.0
4.944500e-01 -1.454054e-01 0.0
5.519402e-01 -2.832786e-01 0.0
5.829965e-01 -3.879413e-01 0.0
6.013727e-01 -4.624149e-01 0.0
6.338736e-01 -4.913942e-01 0.0
6.890617e-01 -4.480409e-01 0.0
7.598091e-01 -3.394955e-01 0.0
8.333516e-01 -1.964715e-01 0.0
8.955368e-01 -5.189541e-02 0.0
9.390309e-01 6.993076e-02 0.0
9.657961e-01 1.669591e-01 0.0
9.783470e-01 2.434812e-01 0.0
9.792761e-01 3.014231e-01 0.0
9.711818e-01 3.410362e-01 0.0
9.565021e-01 3.614561e-01 0.0
9.368805e-01 3.612542e-01 0.0
9.138245e-01 3.387853e-01 0.0
8.891914e-01 2.951711e-01 0.0
8.658418e-01 2.335749e-01 0.0
8.476895e-01 1.585434e-01 0.0
8.383306e-01 7.620492e-02 0.0
8.392336e-01 -5.933161e-03 0.0
8.490815e-01 -7.998565e-02 0.0
8.646274e-01 -1.403960e-01 0.0
8.826106e-01 -1.853540e-01 0.0
9.006265e-01 -2.148754e-01 0.0
9.170408e-01 -2.291936e-01 0.0
9.305312e-01 -2.284392e-01 0.0
9.398316e-01 -2.131382e-01 0.0
9.438741e-01 -1.848656e-01 0.0
9.418215e-01 -1.457329e-01 0.0
9.330504e-01 -9.788068e-02 0.0
9.173145e-01 -4.331462e-02 0.0
8.960479e-01 1.492363e-02 0.0
8.728682e-01 7.062587e-02 0.0
8.515448e-01 1.183645e-01 0.0
8.358592e-01 1.529950e-01 0.0
8.282190e-01 1.705693e-01 0.0
8.281415e-01 1.701465e-01 0.0
8.325428e-01 1.548500e-01 0.0
8.384115e-01 1.291197e-01 0.0
8.436806e-01 9.727236e-02 0.0
8.477200e-01 6.280812e-02 0.0
8.511861e-01 2.820321e-02 0.0
8.554619e-01 -4.791490e-03 0.0
8.618346e-01 -3.466494e-02 0.0
8.707592e-01 -5.958793e-02 0.0
8.819262e-01 -7.801733e-02 0.0
8.945342e-01 -8.919103e-02 0.0
9.075580e-01 -9.316866e-02 0.0
9.199190e-01 -9.064727e-02 0.0
9.306341e-01 -8.274217e-02 0.0
9.388952e-01 -7.072830e-02 0.0
9.440515e-01 -5.580392e-02 0.0
9.455620e-01 -3.893132e-02 0.0
9.429807e-01 -2.075219e-02 0.0
9.361031e-01 -1.682828e-03 0.0
9.255148e-01 1.732980e-02 0.0
9.121742e-01 3.513779e-02 0.0
8.973929e-01 5.065065e-02 0.0
8.827736e-01 6.270679e-02 0.0
8.699653e-01 7.021493e-02 0.0
8.602778e-01 7.241438e-02 0.0
8.541089e-01 6.929379e-02 0.0
8.508248e-01 6.185237e-02 0.0
8.494418e-01 5.135053e-02 0.0
8.487871e-01 3.924558e-02 0.0
8.473259e-01 2.581559e-02 0.0
0.000000e+00 2.546925e-02 0.0
1.000000e+00 -1.064499e-01 0.0
9.866349e-01 -1.056937e-01 0.0
9.693015e-01 -1.174679e-01 0.0
9.429201e-01 -1.430414e-01 0.0
8.988141e-01 -1.876196e-01 0.0
8.200329e-01 -2.611488e-01 0.0
6.812814e-01 -3.849852e-01 0.0
1.989825e-01 -5.178567e-01 0.0
-9.694865e-01 5.197203e-01 0.0
0.000000e+00 -6.101577e-02 0.0
-1.344608e-01 5.898368e-02 0.0
-1.438213e-01 -4.666915e-02 0.0
-8.168322e-02 -1.258796e-01 0.0
3.240419e-02 -1.827767e-01 0.0
1.325478e-01 -1.536706e-01 0.0
2.221541e-01 -1.078788e-01 0.0
3.006460e-01 -5.416806e-02 0.0
3.603754e-01 -1.752591e-03 0.0
4.058217e-01 3.936798e-02 0.0
4.388725e-01 7.684003e-02 0.0
4.593971e-01 1.148194e-01 0.0
4.669103e-01 1.545214e-01 0.0
4.602070e-01 1.971716e-01 0.0
4.371662e-01 2.440873e-01 0.0
3.951972e-01 2.960149e-01 0.0
3.327181e-01 3.521656e-01 0.0
2.520228e-01 4.088984e-01 0.0
1.638188e-01 4.576808e-01 0.0
9.961015e-02 4.748926e-01 0.0
1.051945e-01 4.240887e-01 0.0
1.790834e-01 2.968726e-01 0.0
3.031492e-01 1.022822e-01 0.0
4.299720e-01 -9.824982e-02 0.0
5.349414e-01 -2.503451e-01 0.0
6.059605e-01 -3.542681e-01 0.0
6.380881e-01 -4.200392e-01 0.0
6.388281e-01 -4.631252e-01 0.0
6.338285e-01 -4.863649e-01 0.0
6.501684e-01 -4.643511e-01 0.0
6.884354e-01 -3.777328e-01 0.0
7.389705e-01 -2.469769e-01 0.0
7.897611e-01 -1.026564e-01 0.0
8.297271e-01 2.999446e-02 0.0
8.567960e-01 1.399199e-01 0.0
8.719128e-01 2.283940e-01 0.0
8.767748e-01 2.965908e-01 0.0
8.732583e-01 3.445824e-01 0.0
8.630435e-01 3.717006e-01 0.0
8.471597e-01 3.771677e-01 0.0
8.269280e-01 3.590467e-01 0.0
8.055118e-01 3.166170e-01 0.0
7.880707e-01 2.510457e-01 0.0
7.797512e-01 1.668925e-01 0.0
7.831172e-01 7.286863e-02 0.0
7.972037e-01 -1.998995e-02 0.0
8.181011e-01 -1.008534e-01 0.0
8.414189e-01 -1.636841e-01 0.0
8.637304e-01 -2.076359e-01 0.0
8.828908e-01 -2.340061e-01 0.0
8.978375e-01 -2.441106e-01 0.0
9.079306e-01 -2.385025e-01 0.0
9.125834e-01 -2.177614e-01 0.0
9.112090e-01 -1.834616e-01 0.0
9.033322e-01 -1.378264e-01 0.0
8.888740e-01 -8.339271e-02 0.0
8.687911e-01 -2.320203e-02 0.0
8.464293e-01 3.731514e-02 0.0
8.253353e-01 9.174962e-02 0.0
8.087422e-01 1.349873e-01 0.0
7.988177e-01 1.629491e-01 0.0
7.955877e-01 1.738291e-01 0.0
7.967195e-01 1.690445e-01 0.0
7.994485e-01 1.521508e-01 0.0
8.018621e-01 1.267358e-01 0.0
8.033350e-01 9.582909e-02 0.0
8.044664e-01 6.170649e-02 0.0
8.065742e-01 2.612515e-02 0.0
8.110882e-01 -9.275835e-03 0.0
8.188375e-01 -4.238451e-02 0.0
8.296935e-01 -7.041413e-02 0.0
8.428590e-01 -9.115312e-02 0.0
8.571924e-01 -1.034947e-01 0.0
8.714527e-01 -1.073992e-01 0.0
8.844414e-01 -1.036062e-01 0.0
8.951216e-01 -9.339273e-02 0.0
9.026409e-01 -7.821782e-02 0.0
9.063014e-01 -5.943470e-02 0.0
9.055726e-01 -3.817283e-02 0.0
9.002450e-01 -1.539486e-02 0.0
8.908533e-01 7.738630e-03 0.0
8.786147e-01 2.959816e-02 0.0
8.649574e-01 4.882477e-02 0.0
8.514903e-01 6.414746e-02 0.0
8.397365e-01 7.449036e-02 0.0
8.307551e-01 7.922602e-02 0.0
8.248071e-01 7.839215e-02 0.0
8.212717e-01 7.285894e-02 0.0
8.193522e-01 6.380159e-02 0.0
8.182763e-01 5.245611e-02 0.0
8.173776e-01 4.017399e-02 0.0
8.160435e-01 2.717946e-02 0.0
0.000000e+00 2.679599e-02 0.0
1.000000e+00 -8.628893e-02 0.0
9.799332e-01 -8.551324e-02 0.0
9.541201e-01 -9.162519e-02 0.0
9.148358e-01 -1.037275e-01 0.0
8.480367e-01 -1.207908e-01 0.0
7.246680e-01 -1.377506e-01 0.0
4.696245e-01 -1.299120e-01 0.0
-7.631574e-03 -4.065496e-02 0.0
9.010686e-05 0.000000e+00 0.0
0.000000e+00 -0.000000e+00 0.0
0.000000e+00 -1.183728e-01 0.0
-1.637683e-01 1.171288e-01 0.0
-1.687535e-01 -1.208647e-01 0.0
-1.459832e-01 -2.055174e-01 0.0
-1.250203e-01 -1.746038e-01 0.0
-8.931227e-02 -1.435571e-01 0.0
-3.960135e-02 -1.038493e-01 0.0
1.314362e-02 -5.446792e-02 0.0
5.348314e-02 -9.418854e-04 0.0
8.148327e-02 4.886956e-02 0.0