# vtk DataFile Version 3.0
Vector Field
ASCII
DATASET RECTILINEAR_GRID
DIMENSIONS 102 22 1
X_COORDINATES 102 double
0.000000 0.100000 0.200000 0.300000 0.400000 0.500000 0.600000 0.700000 0.800000 0.900000 1.000000 1.100000 1.200000 1.300000 1.400000 1.500000 1.600000 1.700000 1.800000 1.900000 2.000000 2.100000 2.200000 2.300000 2.400000 2.500000 2.600000 2.700000 2.800000 2.900000 3.000000 3.100000 3.200000 3.300000 3.400000 3.500000 3.600000 3.700000 3.800000 3.900000 4.000000 4.100000 4.200000 4.300000 4.400000 4.500000 4.600000 4.700000 4.800000 4.900000 5.000000 5.100000 5.200000 5.300000 5.400000 5.500000 5.600000 5.700000 5.800000 5.900000 6.000000 6.100000 6.200000 6.300000 6.400000 6.500000 6.600000 6.700000 6.800000 6.900000 7.000000 7.100000 7.200000 7.300000 7.400000 7.500000 7.600000 7.700000 7.800000 7.900000 8.000000 8.100000 8.200000 8.300000 8.400000 8.500000 8.600000 8.700000 8.800000 8.900000 9.000000 9.100000 9.200000 9.300000 9.400000 9.500000 9.600000 9.700000 9.800000 9.900000 10.000000 10.100000 
Y_COORDINATES 22 double
0.000000 0.100000 0.200000 0.300000 0.400000 0.500000 0.600000 0.700000 0.800000 0.900000 1.000000 1.100000 1.200000 1.300000 1.400000 1.500000 1.600000 1.700000 1.800000 1.900000 2.000000 2.100000 
Z_COORDINATES 1 double
0.0
POINT_DATA 2244
VECTORS Velocity double
0.000000e+00 0.000000e+00 0.0
-1.028235e+00 0.000000e+00 0.0
-1.059425e+00 0.000000e+00 0.0
-1.096618e+00 0.000000e+00 0.0
-1.142528e+00 0.000000e+00 0.0
-1.199202e+00 0.000000e+00 0.0
-1.266073e+00 0.000000e+00 0.0
-1.342505e+00 0.000000e+00 0.0
-1.411603e+00 0.000000e+00 0.0
-1.462807e+00 0.000000e+00 0.0
-1.494890e+00 0.000000e+00 0.0
-1.511066e+00 0.000000e+00 0.0
-1.515466e+00 0.000000e+00 0.0
-1.511650e+00 0.000000e+00 0.0
-1.502197e+00 0.000000e+00 0.0
-1.488944e+00 0.000000e+00 0.0
-1.473249e+00 0.000000e+00 0.0
-1.456263e+00 0.000000e+00 0.0
-1.439333e+00 0.000000e+00 0.0
-1.424582e+00 0.000000e+00 0.0
-1.415407e+00 0.000000e+00 0.0
-1.416023e+00 0.000000e+00 0.0
-1.429466e+00 0.000000e+00 0.0
-1.455178e+00 0.000000e+00 0.0
-1.488223e+00 0.000000e+00 0.0
-1.521513e+00 0.000000e+00 0.0
-1.549117e+00 0.000000e+00 0.0
-1.567952e+00 0.000000e+00 0.0
-1.577557e+00 0.000000e+00 0.0
-1.578829e+00 0.000000e+00 0.0
-1.572512e+00 0.000000e+00 0.0
-1.558594e+00 0.000000e+00 0.0
-1.536674e+00 0.000000e+00 0.0
-1.506297e+00 0.000000e+00 0.0
-1.467169e+00 0.000000e+00 0.0
-1.419329e+00 0.000000e+00 0.0
-1.363217e+00 0.000000e+00 0.0
-1.299633e+00 0.000000e+00 0.0
-1.229700e+00 0.000000e+00 0.0
-1.154996e+00 0.000000e+00 0.0
-1.077964e+00 0.000000e+00 0.0
-1.002047e+00 0.000000e+00 0.0
-9.316597e-01 0.000000e+00 0.0
-8.719375e-01 0.000000e+00 0.0
-8.279115e-01 0.000000e+00 0.0
-8.033444e-01 0.000000e+00 0.0
-7.997344e-01 0.000000e+00 0.0
-8.163292e-01 0.000000e+00 0.0
-8.517163e-01 0.000000e+00 0.0
-9.040960e-01 0.000000e+00 0.0
-9.711409e-01 0.000000e+00 0.0
-1.049640e+00 0.000000e+00 0.0
-1.135157e+00 0.000000e+00 0.0
-1.222374e+00 0.000000e+00 0.0
-1.305779e+00 0.000000e+00 0.0
-1.379933e+00 0.000000e+00 0.0
-1.439954e+00 0.000000e+00 0.0
-1.482183e+00 0.000000e+00 0.0
-1.504824e+00 0.000000e+00 0.0
-1.507745e+00 0.000000e+00 0.0
-1.490358e+00 0.000000e+00 0.0
-1.451501e+00 0.000000e+00 0.0
-1.390336e+00 0.000000e+00 0.0
-1.308131e+00 0.000000e+00 0.0
-1.211112e+00 0.000000e+00 0.0
-1.111446e+00 0.000000e+00 0.0
-1.022472e+00 0.000000e+00 0.0
-9.533671e-01 0.000000e+00 0.0
-9.080260e-01 0.000000e+00 0.0
-8.858440e-01 0.000000e+00 0.0
-8.832372e-01 0.000000e+00 0.0
-8.952785e-01 0.000000e+00 0.0
-9.174568e-01 0.000000e+00 0.0
-9.463049e-01 0.000000e+00 0.0
-9.792695e-01 0.000000e+00 0.0
-1.014453e+00 0.000000e+00 0.0
-1.050397e+00 0.000000e+00 0.0
-1.085892e+00 0.000000e+00 0.0
-1.119897e+00 0.000000e+00 0.0
-1.151492e+00 0.000000e+00 0.0
-1.179856e+00 0.000000e+00 0.0
-1.204290e+00 0.000000e+00 0.0
-1.224249e+00 0.000000e+00 0.0
-1.239380e+00 0.000000e+00 0.0
-1.249561e+00 0.000000e+00 0.0
-1.254903e+00 0.000000e+00 0.0
-1.255608e+00 0.000000e+00 0.0
-1.251607e+00 0.000000e+00 0.0
-1.242653e+00 0.000000e+00 0.0
-1.228446e+00 0.000000e+00 0.0
-1.208678e+00 0.000000e+00 0.0
-1.183175e+00 0.000000e+00 0.0
-1.152209e+00 0.000000e+00 0.0
-1.116877e+00 0.000000e+00 0.0
-1.079290e+00 0.000000e+00 0.0
-1.042286e+00 0.000000e+00 0.0
-1.008774e+00 0.000000e+00 0.0
-9.811470e-01 0.000000e+00 0.0
-9.608475e-01 0.000000e+00 0.0
-9.483861e-01 0.000000e+00 0.0
-9.483861e-01 0.000000e+00 0.0
0.000000e+00 0.000000e+00 0.0
1.000000e+00 -2.805134e-02 0.0
1.028394e+00 -2.819377e-02 0.0
1.059744e+00 -3.123514e-02 0.0
1.097116e+00 -3.725658e-02 0.0
1.143230e+00 -4.599917e-02 0.0
1.200143e+00 -5.679825e-02 0.0
1.267288e+00 -6.702926e-02 0.0
1.344048e+00 -7.664539e-02 0.0
1.413476e+00 -6.931287e-02 0.0
1.464958e+00 -5.136635e-02 0.0
1.497235e+00 -3.216183e-02 0.0
1.513501e+00 -1.615164e-02 0.0
1.517883e+00 -4.266802e-03 0.0
1.513936e+00 4.062663e-03 0.0
1.504232e+00 9.818642e-03 0.0
1.490597e+00 1.374989e-02 0.0
1.474363e+00 1.634914e-02 0.0
1.456612e+00 1.786683e-02 0.0
1.438530e+00 1.819652e-02 0.0
1.421961e+00 1.668395e-02 0.0
1.410006e+00 1.207101e-02 0.0
1.406909e+00 3.212105e-03 0.0
1.416414e+00 -9.390084e-03 0.0
1.439235e+00 -2.270579e-02 0.0
1.471576e+00 -3.222616e-02 0.0
1.506539e+00 -3.484760e-02 0.0
1.537446e+00 -3.079174e-02 0.0
1.560152e+00 -2.259090e-02 0.0
1.573337e+00 -1.307003e-02 0.0
1.577528e+00 -4.076071e-03 0.0
1.573640e+00 4.002990e-03 0.0
1.561906e+00 1.184944e-02 0.0
1.542050e+00 1.997085e-02 0.0
1.513659e+00 2.850646e-02 0.0
1.476427e+00 3.734684e-02 0.0
1.430341e+00 4.620184e-02 0.0
1.375780e+00 5.467585e-02 0.0
1.313493e+00 6.240276e-02 0.0
1.244550e+00 6.905752e-02 0.0
1.170435e+00 7.423051e-02 0.0
1.093413e+00 7.713693e-02 0.0
1.016770e+00 7.675844e-02 0.0
9.447468e-01 7.213842e-02 0.0
8.823846e-01 6.247745e-02 0.0
8.347950e-01 4.770482e-02 0.0
8.060414e-01 2.886877e-02 0.0
7.980859e-01 8.070757e-03 0.0
8.104601e-01 -1.225900e-02 0.0
8.418077e-01 -3.123229e-02 0.0
8.903775e-01 -4.845453e-02 0.0
9.539622e-01 -6.346946e-02 0.0
1.029568e+00 -7.549038e-02 0.0
1.113097e+00 -8.341353e-02 0.0
1.199439e+00 -8.622707e-02 0.0
1.283234e+00 -8.367941e-02 0.0
1.359142e+00 -7.579289e-02 0.0
1.422243e+00 -6.298550e-02 0.0
1.468638e+00 -4.628052e-02 0.0
1.496104e+00 -2.734991e-02 0.0
1.504222e+00 -8.002724e-03 0.0
1.492650e+00 1.168681e-02 0.0
1.460270e+00 3.249507e-02 0.0
1.405997e+00 5.438899e-02 0.0
1.330183e+00 7.592878e-02 0.0
1.237301e+00 9.299699e-02 0.0
1.137926e+00 9.949031e-02 0.0
1.045716e+00 9.232611e-02 0.0
9.711862e-01 7.464479e-02 0.0
9.196772e-01 5.162432e-02 0.0
8.916977e-01 2.809488e-02 0.0
8.843486e-01 7.464459e-03 0.0
8.929216e-01 -8.457727e-03 0.0
9.126862e-01 -1.964924e-02 0.0
9.398959e-01 -2.709433e-02 0.0
9.717807e-01 -3.176947e-02 0.0
1.006296e+00 -3.439980e-02 0.0
1.041895e+00 -3.548379e-02 0.0
1.077321e+00 -3.531097e-02 0.0
1.111506e+00 -3.406931e-02 0.0
1.143509e+00 -3.188786e-02 0.0
1.172494e+00 -2.886917e-02 0.0
1.197737e+00 -2.512748e-02 0.0
1.218659e+00 -2.080731e-02 0.0
1.234864e+00 -1.608946e-02 0.0
1.246173e+00 -1.119301e-02 0.0
1.252645e+00 -6.357494e-03 0.0
1.254493e+00 -1.732699e-03 0.0
1.251734e+00 2.874907e-03 0.0
1.244149e+00 7.699859e-03 0.0
1.231457e+00 1.280759e-02 0.0
1.213353e+00 1.821927e-02 0.0
1.189619e+00 2.384962e-02 0.0
1.160383e+00 2.935162e-02 0.0
1.126493e+00 3.400558e-02 0.0
1.089781e+00 3.682708e-02 0.0
1.052918e+00 3.697845e-02 0.0
1.018822e+00 3.421127e-02 0.0
9.900529e-01 2.888461e-02 0.0
9.683374e-01 2.183082e-02 0.0
9.545167e-01 1.393615e-02 0.0
9.483861e-01 6.246002e-03 0.0
0.000000e+00 5.659955e-03 0.0
1.000000e+00 -5.660677e-02 0.0
1.028824e+00 -5.690242e-02 0.0
1.060621e+00 -6.300282e-02 0.0
1.098603e+00 -7.520807e-02 0.0
1.145837e+00 -9.320278e-02 0.0
1.205106e+00 -1.160377e-01 0.0
1.276061e+00 -1.379542e-01 0.0
1.363024e+00 -1.635783e-01 0.0
1.438264e+00 -1.445234e-01 0.0
1.490883e+00 -1.039547e-01 0.0
1.522549e+00 -6.379775e-02 0.0
1.538228e+00 -3.180084e-02 0.0
1.542674e+00 -8.682473e-03 0.0
1.539459e+00 7.307326e-03 0.0
1.530983e+00 1.832480e-02 0.0
1.518933e+00 2.582974e-02 0.0
1.504570e+00 3.074215e-02 0.0
1.488865e+00 3.360235e-02 0.0
1.472685e+00 3.440594e-02 0.0
1.457276e+00 3.212293e-02 0.0
1.444868e+00 2.450902e-02 0.0
1.439049e+00 9.061962e-03 0.0
1.443893e+00 -1.420435e-02 0.0
1.461674e+00 -4.045683e-02 0.0
1.490699e+00 -6.122079e-02 0.0
1.525268e+00 -6.938676e-02 0.0
1.558799e+00 -6.429340e-02 0.0
1.586283e+00 -5.004441e-02 0.0
1.605009e+00 -3.176597e-02 0.0
1.614291e+00 -1.332850e-02 0.0
1.614808e+00 3.516495e-03 0.0
1.607233e+00 1.945480e-02 0.0
1.591504e+00 3.572986e-02 0.0
1.567338e+00 5.270232e-02 0.0
1.534524e+00 7.019118e-02 0.0
1.493104e+00 8.765175e-02 0.0
1.443557e+00 1.042524e-01 0.0
1.386756e+00 1.192342e-01 0.0
1.323955e+00 1.318885e-01 0.0
1.256751e+00 1.414649e-01 0.0
1.186975e+00 1.469429e-01 0.0
1.116994e+00 1.467691e-01 0.0
1.050036e+00 1.391263e-01 0.0
9.899408e-01 1.226030e-01 0.0
9.407743e-01 9.690135e-02 0.0
9.062134e-01 6.345976e-02 0.0
8.887757e-01 2.553845e-02 0.0
8.890722e-01 -1.252537e-02 0.0
9.057262e-01 -4.785632e-02 0.0
9.369316e-01 -7.962983e-02 0.0
9.807398e-01 -1.072476e-01 0.0
1.034742e+00 -1.294622e-01 0.0
1.096184e+00 -1.448262e-01 0.0
1.161504e+00 -1.515167e-01 0.0
1.226414e+00 -1.485588e-01 0.0
1.286478e+00 -1.358276e-01 0.0
1.337505e+00 -1.139819e-01 0.0
1.376006e+00 -8.475150e-02 0.0
1.399454e+00 -5.076799e-02 0.0
1.406005e+00 -1.452386e-02 0.0
1.394340e+00 2.338214e-02 0.0
1.364458e+00 6.240724e-02 0.0
1.317999e+00 1.008783e-01 0.0
1.259048e+00 1.349099e-01 0.0
1.194198e+00 1.578763e-01 0.0
1.130979e+00 1.627393e-01 0.0
1.075776e+00 1.475601e-01 0.0
1.032788e+00 1.176628e-01 0.0
1.003190e+00 8.125222e-02 0.0
9.864823e-01 4.483246e-02 0.0
9.814201e-01 1.255672e-02 0.0
9.860437e-01 -1.305118e-02 0.0
9.981816e-01 -3.175712e-02 0.0
1.015935e+00 -4.481728e-02 0.0
1.037722e+00 -5.352704e-02 0.0
1.062189e+00 -5.883608e-02 0.0
1.088180e+00 -6.144462e-02 0.0
1.114714e+00 -6.181483e-02 0.0
1.140943e+00 -6.026901e-02 0.0
1.166071e+00 -5.698558e-02 0.0
1.189346e+00 -5.211399e-02 0.0
1.210094e+00 -4.584491e-02 0.0
1.227753e+00 -3.843706e-02 0.0
1.241908e+00 -3.021349e-02 0.0
1.252272e+00 -2.152727e-02 0.0
1.258620e+00 -1.267585e-02 0.0
1.260651e+00 -3.732814e-03 0.0
1.257964e+00 5.591661e-03 0.0
1.250230e+00 1.546397e-02 0.0
1.237197e+00 2.587080e-02 0.0
1.218817e+00 3.662929e-02 0.0
1.195448e+00 4.724864e-02 0.0
1.168039e+00 5.679024e-02 0.0
1.138184e+00 6.389158e-02 0.0
1.107983e+00 6.705809e-02 0.0
1.079785e+00 6.520660e-02 0.0
1.055605e+00 5.842139e-02 0.0
1.036657e+00 4.786242e-02 0.0
1.023260e+00 3.525831e-02 0.0
1.014984e+00 2.224182e-02 0.0
1.010139e+00 1.112129e-02 0.0
0.000000e+00 1.019364e-02 0.0
1.000000e+00 -8.187361e-02 0.0
1.025527e+00 -8.231415e-02 0.0
1.054150e+00 -9.159561e-02 0.0
1.089392e+00 -1.104207e-01 0.0
1.135134e+00 -1.389144e-01 0.0
1.195846e+00 -1.767197e-01 0.0
1.272446e+00 -2.145237e-01 0.0
1.380923e+00 -2.720254e-01 0.0
1.463658e+00 -2.272285e-01 0.0
1.513369e+00 -1.536356e-01 0.0
1.539482e+00 -8.988103e-02 0.0
1.550282e+00 -4.257042e-02 0.0
1.551382e+00 -9.752385e-03 0.0
1.546136e+00 1.258337e-02 0.0
1.536484e+00 2.800629e-02 0.0
1.523798e+00 3.854557e-02 0.0
1.509180e+00 4.539042e-02 0.0
1.493516e+00 4.929625e-02 0.0
1.477437e+00 5.051493e-02 0.0
1.461395e+00 4.819488e-02 0.0
1.445963e+00 3.997118e-02 0.0
1.432683e+00 2.237237e-02 0.0
1.425156e+00 -6.647021e-03 0.0
1.428057e+00 -4.332814e-02 0.0
1.444153e+00 -7.728675e-02 0.0
1.471533e+00 -9.673679e-02 0.0
1.504320e+00 -9.704992e-02 0.0
1.536547e+00 -8.224150e-02 0.0
1.563403e+00 -5.859194e-02 0.0
1.581381e+00 -3.127656e-02 0.0
1.588982e+00 -4.054642e-03 0.0
1.587388e+00 2.107844e-02 0.0
1.577274e+00 4.587466e-02 0.0
1.558667e+00 7.133875e-02 0.0
1.531538e+00 9.735086e-02 0.0
1.495995e+00 1.232243e-01 0.0
1.452408e+00 1.478699e-01 0.0
1.401586e+00 1.700856e-01 0.0
1.344764e+00 1.887405e-01 0.0
1.283457e+00 2.028022e-01 0.0
1.219385e+00 2.110448e-01 0.0
1.154716e+00 2.114685e-01 0.0
1.092316e+00 2.015569e-01 0.0
1.035470e+00 1.794783e-01 0.0
9.874467e-01 1.449551e-01 0.0
9.510126e-01 9.992393e-02 0.0
9.281584e-01 4.842273e-02 0.0
9.198990e-01 -4.235872e-03 0.0
9.254071e-01 -5.333433e-02 0.0
9.430822e-01 -9.727491e-02 0.0
9.715259e-01 -1.356612e-01 0.0
1.009233e+00 -1.671396e-01 0.0
1.053822e+00 -1.893848e-01 0.0
1.102266e+00 -1.999304e-01 0.0
1.150975e+00 -1.972379e-01 0.0
1.196218e+00 -1.810403e-01 0.0
1.234517e+00 -1.522506e-01 0.0
1.262922e+00 -1.131272e-01 0.0
1.279077e+00 -6.689283e-02 0.0
1.281029e+00 -1.644579e-02 0.0
1.267971e+00 3.647059e-02 0.0
1.241280e+00 8.912806e-02 0.0
1.204332e+00 1.378568e-01 0.0
1.162362e+00 1.769097e-01 0.0
1.121250e+00 1.990186e-01 0.0
1.085388e+00 1.986310e-01 0.0
1.056104e+00 1.768742e-01 0.0
1.033436e+00 1.403615e-01 0.0
1.017332e+00 9.738617e-02 0.0
1.007495e+00 5.469959e-02 0.0
1.003328e+00 1.675300e-02 0.0
1.004377e+00 -1.406979e-02 0.0
1.010145e+00 -3.749535e-02 0.0
1.020046e+00 -5.468742e-02 0.0
1.033438e+00 -6.688906e-02 0.0
1.049666e+00 -7.503368e-02 0.0
1.067990e+00 -7.973886e-02 0.0
1.087589e+00 -8.138406e-02 0.0
1.107626e+00 -8.027590e-02 0.0
1.127304e+00 -7.663288e-02 0.0
1.145863e+00 -7.064287e-02 0.0
1.162613e+00 -6.256481e-02 0.0
1.176964e+00 -5.275796e-02 0.0
1.188442e+00 -4.166222e-02 0.0
1.196670e+00 -2.972475e-02 0.0
1.201279e+00 -1.725445e-02 0.0
1.201778e+00 -4.201662e-03 0.0
1.197661e+00 9.737952e-03 0.0
1.188684e+00 2.447145e-02 0.0
1.174848e+00 3.973684e-02 0.0
1.156550e+00 5.495718e-02 0.0
1.134755e+00 6.907417e-02 0.0
1.111055e+00 8.052050e-02 0.0
1.087502e+00 8.747424e-02 0.0
1.066182e+00 8.840838e-02 0.0
1.048376e+00 8.304254e-02 0.0
1.034347e+00 7.248049e-02 0.0
1.023693e+00 5.854641e-02 0.0
1.015709e+00 4.327263e-02 0.0
1.009542e+00 2.843846e-02 0.0
1.005413e+00 1.528099e-02 0.0
0.000000e+00 1.422783e-02 0.0
1.000000e+00 -1.020929e-01 0.0
1.020467e+00 -1.026656e-01 0.0
1.043995e+00 -1.150938e-01 0.0
1.074406e+00 -1.408018e-01 0.0
1.116793e+00 -1.812712e-01 0.0
1.178473e+00 -2.383694e-01 0.0
1.264807e+00 -3.008280e-01 0.0
1.410027e+00 -4.172152e-01 0.0
1.493827e+00 -3.109991e-01 0.0
1.530809e+00 -1.905871e-01 0.0
1.545196e+00 -1.042383e-01 0.0
1.548068e+00 -4.541199e-02 0.0
1.544608e+00 -6.263119e-03 0.0
1.536694e+00 2.052771e-02 0.0
1.525394e+00 3.933642e-02 0.0
1.511564e+00 5.240589e-02 0.0
1.496054e+00 6.093001e-02 0.0
1.479663e+00 6.571712e-02 0.0
1.462837e+00 6.737143e-02 0.0
1.445354e+00 6.570811e-02 0.0
1.426076e+00 5.927856e-02 0.0
1.403389e+00 4.508956e-02 0.0
1.377318e+00 1.945462e-02 0.0
1.353038e+00 -1.901886e-02 0.0
1.339552e+00 -6.377031e-02 0.0
1.342877e+00 -1.000317e-01 0.0
1.362455e+00 -1.165982e-01 0.0
1.393357e+00 -1.131130e-01 0.0
1.430293e+00 -9.549779e-02 0.0
1.466407e+00 -6.736042e-02 0.0
1.493406e+00 -3.102436e-02 0.0
1.506337e+00 8.177859e-03 0.0
1.508061e+00 4.418072e-02 0.0
1.500006e+00 7.942354e-02 0.0
1.482834e+00 1.145530e-01 0.0
1.456792e+00 1.492967e-01 0.0
1.422218e+00 1.824735e-01 0.0
1.379859e+00 2.124746e-01 0.0
1.330908e+00 2.377220e-01 0.0
1.276866e+00 2.568743e-01 0.0
1.219379e+00 2.685617e-01 0.0
1.160346e+00 2.705313e-01 0.0
1.102512e+00 2.594211e-01 0.0
1.049086e+00 2.329341e-01 0.0
1.002997e+00 1.910747e-01 0.0
9.662938e-01 1.366569e-01 0.0
9.401777e-01 7.456887e-02 0.0
9.256090e-01 1.036295e-02 0.0
9.229721e-01 -5.066733e-02 0.0
9.317996e-01 -1.060724e-01 0.0
9.507977e-01 -1.546292e-01 0.0
9.779692e-01 -1.942810e-01 0.0
1.010830e+00 -2.222154e-01 0.0
1.046574e+00 -2.356448e-01 0.0
1.082171e+00 -2.328046e-01 0.0
1.114584e+00 -2.134231e-01 0.0
1.141068e+00 -1.787048e-01 0.0
1.159250e+00 -1.312789e-01 0.0
1.167105e+00 -7.471768e-02 0.0
1.163141e+00 -1.245156e-02 0.0
1.147870e+00 5.177170e-02 0.0
1.123975e+00 1.130527e-01 0.0
1.095703e+00 1.661586e-01 0.0
1.068032e+00 2.046109e-01 0.0
1.045002e+00 2.220785e-01 0.0
1.027819e+00 2.158448e-01 0.0
1.015231e+00 1.894921e-01 0.0
1.005657e+00 1.499656e-01 0.0
9.982031e-01 1.048701e-01 0.0
9.926295e-01 6.030324e-02 0.0
9.892291e-01 2.018348e-02 0.0
9.886710e-01 -1.348154e-02 0.0
9.914760e-01 -4.027031e-02 0.0
9.977456e-01 -6.092692e-02 0.0
1.007231e+00 -7.634418e-02 0.0
1.019446e+00 -8.721869e-02 0.0
1.033749e+00 -9.401136e-02 0.0
1.049404e+00 -9.700934e-02 0.0
1.065618e+00 -9.645956e-02 0.0
1.081623e+00 -9.260837e-02 0.0
1.096700e+00 -8.568941e-02 0.0
1.110192e+00 -7.602652e-02 0.0
1.121521e+00 -6.405713e-02 0.0
1.130181e+00 -5.029252e-02 0.0
1.135693e+00 -3.520595e-02 0.0
1.137511e+00 -1.904250e-02 0.0
1.134956e+00 -1.616781e-03 0.0
1.127691e+00 1.703295e-02 0.0
1.115832e+00 3.636101e-02 0.0
1.099937e+00 5.566184e-02 0.0
1.081132e+00 7.379176e-02 0.0
1.061135e+00 8.910165e-02 0.0
1.042031e+00 9.965486e-02 0.0
1.025769e+00 1.037662e-01 0.0
1.013375e+00 1.008323e-01 0.0
1.004508e+00 9.193942e-02 0.0
9.981869e-01 7.883187e-02 0.0
9.933158e-01 6.344765e-02 0.0
9.890764e-01 4.754207e-02 0.0
9.850528e-01 3.249224e-02 0.0
9.818320e-01 1.853183e-02 0.0
0.000000e+00 1.746576e-02 0.0
1.000000e+00 -1.154447e-01 0.0
1.013581e+00 -1.161317e-01 0.0
1.029720e+00 -1.312022e-01 0.0
1.052116e+00 -1.631684e-01 0.0
1.086963e+00 -2.160884e-01 0.0
1.145221e+00 -2.965967e-01 0.0
1.242246e+00 -3.978234e-01 0.0
1.433337e+00 -6.082762e-01 0.0
1.492313e+00 -3.699449e-01 0.0
1.500624e+00 -1.988685e-01 0.0
1.496733e+00 -1.003171e-01 0.0
1.489823e+00 -3.847140e-02 0.0
1.481616e+00 1.973895e-03 0.0
1.471277e+00 3.089671e-02 0.0
1.458552e+00 5.209058e-02 0.0
1.443548e+00 6.744036e-02 0.0
1.426671e+00 7.783746e-02 0.0
1.408514e+00 8.390371e-02 0.0
1.389422e+00 8.649400e-02 0.0
1.368696e+00 8.646335e-02 0.0
1.344143e+00 8.386159e-02 0.0
1.311979e+00 7.728404e-02 0.0
1.267909e+00 6.355457e-02 0.0
1.210456e+00 3.846394e-02 0.0
1.146731e+00 -1.478217e-05 0.0
1.094513e+00 -4.778423e-02 0.0
1.070580e+00 -9.263512e-02 0.0
1.078180e+00 -1.206829e-01 0.0
1.115696e+00 -1.329841e-01 0.0
1.176410e+00 -1.280443e-01 0.0
1.245848e+00 -1.004317e-01 0.0
1.305070e+00 -5.101426e-02 0.0
1.339799e+00 9.481247e-03 0.0
1.356009e+00 6.324428e-02 0.0
1.359158e+00 1.114340e-01 0.0
1.351265e+00 1.572198e-01 0.0
1.333162e+00 2.006064e-01 0.0
1.305666e+00 2.400006e-01 0.0
1.269988e+00 2.734298e-01 0.0
1.227700e+00 2.991925e-01 0.0
1.180562e+00 3.157303e-01 0.0
1.130425e+00 3.206980e-01 0.0
1.079793e+00 3.100827e-01 0.0
1.031611e+00 2.811465e-01 0.0
9.883415e-01 2.343743e-01 0.0
9.516953e-01 1.733331e-01 0.0
9.232365e-01 1.030577e-01 0.0
9.050144e-01 2.861513e-02 0.0
8.990306e-01 -4.465340e-02 0.0
9.048370e-01 -1.118488e-01 0.0
9.199981e-01 -1.697603e-01 0.0
9.415824e-01 -2.158353e-01 0.0
9.668841e-01 -2.474870e-01 0.0
9.934073e-01 -2.621379e-01 0.0
1.018676e+00 -2.580428e-01 0.0
1.040330e+00 -2.350474e-01 0.0
1.056398e+00 -1.947423e-01 0.0
1.065220e+00 -1.400712e-01 0.0
1.065425e+00 -7.489257e-02 0.0
1.056479e+00 -3.476092e-03 0.0
1.040232e+00 6.804913e-02 0.0
1.020040e+00 1.332747e-01 0.0
1.000050e+00 1.861789e-01 0.0
9.840460e-01 2.206449e-01 0.0
9.738882e-01 2.322664e-01 0.0
9.685121e-01 2.212510e-01 0.0
9.656062e-01 1.924282e-01 0.0
9.632061e-01 1.523957e-01 0.0
9.604025e-01 1.077038e-01 0.0
9.573231e-01 6.341278e-02 0.0
9.548240e-01 2.271269e-02 0.0
9.541021e-01 -1.272957e-02 0.0
9.561671e-01 -4.230528e-02 0.0
9.614029e-01 -6.613264e-02 0.0
9.696348e-01 -8.454598e-02 0.0
9.803338e-01 -9.788756e-02 0.0
9.928022e-01 -1.064496e-01 0.0
1.006298e+00 -1.104751e-01 0.0
1.020070e+00 -1.102012e-01 0.0
1.033391e+00 -1.058991e-01 0.0
1.045603e+00 -9.787211e-02 0.0
1.056119e+00 -8.651167e-02 0.0
1.064394e+00 -7.230267e-02 0.0
1.069900e+00 -5.576806e-02 0.0
1.072059e+00 -3.733515e-02 0.0
1.070187e+00 -1.714010e-02 0.0
1.063672e+00 4.928681e-03 0.0
1.052765e+00 2.796968e-02 0.0
1.038205e+00 5.095117e-02 0.0
1.021307e+00 7.258958e-02 0.0
1.003928e+00 9.120069e-02 0.0
9.881858e-01 1.048744e-01 0.0
9.759003e-01 1.119704e-01 0.0
9.679333e-01 1.117634e-01 0.0
9.635930e-01 1.052027e-01 0.0
9.615427e-01 9.401976e-02 0.0
9.604064e-01 7.999832e-02 0.0
9.591549e-01 6.472920e-02 0.0
9.572878e-01 4.943926e-02 0.0
9.548023e-01 3.500786e-02 0.0
9.523644e-01 2.099981e-02 0.0
0.000000e+00 1.998470e-02 0.0
1.000000e+00 -1.203234e-01 0.0
1.005085e+00 -1.211018e-01 0.0
1.011379e+00 -1.374663e-01 0.0
1.021325e+00 -1.730842e-01 0.0
1.040522e+00 -2.352549e-01 0.0
1.081761e+00 -3.378060e-01 0.0
1.173935e+00 -4.899676e-01 0.0
1.400340e+00 -8.346508e-01 0.0
1.386579e+00 -3.561544e-01 0.0
1.340410e+00 -1.526693e-01 0.0
1.311016e+00 -7.089303e-02 0.0
1.295582e+00 -2.300733e-02 0.0
1.284908e+00 1.267781e-02 0.0
1.274442e+00 4.139244e-02 0.0
1.262097e+00 6.446563e-02 0.0
1.246797e+00 8.277066e-02 0.0
1.228263e+00 9.640151e-02 0.0
1.206835e+00 1.053620e-01 0.0
1.182814e+00 1.105454e-01 0.0
1.154941e+00 1.143662e-01 0.0
1.119165e+00 1.196677e-01 0.0
1.068812e+00 1.276670e-01 0.0
9.961105e-01 1.362859e-01 0.0
8.988818e-01 1.357226e-01 0.0
7.852276e-01 1.136695e-01 0.0
6.691949e-01 6.827851e-02 0.0
5.754329e-01 1.156915e-03 0.0
5.410489e-01 -8.626885e-02 0.0
5.816778e-01 -1.735830e-01 0.0
6.799364e-01 -2.262728e-01 0.0
8.061785e-01 -2.266438e-01 0.0
9.345404e-01 -1.793461e-01 0.0
1.042217e+00 -9.816577e-02 0.0
1.112052e+00 -6.560431e-03 0.0
1.152820e+00 7.069590e-02 0.0
1.174487e+00 1.355836e-01 0.0
1.181019e+00 1.941039e-01 0.0
1.174648e+00 2.464021e-01 0.0
1.157295e+00 2.908122e-01 0.0
1.130974e+00 3.255435e-01 0.0
1.097840e+00 3.488950e-01 0.0
1.059979e+00 3.585884e-01 0.0
1.019261e+00 3.508307e-01 0.0
9.776940e-01 3.227440e-01 0.0
9.370629e-01 2.750354e-01 0.0
9.001876e-01 2.102386e-01 0.0
8.719024e-01 1.313729e-01 0.0
8.569899e-01 4.355771e-02 0.0
8.569598e-01 -4.459319e-02 0.0
8.685929e-01 -1.234518e-01 0.0
8.868857e-01 -1.880230e-01 0.0
9.079657e-01 -2.368852e-01 0.0
9.294080e-01 -2.688992e-01 0.0
9.494677e-01 -2.821675e-01 0.0
9.664728e-01 -2.750179e-01 0.0
9.788901e-01 -2.474346e-01 0.0
9.855918e-01 -2.014138e-01 0.0
9.858065e-01 -1.402559e-01 0.0
9.791567e-01 -6.821262e-02 0.0
9.664588e-01 9.251856e-03 0.0
9.504322e-01 8.410578e-02 0.0
9.343543e-01 1.493827e-01 0.0
9.215067e-01 1.990566e-01 0.0
9.140317e-01 2.281501e-01 0.0
9.118434e-01 2.344848e-01 0.0
9.126968e-01 2.204276e-01 0.0
9.141416e-01 1.910135e-01 0.0
9.145023e-01 1.520651e-01 0.0
9.133342e-01 1.089019e-01 0.0
9.113104e-01 6.546665e-02 0.0
9.097678e-01 2.428545e-02 0.0
9.101772e-01 -1.310895e-02 0.0
9.135991e-01 -4.569705e-02 0.0
9.202284e-01 -7.273190e-02 0.0
9.295863e-01 -9.387375e-02 0.0
9.408640e-01 -1.091352e-01 0.0
9.531865e-01 -1.187420e-01 0.0
9.657503e-01 -1.230089e-01 0.0
9.778493e-01 -1.222701e-01 0.0
9.888462e-01 -1.168658e-01 0.0
9.982015e-01 -1.071973e-01 0.0
1.005435e+00 -9.371536e-02 0.0
1.010071e+00 -7.690812e-02 0.0
1.011580e+00 -5.724693e-02 0.0
1.009350e+00 -3.507568e-02 0.0
1.002781e+00 -1.054089e-02 0.0
9.920876e-01 1.565243e-02 0.0
9.782732e-01 4.181420e-02 0.0
9.628277e-01 6.642678e-02 0.0
9.476711e-01 8.777630e-02 0.0
9.348430e-01 1.040589e-01 0.0
9.259518e-01 1.137957e-01 0.0
9.215997e-01 1.163526e-01 0.0
9.209673e-01 1.124258e-01 0.0
9.224939e-01 1.037062e-01 0.0
9.247036e-01 9.184013e-02 0.0
9.264697e-01 7.826237e-02 0.0
9.271633e-01 6.406564e-02 0.0
9.266456e-01 4.998708e-02 0.0
9.251561e-01 3.652752e-02 0.0
9.233417e-01 2.284431e-02 0.0
0.000000e+00 2.190829e-02 0.0
1.000000e+00 -1.158532e-01 0.0
9.957092e-01 -1.166958e-01 0.0
9.902912e-01 -1.320183e-01 0.0
9.831056e-01 -1.658686e-01 0.0
9.749155e-01 -2.270347e-01 0.0
9.712541e-01 -3.341146e-01 0.0
9.995387e-01 -5.182222e-01 0.0
1.163535e+00 -9.986173e-01 0.0
1.010940e+00 -2.036142e-01 0.0
8.786632e-01 -2.044753e-02 0.0
8.246824e-01 -1.688217e-02 0.0
8.061193e-01 -4.414206e-03 0.0
8.010765e-01 1.775066e-02 0.0
7.984208e-01 4.407814e-02 0.0
7.924805e-01 7.043593e-02 0.0
7.780849e-01 9.719636e-02 0.0
7.512629e-01 1.232535e-01 0.0
7.095912e-01 1.470637e-01 0.0
6.525397e-01 1.676270e-01 0.0
5.823498e-01 1.845861e-01 0.0
5.033201e-01 1.987275e-01 0.0
4.167865e-01 2.142306e-01 0.0
3.239109e-01 2.291915e-01 0.0
2.265515e-01 2.331121e-01 0.0
1.366396e-01 2.036114e-01 0.0
7.532780e-02 1.296203e-01 0.0
5.799258e-02 1.852218e-02 0.0
9.089578e-02 -1.191420e-01 0.0
1.664263e-01 -2.490834e-01 0.0
2.835346e-01 -3.433511e-01 0.0
4.312291e-01 -3.743082e-01 0.0
5.875412e-01 -3.356281e-01 0.0
7.319972e-01 -2.425917e-01 0.0
8.487897e-01 -1.233230e-01 0.0
9.265061e-01 -6.990393e-03 0.0
9.756731e-01 8.644661e-02 0.0
1.004671e+00 1.651361e-01 0.0
1.017372e+00 2.337314e-01 0.0
1.016524e+00 2.916897e-01 0.0
1.004631e+00 3.374665e-01 0.0
9.841587e-01 3.693977e-01 0.0
9.570336e-01 3.857436e-01 0.0
9.233907e-01 3.845038e-01 0.0
8.839773e-01 3.621874e-01 0.0
8.428869e-01 3.161558e-01 0.0
8.091293e-01 2.440262e-01 0.0
7.920841e-01 1.484481e-01 0.0
7.945819e-01 4.109004e-02 0.0
8.117152e-01 -6.169651e-02 0.0
8.357904e-01 -1.474969e-01 0.0
8.608114e-01 -2.130139e-01 0.0
8.834335e-01 -2.594772e-01 0.0
9.023627e-01 -2.877984e-01 0.0
9.171340e-01 -2.969087e-01 0.0
9.271534e-01 -2.850072e-01 0.0
9.317530e-01 -2.520041e-01 0.0
9.305386e-01 -2.001693e-01 0.0
9.235797e-01 -1.332669e-01 0.0
9.116094e-01 -5.621218e-02 0.0
8.966954e-01 2.419590e-02 0.0
8.817446e-01 9.908663e-02 0.0
8.694103e-01 1.617472e-01 0.0
8.617513e-01 2.067456e-01 0.0
8.593206e-01 2.306109e-01 0.0
8.606761e-01 2.331594e-01 0.0
8.633209e-01 2.178129e-01 0.0
8.651876e-01 1.891768e-01 0.0
8.652725e-01 1.520103e-01 0.0
8.638827e-01 1.103219e-01 0.0
8.623308e-01 6.704857e-02 0.0
8.623144e-01 2.433192e-02 0.0
8.652792e-01 -1.604357e-02 0.0
8.718325e-01 -5.222030e-02 0.0
8.815672e-01 -8.243649e-02 0.0
8.934761e-01 -1.057526e-01 0.0
9.064048e-01 -1.220338e-01 0.0
9.193199e-01 -1.316270e-01 0.0
9.313981e-01 -1.350569e-01 0.0
9.419919e-01 -1.328339e-01 0.0
9.505914e-01 -1.254351e-01 0.0
9.568035e-01 -1.133793e-01 0.0
9.602800e-01 -9.716179e-02 0.0
9.606446e-01 -7.724269e-02 0.0
9.574670e-01 -5.403918e-02 0.0
9.503680e-01 -2.794660e-02 0.0
9.394610e-01 3.961556e-04 0.0
9.261173e-01 2.902623e-02 0.0
9.119574e-01 5.600429e-02 0.0
8.988430e-01 7.957128e-02 0.0
8.885942e-01 9.805514e-02 0.0
8.825069e-01 1.101763e-01 0.0
8.808955e-01 1.154372e-01 0.0
8.829220e-01 1.143562e-01 0.0
8.869684e-01 1.084095e-01 0.0
8.915893e-01 9.911536e-02 0.0
8.956963e-01 8.776331e-02 0.0
8.986386e-01 7.535014e-02 0.0
9.001780e-01 6.255629e-02 0.0
9.003917e-01 4.980355e-02 0.0
8.995589e-01 3.739042e-02 0.0
8.982366e-01 2.419673e-02 0.0
0.000000e+00 2.334565e-02 0.0
1.000000e+00 -1.025420e-01 0.0
9.868393e-01 -1.034200e-01 0.0
9.698217e-01 -1.149707e-01 0.0
9.440182e-01 -1.400351e-01 0.0
9.010162e-01 -1.840027e-01 0.0
8.241283e-01 -2.571966e-01 0.0
6.889793e-01 -3.830431e-01 0.0
2.034441e-01 -5.131372e-01 0.0
-1.011223e+00 5.110708e-01 0.0
0.000000e+00 -5.807137e-02 0.0
-9.662859e-02 5.941400e-02 0.0
-2.961862e-02 -7.139415e-02 0.0
7.012046e-02 -8.195838e-02 0.0
1.561872e-01 -4.195861e-02 0.0
2.076489e-01 1.900425e-02 0.0
2.288869e-01 7.598842e-02 0.0
2.235351e-01 1.286353e-01 0.0
1.947329e-01 1.758960e-01 0.0
1.463027e-01 2.160872e-01 0.0
8.333419e-02 2.475847e-01 0.0
1.231299e-02 2.697787e-01 0.0
-5.604851e-02 2.826221e-01 0.0
-1.106338e-01 2.838069e-01 0.0
-1.414400e-01 2.639484e-01 0.0
-1.475130e-01 2.097144e-01 0.0
-1.250489e-01 1.071863e-01 0.0
-7.236816e-02 -3.412854e-02 0.0
1.418536e-03 -1.928987e-01 0.0
7.854991e-02 -3.261847e-01 0.0
1.582215e-01 -4.229927e-01 0.0
2.601138e-01 -4.761704e-01 0.0
3.849962e-01 -4.604805e-01 0.0
5.177109e-01 -3.752763e-01 0.0
6.397297e-01 -2.453118e-01 0.0
7.369122e-01 -1.041428e-01 0.0
8.017108e-01 2.167802e-02 0.0
8.433274e-01 1.235495e-01 0.0
8.667607e-01 2.103281e-01 0.0
8.751144e-01 2.833661e-01 0.0
8.707280e-01 3.418829e-01 0.0
8.552873e-01 3.848684e-01 0.0
8.295806e-01 4.114803e-01 0.0
7.940379e-01 4.200765e-01 0.0
7.538382e-01 4.024172e-01 0.0
7.209241e-01 3.491000e-01 0.0
7.074761e-01 2.575043e-01 0.0
7.172133e-01 1.387410e-01 0.0
7.448974e-01 1.343606e-02 0.0
7.805016e-01 -9.727067e-02 0.0
8.165214e-01 -1.834866e-01 0.0
8.479366e-01 -2.443991e-01 0.0
8.721125e-01 -2.836230e-01 0.0
8.886602e-01 -3.043161e-01 0.0
8.983660e-01 -3.065845e-01 0.0
9.019908e-01 -2.886020e-01 0.0
8.998616e-01 -2.498449e-01 0.0
8.922516e-01 -1.925292e-01 0.0
8.799031e-01 -1.208883e-01 0.0
8.644559e-01 -4.073494e-02 0.0
8.487533e-01 3.992865e-02 0.0
8.351986e-01 1.126714e-01 0.0
8.255798e-01 1.713960e-01 0.0
8.207266e-01 2.116289e-01 0.0
8.199918e-01 2.313758e-01 0.0
8.213291e-01 2.318522e-01 0.0
8.225859e-01 2.165861e-01 0.0
8.224226e-01 1.893702e-01 0.0
8.207596e-01 1.537034e-01 0.0
8.187124e-01 1.123992e-01 0.0
8.180367e-01 6.775442e-02 0.0
8.204268e-01 2.197186e-02 0.0
8.269506e-01 -2.253728e-02 0.0
8.374860e-01 -6.272563e-02 0.0
8.509446e-01 -9.586500e-02 0.0
8.658138e-01 -1.205916e-01 0.0
8.806310e-01 -1.368209e-01 0.0
8.942359e-01 -1.452018e-01 0.0
9.058087e-01 -1.465997e-01 0.0
9.147771e-01 -1.417721e-01 0.0
9.207830e-01 -1.314110e-01 0.0
9.235963e-01 -1.161625e-01 0.0
9.230390e-01 -9.657440e-02 0.0
9.189449e-01 -7.311847e-02 0.0
9.112319e-01 -4.629607e-02 0.0
9.002185e-01 -1.690306e-02 0.0
8.873111e-01 1.333356e-02 0.0
8.743411e-01 4.202636e-02 0.0
8.630095e-01 6.736598e-02 0.0
8.548184e-01 8.779246e-02 0.0
8.507140e-01 1.021897e-01 0.0
8.507703e-01 1.101501e-01 0.0
8.541507e-01 1.120869e-01 0.0
8.593963e-01 1.091407e-01 0.0
8.651686e-01 1.026673e-01 0.0
8.704979e-01 9.381617e-02 0.0
8.748027e-01 8.348861e-02 0.0
8.778447e-01 7.233823e-02 0.0
8.796230e-01 6.080811e-02 0.0
8.802661e-01 4.919053e-02 0.0
8.799443e-01 3.774227e-02 0.0
8.790228e-01 2.514840e-02 0.0
0.000000e+00 2.437417e-02 0.0
1.000000e+00 -8.257047e-02 0.0
9.801517e-01 -8.345659e-02 0.0
9.546397e-01 -8.942876e-02 0.0
9.158255e-01 -1.011908e-01 0.0
8.497465e-01 -1.178937e-01 0.0
7.269791e-01 -1.343991e-01 0.0
4.714909e-01 -1.275249e-01 0.0
-1.016809e-02 -3.153322e-02 0.0
7.812326e-05 0.000000e+00 0.0
0.000000e+00 -0.000000e+00 0.0
0.000000e+00 -7.580977e-02 0.0
-1.518527e-01 8.048859e-02 0.0
-1.239261e-01 -1.098550e-01 0.0
-8.923245e-02 -7.662223e-02 0.0
-7.798334e-02 7.785181e-03 0.0
-7.588865e-02 7.392376e-02 0.0
-8.376715e-02 1.365438e-01 0.0
-1.000624e-01 1.922213e-01 0.0
-1.219244e-01 2.379792e-01 0.0
-1.461514e-01 2.718417e-01 0.0