# vtk DataFile Version 3.0
Vector Field
ASCII
DATASET RECTILINEAR_GRID
DIMENSIONS 102 22 1
X_COORDINATES 102 double
0.000000 0.100000 0.200000 0.300000 0.400000 0.500000 0.600000 0.700000 0.800000 0.900000 1.000000 1.100000 1.200000 1.300000 1.400000 1.500000 1.600000 1.700000 1.800000 1.900000 2.000000 2.100000 2.200000 2.300000 2.400000 2.500000 2.600000 2.700000 2.800000 2.900000 3.000000 3.100000 3.200000 3.300000 3.400000 3.500000 3.600000 3.700000 3.800000 3.900000 4.000000 4.100000 4.200000 4.300000 4.400000 4.500000 4.600000 4.700000 4.800000 4.900000 5.000000 5.100000 5.200000 5.300000 5.400000 5.500000 5.600000 5.700000 5.800000 5.900000 6.000000 6.100000 6.200000 6.300000 6.400000 6.500000 6.600000 6.700000 6.800000 6.900000 7.000000 7.100000 7.200000 7.300000 7.400000 7.500000 7.600000 7.700000 7.800000 7.900000 8.000000 8.100000 8.200000 8.300000 8.400000 8.500000 8.600000 8.700000 8.800000 8.900000 9.000000 9.100000 9.200000 9.300000 9.400000 9.500000 9.600000 9.700000 9.800000 9.900000 10.000000 10.100000 
Y_COORDINATES 22 double
0.000000 0.100000 0.200000 0.300000 0.400000 0.500000 0.600000 0.700000 0.800000 0.900000 1.000000 1.100000 1.200000 1.300000 1.400000 1.500000 1.600000 1.700000 1.800000 1.900000 2.000000 2.100000 
Z_COORDINATES 1 double
0.0
POINT_DATA 2244
VECTORS Velocity double
0.000000e+00 0.000000e+00 0.0
-1.023185e+00 0.000000e+00 0.0
-1.049361e+00 0.000000e+00 0.0
-1.081246e+00 0.000000e+00 0.0
-1.121547e+00 0.000000e+00 0.0
-1.172468e+00 0.000000e+00 0.0
-1.233913e+00 0.000000e+00 0.0
-1.305913e+00 0.000000e+00 0.0
-1.373990e+00 0.000000e+00 0.0
-1.429246e+00 0.000000e+00 0.0
-1.471017e+00 0.000000e+00 0.0
-1.502544e+00 0.000000e+00 0.0
-1.527844e+00 0.000000e+00 0.0
-1.550426e+00 0.000000e+00 0.0
-1.572828e+00 0.000000e+00 0.0
-1.596234e+00 0.000000e+00 0.0
-1.619994e+00 0.000000e+00 0.0
-1.641641e+00 0.000000e+00 0.0
-1.657921e+00 0.000000e+00 0.0
-1.666408e+00 0.000000e+00 0.0
-1.666603e+00 0.000000e+00 0.0
-1.659325e+00 0.000000e+00 0.0
-1.645705e+00 0.000000e+00 0.0
-1.626764e+00 0.000000e+00 0.0
-1.603157e+00 0.000000e+00 0.0
-1.575084e+00 0.000000e+00 0.0
-1.542343e+00 0.000000e+00 0.0
-1.504500e+00 0.000000e+00 0.0
-1.461098e+00 0.000000e+00 0.0
-1.411839e+00 0.000000e+00 0.0
-1.356716e+00 0.000000e+00 0.0
-1.296035e+00 0.000000e+00 0.0
-1.230365e+00 0.000000e+00 0.0
-1.160586e+00 0.000000e+00 0.0
-1.088299e+00 0.000000e+00 0.0
-1.016287e+00 0.000000e+00 0.0
-9.487872e-01 0.000000e+00 0.0
-8.915617e-01 0.000000e+00 0.0
-8.510861e-01 0.000000e+00 0.0
-8.328060e-01 0.000000e+00 0.0
-8.392552e-01 0.000000e+00 0.0
-8.703760e-01 0.000000e+00 0.0
-9.253589e-01 0.000000e+00 0.0
-1.003214e+00 0.000000e+00 0.0
-1.101618e+00 0.000000e+00 0.0
-1.215636e+00 0.000000e+00 0.0
-1.336234e+00 0.000000e+00 0.0
-1.451938e+00 0.000000e+00 0.0
-1.550710e+00 0.000000e+00 0.0
-1.621937e+00 0.000000e+00 0.0
-1.659341e+00 0.000000e+00 0.0
-1.662933e+00 0.000000e+00 0.0
-1.635711e+00 0.000000e+00 0.0
-1.579696e+00 0.000000e+00 0.0
-1.497505e+00 0.000000e+00 0.0
-1.393873e+00 0.000000e+00 0.0
-1.277091e+00 0.000000e+00 0.0
-1.158382e+00 0.000000e+00 0.0
-1.048540e+00 0.000000e+00 0.0
-9.556842e-01 0.000000e+00 0.0
-8.843246e-01 0.000000e+00 0.0
-8.353952e-01 0.000000e+00 0.0
-8.070675e-01 0.000000e+00 0.0
-7.959995e-01 0.000000e+00 0.0
-7.983811e-01 0.000000e+00 0.0
-8.109881e-01 0.000000e+00 0.0
-8.319336e-01 0.000000e+00 0.0
-8.600652e-01 0.000000e+00 0.0
-8.945515e-01 0.000000e+00 0.0
-9.346265e-01 0.000000e+00 0.0
-9.793924e-01 0.000000e+00 0.0
-1.027669e+00 0.000000e+00 0.0
-1.078074e+00 0.000000e+00 0.0
-1.129102e+00 0.000000e+00 0.0
-1.179312e+00 0.000000e+00 0.0
-1.227367e+00 0.000000e+00 0.0
-1.272017e+00 0.000000e+00 0.0
-1.312110e+00 0.000000e+00 0.0
-1.346620e+00 0.000000e+00 0.0
-1.374698e+00 0.000000e+00 0.0
-1.395754e+00 0.000000e+00 0.0
-1.409552e+00 0.000000e+00 0.0
-1.416284e+00 0.000000e+00 0.0
-1.416372e+00 0.000000e+00 0.0
-1.409740e+00 0.000000e+00 0.0
-1.395801e+00 0.000000e+00 0.0
-1.373746e+00 0.000000e+00 0.0
-1.342711e+00 0.000000e+00 0.0
-1.302148e+00 0.000000e+00 0.0
-1.252474e+00 0.000000e+00 0.0
-1.195735e+00 0.000000e+00 0.0
-1.135684e+00 0.000000e+00 0.0
-1.076716e+00 0.000000e+00 0.0
-1.022533e+00 0.000000e+00 0.0
-9.756409e-01 0.000000e+00 0.0
-9.372965e-01 0.000000e+00 0.0
-9.076745e-01 0.000000e+00 0.0
-8.861698e-01 0.000000e+00 0.0
-8.717634e-01 0.000000e+00 0.0
-8.633759e-01 0.000000e+00 0.0
-8.633759e-01 0.000000e+00 0.0
0.000000e+00 0.000000e+00 0.0
1.000000e+00 -2.353133e-02 0.0
1.023260e+00 -2.359959e-02 0.0
1.049508e+00 -2.644280e-02 0.0
1.081458e+00 -3.214510e-02 0.0
1.121807e+00 -4.054348e-02 0.0
1.172739e+00 -5.112700e-02 0.0
1.234129e+00 -6.158565e-02 0.0
1.305948e+00 -7.201352e-02 0.0
1.373650e+00 -6.789748e-02 0.0
1.428305e+00 -5.484989e-02 0.0
1.469249e+00 -4.113924e-02 0.0
1.499744e+00 -3.068964e-02 0.0
1.523851e+00 -2.430254e-02 0.0
1.545167e+00 -2.151118e-02 0.0
1.566397e+00 -2.142513e-02 0.0
1.589000e+00 -2.279825e-02 0.0
1.612643e+00 -2.383777e-02 0.0
1.635031e+00 -2.258406e-02 0.0
1.652802e+00 -1.796562e-02 0.0
1.663145e+00 -1.053804e-02 0.0
1.665137e+00 -2.187533e-03 0.0
1.659461e+00 5.480175e-03 0.0
1.647240e+00 1.202587e-02 0.0
1.629540e+00 1.750417e-02 0.0
1.607084e+00 2.226151e-02 0.0
1.580132e+00 2.675625e-02 0.0
1.548526e+00 3.141023e-02 0.0
1.511841e+00 3.648994e-02 0.0
1.469596e+00 4.204929e-02 0.0
1.421450e+00 4.795077e-02 0.0
1.367338e+00 5.391547e-02 0.0
1.307524e+00 5.961889e-02 0.0
1.242543e+00 6.478578e-02 0.0
1.173218e+00 6.912841e-02 0.0
1.100996e+00 7.202659e-02 0.0
1.028441e+00 7.235966e-02 0.0
9.594890e-01 6.875590e-02 0.0
8.996189e-01 5.967427e-02 0.0
8.552126e-01 4.421043e-02 0.0
8.319792e-01 2.303753e-02 0.0
8.330303e-01 -1.247039e-03 0.0
8.585825e-01 -2.574818e-02 0.0
9.078814e-01 -4.949489e-02 0.0
9.799940e-01 -7.230863e-02 0.0
1.073062e+00 -9.326361e-02 0.0
1.182964e+00 -1.100985e-01 0.0
1.301855e+00 -1.190870e-01 0.0
1.418901e+00 -1.172426e-01 0.0
1.522418e+00 -1.037131e-01 0.0
1.601453e+00 -7.923102e-02 0.0
1.648439e+00 -4.718178e-02 0.0
1.661602e+00 -1.336017e-02 0.0
1.643642e+00 1.776369e-02 0.0
1.596458e+00 4.698815e-02 0.0
1.522129e+00 7.413304e-02 0.0
1.424402e+00 9.753002e-02 0.0
1.310384e+00 1.138219e-01 0.0
1.190881e+00 1.193067e-01 0.0
1.077395e+00 1.132891e-01 0.0
9.791259e-01 9.807255e-02 0.0
9.016738e-01 7.725557e-02 0.0
8.468764e-01 5.460078e-02 0.0
8.134609e-01 3.321887e-02 0.0
7.982982e-01 1.496608e-02 0.0
7.975775e-01 5.240220e-04 0.0
8.077485e-01 -1.036767e-02 0.0
8.266205e-01 -1.906866e-02 0.0
8.528872e-01 -2.646348e-02 0.0
8.856575e-01 -3.296703e-02 0.0
9.241632e-01 -3.870257e-02 0.0
9.675636e-01 -4.359716e-02 0.0
1.014759e+00 -4.739178e-02 0.0
1.064421e+00 -4.985971e-02 0.0
1.115083e+00 -5.085872e-02 0.0
1.165292e+00 -5.040563e-02 0.0
1.213707e+00 -4.861177e-02 0.0
1.259073e+00 -4.556321e-02 0.0
1.300226e+00 -4.134955e-02 0.0
1.336114e+00 -3.608492e-02 0.0
1.365844e+00 -2.992761e-02 0.0
1.388752e+00 -2.310454e-02 0.0
1.404493e+00 -1.593783e-02 0.0
1.413136e+00 -8.840379e-03 0.0
1.415085e+00 -2.145607e-03 0.0
1.410465e+00 4.421997e-03 0.0
1.398795e+00 1.147370e-02 0.0
1.379319e+00 1.927905e-02 0.0
1.351168e+00 2.795397e-02 0.0
1.313645e+00 3.732553e-02 0.0
1.266795e+00 4.665317e-02 0.0
1.212111e+00 5.448621e-02 0.0
1.152866e+00 5.904818e-02 0.0
1.093404e+00 5.926461e-02 0.0
1.037705e+00 5.550222e-02 0.0
9.886602e-01 4.884752e-02 0.0
9.479021e-01 4.056093e-02 0.0
9.159314e-01 3.177357e-02 0.0
8.923727e-01 2.336159e-02 0.0
8.763382e-01 1.583733e-02 0.0
8.668115e-01 9.329491e-03 0.0
8.633759e-01 3.238502e-03 0.0
0.000000e+00 2.830060e-03 0.0
1.000000e+00 -4.724191e-02 0.0
1.023588e+00 -4.738247e-02 0.0
1.050201e+00 -5.310703e-02 0.0
1.082696e+00 -6.469097e-02 0.0
1.124102e+00 -8.200005e-02 0.0
1.177288e+00 -1.043640e-01 0.0
1.242389e+00 -1.267372e-01 0.0
1.323766e+00 -1.534421e-01 0.0
1.396916e+00 -1.410980e-01 0.0
1.452515e+00 -1.105000e-01 0.0
1.492501e+00 -8.117608e-02 0.0
1.521715e+00 -5.995468e-02 0.0
1.544708e+00 -4.734621e-02 0.0
1.565078e+00 -4.193217e-02 0.0
1.585509e+00 -4.190719e-02 0.0
1.607753e+00 -4.509331e-02 0.0
1.631875e+00 -4.801015e-02 0.0
1.655747e+00 -4.650780e-02 0.0
1.675824e+00 -3.809324e-02 0.0
1.688790e+00 -2.355506e-02 0.0
1.693223e+00 -6.671655e-03 0.0
1.689873e+00 8.779168e-03 0.0
1.680057e+00 2.179173e-02 0.0
1.664973e+00 3.253720e-02 0.0
1.645397e+00 4.178637e-02 0.0
1.621597e+00 5.050501e-02 0.0
1.593384e+00 5.957202e-02 0.0
1.560285e+00 6.953774e-02 0.0
1.521793e+00 8.049023e-02 0.0
1.477562e+00 9.213061e-02 0.0
1.427545e+00 1.038820e-01 0.0
1.372056e+00 1.150565e-01 0.0
1.311764e+00 1.250268e-01 0.0
1.247659e+00 1.331820e-01 0.0
1.181035e+00 1.385997e-01 0.0
1.113744e+00 1.395998e-01 0.0
1.048809e+00 1.336395e-01 0.0
9.904511e-01 1.179813e-01 0.0
9.436863e-01 9.092413e-02 0.0
9.132310e-01 5.344177e-02 0.0
9.019019e-01 1.003088e-02 0.0
9.094330e-01 -3.333040e-02 0.0
9.344769e-01 -7.458991e-02 0.0
9.764281e-01 -1.143110e-01 0.0
1.035588e+00 -1.524746e-01 0.0
1.110790e+00 -1.853517e-01 0.0
1.198009e+00 -2.063570e-01 0.0
1.289663e+00 -2.089478e-01 0.0
1.376457e+00 -1.905581e-01 0.0
1.448944e+00 -1.517693e-01 0.0
1.499305e+00 -9.759389e-02 0.0
1.522751e+00 -3.685721e-02 0.0
1.518977e+00 2.148646e-02 0.0
1.490903e+00 7.501070e-02 0.0
1.442663e+00 1.223213e-01 0.0
1.379359e+00 1.607831e-01 0.0
1.306319e+00 1.868101e-01 0.0
1.228543e+00 1.970320e-01 0.0
1.151901e+00 1.898801e-01 0.0
1.081631e+00 1.682912e-01 0.0
1.020908e+00 1.379265e-01 0.0
9.714810e-01 1.039769e-01 0.0
9.338669e-01 7.078160e-02 0.0
9.077962e-01 4.098556e-02 0.0
8.925461e-01 1.572280e-02 0.0
8.870721e-01 -4.945032e-03 0.0
8.898741e-01 -2.192199e-02 0.0
8.999163e-01 -3.655699e-02 0.0
9.164561e-01 -4.955821e-02 0.0
9.388431e-01 -6.114088e-02 0.0
9.664956e-01 -7.130105e-02 0.0
9.986994e-01 -7.964696e-02 0.0
1.034465e+00 -8.567680e-02 0.0
1.072544e+00 -8.898868e-02 0.0
1.111550e+00 -8.946283e-02 0.0
1.150199e+00 -8.731268e-02 0.0
1.187310e+00 -8.272514e-02 0.0
1.221805e+00 -7.589616e-02 0.0
1.252733e+00 -6.706426e-02 0.0
1.279291e+00 -5.653707e-02 0.0
1.300853e+00 -4.471836e-02 0.0
1.316974e+00 -3.210952e-02 0.0
1.327304e+00 -1.922246e-02 0.0
1.331423e+00 -6.315890e-03 0.0
1.328808e+00 6.985760e-03 0.0
1.319091e+00 2.113907e-02 0.0
1.302145e+00 3.617341e-02 0.0
1.278351e+00 5.169730e-02 0.0
1.248908e+00 6.671682e-02 0.0
1.215959e+00 7.955099e-02 0.0
1.182244e+00 8.814918e-02 0.0
1.150359e+00 9.088169e-02 0.0
1.122104e+00 8.746842e-02 0.0
1.098371e+00 7.918395e-02 0.0
1.079223e+00 6.794423e-02 0.0
1.064170e+00 5.556246e-02 0.0
1.052692e+00 4.320013e-02 0.0
1.044310e+00 3.169218e-02 0.0
1.038631e+00 2.146490e-02 0.0
1.035391e+00 1.251839e-02 0.0
1.033536e+00 5.041539e-03 0.0
0.000000e+00 4.525492e-03 0.0
1.000000e+00 -6.786540e-02 0.0
1.020501e+00 -6.807800e-02 0.0
1.044121e+00 -7.677795e-02 0.0
1.074002e+00 -9.462305e-02 0.0
1.113940e+00 -1.219893e-01 0.0
1.168400e+00 -1.588750e-01 0.0
1.238810e+00 -1.971980e-01 0.0
1.339886e+00 -2.545688e-01 0.0
1.419477e+00 -2.207400e-01 0.0
1.471435e+00 -1.625088e-01 0.0
1.504717e+00 -1.145090e-01 0.0
1.527150e+00 -8.243843e-02 0.0
1.543855e+00 -6.410241e-02 0.0
1.558134e+00 -5.626212e-02 0.0
1.572474e+00 -5.629842e-02 0.0
1.589252e+00 -6.192150e-02 0.0
1.609793e+00 -6.860204e-02 0.0
1.632638e+00 -6.940404e-02 0.0
1.653964e+00 -5.947066e-02 0.0
1.669433e+00 -3.907421e-02 0.0
1.676233e+00 -1.352270e-02 0.0
1.674776e+00 1.018447e-02 0.0
1.666794e+00 2.972310e-02 0.0
1.653795e+00 4.548499e-02 0.0
1.636694e+00 5.883688e-02 0.0
1.615798e+00 7.134980e-02 0.0
1.590879e+00 8.443952e-02 0.0
1.561388e+00 9.897818e-02 0.0
1.526693e+00 1.151343e-01 0.0
1.486320e+00 1.324524e-01 0.0
1.440140e+00 1.500112e-01 0.0
1.388449e+00 1.666960e-01 0.0
1.331953e+00 1.814724e-01 0.0
1.271667e+00 1.934169e-01 0.0
1.208905e+00 2.013103e-01 0.0
1.145509e+00 2.029449e-01 0.0
1.084280e+00 1.948169e-01 0.0
1.028757e+00 1.734538e-01 0.0
9.823552e-01 1.372746e-01 0.0
9.474431e-01 8.830278e-02 0.0
9.253394e-01 3.208343e-02 0.0
9.167854e-01 -2.482750e-02 0.0
9.224519e-01 -8.030763e-02 0.0
9.438293e-01 -1.357395e-01 0.0
9.807228e-01 -1.894193e-01 0.0
1.031167e+00 -2.358468e-01 0.0
1.092021e+00 -2.672623e-01 0.0
1.158654e+00 -2.756321e-01 0.0
1.224593e+00 -2.565487e-01 0.0
1.283047e+00 -2.102739e-01 0.0
1.327780e+00 -1.423780e-01 0.0
1.354069e+00 -6.319747e-02 0.0
1.359946e+00 1.555766e-02 0.0
1.347794e+00 8.711183e-02 0.0
1.321389e+00 1.486748e-01 0.0
1.284888e+00 1.972334e-01 0.0
1.241963e+00 2.296833e-01 0.0
1.195424e+00 2.435193e-01 0.0
1.147450e+00 2.378030e-01 0.0
1.100452e+00 2.152386e-01 0.0
1.056789e+00 1.815380e-01 0.0
1.017747e+00 1.429678e-01 0.0
9.837920e-01 1.046850e-01 0.0
9.553668e-01 6.935947e-02 0.0
9.330448e-01 3.799350e-02 0.0
9.174516e-01 1.059676e-02 0.0
9.087180e-01 -1.323965e-02 0.0
9.064088e-01 -3.429915e-02 0.0
9.101272e-01 -5.332796e-02 0.0
9.196666e-01 -7.073161e-02 0.0
9.346354e-01 -8.632122e-02 0.0
9.544184e-01 -9.948130e-02 0.0
9.781758e-01 -1.094856e-01 0.0
1.004870e+00 -1.157347e-01 0.0
1.033273e+00 -1.179167e-01 0.0
1.062101e+00 -1.161917e-01 0.0
1.090222e+00 -1.108980e-01 0.0
1.116659e+00 -1.023846e-01 0.0
1.140590e+00 -9.104633e-02 0.0
1.161338e+00 -7.733635e-02 0.0
1.178348e+00 -6.178027e-02 0.0
1.191135e+00 -4.494803e-02 0.0
1.199179e+00 -2.731741e-02 0.0
1.201848e+00 -9.036293e-03 0.0
1.198662e+00 1.011975e-02 0.0
1.189849e+00 2.990136e-02 0.0
1.176248e+00 4.972265e-02 0.0
1.159393e+00 6.850099e-02 0.0
1.141452e+00 8.460600e-02 0.0
1.124821e+00 9.613145e-02 0.0
1.111408e+00 1.015102e-01 0.0
1.101990e+00 1.002479e-01 0.0
1.095923e+00 9.348407e-02 0.0
1.092085e+00 8.297106e-02 0.0
1.089437e+00 7.054078e-02 0.0
1.087258e+00 5.768959e-02 0.0
1.085021e+00 4.538575e-02 0.0
1.082510e+00 3.415149e-02 0.0
1.079808e+00 2.411578e-02 0.0
1.077077e+00 1.519821e-02 0.0
1.075387e+00 6.680441e-03 0.0
0.000000e+00 6.217942e-03 0.0
1.000000e+00 -8.375525e-02 0.0
1.015766e+00 -8.403899e-02 0.0
1.034580e+00 -9.564315e-02 0.0
1.059833e+00 -1.199264e-01 0.0
1.096441e+00 -1.586488e-01 0.0
1.151550e+00 -2.140344e-01 0.0
1.230769e+00 -2.764683e-01 0.0
1.365391e+00 -3.892409e-01 0.0
1.444502e+00 -2.999025e-01 0.0
1.481978e+00 -2.000353e-01 0.0
1.500463e+00 -1.330453e-01 0.0
1.510131e+00 -9.215732e-02 0.0
1.515166e+00 -6.918816e-02 0.0
1.517760e+00 -5.890666e-02 0.0
1.519616e+00 -5.820560e-02 0.0
1.523553e+00 -6.590913e-02 0.0
1.533438e+00 -7.853787e-02 0.0
1.550439e+00 -8.645664e-02 0.0
1.571158e+00 -8.024026e-02 0.0
1.590482e+00 -5.844930e-02 0.0
1.603260e+00 -2.635196e-02 0.0
1.607006e+00 6.387886e-03 0.0
1.603892e+00 3.278627e-02 0.0
1.596047e+00 5.327890e-02 0.0
1.584574e+00 7.025831e-02 0.0
1.569835e+00 8.603774e-02 0.0
1.551475e+00 1.027491e-01 0.0
1.528688e+00 1.217144e-01 0.0
1.500605e+00 1.431663e-01 0.0
1.466542e+00 1.664638e-01 0.0
1.426211e+00 1.902913e-01 0.0
1.379836e+00 2.130200e-01 0.0
1.328155e+00 2.331026e-01 0.0
1.272295e+00 2.492253e-01 0.0
1.213608e+00 2.599461e-01 0.0
1.153858e+00 2.626446e-01 0.0
1.095796e+00 2.528273e-01 0.0
1.042567e+00 2.266322e-01 0.0
9.961252e-01 1.836648e-01 0.0
9.565652e-01 1.278117e-01 0.0
9.245932e-01 6.400435e-02 0.0
9.046312e-01 -4.916619e-03 0.0
9.006390e-01 -7.636655e-02 0.0
9.128752e-01 -1.480269e-01 0.0
9.386566e-01 -2.152518e-01 0.0
9.743374e-01 -2.715788e-01 0.0
1.016450e+00 -3.094257e-01 0.0
1.061897e+00 -3.211309e-01 0.0
1.107081e+00 -3.017834e-01 0.0
1.148230e+00 -2.514743e-01 0.0
1.181604e+00 -1.758036e-01 0.0
1.203857e+00 -8.550117e-02 0.0
1.213055e+00 6.308658e-03 0.0
1.210349e+00 8.976654e-02 0.0
1.198448e+00 1.605239e-01 0.0
1.180162e+00 2.154682e-01 0.0
1.157784e+00 2.520107e-01 0.0
1.132802e+00 2.684498e-01 0.0
1.105827e+00 2.647267e-01 0.0
1.077451e+00 2.435634e-01 0.0
1.048437e+00 2.105000e-01 0.0
1.019630e+00 1.717244e-01 0.0
9.921074e-01 1.321559e-01 0.0
9.667920e-01 9.462356e-02 0.0
9.444596e-01 6.027460e-02 0.0
9.258581e-01 2.914692e-02 0.0
9.117789e-01 7.882232e-04 0.0
9.026200e-01 -2.519157e-02 0.0
8.985799e-01 -4.933926e-02 0.0
8.996626e-01 -7.186564e-02 0.0
9.056632e-01 -9.237316e-02 0.0
9.161628e-01 -1.100322e-01 0.0
9.304988e-01 -1.238730e-01 0.0
9.477808e-01 -1.330681e-01 0.0
9.669537e-01 -1.371409e-01 0.0
9.868429e-01 -1.361323e-01 0.0
1.006388e+00 -1.304943e-01 0.0
1.024709e+00 -1.207570e-01 0.0
1.041111e+00 -1.074996e-01 0.0
1.055041e+00 -9.131784e-02 0.0
1.066016e+00 -7.280713e-02 0.0
1.073537e+00 -5.252042e-02 0.0
1.077056e+00 -3.088783e-02 0.0
1.076144e+00 -8.175676e-03 0.0
1.071153e+00 1.505979e-02 0.0
1.063260e+00 3.774306e-02 0.0
1.054162e+00 5.876842e-02 0.0
1.045878e+00 7.673382e-02 0.0
1.040331e+00 9.010147e-02 0.0
1.038773e+00 9.763806e-02 0.0
1.041323e+00 9.890878e-02 0.0
1.046744e+00 9.477570e-02 0.0
1.053371e+00 8.680546e-02 0.0
1.059749e+00 7.654140e-02 0.0
1.064870e+00 6.536830e-02 0.0
1.068212e+00 5.429685e-02 0.0
1.069652e+00 4.389420e-02 0.0
1.069411e+00 3.434054e-02 0.0
1.067964e+00 2.551127e-02 0.0
1.065865e+00 1.724597e-02 0.0
1.064565e+00 7.929197e-03 0.0
0.000000e+00 7.564553e-03 0.0
1.000000e+00 -9.323769e-02 0.0
1.009356e+00 -9.358976e-02 0.0
1.021227e+00 -1.075657e-01 0.0
1.038830e+00 -1.375803e-01 0.0
1.068060e+00 -1.879295e-01 0.0
1.119491e+00 -2.655164e-01 0.0
1.208028e+00 -3.650559e-01 0.0
1.385236e+00 -5.664998e-01 0.0
1.438990e+00 -3.537075e-01 0.0
1.444339e+00 -2.054348e-01 0.0
1.437505e+00 -1.262625e-01 0.0
1.427152e+00 -8.185566e-02 0.0
1.414547e+00 -5.663416e-02 0.0
1.399367e+00 -4.377725e-02 0.0
1.381459e+00 -4.034858e-02 0.0
1.362126e+00 -4.662719e-02 0.0
1.347646e+00 -6.410877e-02 0.0
1.346363e+00 -8.522459e-02 0.0
1.358558e+00 -9.248595e-02 0.0
1.379458e+00 -7.940007e-02 0.0
1.402997e+00 -4.994259e-02 0.0
1.421194e+00 -1.185917e-02 0.0
1.431085e+00 2.284372e-02 0.0
1.436456e+00 4.785656e-02 0.0
1.438692e+00 6.797195e-02 0.0
1.438317e+00 8.636176e-02 0.0
1.434761e+00 1.062534e-01 0.0
1.426671e+00 1.297536e-01 0.0
1.412736e+00 1.570505e-01 0.0
1.391884e+00 1.872644e-01 0.0
1.363534e+00 2.185909e-01 0.0
1.327758e+00 2.487447e-01 0.0
1.285301e+00 2.755081e-01 0.0
1.237438e+00 2.970373e-01 0.0
1.185723e+00 3.116099e-01 0.0
1.131861e+00 3.164561e-01 0.0
1.078108e+00 3.065295e-01 0.0
1.026610e+00 2.780783e-01 0.0
9.779760e-01 2.322480e-01 0.0
9.324240e-01 1.733125e-01 0.0
8.937468e-01 1.026304e-01 0.0
8.697145e-01 1.906464e-02 0.0
8.653708e-01 -7.207400e-02 0.0
8.771461e-01 -1.598534e-01 0.0
8.985652e-01 -2.367221e-01 0.0
9.250142e-01 -2.980790e-01 0.0
9.540023e-01 -3.384650e-01 0.0
9.839002e-01 -3.510801e-01 0.0
1.012930e+00 -3.308641e-01 0.0
1.039409e+00 -2.780045e-01 0.0
1.061769e+00 -1.982152e-01 0.0
1.078337e+00 -1.021200e-01 0.0
1.087662e+00 -3.067218e-03 0.0
1.090058e+00 8.731932e-02 0.0
1.087104e+00 1.634267e-01 0.0
1.080462e+00 2.220582e-01 0.0
1.071417e+00 2.610043e-01 0.0
1.060610e+00 2.792062e-01 0.0
1.047842e+00 2.774431e-01 0.0
1.032694e+00 2.586606e-01 0.0
1.015098e+00 2.280448e-01 0.0
9.955243e-01 1.912464e-01 0.0
9.748592e-01 1.527697e-01 0.0
9.540980e-01 1.153334e-01 0.0
9.342478e-01 8.007345e-02 0.0
9.162661e-01 4.707728e-02 0.0
9.010360e-01 1.596702e-02 0.0
8.893479e-01 -1.355481e-02 0.0
8.814978e-01 -4.154048e-02 0.0
8.775518e-01 -6.797105e-02 0.0
8.774508e-01 -9.232350e-02 0.0
8.810065e-01 -1.136393e-01 0.0
8.878369e-01 -1.307548e-01 0.0
8.973219e-01 -1.426045e-01 0.0
9.086261e-01 -1.484964e-01 0.0
9.207340e-01 -1.482915e-01 0.0
9.326495e-01 -1.424612e-01 0.0
9.435535e-01 -1.317123e-01 0.0
9.528345e-01 -1.168320e-01 0.0
9.600471e-01 -9.858191e-02 0.0
9.648374e-01 -7.764881e-02 0.0
9.669060e-01 -5.464044e-02 0.0
9.661196e-01 -3.015286e-02 0.0
9.628987e-01 -5.006167e-03 0.0
9.585242e-01 1.938292e-02 0.0
9.545811e-01 4.163475e-02 0.0
9.527058e-01 6.059226e-02 0.0
9.542444e-01 7.514383e-02 0.0
9.598379e-01 8.445656e-02 0.0
9.691430e-01 8.828158e-02 0.0
9.808358e-01 8.716455e-02 0.0
9.931519e-01 8.240811e-02 0.0
1.004634e+00 7.527227e-02 0.0
1.014228e+00 6.689549e-02 0.0
1.021367e+00 5.817806e-02 0.0
1.025925e+00 4.968749e-02 0.0
1.028115e+00 4.165267e-02 0.0
1.028386e+00 3.401847e-02 0.0
1.027347e+00 2.649838e-02 0.0
1.025709e+00 1.883247e-02 0.0
1.024823e+00 8.763893e-03 0.0
0.000000e+00 8.492084e-03 0.0
1.000000e+00 -9.488114e-02 0.0
1.001511e+00 -9.529533e-02 0.0
1.004199e+00 -1.103052e-01 0.0
1.010005e+00 -1.434371e-01 0.0
1.024158e+00 -2.021332e-01 0.0
1.058947e+00 -3.003565e-01 0.0
1.142174e+00 -4.483339e-01 0.0
1.353888e+00 -7.782643e-01 0.0
1.335989e+00 -3.358599e-01 0.0
1.283105e+00 -1.526008e-01 0.0
1.241030e+00 -8.423882e-02 0.0
1.206996e+00 -4.787233e-02 0.0
1.175494e+00 -2.518288e-02 0.0
1.141888e+00 -1.022299e-02 0.0
1.103193e+00 -1.704112e-03 0.0
1.054407e+00 2.107945e-03 0.0
9.986962e-01 -8.449065e-03 0.0
9.549600e-01 -4.153933e-02 0.0
9.407905e-01 -7.836739e-02 0.0
9.526357e-01 -9.129629e-02 0.0
9.836480e-01 -8.100583e-02 0.0
1.027022e+00 -5.528459e-02 0.0
1.072231e+00 -2.241626e-02 0.0
1.110339e+00 9.698017e-03 0.0
1.142836e+00 3.542397e-02 0.0
1.172232e+00 5.691468e-02 0.0
1.198117e+00 8.031744e-02 0.0
1.218044e+00 1.097760e-01 0.0
1.230286e+00 1.447570e-01 0.0
1.233334e+00 1.841655e-01 0.0
1.226273e+00 2.256003e-01 0.0
1.209053e+00 2.659144e-01 0.0
1.182494e+00 3.020158e-01 0.0
1.148171e+00 3.313092e-01 0.0
1.108201e+00 3.515290e-01 0.0
1.064522e+00 3.600839e-01 0.0
1.017319e+00 3.536811e-01 0.0
9.646912e-01 3.306551e-01 0.0
9.057208e-01 2.911673e-01 0.0
8.488987e-01 2.300834e-01 0.0
8.115079e-01 1.399700e-01 0.0
8.031248e-01 2.739666e-02 0.0
8.170141e-01 -8.601446e-02 0.0
8.404330e-01 -1.833235e-01 0.0
8.649483e-01 -2.612886e-01 0.0
8.872937e-01 -3.204756e-01 0.0
9.072318e-01 -3.584542e-01 0.0
9.252501e-01 -3.691496e-01 0.0
9.413891e-01 -3.470543e-01 0.0
9.556392e-01 -2.923058e-01 0.0
9.680969e-01 -2.107241e-01 0.0
9.785071e-01 -1.125815e-01 0.0
9.861123e-01 -1.072363e-02 0.0
9.905671e-01 8.281327e-02 0.0
9.924860e-01 1.614566e-01 0.0
9.926657e-01 2.218272e-01 0.0
9.916714e-01 2.619473e-01 0.0
9.895439e-01 2.812825e-01 0.0
9.856239e-01 2.813119e-01 0.0
9.789976e-01 2.652356e-01 0.0
9.691722e-01 2.378189e-01 0.0
9.563448e-01 2.040225e-01 0.0
9.413266e-01 1.677365e-01 0.0
9.252873e-01 1.313214e-01 0.0
9.094645e-01 9.584491e-02 0.0
8.948867e-01 6.160376e-02 0.0
8.822150e-01 2.858741e-02 0.0
8.718339e-01 -3.225051e-03 0.0
8.638502e-01 -3.360815e-02 0.0
8.581529e-01 -6.232501e-02 0.0
8.546770e-01 -8.889900e-02 0.0
8.534369e-01 -1.124505e-01 0.0
8.544024e-01 -1.317716e-01 0.0
8.573497e-01 -1.456032e-01 0.0
8.617885e-01 -1.529866e-01 0.0
8.669815e-01 -1.535358e-01 0.0
8.720865e-01 -1.476176e-01 0.0
8.763701e-01 -1.360473e-01 0.0
8.793012e-01 -1.198144e-01 0.0
8.805760e-01 -9.990813e-02 0.0
8.801198e-01 -7.724397e-02 0.0
8.781345e-01 -5.270661e-02 0.0
8.752382e-01 -2.730795e-02 0.0
8.725792e-01 -2.398567e-03 0.0
8.715132e-01 2.039750e-02 0.0
8.731500e-01 3.994660e-02 0.0
8.782410e-01 5.544980e-02 0.0
8.869492e-01 6.638422e-02 0.0
8.987115e-01 7.264278e-02 0.0
9.123143e-01 7.462744e-02 0.0
9.262120e-01 7.321536e-02 0.0
9.391266e-01 6.944214e-02 0.0
9.501339e-01 6.421352e-02 0.0
9.587014e-01 5.827653e-02 0.0
9.646776e-01 5.215047e-02 0.0
9.682154e-01 4.609827e-02 0.0
9.696731e-01 4.014351e-02 0.0
9.695340e-01 3.410616e-02 0.0
9.683746e-01 2.760627e-02 0.0
9.668749e-01 2.028075e-02 0.0
9.663793e-01 9.208114e-03 0.0
0.000000e+00 8.996792e-03 0.0
1.000000e+00 -8.798651e-02 0.0
9.929616e-01 -8.845195e-02 0.0
9.848420e-01 -1.022365e-01 0.0
9.745617e-01 -1.332076e-01 0.0
9.625830e-01 -1.902054e-01 0.0
9.540569e-01 -2.918813e-01 0.0
9.756084e-01 -4.699362e-01 0.0
1.130566e+00 -9.332724e-01 0.0
9.793929e-01 -1.845940e-01 0.0
8.427832e-01 -1.589779e-02 0.0
7.714465e-01 -1.295308e-02 0.0
7.240800e-01 -5.567602e-04 0.0
6.780221e-01 2.082410e-02 0.0
6.220303e-01 4.571786e-02 0.0
5.520885e-01 6.818682e-02 0.0
4.747977e-01 7.934783e-02 0.0
4.065709e-01 5.972674e-02 0.0
3.576318e-01 7.348845e-03 0.0
3.361366e-01 -5.692319e-02 0.0
3.487263e-01 -1.039369e-01 0.0
3.880204e-01 -1.203509e-01 0.0
4.501385e-01 -1.174537e-01 0.0
5.315747e-01 -1.039034e-01 0.0
6.254474e-01 -8.422575e-02 0.0
7.200220e-01 -5.920155e-02 0.0
8.041888e-01 -2.730317e-02 0.0
8.727637e-01 1.169151e-02 0.0
9.286521e-01 5.383654e-02 0.0
9.733256e-01 1.000325e-01 0.0
1.005442e+00 1.519985e-01 0.0
1.023873e+00 2.071181e-01 0.0
1.028505e+00 2.612310e-01 0.0
1.020190e+00 3.102797e-01 0.0
1.000451e+00 3.509972e-01 0.0
9.709553e-01 3.809737e-01 0.0
9.319511e-01 3.990369e-01 0.0
8.789630e-01 4.066181e-01 0.0
8.116592e-01 3.979079e-01 0.0
7.463069e-01 3.564686e-01 0.0
7.090066e-01 2.673326e-01 0.0
7.111811e-01 1.377444e-01 0.0
7.415047e-01 -2.978103e-03 0.0
7.807029e-01 -1.252638e-01 0.0
8.174282e-01 -2.200999e-01 0.0
8.464046e-01 -2.903161e-01 0.0
8.664275e-01 -3.405497e-01 0.0
8.792444e-01 -3.713223e-01 0.0
8.874600e-01 -3.774164e-01 0.0
8.929276e-01 -3.525731e-01 0.0
8.968979e-01 -2.963273e-01 0.0
9.005432e-01 -2.144207e-01 0.0
9.046193e-01 -1.167088e-01 0.0
9.089656e-01 -1.512115e-02 0.0
9.129899e-01 7.873773e-02 0.0
9.166286e-01 1.577666e-01 0.0
9.200239e-01 2.183807e-01 0.0
9.231725e-01 2.587475e-01 0.0
9.256293e-01 2.787744e-01 0.0
9.264062e-01 2.804836e-01 0.0
9.243526e-01 2.672379e-01 0.0
9.188411e-01 2.432791e-01 0.0
9.101024e-01 2.127099e-01 0.0
8.991747e-01 1.786130e-01 0.0
8.875401e-01 1.429047e-01 0.0
8.766111e-01 1.067225e-01 0.0
8.672909e-01 7.087270e-02 0.0
8.597944e-01 3.603253e-02 0.0
8.537967e-01 2.721314e-03 0.0
8.487644e-01 -2.862719e-02 0.0
8.441335e-01 -5.774539e-02 0.0
8.396334e-01 -8.445026e-02 0.0
8.353940e-01 -1.082625e-01 0.0
8.317646e-01 -1.281936e-01 0.0
8.290403e-01 -1.429303e-01 0.0
8.272540e-01 -1.512517e-01 0.0
8.261171e-01 -1.524502e-01 0.0
8.251095e-01 -1.466614e-01 0.0
8.237125e-01 -1.347017e-01 0.0
8.215593e-01 -1.177126e-01 0.0
8.185450e-01 -9.694519e-02 0.0
8.149096e-01 -7.366002e-02 0.0
8.112842e-01 -4.913258e-02 0.0
8.086425e-01 -2.471767e-02 0.0
8.080400e-01 -1.847493e-03 0.0
8.101916e-01 1.819447e-02 0.0
8.154090e-01 3.467785e-02 0.0
8.235727e-01 4.723470e-02 0.0
8.340967e-01 5.580878e-02 0.0
8.460070e-01 6.068105e-02 0.0
8.581403e-01 6.244273e-02 0.0
8.694471e-01 6.185714e-02 0.0
8.792200e-01 5.961783e-02 0.0
8.870514e-01 5.633071e-02 0.0
8.928190e-01 5.245743e-02 0.0
8.966342e-01 4.828384e-02 0.0
8.987624e-01 4.391872e-02 0.0
8.995448e-01 3.930968e-02 0.0
8.993461e-01 3.425343e-02 0.0
8.985510e-01 2.834986e-02 0.0
8.976111e-01 2.116928e-02 0.0
8.977024e-01 9.065385e-03 0.0
0.000000e+00 8.875465e-03 0.0
1.000000e+00 -7.318889e-02 0.0
9.850431e-01 -7.369009e-02 0.0
9.664091e-01 -8.365330e-02 0.0
9.388763e-01 -1.057257e-01 0.0
8.939132e-01 -1.452932e-01 0.0
8.144528e-01 -2.124719e-01 0.0
6.748400e-01 -3.303742e-01 0.0
1.848824e-01 -4.432214e-01 0.0
-9.772518e-01 4.419402e-01 0.0
0.000000e+00 -1.787225e-02 0.0
-4.814976e-02 1.910377e-02 0.0
-2.293237e-02 -2.582508e-02 0.0
9.794074e-03 -1.195327e-02 0.0
3.635131e-02 1.910969e-02 0.0
4.498132e-02 5.950588e-02 0.0
4.344831e-02 8.082990e-02 0.0
2.458513e-02 7.853898e-02 0.0
-1.165092e-02 4.353395e-02 0.0
-5.438474e-02 -1.424033e-02 0.0
-8.255900e-02 -7.581361e-02 0.0
-7.546027e-02 -1.275006e-01 0.0
-2.827003e-02 -1.646949e-01 0.0
5.643380e-02 -1.886582e-01 0.0
1.702519e-01 -1.980949e-01 0.0
2.998633e-01 -1.888639e-01 0.0
4.326379e-01 -1.601288e-01 0.0
5.544198e-01 -1.101415e-01 0.0
6.509863e-01 -4.278091e-02 0.0
7.214979e-01 2.946984e-02 0.0
7.741020e-01 9.934338e-02 0.0
8.094827e-01 1.716864e-01 0.0
8.276415e-01 2.430212e-01 0.0
8.289269e-01 3.089432e-01 0.0
8.135636e-01 3.663094e-01 0.0
7.809087e-01 4.135775e-01 0.0
7.295959e-01 4.502987e-01 0.0
6.646979e-01 4.714650e-01 0.0
6.071126e-01 4.554421e-01 0.0
5.827846e-01 3.807455e-01 0.0
6.007307e-01 2.493355e-01 0.0
6.494431e-01 8.898082e-02 0.0
7.091689e-01 -6.275507e-02 0.0
7.654785e-01 -1.816245e-01 0.0
8.117467e-01 -2.664193e-01 0.0
8.444187e-01 -3.230392e-01 0.0
8.626998e-01 -3.588819e-01 0.0
8.692556e-01 -3.779293e-01 0.0
8.687519e-01 -3.769639e-01 0.0
8.651007e-01 -3.489731e-01 0.0
8.605451e-01 -2.918229e-01 0.0
8.566617e-01 -2.105884e-01 0.0
8.546491e-01 -1.147475e-01 0.0
8.548378e-01 -1.536103e-02 0.0
8.567373e-01 7.678702e-02 0.0
8.598825e-01 1.545701e-01 0.0
8.639230e-01 2.142890e-01 0.0
8.683554e-01 2.542638e-01 0.0
8.722857e-01 2.747928e-01 0.0
8.744797e-01 2.782384e-01 0.0
8.737665e-01 2.678998e-01 0.0
8.697267e-01 2.472677e-01 0.0
8.629897e-01 2.193956e-01 0.0
8.550358e-01 1.865155e-01 0.0
8.476161e-01 1.502732e-01 0.0
8.420993e-01 1.121879e-01 0.0
8.390533e-01 7.386739e-02 0.0
8.381766e-01 3.685786e-02 0.0
8.385004e-01 2.346183e-03 0.0
8.387379e-01 -2.891602e-02 0.0
8.376552e-01 -5.671402e-02 0.0
8.344705e-01 -8.131685e-02 0.0
8.291504e-01 -1.029937e-01 0.0
8.222627e-01 -1.213574e-01 0.0
8.146251e-01 -1.353439e-01 0.0
8.069317e-01 -1.436097e-01 0.0
7.995497e-01 -1.451196e-01 0.0
7.925259e-01 -1.396890e-01 0.0
7.857749e-01 -1.280021e-01 0.0
7.792459e-01 -1.112349e-01 0.0
7.730493e-01 -9.080005e-02 0.0
7.675419e-01 -6.820394e-02 0.0
7.633006e-01 -4.494271e-02 0.0
7.609597e-01 -2.242814e-02 0.0
7.609448e-01 -1.884009e-03 0.0
7.633482e-01 1.573967e-02 0.0
7.679884e-01 2.998620e-02 0.0
7.744054e-01 4.076624e-02 0.0
7.819368e-01 4.822596e-02 0.0
7.898500e-01 5.271644e-02 0.0
7.974936e-01 5.474778e-02 0.0
8.044087e-01 5.489062e-02 0.0
8.103617e-01 5.361340e-02 0.0
8.152999e-01 5.134107e-02 0.0
8.192980e-01 4.840784e-02 0.0
8.224973e-01 4.503312e-02 0.0
8.250529e-01 4.131176e-02 0.0
8.270940e-01 3.721708e-02 0.0
8.286978e-01 3.259821e-02 0.0
8.298931e-01 2.710315e-02 0.0
8.306868e-01 2.032416e-02 0.0
8.317541e-01 7.946625e-03 0.0
0.000000e+00 7.752608e-03 0.0
1.000000e+00 -5.269767e-02 0.0
9.793311e-01 -5.321623e-02 0.0
9.533088e-01 -5.768186e-02 0.0
9.141685e-01 -6.663628e-02 0.0
8.481050e-01 -7.928060e-02 0.0
7.258444e-01 -9.026209e-02 0.0
4.745060e-01 -7.908672e-02 0.0
-5.390287e-03 3.676814e-02 0.0
-1.474218e-04 0.000000e+00 0.0
0.000000e+00 -0.000000e+00 0.0
0.000000e+00 4.520662e-02 0.0
1.971246e-02 -4.558846e-02 0.0
-3.624323e-02 4.395150e-02 0.0
-8.456977e-02 6.738530e-02 0.0
-1.272965e-01 1.021816e-01 0.0
-1.577573e-01 1.112398e-01 0.0
-1.818727e-01 1.026035e-01 0.0
-2.118606e-01 7.347086e-02 0.0
-2.492281e-01 2.307623e-02 0.0
-2.820727e-01 -4.301995e-02 0.0