# vtk DataFile Version 3.0
Vector Field
ASCII
DATASET RECTILINEAR_GRID
DIMENSIONS 102 22 1
X_COORDINATES 102 double
0.000000 0.100000 0.200000 0.300000 0.400000 0.500000 0.600000 0.700000 0.800000 0.900000 1.000000 1.100000 1.200000 1.300000 1.400000 1.500000 1.600000 1.700000 1.800000 1.900000 2.000000 2.100000 2.200000 2.300000 2.400000 2.500000 2.600000 2.700000 2.800000 2.900000 3.000000 3.100000 3.200000 3.300000 3.400000 3.500000 3.600000 3.700000 3.800000 3.900000 4.000000 4.100000 4.200000 4.300000 4.400000 4.500000 4.600000 4.700000 4.800000 4.900000 5.000000 5.100000 5.200000 5.300000 5.400000 5.500000 5.600000 5.700000 5.800000 5.900000 6.000000 6.100000 6.200000 6.300000 6.400000 6.500000 6.600000 6.700000 6.800000 6.900000 7.000000 7.100000 7.200000 7.300000 7.400000 7.500000 7.600000 7.700000 7.800000 7.900000 8.000000 8.100000 8.200000 8.300000 8.400000 8.500000 8.600000 8.700000 8.800000 8.900000 9.000000 9.100000 9.200000 9.300000 9.400000 9.500000 9.600000 9.700000 9.800000 9.900000 10.000000 10.100000 
Y_COORDINATES 22 double
0.000000 0.100000 0.200000 0.300000 0.400000 0.500000 0.600000 0.700000 0.800000 0.900000 1.000000 1.100000 1.200000 1.300000 1.400000 1.500000 1.600000 1.700000 1.800000 1.900000 2.000000 2.100000 
Z_COORDINATES 1 double
0.0
POINT_DATA 2244
VECTORS Velocity double
0.000000e+00 0.000000e+00 0.0
-1.028917e+00 0.000000e+00 0.0
-1.060805e+00 0.000000e+00 0.0
-1.098774e+00 0.000000e+00 0.0
-1.145576e+00 0.000000e+00 0.0
-1.203299e+00 0.000000e+00 0.0
-1.271376e+00 0.000000e+00 0.0
-1.349273e+00 0.000000e+00 0.0
-1.419859e+00 0.000000e+00 0.0
-1.472346e+00 0.000000e+00 0.0
-1.505365e+00 0.000000e+00 0.0
-1.522039e+00 0.000000e+00 0.0
-1.526468e+00 0.000000e+00 0.0
-1.522200e+00 0.000000e+00 0.0
-1.511794e+00 0.000000e+00 0.0
-1.497056e+00 0.000000e+00 0.0
-1.479279e+00 0.000000e+00 0.0
-1.459421e+00 0.000000e+00 0.0
-1.438310e+00 0.000000e+00 0.0
-1.417039e+00 0.000000e+00 0.0
-1.397563e+00 0.000000e+00 0.0
-1.383248e+00 0.000000e+00 0.0
-1.378544e+00 0.000000e+00 0.0
-1.387179e+00 0.000000e+00 0.0
-1.409808e+00 0.000000e+00 0.0
-1.442852e+00 0.000000e+00 0.0
-1.479774e+00 0.000000e+00 0.0
-1.513881e+00 0.000000e+00 0.0
-1.540421e+00 0.000000e+00 0.0
-1.557087e+00 0.000000e+00 0.0
-1.563569e+00 0.000000e+00 0.0
-1.560499e+00 0.000000e+00 0.0
-1.548172e+00 0.000000e+00 0.0
-1.526471e+00 0.000000e+00 0.0
-1.495190e+00 0.000000e+00 0.0
-1.454266e+00 0.000000e+00 0.0
-1.403958e+00 0.000000e+00 0.0
-1.344905e+00 0.000000e+00 0.0
-1.278083e+00 0.000000e+00 0.0
-1.204822e+00 0.000000e+00 0.0
-1.127076e+00 0.000000e+00 0.0
-1.047861e+00 0.000000e+00 0.0
-9.711636e-01 0.000000e+00 0.0
-9.018309e-01 0.000000e+00 0.0
-8.450045e-01 0.000000e+00 0.0
-8.050875e-01 0.000000e+00 0.0
-7.846940e-01 0.000000e+00 0.0
-7.840991e-01 0.000000e+00 0.0
-8.018949e-01 0.000000e+00 0.0
-8.365508e-01 0.000000e+00 0.0
-8.864366e-01 0.000000e+00 0.0
-9.496153e-01 0.000000e+00 0.0
-1.023494e+00 0.000000e+00 0.0
-1.104583e+00 0.000000e+00 0.0
-1.188552e+00 0.000000e+00 0.0
-1.270837e+00 0.000000e+00 0.0
-1.346880e+00 0.000000e+00 0.0
-1.412387e+00 0.000000e+00 0.0
-1.463756e+00 0.000000e+00 0.0
-1.498546e+00 0.000000e+00 0.0
-1.515803e+00 0.000000e+00 0.0
-1.515403e+00 0.000000e+00 0.0
-1.496261e+00 0.000000e+00 0.0
-1.456730e+00 0.000000e+00 0.0
-1.395335e+00 0.000000e+00 0.0
-1.312557e+00 0.000000e+00 0.0
-1.213746e+00 0.000000e+00 0.0
-1.110349e+00 0.000000e+00 0.0
-1.015488e+00 0.000000e+00 0.0
-9.383214e-01 0.000000e+00 0.0
-8.829082e-01 0.000000e+00 0.0
-8.489633e-01 0.000000e+00 0.0
-8.334571e-01 0.000000e+00 0.0
-8.323525e-01 0.000000e+00 0.0
-8.418528e-01 0.000000e+00 0.0
-8.593494e-01 0.000000e+00 0.0
-8.831564e-01 0.000000e+00 0.0
-9.121073e-01 0.000000e+00 0.0
-9.452874e-01 0.000000e+00 0.0
-9.818222e-01 0.000000e+00 0.0
-1.020758e+00 0.000000e+00 0.0
-1.061073e+00 0.000000e+00 0.0
-1.101756e+00 0.000000e+00 0.0
-1.141878e+00 0.000000e+00 0.0
-1.180589e+00 0.000000e+00 0.0
-1.217093e+00 0.000000e+00 0.0
-1.250630e+00 0.000000e+00 0.0
-1.280490e+00 0.000000e+00 0.0
-1.306029e+00 0.000000e+00 0.0
-1.326723e+00 0.000000e+00 0.0
-1.342230e+00 0.000000e+00 0.0
-1.352477e+00 0.000000e+00 0.0
-1.357698e+00 0.000000e+00 0.0
-1.358286e+00 0.000000e+00 0.0
-1.354330e+00 0.000000e+00 0.0
-1.345633e+00 0.000000e+00 0.0
-1.331999e+00 0.000000e+00 0.0
-1.313441e+00 0.000000e+00 0.0
-1.290710e+00 0.000000e+00 0.0
-1.265339e+00 0.000000e+00 0.0
-1.265339e+00 0.000000e+00 0.0
0.000000e+00 0.000000e+00 0.0
1.000000e+00 -2.868043e-02 0.0
1.029046e+00 -2.879685e-02 0.0
1.061065e+00 -3.187577e-02 0.0
1.099183e+00 -3.797455e-02 0.0
1.146161e+00 -4.683466e-02 0.0
1.204099e+00 -5.779458e-02 0.0
1.272434e+00 -6.819173e-02 0.0
1.350662e+00 -7.808514e-02 0.0
1.421609e+00 -7.080385e-02 0.0
1.474446e+00 -5.269313e-02 0.0
1.507764e+00 -3.317556e-02 0.0
1.524661e+00 -1.675313e-02 0.0
1.529218e+00 -4.414158e-03 0.0
1.524977e+00 4.385202e-03 0.0
1.514486e+00 1.063386e-02 0.0
1.499544e+00 1.508560e-02 0.0
1.481437e+00 1.825012e-02 0.0
1.461105e+00 2.047561e-02 0.0
1.439311e+00 2.193701e-02 0.0
1.416988e+00 2.246712e-02 0.0
1.395795e+00 2.133642e-02 0.0
1.378756e+00 1.718252e-02 0.0
1.370249e+00 8.650197e-03 0.0
1.374592e+00 -4.199407e-03 0.0
1.393636e+00 -1.890062e-02 0.0
1.425098e+00 -3.131870e-02 0.0
1.463011e+00 -3.776956e-02 0.0
1.500227e+00 -3.707202e-02 0.0
1.530972e+00 -3.060155e-02 0.0
1.551909e+00 -2.079299e-02 0.0
1.562030e+00 -9.978201e-03 0.0
1.561856e+00 3.186052e-04 0.0
1.551982e+00 1.001762e-02 0.0
1.532503e+00 1.962206e-02 0.0
1.503316e+00 2.933121e-02 0.0
1.464371e+00 3.908835e-02 0.0
1.415880e+00 4.863455e-02 0.0
1.358426e+00 5.759797e-02 0.0
1.292929e+00 6.564073e-02 0.0
1.220648e+00 7.242483e-02 0.0
1.143393e+00 7.739854e-02 0.0
1.063981e+00 7.955672e-02 0.0
9.862418e-01 7.788264e-02 0.0
9.148912e-01 7.149449e-02 0.0
8.550749e-01 5.996020e-02 0.0
8.114038e-01 4.381504e-02 0.0
7.868765e-01 2.467119e-02 0.0
7.822136e-01 4.806901e-03 0.0
7.961533e-01 -1.379566e-02 0.0
8.271463e-01 -3.084902e-02 0.0
8.735689e-01 -4.627852e-02 0.0
9.335622e-01 -5.984925e-02 0.0
1.004703e+00 -7.099712e-02 0.0
1.083758e+00 -7.891043e-02 0.0
1.166607e+00 -8.270460e-02 0.0
1.248799e+00 -8.204812e-02 0.0
1.325871e+00 -7.692750e-02 0.0
1.393547e+00 -6.753218e-02 0.0
1.448121e+00 -5.442985e-02 0.0
1.486898e+00 -3.863271e-02 0.0
1.508581e+00 -2.153917e-02 0.0
1.513012e+00 -4.286916e-03 0.0
1.499399e+00 1.375789e-02 0.0
1.466177e+00 3.336648e-02 0.0
1.411684e+00 5.463722e-02 0.0
1.335525e+00 7.630339e-02 0.0
1.241275e+00 9.439408e-02 0.0
1.138653e+00 1.027667e-01 0.0
1.040937e+00 9.785974e-02 0.0
9.586331e-01 8.244848e-02 0.0
8.972450e-01 6.153251e-02 0.0
8.576243e-01 3.976508e-02 0.0
8.373792e-01 2.038952e-02 0.0
8.326524e-01 4.871252e-03 0.0
8.394725e-01 -6.675676e-03 0.0
8.548922e-01 -1.527518e-02 0.0
8.770043e-01 -2.196764e-02 0.0
9.045216e-01 -2.737286e-02 0.0
9.364757e-01 -3.180957e-02 0.0
9.719955e-01 -3.537532e-02 0.0
1.010156e+00 -3.801638e-02 0.0
1.049953e+00 -3.965184e-02 0.0
1.090376e+00 -4.027823e-02 0.0
1.130479e+00 -3.995859e-02 0.0
1.169407e+00 -3.878361e-02 0.0
1.206361e+00 -3.680996e-02 0.0
1.240584e+00 -3.407761e-02 0.0
1.271356e+00 -3.062811e-02 0.0
1.298023e+00 -2.652223e-02 0.0
1.320028e+00 -2.186016e-02 0.0
1.336976e+00 -1.680392e-02 0.0
1.348717e+00 -1.159622e-02 0.0
1.355404e+00 -6.542302e-03 0.0
1.357426e+00 -1.877124e-03 0.0
1.355035e+00 2.535550e-03 0.0
1.348110e+00 7.069450e-03 0.0
1.336497e+00 1.175732e-02 0.0
1.320212e+00 1.643023e-02 0.0
1.299899e+00 2.045685e-02 0.0
1.276786e+00 2.325758e-02 0.0
1.265339e+00 1.159252e-02 0.0
0.000000e+00 1.247749e-02 0.0
1.000000e+00 -5.789762e-02 0.0
1.029485e+00 -5.813839e-02 0.0
1.061961e+00 -6.431467e-02 0.0
1.100698e+00 -7.667381e-02 0.0
1.148802e+00 -9.490131e-02 0.0
1.209102e+00 -1.180573e-01 0.0
1.281237e+00 -1.402899e-01 0.0
1.369733e+00 -1.665429e-01 0.0
1.446491e+00 -1.475251e-01 0.0
1.500433e+00 -1.065979e-01 0.0
1.533119e+00 -6.582407e-02 0.0
1.549418e+00 -3.301479e-02 0.0
1.554048e+00 -9.006526e-03 0.0
1.550564e+00 7.906411e-03 0.0
1.541330e+00 1.990569e-02 0.0
1.527985e+00 2.846831e-02 0.0
1.511739e+00 3.453342e-02 0.0
1.493518e+00 3.873329e-02 0.0
1.474029e+00 4.146358e-02 0.0
1.453920e+00 4.261402e-02 0.0
1.434262e+00 4.103208e-02 0.0
1.417161e+00 3.432100e-02 0.0
1.406138e+00 1.970976e-02 0.0
1.405428e+00 -3.451155e-03 0.0
1.418114e+00 -3.154961e-02 0.0
1.444215e+00 -5.738253e-02 0.0
1.479870e+00 -7.338659e-02 0.0
1.518662e+00 -7.582669e-02 0.0
1.554272e+00 -6.617460e-02 0.0
1.581831e+00 -4.831426e-02 0.0
1.598472e+00 -2.658159e-02 0.0
1.603597e+00 -4.768391e-03 0.0
1.598225e+00 1.542700e-02 0.0
1.582992e+00 3.489239e-02 0.0
1.558113e+00 5.424702e-02 0.0
1.523718e+00 7.352133e-02 0.0
1.480104e+00 9.228619e-02 0.0
1.427978e+00 1.097618e-01 0.0
1.368422e+00 1.252336e-01 0.0
1.302913e+00 1.379718e-01 0.0
1.233263e+00 1.470862e-01 0.0
1.161546e+00 1.513105e-01 0.0
1.090569e+00 1.488977e-01 0.0
1.023875e+00 1.382259e-01 0.0
9.653691e-01 1.185036e-01 0.0
9.188190e-01 9.040271e-02 0.0
8.872457e-01 5.628207e-02 0.0
8.723699e-01 1.972029e-02 0.0
8.741487e-01 -1.553693e-02 0.0
8.911089e-01 -4.777159e-02 0.0
9.215741e-01 -7.670616e-02 0.0
9.637947e-01 -1.020322e-01 0.0
1.015677e+00 -1.228416e-01 0.0
1.074816e+00 -1.380123e-01 0.0
1.138308e+00 -1.461584e-01 0.0
1.202597e+00 -1.462996e-01 0.0
1.263938e+00 -1.382313e-01 0.0
1.318657e+00 -1.222132e-01 0.0
1.363495e+00 -9.923021e-02 0.0
1.395919e+00 -7.101973e-02 0.0
1.414134e+00 -3.971626e-02 0.0
1.416560e+00 -6.675532e-03 0.0
1.401850e+00 2.850611e-02 0.0
1.369675e+00 6.557869e-02 0.0
1.321244e+00 1.031062e-01 0.0
1.260328e+00 1.372572e-01 0.0
1.193434e+00 1.613251e-01 0.0
1.127884e+00 1.683545e-01 0.0
1.069183e+00 1.565984e-01 0.0
1.020287e+00 1.313827e-01 0.0
9.814704e-01 1.003866e-01 0.0
9.521588e-01 6.911431e-02 0.0
9.317352e-01 4.085086e-02 0.0
9.195992e-01 1.704491e-02 0.0
9.151444e-01 -2.183192e-03 0.0
9.174582e-01 -1.755132e-02 0.0
9.257387e-01 -3.021041e-02 0.0
9.392906e-01 -4.088707e-02 0.0
9.574873e-01 -4.996853e-02 0.0
9.797444e-01 -5.759475e-02 0.0
1.005396e+00 -6.363050e-02 0.0
1.033667e+00 -6.788450e-02 0.0
1.063657e+00 -7.023070e-02 0.0
1.094424e+00 -7.068816e-02 0.0
1.125124e+00 -6.944551e-02 0.0
1.154989e+00 -6.663728e-02 0.0
1.183314e+00 -6.236564e-02 0.0
1.209457e+00 -5.673304e-02 0.0
1.232843e+00 -4.986992e-02 0.0
1.252986e+00 -4.196572e-02 0.0
1.269513e+00 -3.329299e-02 0.0
1.282154e+00 -2.420035e-02 0.0
1.290687e+00 -1.503691e-02 0.0
1.294826e+00 -5.978991e-03 0.0
1.294239e+00 3.160938e-03 0.0
1.288804e+00 1.254139e-02 0.0
1.278706e+00 2.189371e-02 0.0
1.264686e+00 3.048746e-02 0.0
1.248402e+00 3.677857e-02 0.0
1.232821e+00 3.887676e-02 0.0
1.224579e+00 1.987176e-02 0.0
0.000000e+00 2.104171e-02 0.0
1.000000e+00 -8.378978e-02 0.0
1.026152e+00 -8.414738e-02 0.0
1.055418e+00 -9.354345e-02 0.0
1.091382e+00 -1.126001e-01 0.0
1.137962e+00 -1.414442e-01 0.0
1.199679e+00 -1.797366e-01 0.0
1.277439e+00 -2.180123e-01 0.0
1.387551e+00 -2.766180e-01 0.0
1.471726e+00 -2.316625e-01 0.0
1.522668e+00 -1.575027e-01 0.0
1.549771e+00 -9.288983e-02 0.0
1.561196e+00 -4.440201e-02 0.0
1.562522e+00 -1.029536e-02 0.0
1.557096e+00 1.336983e-02 0.0
1.546808e+00 3.023163e-02 0.0
1.532956e+00 4.235767e-02 0.0
1.516572e+00 5.095476e-02 0.0
1.498530e+00 5.681281e-02 0.0
1.479525e+00 6.050539e-02 0.0
1.460039e+00 6.213779e-02 0.0
1.440441e+00 6.066736e-02 0.0
1.421283e+00 5.351662e-02 0.0
1.403853e+00 3.717745e-02 0.0
1.391054e+00 9.384800e-03 0.0
1.387399e+00 -2.785666e-02 0.0
1.396890e+00 -6.683628e-02 0.0
1.420820e+00 -9.727914e-02 0.0
1.455685e+00 -1.106541e-01 0.0
1.494940e+00 -1.053920e-01 0.0
1.531867e+00 -8.520405e-02 0.0
1.560102e+00 -5.477911e-02 0.0
1.575208e+00 -1.983665e-02 0.0
1.577154e+00 1.351868e-02 0.0
1.568065e+00 4.401841e-02 0.0
1.549033e+00 7.331665e-02 0.0
1.520627e+00 1.019648e-01 0.0
1.483292e+00 1.296586e-01 0.0
1.437619e+00 1.554726e-01 0.0
1.384615e+00 1.782749e-01 0.0
1.325692e+00 1.969328e-01 0.0
1.262521e+00 2.102942e-01 0.0
1.197028e+00 2.168417e-01 0.0
1.131693e+00 2.142695e-01 0.0
1.069570e+00 2.003871e-01 0.0
1.013910e+00 1.742011e-01 0.0
9.677352e-01 1.366147e-01 0.0
9.334754e-01 9.057948e-02 0.0
9.127940e-01 4.043923e-02 0.0
9.063606e-01 -9.065920e-03 0.0
9.131280e-01 -5.450136e-02 0.0
9.315124e-01 -9.505297e-02 0.0
9.598983e-01 -1.303806e-01 0.0
9.968665e-01 -1.597722e-01 0.0
1.040466e+00 -1.815738e-01 0.0
1.088200e+00 -1.938557e-01 0.0
1.137124e+00 -1.951851e-01 0.0
1.184056e+00 -1.851263e-01 0.0
1.225901e+00 -1.640207e-01 0.0
1.259887e+00 -1.331784e-01 0.0
1.283724e+00 -9.481933e-02 0.0
1.295513e+00 -5.146687e-02 0.0
1.293473e+00 -4.598258e-03 0.0
1.277046e+00 4.497100e-02 0.0
1.247552e+00 9.511019e-02 0.0
1.208307e+00 1.423886e-01 0.0
1.164627e+00 1.809754e-01 0.0
1.122357e+00 2.036323e-01 0.0
1.085278e+00 2.054710e-01 0.0
1.053576e+00 1.883383e-01 0.0
1.026071e+00 1.589258e-01 0.0
1.001895e+00 1.245993e-01 0.0
9.804789e-01 9.056850e-02 0.0
9.617707e-01 5.959676e-02 0.0
9.463208e-01 3.253248e-02 0.0
9.350032e-01 9.172123e-03 0.0
9.284087e-01 -1.091916e-02 0.0
9.266219e-01 -2.838588e-02 0.0
9.296076e-01 -4.383505e-02 0.0
9.371943e-01 -5.751754e-02 0.0
9.489956e-01 -6.935836e-02 0.0
9.644748e-01 -7.907194e-02 0.0
9.829641e-01 -8.633611e-02 0.0
1.003690e+00 -9.091906e-02 0.0
1.025790e+00 -9.275058e-02 0.0
1.048380e+00 -9.199767e-02 0.0
1.070700e+00 -8.891973e-02 0.0
1.092096e+00 -8.372371e-02 0.0
1.112010e+00 -7.660883e-02 0.0
1.129968e+00 -6.779047e-02 0.0
1.145571e+00 -5.753090e-02 0.0
1.158474e+00 -4.615805e-02 0.0
1.168346e+00 -3.403487e-02 0.0
1.174803e+00 -2.145592e-02 0.0
1.177365e+00 -8.504142e-03 0.0
1.175647e+00 4.917495e-03 0.0
1.169893e+00 1.833294e-02 0.0
1.160900e+00 3.092458e-02 0.0
1.150091e+00 4.133378e-02 0.0
1.139587e+00 4.731989e-02 0.0
1.132702e+00 4.579955e-02 0.0
1.128837e+00 2.377495e-02 0.0
0.000000e+00 2.479696e-02 0.0
1.000000e+00 -1.045786e-01 0.0
1.021038e+00 -1.050416e-01 0.0
1.045155e+00 -1.176231e-01 0.0
1.076232e+00 -1.436400e-01 0.0
1.119404e+00 -1.845788e-01 0.0
1.182034e+00 -2.423296e-01 0.0
1.269507e+00 -3.054478e-01 0.0
1.416343e+00 -4.234166e-01 0.0
1.501228e+00 -3.165096e-01 0.0
1.539222e+00 -1.954596e-01 0.0
1.554612e+00 -1.082427e-01 0.0
1.558265e+00 -4.801737e-02 0.0
1.555229e+00 -7.222626e-03 0.0
1.547417e+00 2.122008e-02 0.0
1.535841e+00 4.184459e-02 0.0
1.521288e+00 5.694788e-02 0.0
1.504509e+00 6.777099e-02 0.0
1.486269e+00 7.509041e-02 0.0
1.467240e+00 7.957212e-02 0.0
1.447747e+00 8.166804e-02 0.0
1.427523e+00 8.092854e-02 0.0
1.405608e+00 7.546942e-02 0.0
1.380579e+00 6.224369e-02 0.0
1.351712e+00 3.828948e-02 0.0
1.321522e+00 2.371024e-03 0.0
1.297689e+00 -4.296567e-02 0.0
1.289415e+00 -8.896850e-02 0.0
1.302136e+00 -1.233372e-01 0.0
1.333780e+00 -1.369984e-01 0.0
1.378551e+00 -1.299379e-01 0.0
1.427300e+00 -1.034903e-01 0.0
1.468242e+00 -6.074116e-02 0.0
1.490796e+00 -8.997518e-03 0.0
1.496199e+00 3.865261e-02 0.0
1.488870e+00 8.068336e-02 0.0
1.471004e+00 1.198684e-01 0.0
1.443618e+00 1.570817e-01 0.0
1.407425e+00 1.917027e-01 0.0
1.363404e+00 2.223336e-01 0.0
1.312915e+00 2.474597e-01 0.0
1.257574e+00 2.656729e-01 0.0
1.199120e+00 2.753325e-01 0.0
1.139693e+00 2.737348e-01 0.0
1.082215e+00 2.579021e-01 0.0
1.029831e+00 2.266228e-01 0.0
9.852855e-01 1.811979e-01 0.0
9.505594e-01 1.253431e-01 0.0
9.268966e-01 6.413961e-02 0.0
9.150482e-01 2.820048e-03 0.0
9.147356e-01 -5.415126e-02 0.0
9.249585e-01 -1.052382e-01 0.0
9.444334e-01 -1.498179e-01 0.0
9.714115e-01 -1.867127e-01 0.0
1.003853e+00 -2.139773e-01 0.0
1.039474e+00 -2.294397e-01 0.0
1.075793e+00 -2.314666e-01 0.0
1.110201e+00 -2.194966e-01 0.0
1.140228e+00 -1.940098e-01 0.0
1.163644e+00 -1.565565e-01 0.0
1.178445e+00 -1.095832e-01 0.0
1.182814e+00 -5.579814e-02 0.0
1.175485e+00 2.768771e-03 0.0
1.157400e+00 6.309297e-02 0.0
1.131432e+00 1.211163e-01 0.0
1.102026e+00 1.718320e-01 0.0
1.074244e+00 2.087954e-01 0.0
1.051667e+00 2.262467e-01 0.0
1.034467e+00 2.227086e-01 0.0
1.020222e+00 2.026215e-01 0.0
1.006504e+00 1.726816e-01 0.0
9.920433e-01 1.390973e-01 0.0
9.766849e-01 1.059645e-01 0.0
9.610907e-01 7.522870e-02 0.0
9.462946e-01 4.736626e-02 0.0
9.333501e-01 2.215432e-02 0.0
9.232688e-01 -8.001910e-04 0.0
9.166903e-01 -2.176966e-02 0.0
9.139006e-01 -4.100771e-02 0.0
9.149691e-01 -5.854829e-02 0.0
9.197611e-01 -7.411268e-02 0.0
9.279503e-01 -8.722346e-02 0.0
9.390247e-01 -9.737276e-02 0.0
9.523167e-01 -1.041734e-01 0.0
9.670612e-01 -1.074574e-01 0.0
9.824383e-01 -1.073371e-01 0.0
9.977099e-01 -1.041536e-01 0.0
1.012267e+00 -9.824290e-02 0.0
1.025629e+00 -8.993308e-02 0.0
1.037417e+00 -7.954074e-02 0.0
1.047306e+00 -6.738244e-02 0.0
1.054968e+00 -5.378215e-02 0.0
1.060016e+00 -3.904508e-02 0.0
1.062004e+00 -2.340591e-02 0.0
1.060595e+00 -7.057960e-03 0.0
1.056122e+00 9.428581e-03 0.0
1.049618e+00 2.487475e-02 0.0
1.042549e+00 3.803049e-02 0.0
1.036693e+00 4.722760e-02 0.0
1.033959e+00 5.009183e-02 0.0
1.035442e+00 4.435406e-02 0.0
1.035600e+00 2.365511e-02 0.0
0.000000e+00 2.437183e-02 0.0
1.000000e+00 -1.184225e-01 0.0
1.014077e+00 -1.189753e-01 0.0
1.030725e+00 -1.342342e-01 0.0
1.053702e+00 -1.665791e-01 0.0
1.089236e+00 -2.200761e-01 0.0
1.148317e+00 -3.013726e-01 0.0
1.246337e+00 -4.034304e-01 0.0
1.438638e+00 -6.156806e-01 0.0
1.497958e+00 -3.757921e-01 0.0
1.506775e+00 -2.042396e-01 0.0
1.503880e+00 -1.053103e-01 0.0
1.498068e+00 -4.216792e-02 0.0
1.490885e+00 -2.280686e-06 0.0
1.481450e+00 3.069267e-02 0.0
1.469381e+00 5.395081e-02 0.0
1.454745e+00 7.162138e-02 0.0
1.437889e+00 8.466502e-02 0.0
1.419363e+00 9.365316e-02 0.0
1.399731e+00 9.924195e-02 0.0
1.379152e+00 1.022849e-01 0.0
1.356726e+00 1.033915e-01 0.0
1.330310e+00 1.019232e-01 0.0
1.296617e+00 9.597407e-02 0.0
1.251915e+00 8.302903e-02 0.0
1.193207e+00 6.111649e-02 0.0
1.122029e+00 2.824941e-02 0.0
1.050137e+00 -1.703858e-02 0.0
1.001048e+00 -7.421073e-02 0.0
9.938065e-01 -1.297198e-01 0.0
1.032038e+00 -1.681320e-01 0.0
1.103915e+00 -1.753299e-01 0.0
1.190641e+00 -1.474293e-01 0.0
1.269088e+00 -8.740685e-02 0.0
1.318344e+00 -1.056642e-02 0.0
1.341029e+00 5.803581e-02 0.0
1.346332e+00 1.146027e-01 0.0
1.338448e+00 1.650035e-01 0.0
1.319410e+00 2.107784e-01 0.0
1.290706e+00 2.510754e-01 0.0
1.253896e+00 2.843068e-01 0.0
1.210721e+00 3.088852e-01 0.0
1.163020e+00 3.230717e-01 0.0
1.112746e+00 3.240457e-01 0.0
1.062604e+00 3.080816e-01 0.0
1.015474e+00 2.737906e-01 0.0
9.737862e-01 2.229233e-01 0.0
9.394245e-01 1.597424e-01 0.0
9.140507e-01 8.955099e-02 0.0
8.992993e-01 1.760893e-02 0.0
8.961310e-01 -5.094531e-02 0.0
9.034970e-01 -1.125667e-01 0.0
9.191437e-01 -1.654270e-01 0.0
9.406177e-01 -2.081491e-01 0.0
9.657142e-01 -2.390362e-01 0.0
9.923948e-01 -2.560827e-01 0.0
1.018642e+00 -2.576761e-01 0.0
1.042394e+00 -2.432106e-01 0.0
1.061824e+00 -2.134025e-01 0.0
1.075336e+00 -1.700313e-01 0.0
1.081450e+00 -1.156595e-01 0.0
1.078893e+00 -5.320297e-02 0.0
1.067532e+00 1.416666e-02 0.0
1.049758e+00 8.090470e-02 0.0
1.029207e+00 1.417049e-01 0.0
1.010192e+00 1.908847e-01 0.0
9.961928e-01 2.228325e-01 0.0
9.880942e-01 2.343830e-01 0.0
9.836724e-01 2.271681e-01 0.0
9.798044e-01 2.065271e-01 0.0
9.741946e-01 1.783291e-01 0.0
9.659484e-01 1.473811e-01 0.0
9.553069e-01 1.166437e-01 0.0
9.431342e-01 8.743907e-02 0.0
9.304807e-01 6.005749e-02 0.0
9.183563e-01 3.431644e-02 0.0
9.076717e-01 9.922020e-03 0.0
8.991988e-01 -1.325899e-02 0.0
8.933557e-01 -3.512688e-02 0.0
8.903566e-01 -5.551150e-02 0.0
8.902527e-01 -7.397117e-02 0.0
8.929323e-01 -8.986530e-02 0.0
8.980991e-01 -1.025019e-01 0.0
9.052704e-01 -1.113070e-01 0.0
9.138118e-01 -1.159611e-01 0.0
9.229826e-01 -1.164702e-01 0.0
9.320546e-01 -1.131878e-01 0.0
9.404240e-01 -1.065746e-01 0.0
9.476405e-01 -9.711189e-02 0.0
9.533821e-01 -8.524466e-02 0.0
9.573979e-01 -7.136048e-02 0.0
9.594515e-01 -5.579798e-02 0.0
9.593269e-01 -3.888278e-02 0.0
9.569818e-01 -2.102306e-02 0.0
9.528786e-01 -2.917081e-03 0.0
9.482264e-01 1.411850e-02 0.0
9.443960e-01 2.874287e-02 0.0
9.427686e-01 3.969567e-02 0.0
9.444936e-01 4.554025e-02 0.0
9.499643e-01 4.465892e-02 0.0
9.575832e-01 3.677286e-02 0.0
9.604481e-01 2.082788e-02 0.0
0.000000e+00 2.130601e-02 0.0
1.000000e+00 -1.236942e-01 0.0
1.005485e+00 -1.243172e-01 0.0
1.012184e+00 -1.408953e-01 0.0
1.022583e+00 -1.769409e-01 0.0
1.042301e+00 -2.397572e-01 0.0
1.084122e+00 -3.431559e-01 0.0
1.176912e+00 -4.961830e-01 0.0
1.403867e+00 -8.425984e-01 0.0
1.388900e+00 -3.607873e-01 0.0
1.341990e+00 -1.572923e-01 0.0
1.313314e+00 -7.659729e-02 0.0
1.299100e+00 -2.791607e-02 0.0
1.290792e+00 8.342634e-03 0.0
1.283105e+00 3.841698e-02 0.0
1.273594e+00 6.349946e-02 0.0
1.261254e+00 8.399859e-02 0.0
1.245718e+00 1.002383e-01 0.0
1.227194e+00 1.122154e-01 0.0
1.206117e+00 1.203558e-01 0.0
1.182346e+00 1.260935e-01 0.0
1.154090e+00 1.316852e-01 0.0
1.116984e+00 1.390661e-01 0.0
1.064293e+00 1.487025e-01 0.0
9.882222e-01 1.591376e-01 0.0
8.836153e-01 1.657608e-01 0.0
7.564265e-01 1.554757e-01 0.0
6.210146e-01 1.184107e-01 0.0
5.091134e-01 3.772795e-02 0.0
4.687175e-01 -8.928635e-02 0.0
5.138074e-01 -2.131844e-01 0.0
6.231930e-01 -2.846781e-01 0.0
7.613303e-01 -2.855291e-01 0.0
9.006541e-01 -2.266931e-01 0.0
1.018531e+00 -1.284058e-01 0.0
1.096898e+00 -2.029394e-02 0.0
1.142097e+00 6.944196e-02 0.0
1.165363e+00 1.417741e-01 0.0
1.171848e+00 2.043311e-01 0.0
1.164685e+00 2.582759e-01 0.0
1.146385e+00 3.026448e-01 0.0
1.119294e+00 3.360132e-01 0.0
1.085738e+00 3.566658e-01 0.0
1.047743e+00 3.620781e-01 0.0
1.007431e+00 3.484306e-01 0.0
9.670222e-01 3.142374e-01 0.0
9.287317e-01 2.612514e-01 0.0
8.956103e-01 1.929014e-01 0.0
8.716760e-01 1.135228e-01 0.0
8.601838e-01 2.913871e-02 0.0
8.617549e-01 -5.247885e-02 0.0
8.734538e-01 -1.242280e-01 0.0
8.911467e-01 -1.830824e-01 0.0
9.115759e-01 -2.285407e-01 0.0
9.326656e-01 -2.600883e-01 0.0
9.529541e-01 -2.763336e-01 0.0
9.710742e-01 -2.757586e-01 0.0
9.856441e-01 -2.577430e-01 0.0
9.955236e-01 -2.232443e-01 0.0
9.998216e-01 -1.742916e-01 0.0
9.978249e-01 -1.136252e-01 0.0
9.893099e-01 -4.465029e-02 0.0
9.757658e-01 2.774836e-02 0.0
9.602063e-01 9.650193e-02 0.0
9.461129e-01 1.558360e-01 0.0
9.366051e-01 2.004302e-01 0.0
9.330332e-01 2.264420e-01 0.0
9.341157e-01 2.333382e-01 0.0
9.367686e-01 2.245529e-01 0.0
9.382077e-01 2.051257e-01 0.0
9.367999e-01 1.797745e-01 0.0
9.321914e-01 1.520273e-01 0.0
9.249223e-01 1.239505e-01 0.0
9.159355e-01 9.646354e-02 0.0
9.062091e-01 6.982162e-02 0.0
8.965603e-01 4.400292e-02 0.0
8.875851e-01 1.893484e-02 0.0
8.797346e-01 -5.370792e-03 0.0
8.733201e-01 -2.867471e-02 0.0
8.685097e-01 -5.066340e-02 0.0
8.654291e-01 -7.085279e-02 0.0
8.641524e-01 -8.855090e-02 0.0
8.646386e-01 -1.029504e-01 0.0
8.666674e-01 -1.132980e-01 0.0
8.698236e-01 -1.190796e-01 0.0
8.735250e-01 -1.201339e-01 0.0
8.771113e-01 -1.167364e-01 0.0
8.799969e-01 -1.094225e-01 0.0
8.817449e-01 -9.882223e-02 0.0
8.820892e-01 -8.555121e-02 0.0
8.809280e-01 -7.016154e-02 0.0
8.783331e-01 -5.316534e-02 0.0
8.746205e-01 -3.513246e-02 0.0
8.704785e-01 -1.684335e-02 0.0
8.670244e-01 5.747614e-04 0.0
8.654196e-01 1.576098e-02 0.0
8.665399e-01 2.766025e-02 0.0
8.709098e-01 3.536357e-02 0.0
8.784601e-01 3.802760e-02 0.0
8.879064e-01 3.525039e-02 0.0
8.970052e-01 2.771175e-02 0.0
9.006919e-01 1.717898e-02 0.0
0.000000e+00 1.753906e-02 0.0
1.000000e+00 -1.195003e-01 0.0
9.959972e-01 -1.201712e-01 0.0
9.908549e-01 -1.357156e-01 0.0
9.839585e-01 -1.700071e-01 0.0
9.760628e-01 -2.318240e-01 0.0
9.726624e-01 -3.397181e-01 0.0
1.001049e+00 -5.245318e-01 0.0
1.164898e+00 -1.006411e+00 0.0
1.009045e+00 -2.050028e-01 0.0
8.731769e-01 -2.149253e-02 0.0
8.183640e-01 -2.174697e-02 0.0
8.028630e-01 -1.237767e-02 0.0
8.027603e-01 8.482722e-03 0.0
8.066256e-01 3.458905e-02 0.0
8.078959e-01 6.226661e-02 0.0
8.028630e-01 8.906889e-02 0.0
7.878719e-01 1.152669e-01 0.0
7.603885e-01 1.397361e-01 0.0
7.190025e-01 1.617792e-01 0.0
6.633820e-01 1.817515e-01 0.0
5.937624e-01 2.013422e-01 0.0
5.093218e-01 2.235441e-01 0.0
4.075612e-01 2.505005e-01 0.0
2.919701e-01 2.747661e-01 0.0
1.814030e-01 2.763654e-01 0.0
1.016194e-01 2.352967e-01 0.0
6.736552e-02 1.527021e-01 0.0
8.982322e-02 1.530771e-02 0.0
1.466383e-01 -1.460639e-01 0.0
2.205982e-01 -2.871069e-01 0.0
3.227379e-01 -3.867804e-01 0.0
4.560803e-01 -4.188340e-01 0.0
6.021014e-01 -3.726768e-01 0.0
7.403069e-01 -2.665737e-01 0.0
8.538800e-01 -1.338296e-01 0.0
9.303552e-01 -6.995742e-03 0.0
9.784579e-01 9.370884e-02 0.0
1.005944e+00 1.768826e-01 0.0
1.017026e+00 2.472311e-01 0.0
1.014781e+00 3.049280e-01 0.0
1.001924e+00 3.489075e-01 0.0
9.810034e-01 3.776237e-01 0.0
9.538778e-01 3.892414e-01 0.0
9.212266e-01 3.811194e-01 0.0
8.846689e-01 3.508326e-01 0.0
8.484160e-01 2.975418e-01 0.0
8.198121e-01 2.215429e-01 0.0
8.057291e-01 1.276434e-01 0.0
8.081064e-01 2.679894e-02 0.0
8.232420e-01 -6.757679e-02 0.0
8.450531e-01 -1.460015e-01 0.0
8.683423e-01 -2.063340e-01 0.0
8.899429e-01 -2.501037e-01 0.0
9.085047e-01 -2.786125e-01 0.0
9.235650e-01 -2.913562e-01 0.0
9.346814e-01 -2.868374e-01 0.0
9.412823e-01 -2.643062e-01 0.0
9.428908e-01 -2.248152e-01 0.0
9.393130e-01 -1.706761e-01 0.0
9.307628e-01 -1.050375e-01 0.0
9.182694e-01 -3.211924e-02 0.0
9.044958e-01 4.155965e-02 0.0
8.923240e-01 1.087113e-01 0.0
8.843335e-01 1.638642e-01 0.0
8.819906e-01 2.028107e-01 0.0
8.847886e-01 2.236816e-01 0.0
8.903290e-01 2.278354e-01 0.0
8.957304e-01 2.191891e-01 0.0
8.989377e-01 2.019560e-01 0.0
8.990602e-01 1.796897e-01 0.0
8.962608e-01 1.548644e-01 0.0
8.913409e-01 1.289080e-01 0.0
8.852897e-01 1.025524e-01 0.0
8.789468e-01 7.620217e-02 0.0
8.728306e-01 5.015681e-02 0.0
8.671227e-01 2.468050e-02 0.0
8.617884e-01 1.153905e-06 0.0
8.567525e-01 -2.360105e-02 0.0
8.519491e-01 -4.582231e-02 0.0
8.474381e-01 -6.630410e-02 0.0
8.434115e-01 -8.448665e-02 0.0
8.400949e-01 -9.959606e-02 0.0
8.376040e-01 -1.107694e-01 0.0
8.358614e-01 -1.172993e-01 0.0
8.345769e-01 -1.188116e-01 0.0
8.332909e-01 -1.154127e-01 0.0
8.315438e-01 -1.076377e-01 0.0
8.289871e-01 -9.622784e-02 0.0
8.254692e-01 -8.199557e-02 0.0
8.210992e-01 -6.575377e-02 0.0
8.162909e-01 -4.831936e-02 0.0
8.117665e-01 -3.057032e-02 0.0
8.084587e-01 -1.349785e-02 0.0
8.072440e-01 1.827202e-03 0.0
8.086271e-01 1.441560e-02 0.0
8.127273e-01 2.359779e-02 0.0
8.192245e-01 2.890414e-02 0.0
8.272159e-01 3.007391e-02 0.0
8.351834e-01 2.732062e-02 0.0
8.414714e-01 2.146147e-02 0.0
8.444612e-01 1.422685e-02 0.0
0.000000e+00 1.454010e-02 0.0
1.000000e+00 -1.063414e-01 0.0
9.870093e-01 -1.070373e-01 0.0
9.701304e-01 -1.187993e-01 0.0
9.444410e-01 -1.442804e-01 0.0
9.015000e-01 -1.888457e-01 0.0
8.246315e-01 -2.628122e-01 0.0
6.893682e-01 -3.892311e-01 0.0
2.047910e-01 -5.219020e-01 0.0
-1.009763e+00 5.202460e-01 0.0
0.000000e+00 -6.390071e-02 0.0
-1.081701e-01 6.507392e-02 0.0
-4.474378e-02 -7.576658e-02 0.0
5.967427e-02 -9.589792e-02 0.0
1.569650e-01 -6.266425e-02 0.0
2.205775e-01 -1.308493e-03 0.0
2.535485e-01 5.613532e-02 0.0
2.597758e-01 1.090769e-01 0.0
2.417207e-01 1.578287e-01 0.0
2.019282e-01 2.016091e-01 0.0
1.442670e-01 2.394501e-01 0.0
7.461621e-02 2.710304e-01 0.0
1.141262e-03 2.970565e-01 0.0
-6.458707e-02 3.162663e-01 0.0
-1.096531e-01 3.198696e-01 0.0
-1.253743e-01 2.921241e-01 0.0
-1.106846e-01 2.206444e-01 0.0
-5.910384e-02 1.011588e-01 0.0
3.785071e-02 -8.160938e-02 0.0
1.304379e-01 -2.386137e-01 0.0
2.032000e-01 -3.598315e-01 0.0
2.631696e-01 -4.467125e-01 0.0
3.397657e-01 -4.953926e-01 0.0
4.432797e-01 -4.761533e-01 0.0
5.598335e-01 -3.830900e-01 0.0
6.702666e-01 -2.442252e-01 0.0
7.594430e-01 -9.613459e-02 0.0
8.193800e-01 3.380937e-02 0.0
8.575266e-01 1.387734e-01 0.0
8.783551e-01 2.264401e-01 0.0
8.849880e-01 2.983326e-01 0.0
8.798961e-01 3.540370e-01 0.0
8.649462e-01 3.926111e-01 0.0
8.411806e-01 4.130445e-01 0.0
8.093722e-01 4.129653e-01 0.0
7.744538e-01 3.857886e-01 0.0
7.461483e-01 3.258849e-01 0.0
7.339925e-01 2.337362e-01 0.0
7.411890e-01 1.204844e-01 0.0
7.641453e-01 3.880306e-03 0.0
7.951079e-01 -9.850183e-02 0.0
8.275832e-01 -1.784393e-01 0.0
8.567997e-01 -2.355129e-01 0.0
8.799550e-01 -2.732214e-01 0.0
8.963378e-01 -2.949577e-01 0.0
9.064885e-01 -3.014694e-01 0.0
9.111122e-01 -2.914235e-01 0.0
9.106274e-01 -2.637838e-01 0.0
9.052567e-01 -2.194069e-01 0.0
8.954480e-01 -1.608297e-01 0.0
8.823159e-01 -9.186779e-02 0.0
8.679663e-01 -1.773199e-02 0.0
8.553539e-01 5.420970e-02 0.0
8.466494e-01 1.174534e-01 0.0
8.431916e-01 1.673596e-01 0.0
8.449388e-01 2.011012e-01 0.0
8.502650e-01 2.183931e-01 0.0
8.566143e-01 2.215238e-01 0.0
8.617479e-01 2.140931e-01 0.0
8.644014e-01 1.993402e-01 0.0
8.643665e-01 1.797623e-01 0.0
8.622519e-01 1.570167e-01 0.0
8.590546e-01 1.321430e-01 0.0
8.557399e-01 1.059048e-01 0.0
8.529519e-01 7.902791e-02 0.0
8.508936e-01 5.225279e-02 0.0
8.493549e-01 2.625689e-02 0.0
8.478463e-01 1.547414e-03 0.0
8.457988e-01 -2.151581e-02 0.0
8.427222e-01 -4.270807e-02 0.0
8.383972e-01 -6.194134e-02 0.0
8.329420e-01 -7.899379e-02 0.0
8.267533e-01 -9.336960e-02 0.0
8.202779e-01 -1.042563e-01 0.0
8.138564e-01 -1.108402e-01 0.0
8.076363e-01 -1.125538e-01 0.0
8.015519e-01 -1.092906e-01 0.0
7.954611e-01 -1.015092e-01 0.0
7.892548e-01 -8.998388e-02 0.0
7.829581e-01 -7.566112e-02 0.0
7.767994e-01 -5.955731e-02 0.0
7.712153e-01 -4.269752e-02 0.0
7.667697e-01 -2.608707e-02 0.0
7.639821e-01 -1.067247e-02 0.0
7.631306e-01 2.716383e-03 0.0
7.642224e-01 1.336148e-02 0.0
7.669571e-01 2.090090e-02 0.0
7.707408e-01 2.515812e-02 0.0
7.746796e-01 2.617287e-02 0.0
7.778177e-01 2.422023e-02 0.0
7.794406e-01 1.987632e-02 0.0
7.811799e-01 1.252524e-02 0.0
0.000000e+00 1.277882e-02 0.0
1.000000e+00 -8.640479e-02 0.0
9.802105e-01 -8.710448e-02 0.0
9.547130e-01 -9.326448e-02 0.0
9.158652e-01 -1.053952e-01 0.0
8.496618e-01 -1.226049e-01 0.0
7.267464e-01 -1.398595e-01 0.0
4.709086e-01 -1.333560e-01 0.0
-1.004099e-02 -4.102088e-02 0.0
1.007517e-04 0.000000e+00 0.0
0.000000e+00 -0.000000e+00 0.0
0.000000e+00 -9.432135e-02 0.0
-1.736174e-01 9.788825e-02 0.0
-1.419302e-01 -1.275477e-01 0.0
-9.562496e-02 -1.089321e-01 0.0
-7.246971e-02 -2.442633e-02 0.0
-6.111575e-02 4.481877e-02 0.0
-6.195157e-02 1.099502e-01 0.0
-7.394398e-02 1.698585e-01 0.0
-9.460227e-02 2.223048e-01 0.0