# vtk DataFile Version 3.0
Vector Field
ASCII
DATASET RECTILINEAR_GRID
DIMENSIONS 102 22 1
X_COORDINATES 102 double
0.000000 0.100000 0.200000 0.300000 0.400000 0.500000 0.600000 0.700000 0.800000 0.900000 1.000000 1.100000 1.200000 1.300000 1.400000 1.500000 1.600000 1.700000 1.800000 1.900000 2.000000 2.100000 2.200000 2.300000 2.400000 2.500000 2.600000 2.700000 2.800000 2.900000 3.000000 3.100000 3.200000 3.300000 3.400000 3.500000 3.600000 3.700000 3.800000 3.900000 4.000000 4.100000 4.200000 4.300000 4.400000 4.500000 4.600000 4.700000 4.800000 4.900000 5.000000 5.100000 5.200000 5.300000 5.400000 5.500000 5.600000 5.700000 5.800000 5.900000 6.000000 6.100000 6.200000 6.300000 6.400000 6.500000 6.600000 6.700000 6.800000 6.900000 7.000000 7.100000 7.200000 7.300000 7.400000 7.500000 7.600000 7.700000 7.800000 7.900000 8.000000 8.100000 8.200000 8.300000 8.400000 8.500000 8.600000 8.700000 8.800000 8.900000 9.000000 9.100000 9.200000 9.300000 9.400000 9.500000 9.600000 9.700000 9.800000 9.900000 10.000000 10.100000 
Y_COORDINATES 22 double
0.000000 0.100000 0.200000 0.300000 0.400000 0.500000 0.600000 0.700000 0.800000 0.900000 1.000000 1.100000 1.200000 1.300000 1.400000 1.500000 1.600000 1.700000 1.800000 1.900000 2.000000 2.100000 
Z_COORDINATES 1 double
0.0
POINT_DATA 2244
VECTORS Velocity double
0.000000e+00 0.000000e+00 0.0
-1.027530e+00 0.000000e+00 0.0
-1.058184e+00 0.000000e+00 0.0
-1.095151e+00 0.000000e+00 0.0
-1.141485e+00 0.000000e+00 0.0
-1.199812e+00 0.000000e+00 0.0
-1.270289e+00 0.000000e+00 0.0
-1.354077e+00 0.000000e+00 0.0
-1.435354e+00 0.000000e+00 0.0
-1.503555e+00 0.000000e+00 0.0
-1.556298e+00 0.000000e+00 0.0
-1.594813e+00 0.000000e+00 0.0
-1.620780e+00 0.000000e+00 0.0
-1.635508e+00 0.000000e+00 0.0
-1.640247e+00 0.000000e+00 0.0
-1.636515e+00 0.000000e+00 0.0
-1.625693e+00 0.000000e+00 0.0
-1.608923e+00 0.000000e+00 0.0
-1.587058e+00 0.000000e+00 0.0
-1.560649e+00 0.000000e+00 0.0
-1.529986e+00 0.000000e+00 0.0
-1.495187e+00 0.000000e+00 0.0
-1.456295e+00 0.000000e+00 0.0
-1.413360e+00 0.000000e+00 0.0
-1.366459e+00 0.000000e+00 0.0
-1.315683e+00 0.000000e+00 0.0
-1.261182e+00 0.000000e+00 0.0
-1.203542e+00 0.000000e+00 0.0
-1.144536e+00 0.000000e+00 0.0
-1.087828e+00 0.000000e+00 0.0
-1.039654e+00 0.000000e+00 0.0
-1.008858e+00 0.000000e+00 0.0
-1.005283e+00 0.000000e+00 0.0
-1.036341e+00 0.000000e+00 0.0
-1.104432e+00 0.000000e+00 0.0
-1.205268e+00 0.000000e+00 0.0
-1.328051e+00 0.000000e+00 0.0
-1.455731e+00 0.000000e+00 0.0
-1.568382e+00 0.000000e+00 0.0
-1.647578e+00 0.000000e+00 0.0
-1.682979e+00 0.000000e+00 0.0
-1.677895e+00 0.000000e+00 0.0
-1.642905e+00 0.000000e+00 0.0
-1.586958e+00 0.000000e+00 0.0
-1.516738e+00 0.000000e+00 0.0
-1.436551e+00 0.000000e+00 0.0
-1.349174e+00 0.000000e+00 0.0
-1.256775e+00 0.000000e+00 0.0
-1.162084e+00 0.000000e+00 0.0
-1.068913e+00 0.000000e+00 0.0
-9.820318e-01 0.000000e+00 0.0
-9.064770e-01 0.000000e+00 0.0
-8.464537e-01 0.000000e+00 0.0
-8.043741e-01 0.000000e+00 0.0
-7.804801e-01 0.000000e+00 0.0
-7.731675e-01 0.000000e+00 0.0
-7.796800e-01 0.000000e+00 0.0
-7.976807e-01 0.000000e+00 0.0
-8.257819e-01 0.000000e+00 0.0
-8.630773e-01 0.000000e+00 0.0
-9.087979e-01 0.000000e+00 0.0
-9.620093e-01 0.000000e+00 0.0
-1.021285e+00 0.000000e+00 0.0
-1.084733e+00 0.000000e+00 0.0
-1.150004e+00 0.000000e+00 0.0
-1.214660e+00 0.000000e+00 0.0
-1.276405e+00 0.000000e+00 0.0
-1.333088e+00 0.000000e+00 0.0
-1.382770e+00 0.000000e+00 0.0
-1.423833e+00 0.000000e+00 0.0
-1.455115e+00 0.000000e+00 0.0
-1.476067e+00 0.000000e+00 0.0
-1.486884e+00 0.000000e+00 0.0
-1.488313e+00 0.000000e+00 0.0
-1.480600e+00 0.000000e+00 0.0
-1.463168e+00 0.000000e+00 0.0
-1.435137e+00 0.000000e+00 0.0
-1.395691e+00 0.000000e+00 0.0
-1.344708e+00 0.000000e+00 0.0
-1.283676e+00 0.000000e+00 0.0
-1.216294e+00 0.000000e+00 0.0
-1.147863e+00 0.000000e+00 0.0
-1.083377e+00 0.000000e+00 0.0
-1.026357e+00 0.000000e+00 0.0
-9.786633e-01 0.000000e+00 0.0
-9.406942e-01 0.000000e+00 0.0
-9.117628e-01 0.000000e+00 0.0
-8.905457e-01 0.000000e+00 0.0
-8.754996e-01 0.000000e+00 0.0
-8.651486e-01 0.000000e+00 0.0
-8.582328e-01 0.000000e+00 0.0
-8.537540e-01 0.000000e+00 0.0
-8.509618e-01 0.000000e+00 0.0
-8.493144e-01 0.000000e+00 0.0
-8.484358e-01 0.000000e+00 0.0
-8.480789e-01 0.000000e+00 0.0
-8.480999e-01 0.000000e+00 0.0
-8.484205e-01 0.000000e+00 0.0
-8.490043e-01 0.000000e+00 0.0
-8.498669e-01 0.000000e+00 0.0
-8.498669e-01 0.000000e+00 0.0
0.000000e+00 0.000000e+00 0.0
1.000000e+00 -2.750519e-02 0.0
1.027286e+00 -2.734589e-02 0.0
1.057726e+00 -3.047116e-02 0.0
1.094468e+00 -3.677096e-02 0.0
1.140562e+00 -4.612164e-02 0.0
1.198642e+00 -5.810216e-02 0.0
1.268884e+00 -7.025987e-02 0.0
1.352475e+00 -8.360245e-02 0.0
1.433705e+00 -8.123645e-02 0.0
1.502092e+00 -6.838720e-02 0.0
1.555291e+00 -5.319476e-02 0.0
1.594528e+00 -3.922771e-02 0.0
1.621441e+00 -2.689527e-02 0.0
1.637230e+00 -1.576081e-02 0.0
1.642991e+00 -5.723723e-03 0.0
1.640132e+00 2.884515e-03 0.0
1.630032e+00 1.011635e-02 0.0
1.613861e+00 1.619124e-02 0.0
1.592504e+00 2.137097e-02 0.0
1.566553e+00 2.596356e-02 0.0
1.536322e+00 3.024223e-02 0.0
1.501927e+00 3.440060e-02 0.0
1.463401e+00 3.852968e-02 0.0
1.420771e+00 4.262791e-02 0.0
1.374109e+00 4.665722e-02 0.0
1.323504e+00 5.059521e-02 0.0
1.269093e+00 5.439969e-02 0.0
1.211332e+00 5.774638e-02 0.0
1.151698e+00 5.961812e-02 0.0
1.093414e+00 5.826832e-02 0.0
1.042127e+00 5.127154e-02 0.0
1.006157e+00 3.595701e-02 0.0
9.953202e-01 1.082531e-02 0.0
1.017731e+00 -2.241839e-02 0.0
1.076984e+00 -5.925775e-02 0.0
1.170614e+00 -9.363020e-02 0.0
1.289693e+00 -1.190750e-01 0.0
1.419088e+00 -1.293861e-01 0.0
1.539267e+00 -1.201660e-01 0.0
1.630760e+00 -9.147550e-02 0.0
1.679893e+00 -4.911386e-02 0.0
1.685759e+00 -5.846756e-03 0.0
1.658205e+00 2.757331e-02 0.0
1.606814e+00 5.140628e-02 0.0
1.539115e+00 6.771400e-02 0.0
1.460218e+00 7.890927e-02 0.0
1.373411e+00 8.681856e-02 0.0
1.281069e+00 9.235237e-02 0.0
1.185814e+00 9.526492e-02 0.0
1.091273e+00 9.454974e-02 0.0
1.002053e+00 8.922818e-02 0.0
9.232142e-01 7.884573e-02 0.0
8.592119e-01 6.400778e-02 0.0
8.128695e-01 4.634617e-02 0.0
7.848573e-01 2.801393e-02 0.0
7.738901e-01 1.096737e-02 0.0
7.773745e-01 -3.485440e-03 0.0
7.927022e-01 -1.532972e-02 0.0
8.183096e-01 -2.561016e-02 0.0
8.532120e-01 -3.490575e-02 0.0
8.966377e-01 -4.342918e-02 0.0
9.477348e-01 -5.110030e-02 0.0
1.005221e+00 -5.748853e-02 0.0
1.067343e+00 -6.212445e-02 0.0
1.131883e+00 -6.454029e-02 0.0
1.196420e+00 -6.453711e-02 0.0
1.258663e+00 -6.224300e-02 0.0
1.316457e+00 -5.779274e-02 0.0
1.367830e+00 -5.137262e-02 0.0
1.411097e+00 -4.326462e-02 0.0
1.444972e+00 -3.387352e-02 0.0
1.468728e+00 -2.375258e-02 0.0
1.482337e+00 -1.360517e-02 0.0
1.486433e+00 -4.091915e-03 0.0
1.481537e+00 4.902186e-03 0.0
1.467228e+00 1.431434e-02 0.0
1.442687e+00 2.454811e-02 0.0
1.407021e+00 3.567301e-02 0.0
1.359794e+00 4.723413e-02 0.0
1.301875e+00 5.792700e-02 0.0
1.236231e+00 6.565204e-02 0.0
1.167793e+00 6.844674e-02 0.0
1.101827e+00 6.597434e-02 0.0
1.042349e+00 5.948586e-02 0.0
9.917391e-01 5.061861e-02 0.0
9.508258e-01 4.092135e-02 0.0
9.192296e-01 3.160406e-02 0.0
8.957879e-01 2.344921e-02 0.0
8.789962e-01 1.679883e-02 0.0
8.673400e-01 1.166305e-02 0.0
8.594851e-01 7.861340e-03 0.0
8.543523e-01 5.138952e-03 0.0
8.511182e-01 3.239891e-03 0.0
8.491823e-01 1.941474e-03 0.0
8.481238e-01 1.063718e-03 0.0
8.476633e-01 4.656119e-04 0.0
8.476340e-01 3.409871e-05 0.0
8.479418e-01 -3.030407e-04 0.0
8.485352e-01 -5.888241e-04 0.0
8.494158e-01 -8.759989e-04 0.0
8.498669e-01 -4.465976e-04 0.0
0.000000e+00 -4.451992e-04 0.0
1.000000e+00 -5.539456e-02 0.0
1.027659e+00 -5.503573e-02 0.0
1.058504e+00 -6.132068e-02 0.0
1.095802e+00 -7.407461e-02 0.0
1.142911e+00 -9.323231e-02 0.0
1.203123e+00 -1.183152e-01 0.0
1.276753e+00 -1.438887e-01 0.0
1.370017e+00 -1.768640e-01 0.0
1.456458e+00 -1.676732e-01 0.0
1.525564e+00 -1.374884e-01 0.0
1.578016e+00 -1.056412e-01 0.0
1.616870e+00 -7.807487e-02 0.0
1.644266e+00 -5.427728e-02 0.0
1.661244e+00 -3.272347e-02 0.0
1.668527e+00 -1.300545e-02 0.0
1.667368e+00 4.034565e-03 0.0
1.659138e+00 1.835030e-02 0.0
1.644990e+00 3.033699e-02 0.0
1.625838e+00 4.052488e-02 0.0
1.602281e+00 4.952117e-02 0.0
1.574627e+00 5.789496e-02 0.0
1.542975e+00 6.605152e-02 0.0
1.507322e+00 7.417981e-02 0.0
1.467665e+00 8.228158e-02 0.0
1.424062e+00 9.025614e-02 0.0
1.376668e+00 9.798600e-02 0.0
1.325776e+00 1.052869e-01 0.0
1.271927e+00 1.115927e-01 0.0
1.216166e+00 1.153752e-01 0.0
1.160854e+00 1.135791e-01 0.0
1.110337e+00 1.017883e-01 0.0
1.071102e+00 7.519243e-02 0.0
1.050876e+00 3.105197e-02 0.0
1.055066e+00 -2.660568e-02 0.0
1.083513e+00 -8.770085e-02 0.0
1.135295e+00 -1.454073e-01 0.0
1.211311e+00 -1.950855e-01 0.0
1.309070e+00 -2.271391e-01 0.0
1.416727e+00 -2.278157e-01 0.0
1.517743e+00 -1.924846e-01 0.0
1.594515e+00 -1.258810e-01 0.0
1.633923e+00 -4.525242e-02 0.0
1.636259e+00 2.523770e-02 0.0
1.611345e+00 7.632030e-02 0.0
1.566370e+00 1.126890e-01 0.0
1.506875e+00 1.384039e-01 0.0
1.437154e+00 1.565414e-01 0.0
1.360646e+00 1.688612e-01 0.0
1.280338e+00 1.755737e-01 0.0
1.199378e+00 1.755107e-01 0.0
1.121407e+00 1.671996e-01 0.0
1.050060e+00 1.501934e-01 0.0
9.883574e-01 1.257107e-01 0.0
9.383797e-01 9.632336e-02 0.0
9.011334e-01 6.525976e-02 0.0
8.766491e-01 3.545111e-02 0.0
8.643279e-01 8.835294e-03 0.0
8.628376e-01 -1.383974e-02 0.0
8.707855e-01 -3.355831e-02 0.0
8.873242e-01 -5.144457e-02 0.0
9.118093e-01 -6.791403e-02 0.0
9.437116e-01 -8.300204e-02 0.0
9.823971e-01 -9.617312e-02 0.0
1.026712e+00 -1.064380e-01 0.0
1.074969e+00 -1.127964e-01 0.0
1.125060e+00 -1.146276e-01 0.0
1.174864e+00 -1.120464e-01 0.0
1.222398e+00 -1.053264e-01 0.0
1.265860e+00 -9.483374e-02 0.0
1.303705e+00 -8.110922e-02 0.0
1.334728e+00 -6.489541e-02 0.0
1.358110e+00 -4.713334e-02 0.0
1.373357e+00 -2.885145e-02 0.0
1.380088e+00 -1.082045e-02 0.0
1.377940e+00 7.051500e-03 0.0
1.366758e+00 2.549810e-02 0.0
1.346715e+00 4.459315e-02 0.0
1.318672e+00 6.371738e-02 0.0
1.284518e+00 8.139075e-02 0.0
1.247119e+00 9.532785e-02 0.0
1.209654e+00 1.031187e-01 0.0
1.174721e+00 1.033821e-01 0.0
1.143862e+00 9.683513e-02 0.0
1.117684e+00 8.566560e-02 0.0
1.095923e+00 7.238128e-02 0.0
1.077960e+00 5.888658e-02 0.0
1.063220e+00 4.634596e-02 0.0
1.051180e+00 3.549040e-02 0.0
1.041393e+00 2.658747e-02 0.0
1.033481e+00 1.957657e-02 0.0
1.027121e+00 1.422246e-02 0.0
1.022032e+00 1.022914e-02 0.0
1.017968e+00 7.305464e-03 0.0
1.014717e+00 5.193930e-03 0.0
1.012105e+00 3.677454e-03 0.0
1.009996e+00 2.575515e-03 0.0
1.008294e+00 1.736781e-03 0.0
1.006951e+00 1.041024e-03 0.0
1.005962e+00 4.020003e-04 0.0
1.005341e+00 -2.536162e-04 0.0
1.004984e+00 -8.913481e-05 0.0
0.000000e+00 -9.772721e-05 0.0
1.000000e+00 -7.991978e-02 0.0
1.024305e+00 -7.936902e-02 0.0
1.051872e+00 -8.889182e-02 0.0
1.086237e+00 -1.084424e-01 0.0
1.131495e+00 -1.384914e-01 0.0
1.192501e+00 -1.793209e-01 0.0
1.270792e+00 -2.221783e-01 0.0
1.383621e+00 -2.896904e-01 0.0
1.475268e+00 -2.593155e-01 0.0
1.539858e+00 -2.020741e-01 0.0
1.585951e+00 -1.517284e-01 0.0
1.620057e+00 -1.121703e-01 0.0
1.644924e+00 -7.912878e-02 0.0
1.661067e+00 -4.886164e-02 0.0
1.668236e+00 -2.018487e-02 0.0
1.667164e+00 5.108226e-03 0.0
1.659194e+00 2.632179e-02 0.0
1.645501e+00 4.403033e-02 0.0
1.627059e+00 5.896823e-02 0.0
1.604517e+00 7.206398e-02 0.0
1.578188e+00 8.422292e-02 0.0
1.548126e+00 9.611110e-02 0.0
1.514255e+00 1.080487e-01 0.0
1.476491e+00 1.200420e-01 0.0
1.434849e+00 1.318944e-01 0.0
1.389509e+00 1.433233e-01 0.0
1.340843e+00 1.539497e-01 0.0
1.289448e+00 1.629853e-01 0.0
1.236368e+00 1.684542e-01 0.0
1.183657e+00 1.662894e-01 0.0
1.134666e+00 1.507787e-01 0.0
1.092990e+00 1.168696e-01 0.0
1.060465e+00 6.357966e-02 0.0
1.037453e+00 -3.591041e-03 0.0
1.024740e+00 -7.498290e-02 0.0
1.024455e+00 -1.451168e-01 0.0
1.044978e+00 -2.156024e-01 0.0
1.097414e+00 -2.795684e-01 0.0
1.180967e+00 -3.113623e-01 0.0
1.280756e+00 -2.922685e-01 0.0
1.378144e+00 -2.232677e-01 0.0
1.454168e+00 -1.212765e-01 0.0
1.494848e+00 -1.544143e-02 0.0
1.503931e+00 6.723584e-02 0.0
1.489066e+00 1.275538e-01 0.0
1.456040e+00 1.714307e-01 0.0
1.409512e+00 2.030704e-01 0.0
1.353454e+00 2.249206e-01 0.0
1.291244e+00 2.377843e-01 0.0
1.225955e+00 2.408001e-01 0.0
1.161067e+00 2.320881e-01 0.0
1.099894e+00 2.113674e-01 0.0
1.044778e+00 1.808261e-01 0.0
9.971438e-01 1.439575e-01 0.0
9.576678e-01 1.047356e-01 0.0
9.265464e-01 6.657242e-02 0.0
9.039111e-01 3.147066e-02 0.0
8.899976e-01 7.372059e-05 0.0
8.842710e-01 -2.783154e-02 0.0
8.861889e-01 -5.336212e-02 0.0
8.955467e-01 -7.727107e-02 0.0
9.121868e-01 -9.964118e-02 0.0
9.355708e-01 -1.195559e-01 0.0
9.647573e-01 -1.356232e-01 0.0
9.984217e-01 -1.464603e-01 0.0
1.034877e+00 -1.510833e-01 0.0
1.072148e+00 -1.493169e-01 0.0
1.108418e+00 -1.415957e-01 0.0
1.142097e+00 -1.285121e-01 0.0
1.171864e+00 -1.108754e-01 0.0
1.196676e+00 -8.970682e-02 0.0
1.215733e+00 -6.618914e-02 0.0
1.228371e+00 -4.148789e-02 0.0
1.233961e+00 -1.640880e-02 0.0
1.232154e+00 8.860110e-03 0.0
1.223478e+00 3.417536e-02 0.0
1.209207e+00 5.886684e-02 0.0
1.191380e+00 8.154558e-02 0.0
1.172622e+00 1.001513e-01 0.0
1.155496e+00 1.124551e-01 0.0
1.141674e+00 1.169433e-01 0.0
1.131310e+00 1.137477e-01 0.0
1.123404e+00 1.047428e-01 0.0
1.116807e+00 9.226469e-02 0.0
1.110683e+00 7.850734e-02 0.0
1.104513e+00 6.505854e-02 0.0
1.097976e+00 5.288413e-02 0.0
1.091007e+00 4.246074e-02 0.0
1.083712e+00 3.388417e-02 0.0
1.076272e+00 2.701767e-02 0.0
1.068878e+00 2.161845e-02 0.0
1.061689e+00 1.741931e-02 0.0
1.054826e+00 1.416983e-02 0.0
1.048370e+00 1.165094e-02 0.0
1.042374e+00 9.675010e-03 0.0
1.036871e+00 8.079504e-03 0.0
1.031890e+00 6.718861e-03 0.0
1.027473e+00 5.459203e-03 0.0
1.023706e+00 4.170231e-03 0.0
1.020682e+00 2.771739e-03 0.0
1.019574e+00 1.020395e-03 0.0
0.000000e+00 9.757927e-04 0.0
1.000000e+00 -9.930029e-02 0.0
1.019176e+00 -9.856996e-02 0.0
1.041514e+00 -1.112335e-01 0.0
1.070768e+00 -1.376977e-01 0.0
1.112113e+00 -1.798372e-01 0.0
1.172983e+00 -2.401894e-01 0.0
1.259125e+00 -3.083184e-01 0.0
1.403744e+00 -4.343057e-01 0.0
1.490946e+00 -3.465135e-01 0.0
1.538455e+00 -2.495784e-01 0.0
1.569763e+00 -1.830285e-01 0.0
1.593977e+00 -1.363703e-01 0.0
1.613915e+00 -9.905794e-02 0.0
1.629225e+00 -6.417911e-02 0.0
1.637824e+00 -2.878836e-02 0.0
1.638406e+00 4.531022e-03 0.0
1.632129e+00 3.259781e-02 0.0
1.620211e+00 5.595117e-02 0.0
1.603754e+00 7.542700e-02 0.0
1.583503e+00 9.231380e-02 0.0
1.559783e+00 1.079425e-01 0.0
1.532571e+00 1.233201e-01 0.0
1.501664e+00 1.389532e-01 0.0
1.466838e+00 1.548648e-01 0.0
1.427999e+00 1.707318e-01 0.0
1.385292e+00 1.860274e-01 0.0
1.339179e+00 2.000612e-01 0.0
1.290397e+00 2.117657e-01 0.0
1.239869e+00 2.189822e-01 0.0
1.189077e+00 2.170808e-01 0.0
1.140268e+00 1.995886e-01 0.0
1.094194e+00 1.629455e-01 0.0
1.047097e+00 1.106805e-01 0.0
9.939480e-01 4.956195e-02 0.0
9.386977e-01 -1.972745e-02 0.0
8.944230e-01 -1.008364e-01 0.0
8.761669e-01 -1.973402e-01 0.0
8.925922e-01 -2.959875e-01 0.0
9.472863e-01 -3.660512e-01 0.0
1.030260e+00 -3.752403e-01 0.0
1.126140e+00 -3.191480e-01 0.0
1.217884e+00 -2.130213e-01 0.0
1.289089e+00 -8.664719e-02 0.0
1.329463e+00 2.686091e-02 0.0
1.344950e+00 1.120671e-01 0.0
1.340518e+00 1.758639e-01 0.0
1.320362e+00 2.232269e-01 0.0
1.288226e+00 2.570574e-01 0.0
1.247515e+00 2.784961e-01 0.0
1.201228e+00 2.870873e-01 0.0
1.152211e+00 2.811058e-01 0.0
1.103337e+00 2.602410e-01 0.0
1.057110e+00 2.270535e-01 0.0
1.015151e+00 1.859168e-01 0.0
9.781815e-01 1.417052e-01 0.0
9.464516e-01 9.830266e-02 0.0
9.201572e-01 5.776543e-02 0.0
8.997393e-01 2.049198e-02 0.0
8.857747e-01 -1.386627e-02 0.0
8.783800e-01 -4.596654e-02 0.0
8.776814e-01 -7.657130e-02 0.0
8.835268e-01 -1.054854e-01 0.0
8.955084e-01 -1.315362e-01 0.0
9.128917e-01 -1.530060e-01 0.0
9.345825e-01 -1.681511e-01 0.0
9.591794e-01 -1.756799e-01 0.0
9.850087e-01 -1.751458e-01 0.0
1.010465e+00 -1.670515e-01 0.0
1.034194e+00 -1.522401e-01 0.0
1.055121e+00 -1.318019e-01 0.0
1.072404e+00 -1.069891e-01 0.0
1.085338e+00 -7.912142e-02 0.0
1.093285e+00 -4.943389e-02 0.0
1.095822e+00 -1.894394e-02 0.0
1.093317e+00 1.136651e-02 0.0
1.087180e+00 4.031408e-02 0.0
1.079422e+00 6.662635e-02 0.0
1.072327e+00 8.864209e-02 0.0
1.067901e+00 1.045789e-01 0.0
1.067198e+00 1.131603e-01 0.0
1.069920e+00 1.142230e-01 0.0
1.074501e+00 1.091687e-01 0.0
1.079271e+00 9.997511e-02 0.0
1.082958e+00 8.857873e-02 0.0
1.084854e+00 7.661303e-02 0.0
1.084708e+00 6.520675e-02 0.0
1.082592e+00 5.500202e-02 0.0
1.078794e+00 4.625964e-02 0.0
1.073700e+00 3.897980e-02 0.0
1.067701e+00 3.301841e-02 0.0
1.061148e+00 2.817313e-02 0.0
1.054333e+00 2.423479e-02 0.0
1.047493e+00 2.101178e-02 0.0
1.040808e+00 1.833706e-02 0.0
1.034419e+00 1.606571e-02 0.0
1.028432e+00 1.406760e-02 0.0
1.022935e+00 1.221690e-02 0.0
1.018016e+00 1.037929e-02 0.0
1.013805e+00 8.382664e-03 0.0
1.010479e+00 6.098893e-03 0.0
1.009329e+00 2.171462e-03 0.0
0.000000e+00 2.081271e-03 0.0
1.000000e+00 -1.117288e-01 0.0
1.012246e+00 -1.108378e-01 0.0
1.027071e+00 -1.260603e-01 0.0
1.047996e+00 -1.586231e-01 0.0
1.081083e+00 -2.129244e-01 0.0
1.136953e+00 -2.960579e-01 0.0
1.230445e+00 -4.018078e-01 0.0
1.412641e+00 -6.164985e-01 0.0
1.467039e+00 -4.009072e-01 0.0
1.475714e+00 -2.582469e-01 0.0
1.478310e+00 -1.856130e-01 0.0
1.483741e+00 -1.417881e-01 0.0
1.493956e+00 -1.092753e-01 0.0
1.508091e+00 -7.832286e-02 0.0
1.522003e+00 -4.269759e-02 0.0
1.529460e+00 -2.925809e-03 0.0
1.529646e+00 3.241468e-02 0.0
1.523801e+00 6.179835e-02 0.0
1.513485e+00 8.574302e-02 0.0
1.499688e+00 1.061094e-01 0.0
1.482761e+00 1.248673e-01 0.0
1.462557e+00 1.435222e-01 0.0
1.438651e+00 1.628560e-01 0.0
1.410576e+00 1.829380e-01 0.0
1.378010e+00 2.032963e-01 0.0
1.340940e+00 2.230959e-01 0.0
1.299763e+00 2.412366e-01 0.0
1.255239e+00 2.562897e-01 0.0
1.208101e+00 2.661205e-01 0.0
1.158569e+00 2.666138e-01 0.0
1.106918e+00 2.512410e-01 0.0
1.052169e+00 2.176982e-01 0.0
9.876047e-01 1.752486e-01 0.0
9.047097e-01 1.324618e-01 0.0
8.182548e-01 6.673302e-02 0.0
7.669541e-01 -4.952969e-02 0.0
7.575526e-01 -1.879327e-01 0.0
7.725628e-01 -3.109922e-01 0.0
8.053928e-01 -3.988782e-01 0.0
8.598989e-01 -4.297473e-01 0.0
9.317926e-01 -3.910428e-01 0.0
1.011838e+00 -2.930687e-01 0.0
1.087269e+00 -1.620783e-01 0.0
1.144334e+00 -3.020379e-02 0.0
1.179520e+00 7.688117e-02 0.0
1.196063e+00 1.593215e-01 0.0
1.197118e+00 2.221722e-01 0.0
1.185726e+00 2.684491e-01 0.0
1.164866e+00 2.993570e-01 0.0
1.137281e+00 3.146728e-01 0.0
1.105107e+00 3.132800e-01 0.0
1.070585e+00 2.947636e-01 0.0
1.035699e+00 2.619397e-01 0.0
1.001812e+00 2.198038e-01 0.0
9.697746e-01 1.737432e-01 0.0
9.402673e-01 1.278106e-01 0.0
9.140414e-01 8.399206e-02 0.0
8.919365e-01 4.259764e-02 0.0
8.748777e-01 3.193600e-03 0.0
8.633071e-01 -3.439457e-02 0.0
8.571243e-01 -7.038715e-02 0.0
8.560711e-01 -1.044307e-01 0.0
8.598448e-01 -1.353092e-01 0.0
8.680144e-01 -1.611756e-01 0.0
8.798833e-01 -1.800198e-01 0.0
8.944311e-01 -1.902273e-01 0.0
9.103269e-01 -1.910411e-01 0.0
9.261816e-01 -1.829057e-01 0.0
9.408412e-01 -1.668989e-01 0.0
9.534499e-01 -1.444097e-01 0.0
9.633981e-01 -1.169363e-01 0.0
9.702472e-01 -8.596948e-02 0.0
9.737665e-01 -5.295192e-02 0.0
9.742184e-01 -1.939451e-02 0.0
9.727673e-01 1.281908e-02 0.0
9.711401e-01 4.194283e-02 0.0
9.711517e-01 6.661643e-02 0.0
9.742558e-01 8.553970e-02 0.0
9.810572e-01 9.777933e-02 0.0
9.910319e-01 1.031875e-01 0.0
1.002655e+00 1.026015e-01 0.0
1.014174e+00 9.765214e-02 0.0
1.024223e+00 8.992723e-02 0.0
1.031944e+00 8.085967e-02 0.0
1.036987e+00 7.157201e-02 0.0
1.039392e+00 6.280288e-02 0.0
1.039451e+00 5.494479e-02 0.0
1.037582e+00 4.813080e-02 0.0
1.034235e+00 4.232770e-02 0.0
1.029840e+00 3.741498e-02 0.0
1.024774e+00 3.324032e-02 0.0
1.019358e+00 2.965275e-02 0.0
1.013852e+00 2.651883e-02 0.0
1.008464e+00 2.372658e-02 0.0
1.003350e+00 2.118103e-02 0.0
9.986236e-01 1.879493e-02 0.0
9.943669e-01 1.647481e-02 0.0
9.906464e-01 1.410101e-02 0.0
9.875509e-01 1.147939e-02 0.0
9.852243e-01 8.426783e-03 0.0
9.845304e-01 2.866641e-03 0.0
0.000000e+00 2.729494e-03 0.0
1.000000e+00 -1.156570e-01 0.0
1.003776e+00 -1.146317e-01 0.0
1.008709e+00 -1.309946e-01 0.0
1.016949e+00 -1.668633e-01 0.0
1.033726e+00 -2.297003e-01 0.0
1.071014e+00 -3.333443e-01 0.0
1.155967e+00 -4.867572e-01 0.0
1.366279e+00 -8.268076e-01 0.0
1.334982e+00 -3.696047e-01 0.0
1.271041e+00 -1.942969e-01 0.0
1.227319e+00 -1.418778e-01 0.0
1.200913e+00 -1.153800e-01 0.0
1.190937e+00 -9.930975e-02 0.0
1.198992e+00 -8.638110e-02 0.0
1.221205e+00 -6.490822e-02 0.0
1.248992e+00 -3.071242e-02 0.0
1.268473e+00 1.293660e-02 0.0
1.279628e+00 5.064448e-02 0.0
1.285437e+00 7.993246e-02 0.0
1.287582e+00 1.039632e-01 0.0
1.286655e+00 1.257912e-01 0.0
1.282360e+00 1.478154e-01 0.0
1.273922e+00 1.712923e-01 0.0
1.260473e+00 1.963855e-01 0.0
1.241316e+00 2.224523e-01 0.0
1.216128e+00 2.482825e-01 0.0
1.185113e+00 2.722523e-01 0.0
1.148977e+00 2.924260e-01 0.0
1.108397e+00 3.067011e-01 0.0
1.061017e+00 3.139968e-01 0.0
9.946574e-01 3.176029e-01 0.0
8.885827e-01 3.237767e-01 0.0
7.517397e-01 3.120963e-01 0.0
6.521653e-01 2.320416e-01 0.0
6.345439e-01 8.436049e-02 0.0
6.650745e-01 -8.005421e-02 0.0
7.004914e-01 -2.233440e-01 0.0
7.269456e-01 -3.374426e-01 0.0
7.475847e-01 -4.195174e-01 0.0
7.748445e-01 -4.570090e-01 0.0
8.164508e-01 -4.326508e-01 0.0
8.714019e-01 -3.480214e-01 0.0
9.325149e-01 -2.231913e-01 0.0
9.890482e-01 -8.673711e-02 0.0
1.030760e+00 3.516871e-02 0.0
1.057572e+00 1.325099e-01 0.0
1.071007e+00 2.087376e-01 0.0
1.073178e+00 2.662779e-01 0.0
1.066446e+00 3.060901e-01 0.0
1.053142e+00 3.279765e-01 0.0
1.034937e+00 3.314852e-01 0.0
1.013158e+00 3.165427e-01 0.0
9.889213e-01 2.861772e-01 0.0
9.631646e-01 2.455612e-01 0.0
9.369651e-01 1.999436e-01 0.0
9.117523e-01 1.530244e-01 0.0
8.890957e-01 1.066498e-01 0.0
8.701983e-01 6.149618e-02 0.0
8.555697e-01 1.782378e-02 0.0
8.451899e-01 -2.401322e-02 0.0
8.383769e-01 -6.357262e-02 0.0
8.344764e-01 -1.005290e-01 0.0
8.331982e-01 -1.340307e-01 0.0
8.345064e-01 -1.624836e-01 0.0
8.383005e-01 -1.838136e-01 0.0
8.441562e-01 -1.960826e-01 0.0
8.512540e-01 -1.981384e-01 0.0
8.585436e-01 -1.901947e-01 0.0
8.651116e-01 -1.734660e-01 0.0
8.703257e-01 -1.496229e-01 0.0
8.738670e-01 -1.204766e-01 0.0
8.757395e-01 -8.784101e-02 0.0
8.763484e-01 -5.355960e-02 0.0
8.766016e-01 -1.964639e-02 0.0
8.778137e-01 1.160840e-02 0.0
8.812369e-01 3.852116e-02 0.0
8.877734e-01 6.008155e-02 0.0
8.976736e-01 7.564122e-02 0.0
9.103631e-01 8.509158e-02 0.0
9.245556e-01 8.899683e-02 0.0
9.386498e-01 8.850904e-02 0.0
9.513822e-01 8.492151e-02 0.0
9.619013e-01 7.940979e-02 0.0
9.697845e-01 7.297824e-02 0.0
9.749847e-01 6.637341e-02 0.0
9.777239e-01 6.006537e-02 0.0
9.783813e-01 5.428892e-02 0.0
9.774036e-01 4.911013e-02 0.0
9.752394e-01 4.449338e-02 0.0
9.723011e-01 4.035467e-02 0.0
9.689458e-01 3.659701e-02 0.0
9.654682e-01 3.313178e-02 0.0
9.620983e-01 2.989007e-02 0.0
9.590024e-01 2.682371e-02 0.0
9.562875e-01 2.389722e-02 0.0
9.540085e-01 2.107512e-02 0.0
9.521789e-01 1.830566e-02 0.0
9.507827e-01 1.549847e-02 0.0
9.497933e-01 1.247007e-02 0.0
9.492081e-01 9.013190e-03 0.0
9.492736e-01 2.802472e-03 0.0
0.000000e+00 2.621780e-03 0.0
1.000000e+00 -1.103083e-01 0.0
9.945360e-01 -1.091826e-01 0.0
9.878613e-01 -1.243198e-01 0.0
9.789865e-01 -1.579877e-01 0.0
9.681952e-01 -2.189074e-01 0.0
9.601179e-01 -3.252647e-01 0.0
9.803437e-01 -5.069804e-01 0.0
1.129542e+00 -9.760021e-01 0.0
9.489278e-01 -1.889863e-01 0.0
7.765712e-01 -2.193942e-02 0.0
6.854972e-01 -5.080011e-02 0.0
6.225549e-01 -5.244662e-02 0.0
5.818840e-01 -5.864808e-02 0.0
5.836524e-01 -8.814833e-02 0.0
6.198321e-01 -1.010877e-01 0.0
6.778377e-01 -8.871464e-02 0.0
7.445106e-01 -5.373542e-02 0.0
8.012933e-01 -6.139172e-03 0.0
8.441550e-01 3.706892e-02 0.0
8.799311e-01 6.818536e-02 0.0
9.107844e-01 9.493623e-02 0.0
9.362856e-01 1.223128e-01 0.0
9.550822e-01 1.524943e-01 0.0
9.656371e-01 1.858298e-01 0.0
9.663776e-01 2.217110e-01 0.0
9.556354e-01 2.590243e-01 0.0
9.313630e-01 2.965253e-01 0.0
8.905070e-01 3.332832e-01 0.0
8.280524e-01 3.691580e-01 0.0
7.370240e-01 4.050280e-01 0.0
6.158194e-01 4.388112e-01 0.0
5.004013e-01 4.391994e-01 0.0
4.546389e-01 3.578642e-01 0.0
4.882495e-01 1.984370e-01 0.0
5.640797e-01 8.536402e-03 0.0
6.371495e-01 -1.531182e-01 0.0
6.897630e-01 -2.759529e-01 0.0
7.188890e-01 -3.665672e-01 0.0
7.306949e-01 -4.313256e-01 0.0
7.390974e-01 -4.654135e-01 0.0
7.568509e-01 -4.504061e-01 0.0
7.877870e-01 -3.789580e-01 0.0
8.292828e-01 -2.646876e-01 0.0
8.742512e-01 -1.317058e-01 0.0
9.131612e-01 -3.741831e-03 0.0
9.417037e-01 1.039669e-01 0.0
9.598370e-01 1.906045e-01 0.0
9.687554e-01 2.573595e-01 0.0
9.701690e-01 3.046766e-01 0.0
9.658481e-01 3.322972e-01 0.0
9.570635e-01 3.402700e-01 0.0
9.441532e-01 3.294536e-01 0.0
9.274403e-01 3.028909e-01 0.0
9.077192e-01 2.652833e-01 0.0
8.867464e-01 2.209175e-01 0.0
8.670279e-01 1.727441e-01 0.0
8.508623e-01 1.228168e-01 0.0
8.393519e-01 7.300820e-02 0.0
8.321067e-01 2.507082e-02 0.0
8.277793e-01 -1.968413e-02 0.0
8.246840e-01 -6.047592e-02 0.0
8.215200e-01 -9.736428e-02 0.0
8.179078e-01 -1.304182e-01 0.0
8.142406e-01 -1.588159e-01 0.0
8.111983e-01 -1.807709e-01 0.0
8.092226e-01 -1.941063e-01 0.0
8.082523e-01 -1.971676e-01 0.0
8.077813e-01 -1.897230e-01 0.0
8.072676e-01 -1.729515e-01 0.0
8.063617e-01 -1.487162e-01 0.0
8.050339e-01 -1.191480e-01 0.0
8.036535e-01 -8.645956e-02 0.0
8.029832e-01 -5.288819e-02 0.0
8.040137e-01 -2.067556e-02 0.0
8.075362e-01 8.087257e-03 0.0
8.139889e-01 3.206988e-02 0.0
8.233553e-01 5.071677e-02 0.0
8.350805e-01 6.391772e-02 0.0
8.481446e-01 7.202917e-02 0.0
8.613083e-01 7.583491e-02 0.0
8.734323e-01 7.638671e-02 0.0
8.837726e-01 7.458285e-02 0.0
8.919394e-01 7.124470e-02 0.0
8.978602e-01 6.705914e-02 0.0
9.017124e-01 6.252275e-02 0.0
9.038337e-01 5.794573e-02 0.0
9.046360e-01 5.348820e-02 0.0
9.045393e-01 4.920835e-02 0.0
9.039239e-01 4.511032e-02 0.0
9.031035e-01 4.117649e-02 0.0
9.023193e-01 3.738258e-02 0.0
9.017470e-01 3.370548e-02 0.0
9.015046e-01 3.013378e-02 0.0
9.016564e-01 2.667316e-02 0.0
9.022175e-01 2.333745e-02 0.0
9.031602e-01 2.013365e-02 0.0
9.044209e-01 1.704630e-02 0.0
9.058998e-01 1.402083e-02 0.0
9.074442e-01 1.092685e-02 0.0
9.088551e-01 7.603621e-03 0.0
9.097964e-01 1.862470e-03 0.0
0.000000e+00 1.642765e-03 0.0
1.000000e+00 -9.630708e-02 0.0
9.859262e-01 -9.512004e-02 0.0
9.679439e-01 -1.063366e-01 0.0
9.408278e-01 -1.308699e-01 0.0
8.958064e-01 -1.738839e-01 0.0
8.156478e-01 -2.451035e-01 0.0
6.742134e-01 -3.655434e-01 0.0
1.889855e-01 -4.907721e-01 0.0
-9.501755e-01 4.938207e-01 0.0
0.000000e+00 -3.873624e-02 0.0
-1.093453e-01 3.661317e-02 0.0
-1.400615e-01 -2.174023e-02 0.0
-9.566290e-02 -1.030476e-01 0.0
-1.927902e-02 -1.645304e-01 0.0
5.189323e-02 -1.722576e-01 0.0
1.266861e-01 -1.635056e-01 0.0
2.086952e-01 -1.357449e-01 0.0
2.945198e-01 -9.196629e-02 0.0
3.738874e-01 -4.229981e-02 0.0
4.397094e-01 2.361510e-03 0.0
4.953828e-01 3.926139e-02 0.0
5.420915e-01 7.560292e-02 0.0
5.782317e-01 1.163532e-01 0.0
6.019765e-01 1.620845e-01 0.0
6.110254e-01 2.126618e-01 0.0
6.026131e-01 2.674372e-01 0.0
5.736524e-01 3.254872e-01 0.0
5.211964e-01 3.857413e-01 0.0
4.444505e-01 4.459068e-01 0.0
3.520610e-01 4.974210e-01 0.0
2.808724e-01 5.100042e-01 0.0
2.781977e-01 4.418796e-01 0.0
3.442289e-01 2.918389e-01 0.0
4.503359e-01 9.233625e-02 0.0
5.565671e-01 -9.768874e-02 0.0
6.441389e-01 -2.406848e-01 0.0
7.059674e-01 -3.377786e-01 0.0
7.384277e-01 -3.990291e-01 0.0
7.448256e-01 -4.377258e-01 0.0
7.380402e-01 -4.586296e-01 0.0
7.359327e-01 -4.482999e-01 0.0
7.464576e-01 -3.894837e-01 0.0
7.689153e-01 -2.871459e-01 0.0
7.986987e-01 -1.614905e-01 0.0
8.288235e-01 -3.386733e-02 0.0
8.532973e-01 7.949258e-02 0.0
8.706713e-01 1.732301e-01 0.0
8.812367e-01 2.467940e-01 0.0
8.859975e-01 2.999156e-01 0.0
8.859965e-01 3.322981e-01 0.0
8.817648e-01 3.445021e-01 0.0
8.729987e-01 3.382204e-01 0.0
8.598516e-01 3.160390e-01 0.0
8.438535e-01 2.812827e-01 0.0
8.279626e-01 2.368098e-01 0.0
8.154504e-01 1.852578e-01 0.0
8.084307e-01 1.298383e-01 0.0
8.071318e-01 7.430899e-02 0.0
8.101303e-01 2.207427e-02 0.0
8.149342e-01 -2.448631e-02 0.0
8.187967e-01 -6.433725e-02 0.0
8.195541e-01 -9.812119e-02 0.0
8.163706e-01 -1.272342e-01 0.0
8.097277e-01 -1.521725e-01 0.0
8.009766e-01 -1.720192e-01 0.0
7.916247e-01 -1.847539e-01 0.0
7.826849e-01 -1.882271e-01 0.0
7.745123e-01 -1.815497e-01 0.0
7.671602e-01 -1.655987e-01 0.0
7.606868e-01 -1.422420e-01 0.0
7.552972e-01 -1.137575e-01 0.0
7.514217e-01 -8.258302e-02 0.0
7.496346e-01 -5.110002e-02 0.0
7.504150e-01 -2.145468e-02 0.0
7.538451e-01 4.658484e-03 0.0
7.597187e-01 2.619773e-02 0.0
7.675431e-01 4.289389e-02 0.0
7.765510e-01 5.491141e-02 0.0
7.858580e-01 6.272390e-02 0.0
7.946708e-01 6.702378e-02 0.0
8.024574e-01 6.860169e-02 0.0
8.089393e-01 6.810267e-02 0.0
8.141143e-01 6.607135e-02 0.0
8.181637e-01 6.301137e-02 0.0
8.213729e-01 5.931517e-02 0.0
8.240554e-01 5.526484e-02 0.0
8.265004e-01 5.104473e-02 0.0
8.289494e-01 4.676085e-02 0.0
8.315835e-01 4.247773e-02 0.0
8.345167e-01 3.824472e-02 0.0
8.378074e-01 3.409333e-02 0.0
8.414862e-01 3.002799e-02 0.0
8.455730e-01 2.604831e-02 0.0
8.500665e-01 2.218104e-02 0.0
8.549301e-01 1.847505e-02 0.0
8.600874e-01 1.497762e-02 0.0
8.654210e-01 1.171403e-02 0.0
8.707649e-01 8.678174e-03 0.0
8.758338e-01 5.859247e-03 0.0
8.802482e-01 3.190481e-03 0.0
8.823062e-01 -1.942681e-04 0.0
0.000000e+00 -4.435280e-04 0.0
1.000000e+00 -7.592472e-02 0.0
9.795886e-01 -7.471627e-02 0.0
9.535444e-01 -8.029048e-02 0.0
9.140762e-01 -9.139931e-02 0.0
8.472050e-01 -1.070101e-01 0.0
7.239127e-01 -1.218081e-01 0.0
4.701266e-01 -1.117542e-01 0.0
-6.252798e-03 -1.439152e-02 0.0
1.047651e-05 0.000000e+00 0.0
0.000000e+00 -0.000000e+00 0.0
0.000000e+00 -9.681356e-02 0.0
-1.152894e-01 9.354756e-02 0.0
-1.341327e-01 -8.420147e-02 0.0
-1.421416e-01 -1.565209e-01 0.0
-1.552299e-01 -1.591670e-01 0.0
-1.504616e-01 -1.682749e-01 0.0
-1.164830e-01 -1.697250e-01 0.0
-5.592421e-02 -1.525273e-01 0.0
1.840871e-02 -1.166344e-01 0.0
9.119863e-02 -7.042986e-02 0.0
1.517669e-01 -2.130815e-02 0.0
2.006561e-01 2.671271e-02 0.0