# vtk DataFile Version 3.0
Vector Field
ASCII
DATASET RECTILINEAR_GRID
DIMENSIONS 102 22 1
X_COORDINATES 102 double
0.000000 0.100000 0.200000 0.300000 0.400000 0.500000 0.600000 0.700000 0.800000 0.900000 1.000000 1.100000 1.200000 1.300000 1.400000 1.500000 1.600000 1.700000 1.800000 1.900000 2.000000 2.100000 2.200000 2.300000 2.400000 2.500000 2.600000 2.700000 2.800000 2.900000 3.000000 3.100000 3.200000 3.300000 3.400000 3.500000 3.600000 3.700000 3.800000 3.900000 4.000000 4.100000 4.200000 4.300000 4.400000 4.500000 4.600000 4.700000 4.800000 4.900000 5.000000 5.100000 5.200000 5.300000 5.400000 5.500000 5.600000 5.700000 5.800000 5.900000 6.000000 6.100000 6.200000 6.300000 6.400000 6.500000 6.600000 6.700000 6.800000 6.900000 7.000000 7.100000 7.200000 7.300000 7.400000 7.500000 7.600000 7.700000 7.800000 7.900000 8.000000 8.100000 8.200000 8.300000 8.400000 8.500000 8.600000 8.700000 8.800000 8.900000 9.000000 9.100000 9.200000 9.300000 9.400000 9.500000 9.600000 9.700000 9.800000 9.900000 10.000000 10.100000 
Y_COORDINATES 22 double
0.000000 0.100000 0.200000 0.300000 0.400000 0.500000 0.600000 0.700000 0.800000 0.900000 1.000000 1.100000 1.200000 1.300000 1.400000 1.500000 1.600000 1.700000 1.800000 1.900000 2.000000 2.100000 
Z_COORDINATES 1 double
0.0
POINT_DATA 2244
VECTORS Velocity double
0.000000e+00 0.000000e+00 0.0
-1.028671e+00 0.000000e+00 0.0
-1.060460e+00 0.000000e+00 0.0
-1.098614e+00 0.000000e+00 0.0
-1.146174e+00 0.000000e+00 0.0
-1.205716e+00 0.000000e+00 0.0
-1.277257e+00 0.000000e+00 0.0
-1.361728e+00 0.000000e+00 0.0
-1.442663e+00 0.000000e+00 0.0
-1.509070e+00 0.000000e+00 0.0
-1.558468e+00 0.000000e+00 0.0
-1.592235e+00 0.000000e+00 0.0
-1.612502e+00 0.000000e+00 0.0
-1.621313e+00 0.000000e+00 0.0
-1.620717e+00 0.000000e+00 0.0
-1.612489e+00 0.000000e+00 0.0
-1.597966e+00 0.000000e+00 0.0
-1.578112e+00 0.000000e+00 0.0
-1.553578e+00 0.000000e+00 0.0
-1.524768e+00 0.000000e+00 0.0
-1.491929e+00 0.000000e+00 0.0
-1.455227e+00 0.000000e+00 0.0
-1.414795e+00 0.000000e+00 0.0
-1.370739e+00 0.000000e+00 0.0
-1.323120e+00 0.000000e+00 0.0
-1.272090e+00 0.000000e+00 0.0
-1.218389e+00 0.000000e+00 0.0
-1.164150e+00 0.000000e+00 0.0
-1.113654e+00 0.000000e+00 0.0
-1.073994e+00 0.000000e+00 0.0
-1.054724e+00 0.000000e+00 0.0
-1.065529e+00 0.000000e+00 0.0
-1.112626e+00 0.000000e+00 0.0
-1.195539e+00 0.000000e+00 0.0
-1.304859e+00 0.000000e+00 0.0
-1.424254e+00 0.000000e+00 0.0
-1.534082e+00 0.000000e+00 0.0
-1.616021e+00 0.000000e+00 0.0
-1.658491e+00 0.000000e+00 0.0
-1.662182e+00 0.000000e+00 0.0
-1.636742e+00 0.000000e+00 0.0
-1.591072e+00 0.000000e+00 0.0
-1.531269e+00 0.000000e+00 0.0
-1.461205e+00 0.000000e+00 0.0
-1.383211e+00 0.000000e+00 0.0
-1.298829e+00 0.000000e+00 0.0
-1.209766e+00 0.000000e+00 0.0
-1.118847e+00 0.000000e+00 0.0
-1.030149e+00 0.000000e+00 0.0
-9.486418e-01 0.000000e+00 0.0
-8.793314e-01 0.000000e+00 0.0
-8.261476e-01 0.000000e+00 0.0
-7.910647e-01 0.000000e+00 0.0
-7.738900e-01 0.000000e+00 0.0
-7.726902e-01 0.000000e+00 0.0
-7.847472e-01 0.000000e+00 0.0
-8.082172e-01 0.000000e+00 0.0
-8.419486e-01 0.000000e+00 0.0
-8.851094e-01 0.000000e+00 0.0
-9.368613e-01 0.000000e+00 0.0
-9.959599e-01 0.000000e+00 0.0
-1.060626e+00 0.000000e+00 0.0
-1.128505e+00 0.000000e+00 0.0
-1.196889e+00 0.000000e+00 0.0
-1.263168e+00 0.000000e+00 0.0
-1.324871e+00 0.000000e+00 0.0
-1.379728e+00 0.000000e+00 0.0
-1.425794e+00 0.000000e+00 0.0
-1.461603e+00 0.000000e+00 0.0
-1.486347e+00 0.000000e+00 0.0
-1.500049e+00 0.000000e+00 0.0
-1.503475e+00 0.000000e+00 0.0
-1.497173e+00 0.000000e+00 0.0
-1.480709e+00 0.000000e+00 0.0
-1.453261e+00 0.000000e+00 0.0
-1.414020e+00 0.000000e+00 0.0
-1.362825e+00 0.000000e+00 0.0
-1.301089e+00 0.000000e+00 0.0
-1.232490e+00 0.000000e+00 0.0
-1.162453e+00 0.000000e+00 0.0
-1.096198e+00 0.000000e+00 0.0
-1.037440e+00 0.000000e+00 0.0
-9.881637e-01 0.000000e+00 0.0
-9.488322e-01 0.000000e+00 0.0
-9.187771e-01 0.000000e+00 0.0
-8.966621e-01 0.000000e+00 0.0
-8.809142e-01 0.000000e+00 0.0
-8.700226e-01 0.000000e+00 0.0
-8.626939e-01 0.000000e+00 0.0
-8.578998e-01 0.000000e+00 0.0
-8.548625e-01 0.000000e+00 0.0
-8.530141e-01 0.000000e+00 0.0
-8.519512e-01 0.000000e+00 0.0
-8.513956e-01 0.000000e+00 0.0
-8.511633e-01 0.000000e+00 0.0
-8.511431e-01 0.000000e+00 0.0
-8.512831e-01 0.000000e+00 0.0
-8.515752e-01 0.000000e+00 0.0
-8.520476e-01 0.000000e+00 0.0
-8.527806e-01 0.000000e+00 0.0
-8.527806e-01 0.000000e+00 0.0
0.000000e+00 0.000000e+00 0.0
1.000000e+00 -2.854952e-02 0.0
1.028498e+00 -2.839192e-02 0.0
1.060116e+00 -3.155648e-02 0.0
1.098093e+00 -3.791585e-02 0.0
1.145475e+00 -4.732128e-02 0.0
1.204848e+00 -5.931145e-02 0.0
1.276256e+00 -7.134700e-02 0.0
1.360675e+00 -8.435746e-02 0.0
1.441740e+00 -8.100429e-02 0.0
1.508520e+00 -6.671851e-02 0.0
1.558537e+00 -4.995585e-02 0.0
1.593127e+00 -3.452971e-02 0.0
1.614333e+00 -2.114469e-02 0.0
1.624071e+00 -9.676660e-03 0.0
1.624278e+00 -1.461728e-04 0.0
1.616718e+00 7.621918e-03 0.0
1.602745e+00 1.403363e-02 0.0
1.583355e+00 1.945148e-02 0.0
1.559224e+00 2.419240e-02 0.0
1.530771e+00 2.851396e-02 0.0
1.498240e+00 3.259232e-02 0.0
1.461783e+00 3.651773e-02 0.0
1.421524e+00 4.032026e-02 0.0
1.377567e+00 4.401842e-02 0.0
1.329980e+00 4.764742e-02 0.0
1.278879e+00 5.116310e-02 0.0
1.224821e+00 5.411851e-02 0.0
1.169592e+00 5.529046e-02 0.0
1.116953e+00 5.269971e-02 0.0
1.073370e+00 4.364457e-02 0.0
1.047969e+00 2.546192e-02 0.0
1.050727e+00 -2.696481e-03 0.0
1.088909e+00 -3.812110e-02 0.0
1.163960e+00 -7.498933e-02 0.0
1.268833e+00 -1.048117e-01 0.0
1.389046e+00 -1.201522e-01 0.0
1.505381e+00 -1.162735e-01 0.0
1.598527e+00 -9.308452e-02 0.0
1.653956e+00 -5.536851e-02 0.0
1.668315e+00 -1.429796e-02 0.0
1.649886e+00 1.849087e-02 0.0
1.608394e+00 4.155351e-02 0.0
1.550993e+00 5.746185e-02 0.0
1.482288e+00 6.876653e-02 0.0
1.405111e+00 7.723804e-02 0.0
1.321240e+00 8.393236e-02 0.0
1.232318e+00 8.898273e-02 0.0
1.140907e+00 9.147229e-02 0.0
1.050839e+00 9.012903e-02 0.0
9.669393e-01 8.396141e-02 0.0
8.942863e-01 7.271436e-02 0.0
8.371070e-01 5.724058e-02 0.0
7.978101e-01 3.935813e-02 0.0
7.766231e-01 2.124832e-02 0.0
7.719180e-01 4.766353e-03 0.0
7.809714e-01 -8.992159e-03 0.0
8.016901e-01 -2.065734e-02 0.0
8.327989e-01 -3.104749e-02 0.0
8.734255e-01 -4.056536e-02 0.0
9.227689e-01 -4.928208e-02 0.0
9.797355e-01 -5.690531e-02 0.0
1.042691e+00 -6.289379e-02 0.0
1.109462e+00 -6.671053e-02 0.0
1.177427e+00 -6.790337e-02 0.0
1.243976e+00 -6.648785e-02 0.0
1.306646e+00 -6.260857e-02 0.0
1.363147e+00 -5.643920e-02 0.0
1.411468e+00 -4.825950e-02 0.0
1.450019e+00 -3.849031e-02 0.0
1.477802e+00 -2.772143e-02 0.0
1.494585e+00 -1.672118e-02 0.0
1.500940e+00 -6.293723e-03 0.0
1.497656e+00 3.344522e-03 0.0
1.484498e+00 1.321937e-02 0.0
1.460721e+00 2.383876e-02 0.0
1.425453e+00 3.532896e-02 0.0
1.378225e+00 4.728935e-02 0.0
1.319825e+00 5.846177e-02 0.0
1.253157e+00 6.672957e-02 0.0
1.183213e+00 7.000550e-02 0.0
1.115479e+00 6.779528e-02 0.0
1.054190e+00 6.134973e-02 0.0
1.001887e+00 5.236451e-02 0.0
9.594869e-01 4.246176e-02 0.0
9.266471e-01 3.290117e-02 0.0
9.022035e-01 2.450499e-02 0.0
8.846255e-01 1.763942e-02 0.0
8.723625e-01 1.232434e-02 0.0
8.640439e-01 8.379978e-03 0.0
8.585566e-01 5.548660e-03 0.0
8.550469e-01 3.571152e-03 0.0
8.528852e-01 2.223025e-03 0.0
8.516217e-01 1.324888e-03 0.0
8.509440e-01 7.391470e-04 0.0
8.506438e-01 3.615953e-04 0.0
8.505930e-01 1.121469e-04 0.0
8.507290e-01 -7.456240e-05 0.0
8.510343e-01 -2.439763e-04 0.0
8.515292e-01 -4.334419e-04 0.0
8.522851e-01 -6.944886e-04 0.0
8.527806e-01 -4.341741e-04 0.0
0.000000e+00 -4.310819e-04 0.0
1.000000e+00 -5.754293e-02 0.0
1.028887e+00 -5.721780e-02 0.0
1.060925e+00 -6.357886e-02 0.0
1.099477e+00 -7.645121e-02 0.0
1.147896e+00 -9.572459e-02 0.0
1.209445e+00 -1.208450e-01 0.0
1.284309e+00 -1.461944e-01 0.0
1.378628e+00 -1.786610e-01 0.0
1.465093e+00 -1.674528e-01 0.0
1.532753e+00 -1.343629e-01 0.0
1.582194e+00 -9.938069e-02 0.0
1.616528e+00 -6.884773e-02 0.0
1.638215e+00 -4.281566e-02 0.0
1.648989e+00 -2.043552e-02 0.0
1.650577e+00 -1.718130e-03 0.0
1.644671e+00 1.354463e-02 0.0
1.632576e+00 2.614404e-02 0.0
1.615267e+00 3.677691e-02 0.0
1.593409e+00 4.606585e-02 0.0
1.567408e+00 5.453094e-02 0.0
1.537481e+00 6.253494e-02 0.0
1.503749e+00 7.026584e-02 0.0
1.466305e+00 7.778015e-02 0.0
1.425259e+00 8.508082e-02 0.0
1.380767e+00 9.215554e-02 0.0
1.333096e+00 9.884975e-02 0.0
1.282766e+00 1.044648e-01 0.0
1.230953e+00 1.071189e-01 0.0
1.180425e+00 1.032443e-01 0.0
1.136126e+00 8.795937e-02 0.0
1.105243e+00 5.636112e-02 0.0
1.095748e+00 6.814425e-03 0.0
1.111914e+00 -5.427195e-02 0.0
1.153895e+00 -1.169544e-01 0.0
1.221035e+00 -1.719351e-01 0.0
1.310786e+00 -2.098871e-01 0.0
1.413110e+00 -2.185819e-01 0.0
1.512793e+00 -1.927517e-01 0.0
1.592633e+00 -1.351929e-01 0.0
1.638231e+00 -5.987966e-02 0.0
1.646499e+00 1.023949e-02 0.0
1.626841e+00 6.122696e-02 0.0
1.587200e+00 9.711922e-02 0.0
1.533307e+00 1.226750e-01 0.0
1.469115e+00 1.414466e-01 0.0
1.397504e+00 1.555586e-01 0.0
1.320962e+00 1.655414e-01 0.0
1.241883e+00 1.705665e-01 0.0
1.163130e+00 1.688981e-01 0.0
1.088221e+00 1.588871e-01 0.0
1.020640e+00 1.403113e-01 0.0
9.632804e-01 1.146159e-01 0.0
9.180802e-01 8.457425e-02 0.0
8.858728e-01 5.347177e-02 0.0
8.665370e-01 2.411813e-02 0.0
8.593099e-01 -1.749089e-03 0.0
8.626036e-01 -2.393507e-02 0.0
8.753015e-01 -4.372936e-02 0.0
8.966814e-01 -6.192929e-02 0.0
9.261576e-01 -7.874231e-02 0.0
9.632306e-01 -9.396227e-02 0.0
1.006992e+00 -1.066392e-01 0.0
1.055888e+00 -1.155905e-01 0.0
1.107825e+00 -1.198247e-01 0.0
1.160422e+00 -1.190685e-01 0.0
1.211428e+00 -1.135988e-01 0.0
1.258755e+00 -1.037496e-01 0.0
1.300566e+00 -9.005480e-02 0.0
1.335385e+00 -7.329328e-02 0.0
1.362172e+00 -5.449240e-02 0.0
1.380311e+00 -3.484396e-02 0.0
1.389417e+00 -1.538419e-02 0.0
1.389142e+00 3.635477e-03 0.0
1.379418e+00 2.295954e-02 0.0
1.360429e+00 4.284378e-02 0.0
1.333009e+00 6.276529e-02 0.0
1.298995e+00 8.131923e-02 0.0
1.261234e+00 9.623823e-02 0.0
1.222955e+00 1.050246e-01 0.0
1.186865e+00 1.061113e-01 0.0
1.154652e+00 1.000242e-01 0.0
1.127069e+00 8.894884e-02 0.0
1.103971e+00 7.547891e-02 0.0
1.084768e+00 6.168067e-02 0.0
1.068914e+00 4.877165e-02 0.0
1.055903e+00 3.753179e-02 0.0
1.045294e+00 2.826423e-02 0.0
1.036706e+00 2.092876e-02 0.0
1.029802e+00 1.529970e-02 0.0
1.024282e+00 1.108437e-02 0.0
1.019877e+00 7.992298e-03 0.0
1.016350e+00 5.766536e-03 0.0
1.013498e+00 4.192400e-03 0.0
1.011158e+00 3.095108e-03 0.0
1.009203e+00 2.332751e-03 0.0
1.007543e+00 1.787688e-03 0.0
1.006126e+00 1.358509e-03 0.0
1.004941e+00 9.572823e-04 0.0
1.004013e+00 5.106209e-04 0.0
1.003389e+00 -5.449618e-05 0.0
1.003100e+00 -1.289892e-04 0.0
0.000000e+00 -1.338195e-04 0.0
1.000000e+00 -8.313233e-02 0.0
1.025488e+00 -8.264502e-02 0.0
1.054214e+00 -9.228872e-02 0.0
1.089814e+00 -1.120347e-01 0.0
1.136397e+00 -1.422921e-01 0.0
1.198818e+00 -1.832496e-01 0.0
1.278498e+00 -2.258592e-01 0.0
1.392964e+00 -2.931106e-01 0.0
1.485103e+00 -2.595755e-01 0.0
1.548685e+00 -1.979289e-01 0.0
1.592267e+00 -1.429467e-01 0.0
1.622290e+00 -9.885520e-02 0.0
1.641592e+00 -6.210162e-02 0.0
1.651206e+00 -3.003333e-02 0.0
1.652200e+00 -2.696646e-03 0.0
1.646126e+00 1.963483e-02 0.0
1.634193e+00 3.809285e-02 0.0
1.617356e+00 5.363025e-02 0.0
1.596284e+00 6.715379e-02 0.0
1.571365e+00 7.946544e-02 0.0
1.542769e+00 9.114731e-02 0.0
1.510545e+00 1.025060e-01 0.0
1.474723e+00 1.136178e-01 0.0
1.435393e+00 1.244266e-01 0.0
1.392758e+00 1.348066e-01 0.0
1.347165e+00 1.444591e-01 0.0
1.299163e+00 1.524826e-01 0.0
1.249793e+00 1.565046e-01 0.0
1.201187e+00 1.518667e-01 0.0
1.156657e+00 1.325054e-01 0.0
1.119392e+00 9.364128e-02 0.0
1.091049e+00 3.517366e-02 0.0
1.073463e+00 -3.667014e-02 0.0
1.068088e+00 -1.115627e-01 0.0
1.079218e+00 -1.830492e-01 0.0
1.117743e+00 -2.483962e-01 0.0
1.190279e+00 -2.911025e-01 0.0
1.285525e+00 -2.879814e-01 0.0
1.385496e+00 -2.351477e-01 0.0
1.469186e+00 -1.435538e-01 0.0
1.518606e+00 -3.916474e-02 0.0
1.532727e+00 4.712199e-02 0.0
1.521145e+00 1.087168e-01 0.0
1.490579e+00 1.532573e-01 0.0
1.446071e+00 1.859703e-01 0.0
1.391620e+00 2.100260e-01 0.0
1.330454e+00 2.267237e-01 0.0
1.265240e+00 2.357958e-01 0.0
1.198745e+00 2.354094e-01 0.0
1.134139e+00 2.235094e-01 0.0
1.074255e+00 2.002108e-01 0.0
1.021151e+00 1.677357e-01 0.0
9.760883e-01 1.296533e-01 0.0
9.395834e-01 8.999264e-02 0.0
9.117884e-01 5.192913e-02 0.0
8.929154e-01 1.713992e-02 0.0
8.828956e-01 -1.389937e-02 0.0
8.810609e-01 -4.187861e-02 0.0
8.870360e-01 -6.788835e-02 0.0
9.007928e-01 -9.248319e-02 0.0
9.219875e-01 -1.151410e-01 0.0
9.498500e-01 -1.344857e-01 0.0
9.831670e-01 -1.488914e-01 0.0
1.020326e+00 -1.569673e-01 0.0
1.059261e+00 -1.579876e-01 0.0
1.097908e+00 -1.522299e-01 0.0
1.134411e+00 -1.402370e-01 0.0
1.167196e+00 -1.228240e-01 0.0
1.195002e+00 -1.010826e-01 0.0
1.216865e+00 -7.633985e-02 0.0
1.232038e+00 -5.000120e-02 0.0
1.239873e+00 -2.320266e-02 0.0
1.239968e+00 3.556754e-03 0.0
1.232773e+00 3.017020e-02 0.0
1.219529e+00 5.610356e-02 0.0
1.202237e+00 8.007367e-02 0.0
1.183504e+00 1.000682e-01 0.0
1.165955e+00 1.138031e-01 0.0
1.151386e+00 1.196100e-01 0.0
1.140148e+00 1.173653e-01 0.0
1.131335e+00 1.088533e-01 0.0
1.123839e+00 9.646033e-02 0.0
1.116839e+00 8.249525e-02 0.0
1.109864e+00 6.867151e-02 0.0
1.102615e+00 5.603704e-02 0.0
1.095030e+00 4.513237e-02 0.0
1.087213e+00 3.609734e-02 0.0
1.079336e+00 2.882119e-02 0.0
1.071578e+00 2.307409e-02 0.0
1.064085e+00 1.859375e-02 0.0
1.056962e+00 1.513092e-02 0.0
1.050277e+00 1.246757e-02 0.0
1.044066e+00 1.041997e-02 0.0
1.038342e+00 8.835006e-03 0.0
1.033107e+00 7.583481e-03 0.0
1.028358e+00 6.552209e-03 0.0
1.024097e+00 5.635718e-03 0.0
1.020342e+00 4.728933e-03 0.0
1.017152e+00 3.716489e-03 0.0
1.014595e+00 2.518736e-03 0.0
1.013708e+00 7.735608e-04 0.0
0.000000e+00 7.350716e-04 0.0
1.000000e+00 -1.035129e-01 0.0
1.020288e+00 -1.028723e-01 0.0
1.043728e+00 -1.157123e-01 0.0
1.074184e+00 -1.424745e-01 0.0
1.116875e+00 -1.849670e-01 0.0
1.179279e+00 -2.456383e-01 0.0
1.267115e+00 -3.136787e-01 0.0
1.414351e+00 -4.403310e-01 0.0
1.502757e+00 -3.479661e-01 0.0
1.550129e+00 -2.452847e-01 0.0
1.580221e+00 -1.730223e-01 0.0
1.601939e+00 -1.205572e-01 0.0
1.617604e+00 -7.775108e-02 0.0
1.626670e+00 -3.908370e-02 0.0
1.628190e+00 -4.200305e-03 0.0
1.623071e+00 2.476930e-02 0.0
1.612352e+00 4.882819e-02 0.0
1.597015e+00 6.898300e-02 0.0
1.577773e+00 8.641224e-02 0.0
1.554996e+00 1.022585e-01 0.0
1.528772e+00 1.173869e-01 0.0
1.499034e+00 1.322597e-01 0.0
1.465695e+00 1.469732e-01 0.0
1.428763e+00 1.613741e-01 0.0
1.388444e+00 1.751421e-01 0.0
1.345183e+00 1.877357e-01 0.0
1.299614e+00 1.980672e-01 0.0
1.252442e+00 2.036929e-01 0.0
1.204836e+00 1.994888e-01 0.0
1.158402e+00 1.789554e-01 0.0
1.112767e+00 1.392917e-01 0.0
1.063250e+00 8.470723e-02 0.0
1.006220e+00 2.037549e-02 0.0
9.477652e-01 -5.309176e-02 0.0
9.028809e-01 -1.381489e-01 0.0
8.910100e-01 -2.365093e-01 0.0
9.263422e-01 -3.264188e-01 0.0
1.004452e+00 -3.660756e-01 0.0
1.106366e+00 -3.370457e-01 0.0
1.211177e+00 -2.483490e-01 0.0
1.298406e+00 -1.263769e-01 0.0
1.351573e+00 -6.029386e-03 0.0
1.374691e+00 8.561483e-02 0.0
1.374880e+00 1.530845e-01 0.0
1.357356e+00 2.035103e-01 0.0
1.326381e+00 2.410171e-01 0.0
1.285626e+00 2.674946e-01 0.0
1.238301e+00 2.831367e-01 0.0
1.187147e+00 2.865791e-01 0.0
1.134989e+00 2.756834e-01 0.0
1.084578e+00 2.506373e-01 0.0
1.038095e+00 2.142356e-01 0.0
9.967293e-01 1.710345e-01 0.0
9.609002e-01 1.258378e-01 0.0
9.307041e-01 8.214123e-02 0.0
9.063607e-01 4.149935e-02 0.0
8.885041e-01 3.973185e-03 0.0
8.774723e-01 -3.083081e-02 0.0
8.734380e-01 -6.383808e-02 0.0
8.763909e-01 -9.542006e-02 0.0
8.860367e-01 -1.247708e-01 0.0
9.017764e-01 -1.502095e-01 0.0
9.226322e-01 -1.697313e-01 0.0
9.472580e-01 -1.815771e-01 0.0
9.739852e-01 -1.846988e-01 0.0
1.001009e+00 -1.792371e-01 0.0
1.026747e+00 -1.659591e-01 0.0
1.049917e+00 -1.459787e-01 0.0
1.069519e+00 -1.206682e-01 0.0
1.084748e+00 -9.155309e-02 0.0
1.094913e+00 -6.015033e-02 0.0
1.099513e+00 -2.778586e-02 0.0
1.098711e+00 4.374737e-03 0.0
1.093801e+00 3.509546e-02 0.0
1.086750e+00 6.317136e-02 0.0
1.079842e+00 8.699734e-02 0.0
1.075167e+00 1.047592e-01 0.0
1.073939e+00 1.150469e-01 0.0
1.076049e+00 1.175159e-01 0.0
1.080080e+00 1.133502e-01 0.0
1.084376e+00 1.045738e-01 0.0
1.087649e+00 9.320282e-02 0.0
1.089176e+00 8.098462e-02 0.0
1.088703e+00 6.916021e-02 0.0
1.086296e+00 5.845986e-02 0.0
1.082235e+00 4.920955e-02 0.0
1.076897e+00 4.145215e-02 0.0
1.070666e+00 3.506764e-02 0.0
1.063892e+00 2.986459e-02 0.0
1.056864e+00 2.563706e-02 0.0
1.049818e+00 2.219361e-02 0.0
1.042933e+00 1.936850e-02 0.0
1.036346e+00 1.702287e-02 0.0
1.030156e+00 1.504100e-02 0.0
1.024431e+00 1.332420e-02 0.0
1.019217e+00 1.178266e-02 0.0
1.014543e+00 1.032499e-02 0.0
1.010444e+00 8.844408e-03 0.0
1.006988e+00 7.188769e-03 0.0
1.004290e+00 5.232737e-03 0.0
1.003424e+00 1.655725e-03 0.0
0.000000e+00 1.572869e-03 0.0
1.000000e+00 -1.168440e-01 0.0
1.013253e+00 -1.160638e-01 0.0
1.029084e+00 -1.315281e-01 0.0
1.051142e+00 -1.645159e-01 0.0
1.085562e+00 -2.193713e-01 0.0
1.143066e+00 -3.031261e-01 0.0
1.238621e+00 -4.092179e-01 0.0
1.424481e+00 -6.261751e-01 0.0
1.480662e+00 -4.041308e-01 0.0
1.490701e+00 -2.553083e-01 0.0
1.494885e+00 -1.771897e-01 0.0
1.501708e+00 -1.273650e-01 0.0
1.511860e+00 -8.788682e-02 0.0
1.522703e+00 -4.991061e-02 0.0
1.528927e+00 -1.040835e-02 0.0
1.528744e+00 2.496864e-02 0.0
1.522924e+00 5.466412e-02 0.0
1.512641e+00 7.928175e-02 0.0
1.498794e+00 1.002754e-01 0.0
1.481762e+00 1.193060e-01 0.0
1.461499e+00 1.376661e-01 0.0
1.437735e+00 1.560398e-01 0.0
1.410169e+00 1.745545e-01 0.0
1.378624e+00 1.929359e-01 0.0
1.343162e+00 2.106194e-01 0.0
1.304158e+00 2.267564e-01 0.0
1.262171e+00 2.400697e-01 0.0
1.217427e+00 2.484533e-01 0.0
1.169260e+00 2.476711e-01 0.0
1.117145e+00 2.310861e-01 0.0
1.059500e+00 1.969532e-01 0.0
9.876891e-01 1.565341e-01 0.0
8.913141e-01 1.167665e-01 0.0
7.910453e-01 4.719297e-02 0.0
7.325377e-01 -7.962536e-02 0.0
7.213215e-01 -2.252772e-01 0.0
7.425901e-01 -3.476713e-01 0.0
7.965364e-01 -4.200059e-01 0.0
8.771483e-01 -4.176416e-01 0.0
9.720760e-01 -3.432606e-01 0.0
1.065790e+00 -2.200753e-01 0.0
1.142079e+00 -8.230202e-02 0.0
1.190478e+00 3.723183e-02 0.0
1.216075e+00 1.275039e-01 0.0
1.223089e+00 1.965116e-01 0.0
1.215205e+00 2.489173e-01 0.0
1.195790e+00 2.869257e-01 0.0
1.167979e+00 3.109635e-01 0.0
1.134457e+00 3.201173e-01 0.0
1.097524e+00 3.126326e-01 0.0
1.059570e+00 2.886065e-01 0.0
1.022431e+00 2.513908e-01 0.0
9.872013e-01 2.062804e-01 0.0
9.545322e-01 1.585229e-01 0.0
9.250460e-01 1.116435e-01 0.0
8.995354e-01 6.702592e-02 0.0
8.789194e-01 2.460517e-02 0.0
8.640773e-01 -1.597272e-02 0.0
8.550699e-01 -5.481464e-02 0.0
8.516270e-01 -9.196120e-02 0.0
8.534098e-01 -1.265376e-01 0.0
8.600244e-01 -1.568080e-01 0.0
8.708768e-01 -1.805677e-01 0.0
8.850512e-01 -1.957355e-01 0.0
9.013039e-01 -2.009355e-01 0.0
9.181247e-01 -1.960419e-01 0.0
9.341762e-01 -1.819946e-01 0.0
9.484327e-01 -1.602192e-01 0.0
9.601633e-01 -1.323828e-01 0.0
9.688532e-01 -1.002270e-01 0.0
9.741894e-01 -6.547052e-02 0.0
9.762707e-01 -2.985111e-02 0.0
9.760080e-01 4.653410e-03 0.0
9.750643e-01 3.605511e-02 0.0
9.752667e-01 6.298496e-02 0.0
9.781698e-01 8.411026e-02 0.0
9.845534e-01 9.839164e-02 0.0
9.940894e-01 1.055269e-01 0.0
1.005426e+00 1.061957e-01 0.0
1.016798e+00 1.019939e-01 0.0
1.026811e+00 9.457677e-02 0.0
1.034560e+00 8.547021e-02 0.0
1.039655e+00 7.590540e-02 0.0
1.042109e+00 6.672230e-02 0.0
1.042191e+00 5.839361e-02 0.0
1.040308e+00 5.110889e-02 0.0
1.036906e+00 4.486970e-02 0.0
1.032416e+00 3.957360e-02 0.0
1.027222e+00 3.507495e-02 0.0
1.021652e+00 3.122312e-02 0.0
1.015978e+00 2.788321e-02 0.0
1.010418e+00 2.494429e-02 0.0
1.005138e+00 2.231910e-02 0.0
1.000256e+00 1.993913e-02 0.0
9.958488e-01 1.774756e-02 0.0
9.919571e-01 1.569035e-02 0.0
9.885945e-01 1.370362e-02 0.0
9.857609e-01 1.169400e-02 0.0
9.834728e-01 9.492910e-03 0.0
9.817912e-01 6.930327e-03 0.0
9.813881e-01 2.074818e-03 0.0
0.000000e+00 1.947303e-03 0.0
1.000000e+00 -1.215355e-01 0.0
1.004634e+00 -1.206363e-01 0.0
1.010428e+00 -1.373062e-01 0.0
1.019661e+00 -1.737337e-01 0.0
1.037657e+00 -2.373507e-01 0.0
1.076515e+00 -3.419686e-01 0.0
1.163616e+00 -4.963026e-01 0.0
1.377960e+00 -8.405037e-01 0.0
1.348599e+00 -3.747536e-01 0.0
1.287391e+00 -1.940841e-01 0.0
1.248848e+00 -1.386311e-01 0.0
1.230080e+00 -1.085814e-01 0.0
1.228989e+00 -8.677978e-02 0.0
1.243244e+00 -6.414929e-02 0.0
1.264889e+00 -3.203776e-02 0.0
1.280659e+00 9.215292e-03 0.0
1.289054e+00 4.628463e-02 0.0
1.292468e+00 7.588384e-02 0.0
1.292319e+00 1.004405e-01 0.0
1.289153e+00 1.224876e-01 0.0
1.282754e+00 1.440817e-01 0.0
1.272513e+00 1.662965e-01 0.0
1.257757e+00 1.893266e-01 0.0
1.237952e+00 2.127566e-01 0.0
1.212863e+00 2.357243e-01 0.0
1.182631e+00 2.570042e-01 0.0
1.147566e+00 2.751502e-01 0.0
1.107199e+00 2.888364e-01 0.0
1.056603e+00 2.982832e-01 0.0
9.799963e-01 3.077088e-01 0.0
8.546780e-01 3.222875e-01 0.0
6.981097e-01 3.131184e-01 0.0
5.961432e-01 2.187489e-01 0.0
5.870268e-01 5.632539e-02 0.0
6.207065e-01 -1.132891e-01 0.0
6.543426e-01 -2.588974e-01 0.0
6.796961e-01 -3.730088e-01 0.0
7.076117e-01 -4.479056e-01 0.0
7.530368e-01 -4.630508e-01 0.0
8.170097e-01 -4.072175e-01 0.0
8.917295e-01 -2.947792e-01 0.0
9.647651e-01 -1.553216e-01 0.0
1.022204e+00 -2.019062e-02 0.0
1.060581e+00 8.914221e-02 0.0
1.082281e+00 1.748273e-01 0.0
1.089958e+00 2.412569e-01 0.0
1.086319e+00 2.905803e-01 0.0
1.074077e+00 3.232214e-01 0.0
1.055700e+00 3.385111e-01 0.0
1.032886e+00 3.354622e-01 0.0
1.007145e+00 3.143630e-01 0.0
9.796302e-01 2.789220e-01 0.0
9.513039e-01 2.346226e-01 0.0
9.233860e-01 1.864568e-01 0.0
8.974943e-01 1.375511e-01 0.0
8.752302e-01 8.930608e-02 0.0
8.575690e-01 4.228230e-02 0.0
8.447438e-01 -3.131464e-03 0.0
8.362456e-01 -4.630050e-02 0.0
8.311542e-01 -8.685384e-02 0.0
8.288653e-01 -1.242327e-01 0.0
8.292097e-01 -1.571365e-01 0.0
8.321661e-01 -1.835081e-01 0.0
8.374910e-01 -2.010443e-01 0.0
8.445450e-01 -2.079736e-01 0.0
8.522936e-01 -2.037745e-01 0.0
8.597109e-01 -1.893959e-01 0.0
8.660335e-01 -1.665258e-01 0.0
8.708250e-01 -1.371583e-01 0.0
8.739797e-01 -1.033658e-01 0.0
8.757672e-01 -6.724201e-02 0.0
8.769217e-01 -3.098957e-02 0.0
8.786261e-01 2.964978e-03 0.0
8.821479e-01 3.254939e-02 0.0
8.884870e-01 5.666185e-02 0.0
8.980557e-01 7.455751e-02 0.0
9.104592e-01 8.600423e-02 0.0
9.245456e-01 9.145648e-02 0.0
9.387405e-01 9.201682e-02 0.0
9.517169e-01 8.903349e-02 0.0
9.625613e-01 8.374835e-02 0.0
9.707907e-01 7.725681e-02 0.0
9.763092e-01 7.040294e-02 0.0
9.793046e-01 6.374294e-02 0.0
9.801370e-01 5.757717e-02 0.0
9.792471e-01 5.201484e-02 0.0
9.770887e-01 4.704412e-02 0.0
9.740869e-01 4.259134e-02 0.0
9.706162e-01 3.856169e-02 0.0
9.669908e-01 3.486454e-02 0.0
9.634620e-01 3.142808e-02 0.0
9.602173e-01 2.820500e-02 0.0
9.573834e-01 2.516894e-02 0.0
9.550330e-01 2.230558e-02 0.0
9.531928e-01 1.960376e-02 0.0
9.518516e-01 1.704754e-02 0.0
9.509654e-01 1.460581e-02 0.0
9.504641e-01 1.221135e-02 0.0
9.502615e-01 9.711492e-03 0.0
9.502782e-01 6.929657e-03 0.0
9.506102e-01 1.758842e-03 0.0
0.000000e+00 1.592111e-03 0.0
1.000000e+00 -1.167668e-01 0.0
9.952010e-01 -1.157761e-01 0.0
9.891803e-01 -1.312696e-01 0.0
9.810645e-01 -1.656019e-01 0.0
9.712168e-01 -2.274871e-01 0.0
9.643693e-01 -3.351051e-01 0.0
9.861826e-01 -5.180999e-01 0.0
1.137679e+00 -9.919842e-01 0.0
9.582214e-01 -1.953252e-01 0.0
7.874966e-01 -2.338856e-02 0.0
7.018335e-01 -5.295211e-02 0.0
6.499894e-01 -5.672133e-02 0.0
6.296797e-01 -6.645412e-02 0.0
6.498895e-01 -8.434308e-02 0.0
6.967984e-01 -7.893071e-02 0.0
7.561839e-01 -5.015432e-02 0.0
8.078586e-01 -5.374123e-03 0.0
8.459773e-01 3.778116e-02 0.0
8.768749e-01 6.955885e-02 0.0
9.027340e-01 9.664450e-02 0.0
9.231968e-01 1.236348e-01 0.0
9.370712e-01 1.524381e-01 0.0
9.429191e-01 1.834946e-01 0.0
9.390590e-01 2.166327e-01 0.0
9.233946e-01 2.514046e-01 0.0
8.930949e-01 2.873199e-01 0.0
8.440786e-01 3.241824e-01 0.0
7.705721e-01 3.623588e-01 0.0
6.663864e-01 4.024849e-01 0.0
5.343762e-01 4.397349e-01 0.0
4.213920e-01 4.352878e-01 0.0
3.934693e-01 3.410570e-01 0.0
4.445906e-01 1.676435e-01 0.0
5.285818e-01 -2.764981e-02 0.0
6.021384e-01 -1.868298e-01 0.0
6.512396e-01 -3.079826e-01 0.0
6.753555e-01 -3.971087e-01 0.0
6.857398e-01 -4.582739e-01 0.0
7.022068e-01 -4.795018e-01 0.0
7.351533e-01 -4.401480e-01 0.0
7.834307e-01 -3.430407e-01 0.0
8.393418e-01 -2.112168e-01 0.0
8.919674e-01 -7.280024e-02 0.0
9.319849e-01 4.914074e-02 0.0
9.589273e-01 1.479009e-01 0.0
9.740850e-01 2.261152e-01 0.0
9.793876e-01 2.852937e-01 0.0
9.769926e-01 3.256323e-01 0.0
9.688982e-01 3.466215e-01 0.0
9.561891e-01 3.481873e-01 0.0
9.393574e-01 3.312107e-01 0.0
9.189191e-01 2.993763e-01 0.0
8.961252e-01 2.574325e-01 0.0
8.733443e-01 2.092536e-01 0.0
8.534482e-01 1.574633e-01 0.0
8.385222e-01 1.042480e-01 0.0
8.289661e-01 5.185442e-02 0.0
8.236330e-01 2.217623e-03 0.0
8.206433e-01 -4.329475e-02 0.0
8.181197e-01 -8.431432e-02 0.0
8.150544e-01 -1.211514e-01 0.0
8.114906e-01 -1.535566e-01 0.0
8.081102e-01 -1.801117e-01 0.0
8.056230e-01 -1.985411e-01 0.0
8.042776e-01 -2.066122e-01 0.0
8.037474e-01 -2.032282e-01 0.0
8.034790e-01 -1.891116e-01 0.0
8.030432e-01 -1.660739e-01 0.0
8.022982e-01 -1.363972e-01 0.0
8.014782e-01 -1.025298e-01 0.0
8.012111e-01 -6.695891e-02 0.0
8.024040e-01 -3.216645e-02 0.0
8.058780e-01 -4.930044e-04 0.0
8.121270e-01 2.631635e-02 0.0
8.212558e-01 4.754910e-02 0.0
8.328389e-01 6.299039e-02 0.0
8.459491e-01 7.290999e-02 0.0
8.593737e-01 7.804790e-02 0.0
8.719247e-01 7.948181e-02 0.0
8.827632e-01 7.821104e-02 0.0
8.914282e-01 7.509934e-02 0.0
8.977888e-01 7.091229e-02 0.0
9.019826e-01 6.622509e-02 0.0
9.043286e-01 6.141293e-02 0.0
9.052386e-01 5.668318e-02 0.0
9.051462e-01 5.212329e-02 0.0
9.044555e-01 4.775079e-02 0.0
9.035089e-01 4.355403e-02 0.0
9.025744e-01 3.951215e-02 0.0
9.018510e-01 3.560401e-02 0.0
9.014782e-01 3.181682e-02 0.0
9.015427e-01 2.815650e-02 0.0
9.020818e-01 2.464591e-02 0.0
9.030921e-01 2.131125e-02 0.0
9.045407e-01 1.817125e-02 0.0
9.063712e-01 1.523303e-02 0.0
9.084979e-01 1.249517e-02 0.0
9.107974e-01 9.927839e-03 0.0
9.130843e-01 7.440597e-03 0.0
9.151185e-01 4.911416e-03 0.0
9.163018e-01 5.916214e-04 0.0
0.000000e+00 3.896249e-04 0.0
1.000000e+00 -1.031282e-01 0.0
9.863644e-01 -1.020794e-01 0.0
9.687809e-01 -1.136701e-01 0.0
9.421055e-01 -1.389106e-01 0.0
8.976169e-01 -1.829826e-01 0.0
8.182627e-01 -2.557349e-01 0.0
6.784731e-01 -3.782944e-01 0.0
1.952349e-01 -5.087752e-01 0.0
-9.600564e-01 5.114955e-01 0.0
0.000000e+00 -5.280810e-02 0.0
-1.267326e-01 5.045305e-02 0.0
-1.478086e-01 -3.562933e-02 0.0
-9.590167e-02 -1.183451e-01 0.0
5.645663e-03 -1.858745e-01 0.0
9.895378e-02 -1.722229e-01 0.0
1.882963e-01 -1.394809e-01 0.0
2.753138e-01 -9.237572e-02 0.0
3.524068e-01 -3.929587e-02 0.0
4.135376e-01 8.443984e-03 0.0
4.638181e-01 4.638000e-02 0.0
5.036271e-01 8.384173e-02 0.0
5.318924e-01 1.241888e-01 0.0
5.472807e-01 1.681223e-01 0.0
5.477444e-01 2.161849e-01 0.0
5.305053e-01 2.686597e-01 0.0
4.924921e-01 3.253491e-01 0.0
4.313777e-01 3.853128e-01 0.0
3.484698e-01 4.452827e-01 0.0
2.572456e-01 4.937251e-01 0.0
2.005809e-01 4.964156e-01 0.0
2.188529e-01 4.170317e-01 0.0
3.032739e-01 2.566520e-01 0.0
4.224176e-01 4.851577e-02 0.0
5.333374e-01 -1.385537e-01 0.0
6.219416e-01 -2.754179e-01 0.0
6.799136e-01 -3.659387e-01 0.0
7.049726e-01 -4.221518e-01 0.0
7.043636e-01 -4.576489e-01 0.0
6.975212e-01 -4.726434e-01 0.0
7.040329e-01 -4.466437e-01 0.0
7.272694e-01 -3.662613e-01 0.0
7.625947e-01 -2.465260e-01 0.0
8.019894e-01 -1.121790e-01 0.0
8.361951e-01 1.495101e-02 0.0
8.615587e-01 1.225533e-01 0.0
8.780171e-01 2.096727e-01 0.0
8.866494e-01 2.766774e-01 0.0
8.889010e-01 3.233966e-01 0.0
8.859836e-01 3.495549e-01 0.0
8.782705e-01 3.559164e-01 0.0
8.655906e-01 3.439066e-01 0.0
8.487496e-01 3.162332e-01 0.0
8.302818e-01 2.759163e-01 0.0
8.139395e-01 2.256119e-01 0.0
8.029990e-01 1.684198e-01 0.0
7.988065e-01 1.084565e-01 0.0
8.005523e-01 5.012470e-02 0.0
8.058858e-01 -3.099920e-03 0.0
8.116878e-01 -4.908074e-02 0.0
8.150959e-01 -8.770649e-02 0.0
8.143752e-01 -1.204147e-01 0.0
8.093847e-01 -1.485501e-01 0.0
8.012387e-01 -1.719497e-01 0.0
7.916588e-01 -1.889453e-01 0.0
7.821169e-01 -1.970543e-01 0.0
7.733413e-01 -1.944367e-01 0.0
7.655191e-01 -1.812734e-01 0.0
7.587124e-01 -1.592512e-01 0.0
7.530815e-01 -1.307503e-01 0.0
7.489783e-01 -9.841068e-02 0.0
7.469248e-01 -6.488934e-02 0.0
7.474139e-01 -3.263954e-02 0.0
7.506167e-01 -3.679857e-03 0.0
7.563342e-01 2.061488e-02 0.0
7.641387e-01 3.976059e-02 0.0
7.733047e-01 5.384043e-02 0.0
7.829368e-01 6.329389e-02 0.0
7.921813e-01 6.881941e-02 0.0
8.004306e-01 7.124854e-02 0.0
8.073269e-01 7.133070e-02 0.0
8.128125e-01 6.962978e-02 0.0
8.170440e-01 6.669676e-02 0.0
8.203084e-01 6.297673e-02 0.0
8.229409e-01 5.879641e-02 0.0
8.252611e-01 5.437900e-02 0.0
8.275394e-01 4.986101e-02 0.0
8.299865e-01 4.531970e-02 0.0
8.327440e-01 4.081256e-02 0.0
8.358902e-01 3.638195e-02 0.0
8.394638e-01 3.204648e-02 0.0
8.434923e-01 2.780430e-02 0.0
8.479927e-01 2.367207e-02 0.0
8.529532e-01 1.970146e-02 0.0
8.583299e-01 1.595054e-02 0.0
8.640558e-01 1.246145e-02 0.0
8.700542e-01 9.250591e-03 0.0
8.762039e-01 6.361449e-03 0.0
8.823155e-01 3.832340e-03 0.0
8.880677e-01 1.704335e-03 0.0
8.930462e-01 -5.105051e-05 0.0
8.952649e-01 -1.611024e-03 0.0
0.000000e+00 -1.826869e-03 0.0
1.000000e+00 -8.287968e-02 0.0
9.797901e-01 -8.180836e-02 0.0
9.538761e-01 -8.774013e-02 0.0
9.144988e-01 -9.951734e-02 0.0
8.476360e-01 -1.161038e-01 0.0
7.242810e-01 -1.323640e-01 0.0
4.697001e-01 -1.236975e-01 0.0
-6.884554e-03 -3.221979e-02 0.0
5.181105e-05 0.000000e+00 0.0
0.000000e+00 -0.000000e+00 0.0
0.000000e+00 -1.123360e-01 0.0
-1.458478e-01 1.102345e-01 0.0
-1.564046e-01 -1.077724e-01 0.0
-1.484709e-01 -1.937921e-01 0.0
-1.413197e-01 -1.793581e-01 0.0
-1.151235e-01 -1.656612e-01 0.0
-6.490195e-02 -1.425813e-01 0.0
1.277476e-04 -1.043096e-01 0.0
6.320067e-02 -5.461298e-02 0.0
1.131760e-01 -3.579363e-03 0.0
1.516583e-01 4.537541e-02 0.0
1.802916e-01 9.557142e-02 0.0