# vtk DataFile Version 3.0
Vector Field
ASCII
DATASET RECTILINEAR_GRID
DIMENSIONS 102 22 1
X_COORDINATES 102 double
0.000000 0.100000 0.200000 0.300000 0.400000 0.500000 0.600000 0.700000 0.800000 0.900000 1.000000 1.100000 1.200000 1.300000 1.400000 1.500000 1.600000 1.700000 1.800000 1.900000 2.000000 2.100000 2.200000 2.300000 2.400000 2.500000 2.600000 2.700000 2.800000 2.900000 3.000000 3.100000 3.200000 3.300000 3.400000 3.500000 3.600000 3.700000 3.800000 3.900000 4.000000 4.100000 4.200000 4.300000 4.400000 4.500000 4.600000 4.700000 4.800000 4.900000 5.000000 5.100000 5.200000 5.300000 5.400000 5.500000 5.600000 5.700000 5.800000 5.900000 6.000000 6.100000 6.200000 6.300000 6.400000 6.500000 6.600000 6.700000 6.800000 6.900000 7.000000 7.100000 7.200000 7.300000 7.400000 7.500000 7.600000 7.700000 7.800000 7.900000 8.000000 8.100000 8.200000 8.300000 8.400000 8.500000 8.600000 8.700000 8.800000 8.900000 9.000000 9.100000 9.200000 9.300000 9.400000 9.500000 9.600000 9.700000 9.800000 9.900000 10.000000 10.100000 
Y_COORDINATES 22 double
0.000000 0.100000 0.200000 0.300000 0.400000 0.500000 0.600000 0.700000 0.800000 0.900000 1.000000 1.100000 1.200000 1.300000 1.400000 1.500000 1.600000 1.700000 1.800000 1.900000 2.000000 2.100000 
Z_COORDINATES 1 double
0.0
POINT_DATA 2244
VECTORS Velocity double
0.000000e+00 0.000000e+00 0.0
-1.028236e+00 0.000000e+00 0.0
-1.059426e+00 0.000000e+00 0.0
-1.096620e+00 0.000000e+00 0.0
-1.142531e+00 0.000000e+00 0.0
-1.199206e+00 0.000000e+00 0.0
-1.266078e+00 0.000000e+00 0.0
-1.342511e+00 0.000000e+00 0.0
-1.411611e+00 0.000000e+00 0.0
-1.462815e+00 0.000000e+00 0.0
-1.494898e+00 0.000000e+00 0.0
-1.511073e+00 0.000000e+00 0.0
-1.515473e+00 0.000000e+00 0.0
-1.511655e+00 0.000000e+00 0.0
-1.502200e+00 0.000000e+00 0.0
-1.488944e+00 0.000000e+00 0.0
-1.473244e+00 0.000000e+00 0.0
-1.456254e+00 0.000000e+00 0.0
-1.439317e+00 0.000000e+00 0.0
-1.424556e+00 0.000000e+00 0.0
-1.415368e+00 0.000000e+00 0.0
-1.415966e+00 0.000000e+00 0.0
-1.429394e+00 0.000000e+00 0.0
-1.455096e+00 0.000000e+00 0.0
-1.488142e+00 0.000000e+00 0.0
-1.521442e+00 0.000000e+00 0.0
-1.549063e+00 0.000000e+00 0.0
-1.567915e+00 0.000000e+00 0.0
-1.577535e+00 0.000000e+00 0.0
-1.578818e+00 0.000000e+00 0.0
-1.572510e+00 0.000000e+00 0.0
-1.558600e+00 0.000000e+00 0.0
-1.536687e+00 0.000000e+00 0.0
-1.506317e+00 0.000000e+00 0.0
-1.467196e+00 0.000000e+00 0.0
-1.419362e+00 0.000000e+00 0.0
-1.363256e+00 0.000000e+00 0.0
-1.299676e+00 0.000000e+00 0.0
-1.229747e+00 0.000000e+00 0.0
-1.155046e+00 0.000000e+00 0.0
-1.078014e+00 0.000000e+00 0.0
-1.002095e+00 0.000000e+00 0.0
-9.317015e-01 0.000000e+00 0.0
-8.719699e-01 0.000000e+00 0.0
-8.279313e-01 0.000000e+00 0.0
-8.033495e-01 0.000000e+00 0.0
-7.997245e-01 0.000000e+00 0.0
-8.163047e-01 0.000000e+00 0.0
-8.516781e-01 0.000000e+00 0.0
-9.040449e-01 0.000000e+00 0.0
-9.710780e-01 0.000000e+00 0.0
-1.049567e+00 0.000000e+00 0.0
-1.135078e+00 0.000000e+00 0.0
-1.222290e+00 0.000000e+00 0.0
-1.305697e+00 0.000000e+00 0.0
-1.379857e+00 0.000000e+00 0.0
-1.439889e+00 0.000000e+00 0.0
-1.482132e+00 0.000000e+00 0.0
-1.504791e+00 0.000000e+00 0.0
-1.507730e+00 0.000000e+00 0.0
-1.490365e+00 0.000000e+00 0.0
-1.451534e+00 0.000000e+00 0.0
-1.390395e+00 0.000000e+00 0.0
-1.308214e+00 0.000000e+00 0.0
-1.211209e+00 0.000000e+00 0.0
-1.111544e+00 0.000000e+00 0.0
-1.022557e+00 0.000000e+00 0.0
-9.534326e-01 0.000000e+00 0.0
-9.080702e-01 0.000000e+00 0.0
-8.858687e-01 0.000000e+00 0.0
-8.832463e-01 0.000000e+00 0.0
-8.952765e-01 0.000000e+00 0.0
-9.174472e-01 0.000000e+00 0.0
-9.462902e-01 0.000000e+00 0.0
-9.792514e-01 0.000000e+00 0.0
-1.014433e+00 0.000000e+00 0.0
-1.050376e+00 0.000000e+00 0.0
-1.085870e+00 0.000000e+00 0.0
-1.119876e+00 0.000000e+00 0.0
-1.151471e+00 0.000000e+00 0.0
-1.179836e+00 0.000000e+00 0.0
-1.204272e+00 0.000000e+00 0.0
-1.224234e+00 0.000000e+00 0.0
-1.239368e+00 0.000000e+00 0.0
-1.249552e+00 0.000000e+00 0.0
-1.254897e+00 0.000000e+00 0.0
-1.255605e+00 0.000000e+00 0.0
-1.251607e+00 0.000000e+00 0.0
-1.242657e+00 0.000000e+00 0.0
-1.228454e+00 0.000000e+00 0.0
-1.208690e+00 0.000000e+00 0.0
-1.183192e+00 0.000000e+00 0.0
-1.152230e+00 0.000000e+00 0.0
-1.116901e+00 0.000000e+00 0.0
-1.079316e+00 0.000000e+00 0.0
-1.042311e+00 0.000000e+00 0.0
-1.008797e+00 0.000000e+00 0.0
-9.811659e-01 0.000000e+00 0.0
-9.608621e-01 0.000000e+00 0.0
-9.483966e-01 0.000000e+00 0.0
-9.483966e-01 0.000000e+00 0.0
0.000000e+00 0.000000e+00 0.0
1.000000e+00 -2.805210e-02 0.0
1.028394e+00 -2.819464e-02 0.0
1.059745e+00 -3.123598e-02 0.0
1.097117e+00 -3.725743e-02 0.0
1.143232e+00 -4.600011e-02 0.0
1.200147e+00 -5.679934e-02 0.0
1.267292e+00 -6.703052e-02 0.0
1.344054e+00 -7.664691e-02 0.0
1.413483e+00 -6.931431e-02 0.0
1.464965e+00 -5.136742e-02 0.0
1.497242e+00 -3.216233e-02 0.0
1.513509e+00 -1.615149e-02 0.0
1.517890e+00 -4.265999e-03 0.0
1.513940e+00 4.064097e-03 0.0
1.504235e+00 9.820717e-03 0.0
1.490597e+00 1.375263e-02 0.0
1.474359e+00 1.635261e-02 0.0
1.456603e+00 1.787126e-02 0.0
1.438515e+00 1.820250e-02 0.0
1.421938e+00 1.669259e-02 0.0
1.409969e+00 1.208354e-02 0.0
1.406856e+00 3.228446e-03 0.0
1.416344e+00 -9.372957e-03 0.0
1.439152e+00 -2.269344e-02 0.0
1.471491e+00 -3.222374e-02 0.0
1.506462e+00 -3.485602e-02 0.0
1.537385e+00 -3.080749e-02 0.0
1.560109e+00 -2.260888e-02 0.0
1.573310e+00 -1.308614e-02 0.0
1.577514e+00 -4.088556e-03 0.0
1.573635e+00 3.993296e-03 0.0
1.561909e+00 1.184125e-02 0.0
1.542061e+00 1.996344e-02 0.0
1.513677e+00 2.849949e-02 0.0
1.476452e+00 3.734022e-02 0.0
1.430371e+00 4.619567e-02 0.0
1.375816e+00 5.467027e-02 0.0
1.313533e+00 6.239791e-02 0.0
1.244595e+00 6.905356e-02 0.0
1.170483e+00 7.422781e-02 0.0
1.093462e+00 7.713619e-02 0.0
1.016817e+00 7.676031e-02 0.0
9.447886e-01 7.214357e-02 0.0
8.824177e-01 6.248625e-02 0.0
8.348161e-01 4.771699e-02 0.0
8.060482e-01 2.888326e-02 0.0
7.980776e-01 8.085945e-03 0.0
8.104374e-01 -1.224431e-02 0.0
8.417711e-01 -3.121832e-02 0.0
8.903280e-01 -4.844138e-02 0.0
9.539008e-01 -6.345740e-02 0.0
1.029496e+00 -7.547993e-02 0.0
1.113018e+00 -8.340575e-02 0.0
1.199356e+00 -8.622271e-02 0.0
1.283150e+00 -8.367909e-02 0.0
1.359063e+00 -7.579715e-02 0.0
1.422173e+00 -6.299448e-02 0.0
1.468582e+00 -4.629371e-02 0.0
1.496064e+00 -2.736606e-02 0.0
1.504200e+00 -8.020652e-03 0.0
1.492650e+00 1.166633e-02 0.0
1.460293e+00 3.247177e-02 0.0
1.406046e+00 5.436358e-02 0.0
1.330257e+00 7.590425e-02 0.0
1.237393e+00 9.297951e-02 0.0
1.138022e+00 9.948632e-02 0.0
1.045803e+00 9.233547e-02 0.0
9.712556e-01 7.466283e-02 0.0
9.197256e-01 5.164570e-02 0.0
8.917259e-01 2.811544e-02 0.0
8.843601e-01 7.481561e-03 0.0
8.929210e-01 -8.445117e-03 0.0
9.126771e-01 -1.964041e-02 0.0
9.398812e-01 -2.708826e-02 0.0
9.717623e-01 -3.176531e-02 0.0
1.006275e+00 -3.439697e-02 0.0
1.041873e+00 -3.548194e-02 0.0
1.077299e+00 -3.530993e-02 0.0
1.111483e+00 -3.406896e-02 0.0
1.143487e+00 -3.188814e-02 0.0
1.172473e+00 -2.887004e-02 0.0
1.197718e+00 -2.512890e-02 0.0
1.218643e+00 -2.080919e-02 0.0
1.234851e+00 -1.609172e-02 0.0
1.246162e+00 -1.119549e-02 0.0
1.252638e+00 -6.360050e-03 0.0
1.254489e+00 -1.735280e-03 0.0
1.251733e+00 2.872109e-03 0.0
1.244152e+00 7.696772e-03 0.0
1.231464e+00 1.280419e-02 0.0
1.213364e+00 1.821554e-02 0.0
1.189634e+00 2.384567e-02 0.0
1.160402e+00 2.934782e-02 0.0
1.126516e+00 3.400253e-02 0.0
1.089806e+00 3.682553e-02 0.0
1.052943e+00 3.697885e-02 0.0
1.018845e+00 3.421361e-02 0.0
9.900728e-01 2.888846e-02 0.0
9.683533e-01 2.183540e-02 0.0
9.545287e-01 1.394052e-02 0.0
9.483966e-01 6.248008e-03 0.0
0.000000e+00 5.661870e-03 0.0
1.000000e+00 -5.660823e-02 0.0
1.028824e+00 -5.690394e-02 0.0
1.060622e+00 -6.300437e-02 0.0
1.098605e+00 -7.520975e-02 0.0
1.145839e+00 -9.320469e-02 0.0
1.205110e+00 -1.160399e-01 0.0
1.276066e+00 -1.379567e-01 0.0
1.363030e+00 -1.635814e-01 0.0
1.438272e+00 -1.445263e-01 0.0
1.490892e+00 -1.039569e-01 0.0
1.522558e+00 -6.379883e-02 0.0
1.538238e+00 -3.180070e-02 0.0
1.542683e+00 -8.681129e-03 0.0
1.539467e+00 7.309883e-03 0.0
1.530989e+00 1.832861e-02 0.0
1.518937e+00 2.583486e-02 0.0
1.504571e+00 3.074869e-02 0.0
1.488861e+00 3.361061e-02 0.0
1.472677e+00 3.441684e-02 0.0
1.457261e+00 3.213841e-02 0.0
1.444843e+00 2.453165e-02 0.0
1.439009e+00 9.092505e-03 0.0
1.443836e+00 -1.417034e-02 0.0
1.461602e+00 -4.042930e-02 0.0
1.490620e+00 -6.121100e-02 0.0
1.525192e+00 -6.939877e-02 0.0
1.558737e+00 -6.432169e-02 0.0
1.586237e+00 -5.007972e-02 0.0
1.604981e+00 -3.179984e-02 0.0
1.614279e+00 -1.335596e-02 0.0
1.614806e+00 3.495699e-03 0.0
1.607240e+00 1.943761e-02 0.0
1.591519e+00 3.571466e-02 0.0
1.567360e+00 5.268823e-02 0.0
1.534552e+00 7.017794e-02 0.0
1.493139e+00 8.763959e-02 0.0
1.443597e+00 1.042417e-01 0.0
1.386800e+00 1.192253e-01 0.0
1.324002e+00 1.318818e-01 0.0
1.256799e+00 1.414608e-01 0.0
1.187023e+00 1.469423e-01 0.0
1.117040e+00 1.467732e-01 0.0
1.050078e+00 1.391361e-01 0.0
9.899750e-01 1.226189e-01 0.0
9.407990e-01 9.692313e-02 0.0
9.062265e-01 6.348588e-02 0.0
8.887762e-01 2.556635e-02 0.0
8.890605e-01 -1.249854e-02 0.0
9.057037e-01 -4.783134e-02 0.0
9.368991e-01 -7.960670e-02 0.0
9.806985e-01 -1.072266e-01 0.0
1.034693e+00 -1.294440e-01 0.0
1.096129e+00 -1.448121e-01 0.0
1.161445e+00 -1.515083e-01 0.0
1.226353e+00 -1.485575e-01 0.0
1.286421e+00 -1.358343e-01 0.0
1.337453e+00 -1.139970e-01 0.0
1.375964e+00 -8.477426e-02 0.0
1.399425e+00 -5.079673e-02 0.0
1.405992e+00 -1.455738e-02 0.0
1.394344e+00 2.334411e-02 0.0
1.364480e+00 6.236605e-02 0.0
1.318037e+00 1.008370e-01 0.0
1.259097e+00 1.348746e-01 0.0
1.194251e+00 1.578550e-01 0.0
1.131030e+00 1.627380e-01 0.0
1.075819e+00 1.475768e-01 0.0
1.032821e+00 1.176905e-01 0.0
1.003214e+00 8.128304e-02 0.0
9.864977e-01 4.486195e-02 0.0
9.814277e-01 1.258176e-02 0.0
9.860448e-01 -1.303200e-02 0.0
9.981776e-01 -3.174303e-02 0.0
1.015927e+00 -4.480705e-02 0.0
1.037711e+00 -5.351964e-02 0.0
1.062175e+00 -5.883081e-02 0.0
1.088165e+00 -6.144101e-02 0.0
1.114697e+00 -6.181258e-02 0.0
1.140927e+00 -6.026799e-02 0.0
1.166054e+00 -5.698572e-02 0.0
1.189330e+00 -5.211525e-02 0.0
1.210078e+00 -4.584720e-02 0.0
1.227740e+00 -3.844025e-02 0.0
1.241896e+00 -3.021741e-02 0.0
1.252262e+00 -2.153173e-02 0.0
1.258613e+00 -1.268071e-02 0.0
1.260646e+00 -3.738081e-03 0.0
1.257963e+00 5.585796e-03 0.0
1.250232e+00 1.545745e-02 0.0
1.237203e+00 2.586365e-02 0.0
1.218827e+00 3.662170e-02 0.0
1.195462e+00 4.724106e-02 0.0
1.168056e+00 5.678348e-02 0.0
1.138202e+00 6.388671e-02 0.0
1.108002e+00 6.705620e-02 0.0
1.079803e+00 6.520823e-02 0.0
1.055621e+00 5.842614e-02 0.0
1.036670e+00 4.786921e-02 0.0
1.023270e+00 3.526573e-02 0.0
1.014992e+00 2.224836e-02 0.0
1.010146e+00 1.112428e-02 0.0
0.000000e+00 1.019652e-02 0.0
1.000000e+00 -8.187575e-02 0.0
1.025527e+00 -8.231630e-02 0.0
1.054151e+00 -9.159785e-02 0.0
1.089394e+00 -1.104232e-01 0.0
1.135137e+00 -1.389173e-01 0.0
1.195850e+00 -1.767230e-01 0.0
1.272450e+00 -2.145275e-01 0.0
1.380929e+00 -2.720303e-01 0.0
1.463666e+00 -2.272329e-01 0.0
1.513378e+00 -1.536389e-01 0.0
1.539492e+00 -8.988270e-02 0.0
1.550291e+00 -4.257032e-02 0.0
1.551391e+00 -9.750590e-03 0.0
1.546144e+00 1.258690e-02 0.0
1.536491e+00 2.801165e-02 0.0
1.523802e+00 3.855289e-02 0.0
1.509181e+00 4.539984e-02 0.0
1.493514e+00 4.930800e-02 0.0
1.477431e+00 5.052983e-02 0.0
1.461385e+00 4.821485e-02 0.0
1.445947e+00 3.999931e-02 0.0
1.432658e+00 2.241143e-02 0.0
1.425117e+00 -6.599262e-03 0.0
1.428000e+00 -4.328288e-02 0.0
1.444080e+00 -7.726053e-02 0.0
1.471453e+00 -9.674158e-02 0.0
1.504244e+00 -9.708232e-02 0.0
1.536483e+00 -8.228959e-02 0.0
1.563357e+00 -5.864380e-02 0.0
1.581355e+00 -3.132318e-02 0.0
1.588971e+00 -4.090632e-03 0.0
1.587388e+00 2.105024e-02 0.0
1.577282e+00 4.585087e-02 0.0
1.558683e+00 7.131714e-02 0.0
1.531561e+00 9.733074e-02 0.0
1.496024e+00 1.232059e-01 0.0
1.452443e+00 1.478537e-01 0.0
1.401626e+00 1.700723e-01 0.0
1.344807e+00 1.887307e-01 0.0
1.283501e+00 2.027965e-01 0.0
1.219430e+00 2.110441e-01 0.0
1.154759e+00 2.114743e-01 0.0
1.092354e+00 2.015704e-01 0.0
1.035503e+00 1.795001e-01 0.0
9.874719e-01 1.449846e-01 0.0
9.510288e-01 9.995909e-02 0.0
9.281649e-01 4.846040e-02 0.0
9.198958e-01 -4.199317e-03 0.0
9.253953e-01 -5.330073e-02 0.0
9.430628e-01 -9.724407e-02 0.0
9.714991e-01 -1.356328e-01 0.0
1.009200e+00 -1.671147e-01 0.0
1.053783e+00 -1.893654e-01 0.0
1.102224e+00 -1.999188e-01 0.0
1.150932e+00 -1.972358e-01 0.0
1.196177e+00 -1.810491e-01 0.0
1.234481e+00 -1.522706e-01 0.0
1.262895e+00 -1.131575e-01 0.0
1.279060e+00 -6.693157e-02 0.0
1.281024e+00 -1.649169e-02 0.0
1.267978e+00 3.641992e-02 0.0
1.241298e+00 8.907613e-02 0.0
1.204357e+00 1.378088e-01 0.0
1.162389e+00 1.768729e-01 0.0
1.121274e+00 1.990004e-01 0.0
1.085408e+00 1.986341e-01 0.0
1.056120e+00 1.768948e-01 0.0
1.033449e+00 1.403922e-01 0.0
1.017342e+00 9.742000e-02 0.0
1.007502e+00 5.473189e-02 0.0
1.003333e+00 1.678089e-02 0.0
1.004379e+00 -1.404757e-02 0.0
1.010144e+00 -3.747818e-02 0.0
1.020042e+00 -5.467425e-02 0.0
1.033431e+00 -6.687896e-02 0.0
1.049657e+00 -7.502604e-02 0.0
1.067979e+00 -7.973331e-02 0.0
1.087577e+00 -8.138037e-02 0.0
1.107613e+00 -8.027393e-02 0.0
1.127290e+00 -7.663258e-02 0.0
1.145849e+00 -7.064419e-02 0.0
1.162600e+00 -6.256764e-02 0.0
1.176952e+00 -5.276212e-02 0.0
1.188433e+00 -4.166748e-02 0.0
1.196662e+00 -2.973088e-02 0.0
1.201273e+00 -1.726136e-02 0.0
1.201774e+00 -4.209517e-03 0.0
1.197661e+00 9.729072e-03 0.0
1.188687e+00 2.446163e-02 0.0
1.174855e+00 3.972630e-02 0.0
1.156561e+00 5.494645e-02 0.0
1.134768e+00 6.906414e-02 0.0
1.111069e+00 8.051244e-02 0.0
1.087516e+00 8.746949e-02 0.0
1.066195e+00 8.840790e-02 0.0
1.048387e+00 8.304611e-02 0.0
1.034357e+00 7.248710e-02 0.0
1.023701e+00 5.855462e-02 0.0
1.015717e+00 4.328087e-02 0.0
1.009550e+00 2.844533e-02 0.0
1.005420e+00 1.528434e-02 0.0
0.000000e+00 1.423108e-02 0.0
1.000000e+00 -1.020957e-01 0.0
1.020467e+00 -1.026684e-01 0.0
1.043996e+00 -1.150967e-01 0.0
1.074408e+00 -1.408050e-01 0.0
1.116795e+00 -1.812750e-01 0.0
1.178476e+00 -2.383739e-01 0.0
1.264812e+00 -3.008331e-01 0.0
1.410033e+00 -4.172220e-01 0.0
1.493835e+00 -3.110047e-01 0.0
1.530817e+00 -1.905912e-01 0.0
1.545205e+00 -1.042407e-01 0.0
1.548077e+00 -4.541217e-02 0.0
1.544618e+00 -6.261147e-03 0.0
1.536703e+00 2.053186e-02 0.0
1.525401e+00 3.934286e-02 0.0
1.511570e+00 5.241482e-02 0.0
1.496058e+00 6.094167e-02 0.0
1.479664e+00 6.573165e-02 0.0
1.462835e+00 6.738916e-02 0.0
1.445349e+00 6.573016e-02 0.0
1.426072e+00 5.930697e-02 0.0
1.403386e+00 4.512748e-02 0.0
1.377312e+00 1.950488e-02 0.0
1.353019e+00 -1.895990e-02 0.0
1.339507e+00 -6.371914e-02 0.0
1.342806e+00 -1.000107e-01 0.0
1.362370e+00 -1.166156e-01 0.0
1.393268e+00 -1.131575e-01 0.0
1.430211e+00 -9.555697e-02 0.0
1.466343e+00 -6.742518e-02 0.0
1.493368e+00 -3.108610e-02 0.0
1.506319e+00 8.130126e-03 0.0
1.508055e+00 4.414487e-02 0.0
1.500009e+00 7.939278e-02 0.0
1.482845e+00 1.145250e-01 0.0
1.456810e+00 1.492711e-01 0.0
1.422243e+00 1.824508e-01 0.0
1.379889e+00 2.124559e-01 0.0
1.330942e+00 2.377080e-01 0.0
1.276902e+00 2.568659e-01 0.0
1.219417e+00 2.685597e-01 0.0
1.160384e+00 2.705375e-01 0.0
1.102547e+00 2.594371e-01 0.0
1.049117e+00 2.329605e-01 0.0
1.003021e+00 1.911104e-01 0.0
9.663116e-01 1.366988e-01 0.0
9.401887e-01 7.461347e-02 0.0
9.256126e-01 1.040685e-02 0.0
9.229683e-01 -5.062633e-02 0.0
9.317885e-01 -1.060341e-01 0.0
9.507798e-01 -1.545940e-01 0.0
9.779457e-01 -1.942504e-01 0.0
1.010802e+00 -2.221919e-01 0.0
1.046545e+00 -2.356310e-01 0.0
1.082142e+00 -2.328026e-01 0.0
1.114557e+00 -2.134342e-01 0.0
1.141046e+00 -1.787292e-01 0.0
1.159234e+00 -1.313157e-01 0.0
1.167098e+00 -7.476487e-02 0.0
1.163143e+00 -1.250653e-02 0.0
1.147879e+00 5.171356e-02 0.0
1.123989e+00 1.129965e-01 0.0
1.095717e+00 1.661105e-01 0.0
1.068043e+00 2.045778e-01 0.0
1.045008e+00 2.220656e-01 0.0
1.027820e+00 2.158516e-01 0.0
1.015231e+00 1.895139e-01 0.0
1.005658e+00 1.499959e-01 0.0
9.982048e-01 1.049032e-01 0.0
9.926318e-01 6.033509e-02 0.0
9.892311e-01 2.021178e-02 0.0
9.886716e-01 -1.345786e-02 0.0
9.914746e-01 -4.025103e-02 0.0
9.977420e-01 -6.091139e-02 0.0
1.007225e+00 -7.633178e-02 0.0
1.019438e+00 -8.720898e-02 0.0
1.033739e+00 -9.400409e-02 0.0
1.049393e+00 -9.700438e-02 0.0
1.065606e+00 -9.645679e-02 0.0
1.081612e+00 -9.260774e-02 0.0
1.096689e+00 -8.569086e-02 0.0
1.110181e+00 -7.602992e-02 0.0
1.121512e+00 -6.406228e-02 0.0
1.130173e+00 -5.029914e-02 0.0
1.135687e+00 -3.521383e-02 0.0
1.137507e+00 -1.905168e-02 0.0
1.134955e+00 -1.627475e-03 0.0
1.127694e+00 1.702098e-02 0.0
1.115837e+00 3.634814e-02 0.0
1.099945e+00 5.564864e-02 0.0
1.081143e+00 7.377917e-02 0.0
1.061146e+00 8.909102e-02 0.0
1.042041e+00 9.964764e-02 0.0
1.025777e+00 1.037635e-01 0.0
1.013382e+00 1.008340e-01 0.0
1.004513e+00 9.194472e-02 0.0
9.981912e-01 7.883941e-02 0.0
9.933200e-01 6.345603e-02 0.0
9.890811e-01 4.755001e-02 0.0
9.850579e-01 3.249871e-02 0.0
9.818373e-01 1.853522e-02 0.0
0.000000e+00 1.746905e-02 0.0
1.000000e+00 -1.154481e-01 0.0
1.013581e+00 -1.161350e-01 0.0
1.029720e+00 -1.312057e-01 0.0
1.052118e+00 -1.631723e-01 0.0
1.086966e+00 -2.160929e-01 0.0
1.145224e+00 -2.966022e-01 0.0
1.242250e+00 -3.978297e-01 0.0
1.433343e+00 -6.082846e-01 0.0
1.492319e+00 -3.699509e-01 0.0
1.500631e+00 -1.988733e-01 0.0
1.496741e+00 -1.003205e-01 0.0
1.489831e+00 -3.847257e-02 0.0
1.481625e+00 1.975197e-03 0.0
1.471286e+00 3.090047e-02 0.0
1.458562e+00 5.209696e-02 0.0
1.443557e+00 6.744956e-02 0.0
1.426679e+00 7.784971e-02 0.0
1.408522e+00 8.391912e-02 0.0
1.389429e+00 8.651241e-02 0.0
1.368704e+00 8.648479e-02 0.0
1.344154e+00 8.388649e-02 0.0
1.311998e+00 7.731402e-02 0.0
1.267939e+00 6.359348e-02 0.0
1.210492e+00 3.851717e-02 0.0
1.146753e+00 5.039328e-05 0.0
1.094494e+00 -4.772216e-02 0.0
1.070510e+00 -9.260082e-02 0.0
1.078071e+00 -1.206887e-01 0.0
1.115564e+00 -1.330203e-01 0.0
1.176275e+00 -1.281056e-01 0.0
1.245730e+00 -1.005113e-01 0.0
1.304989e+00 -5.109913e-02 0.0
1.339755e+00 9.409391e-03 0.0
1.355984e+00 6.319382e-02 0.0
1.359146e+00 1.113931e-01 0.0
1.351263e+00 1.571838e-01 0.0
1.333169e+00 2.005748e-01 0.0
1.305681e+00 2.399742e-01 0.0
1.270009e+00 2.734098e-01 0.0
1.227726e+00 2.991794e-01 0.0
1.180590e+00 3.157251e-01 0.0
1.130455e+00 3.207025e-01 0.0
1.079823e+00 3.100992e-01 0.0
1.031639e+00 2.811753e-01 0.0
9.883657e-01 2.344134e-01 0.0
9.517155e-01 1.733791e-01 0.0
9.232518e-01 1.031073e-01 0.0
9.050230e-01 2.866579e-02 0.0
8.990310e-01 -4.460418e-02 0.0
9.048296e-01 -1.118026e-01 0.0
9.199845e-01 -1.697188e-01 0.0
9.415646e-01 -2.158004e-01 0.0
9.668639e-01 -2.474610e-01 0.0
9.933864e-01 -2.621235e-01 0.0
1.018656e+00 -2.580421e-01 0.0
1.040313e+00 -2.350614e-01 0.0
1.056385e+00 -1.947710e-01 0.0
1.065213e+00 -1.401133e-01 0.0
1.065424e+00 -7.494578e-02 0.0
1.056485e+00 -3.536686e-03 0.0
1.040240e+00 6.798791e-02 0.0
1.020048e+00 1.332189e-01 0.0
1.000054e+00 1.861347e-01 0.0
9.840446e-01 2.206177e-01 0.0
9.738821e-01 2.322583e-01 0.0
9.685041e-01 2.212598e-01 0.0
9.655989e-01 1.924493e-01 0.0
9.632010e-01 1.524239e-01 0.0
9.603998e-01 1.077346e-01 0.0
9.573221e-01 6.344302e-02 0.0
9.548235e-01 2.274054e-02 0.0
9.541009e-01 -1.270504e-02 0.0
9.561643e-01 -4.228429e-02 0.0
9.613982e-01 -6.611506e-02 0.0
9.696282e-01 -8.453158e-02 0.0
9.803256e-01 -9.787614e-02 0.0
9.927928e-01 -1.064411e-01 0.0
1.006288e+00 -1.104693e-01 0.0
1.020059e+00 -1.101980e-01 0.0
1.033380e+00 -1.058985e-01 0.0
1.045594e+00 -9.787400e-02 0.0
1.056110e+00 -8.651590e-02 0.0
1.064387e+00 -7.230902e-02 0.0
1.069894e+00 -5.577632e-02 0.0
1.072056e+00 -3.734518e-02 0.0
1.070186e+00 -1.715196e-02 0.0
1.063674e+00 4.915054e-03 0.0
1.052770e+00 2.795500e-02 0.0
1.038212e+00 5.093613e-02 0.0
1.021316e+00 7.257519e-02 0.0
1.003937e+00 9.118826e-02 0.0
9.881933e-01 1.048653e-01 0.0
9.759054e-01 1.119657e-01 0.0
9.679359e-01 1.117633e-01 0.0
9.635937e-01 1.052064e-01 0.0
9.615428e-01 9.402591e-02 0.0
9.604066e-01 8.000577e-02 0.0
9.591560e-01 6.473689e-02 0.0
9.572900e-01 4.944632e-02 0.0
9.548053e-01 3.501362e-02 0.0
9.523677e-01 2.100304e-02 0.0
0.000000e+00 1.998785e-02 0.0
1.000000e+00 -1.203273e-01 0.0
1.005085e+00 -1.211055e-01 0.0
1.011380e+00 -1.374703e-01 0.0
1.021326e+00 -1.730886e-01 0.0
1.040523e+00 -2.352601e-01 0.0
1.081763e+00 -3.378122e-01 0.0
1.173938e+00 -4.899748e-01 0.0
1.400344e+00 -8.346601e-01 0.0
1.386582e+00 -3.561592e-01 0.0
1.340413e+00 -1.526738e-01 0.0
1.311020e+00 -7.089777e-02 0.0
1.295588e+00 -2.301044e-02 0.0
1.284916e+00 1.267655e-02 0.0
1.274453e+00 4.139342e-02 0.0
1.262111e+00 6.446918e-02 0.0
1.246814e+00 8.277697e-02 0.0
1.228283e+00 9.641096e-02 0.0
1.206857e+00 1.053747e-01 0.0
1.182839e+00 1.105607e-01 0.0
1.154971e+00 1.143823e-01 0.0
1.119204e+00 1.196831e-01 0.0
1.068867e+00 1.276819e-01 0.0
9.961852e-01 1.363049e-01 0.0
8.989674e-01 1.357650e-01 0.0
7.853060e-01 1.137418e-01 0.0
6.692410e-01 6.837282e-02 0.0
5.754142e-01 1.256033e-03 0.0
5.409495e-01 -8.619402e-02 0.0
5.815186e-01 -1.735593e-01 0.0
6.797534e-01 -2.263103e-01 0.0
8.059977e-01 -2.267256e-01 0.0
9.343838e-01 -1.794552e-01 0.0
1.042102e+00 -9.827894e-02 0.0
1.111982e+00 -6.655601e-03 0.0
1.152776e+00 7.062863e-02 0.0
1.174460e+00 1.355302e-01 0.0
1.181006e+00 1.940590e-01 0.0
1.174645e+00 2.463650e-01 0.0
1.157302e+00 2.907834e-01 0.0
1.130987e+00 3.255237e-01 0.0
1.097858e+00 3.488848e-01 0.0
1.060001e+00 3.585893e-01 0.0
1.019286e+00 3.508449e-01 0.0
9.777196e-01 3.227713e-01 0.0
9.370895e-01 2.750736e-01 0.0
9.002127e-01 2.102860e-01 0.0
8.719217e-01 1.314283e-01 0.0
8.569993e-01 4.361834e-02 0.0
8.569581e-01 -4.453287e-02 0.0
8.685831e-01 -1.233974e-01 0.0
8.868713e-01 -1.879769e-01 0.0
9.079494e-01 -2.368483e-01 0.0
9.293917e-01 -2.688732e-01 0.0
9.494529e-01 -2.821545e-01 0.0
9.664608e-01 -2.750199e-01 0.0
9.788820e-01 -2.474525e-01 0.0
9.855881e-01 -2.014469e-01 0.0
9.858076e-01 -1.403027e-01 0.0
9.791620e-01 -6.826998e-02 0.0
9.664662e-01 9.189278e-03 0.0
9.504388e-01 8.404542e-02 0.0
9.343574e-01 1.493304e-01 0.0
9.215046e-01 1.990177e-01 0.0
9.140243e-01 2.281281e-01 0.0
9.118327e-01 2.344801e-01 0.0
9.126857e-01 2.204370e-01 0.0
9.141321e-01 1.910330e-01 0.0
9.144955e-01 1.520907e-01 0.0
9.133301e-01 1.089303e-01 0.0
9.113079e-01 6.549538e-02 0.0
9.097655e-01 2.431314e-02 0.0
9.101739e-01 -1.308323e-02 0.0
9.135939e-01 -4.567413e-02 0.0
9.202213e-01 -7.271228e-02 0.0
9.295776e-01 -9.385764e-02 0.0
9.408543e-01 -1.091226e-01 0.0
9.531761e-01 -1.187327e-01 0.0
9.657399e-01 -1.230028e-01 0.0
9.778393e-01 -1.222671e-01 0.0
9.888369e-01 -1.168658e-01 0.0
9.981932e-01 -1.072002e-01 0.0
1.005428e+00 -9.372087e-02 0.0
1.010066e+00 -7.691609e-02 0.0
1.011577e+00 -5.725717e-02 0.0
1.009350e+00 -3.508813e-02 0.0
1.002784e+00 -1.055558e-02 0.0
9.920927e-01 1.563644e-02 0.0
9.782800e-01 4.179787e-02 0.0
9.628352e-01 6.641119e-02 0.0
9.476779e-01 8.776271e-02 0.0
9.348478e-01 1.040486e-01 0.0
9.259537e-01 1.137896e-01 0.0
9.215988e-01 1.163509e-01 0.0
9.209645e-01 1.124278e-01 0.0
9.224903e-01 1.037108e-01 0.0
9.247003e-01 9.184620e-02 0.0
9.264672e-01 7.826905e-02 0.0
9.271621e-01 6.407223e-02 0.0
9.266456e-01 4.999306e-02 0.0
9.251570e-01 3.653248e-02 0.0
9.233430e-01 2.284729e-02 0.0
0.000000e+00 2.191121e-02 0.0
1.000000e+00 -1.158574e-01 0.0
9.957092e-01 -1.166999e-01 0.0
9.902915e-01 -1.320227e-01 0.0
9.831063e-01 -1.658734e-01 0.0
9.749165e-01 -2.270404e-01 0.0
9.712555e-01 -3.341212e-01 0.0
9.995404e-01 -5.182297e-01 0.0
1.163537e+00 -9.986267e-01 0.0
1.010938e+00 -2.036152e-01 0.0
8.786586e-01 -2.044935e-02 0.0
8.246778e-01 -1.688699e-02 0.0
8.061186e-01 -4.421187e-03 0.0
8.010818e-01 1.774333e-02 0.0
7.984335e-01 4.407164e-02 0.0
7.925019e-01 7.043084e-02 0.0
7.781170e-01 9.719180e-02 0.0
7.513082e-01 1.232498e-01 0.0
7.096514e-01 1.470615e-01 0.0
6.526150e-01 1.676271e-01 0.0
5.824367e-01 1.845906e-01 0.0
5.034115e-01 1.987383e-01 0.0
4.168746e-01 2.142488e-01 0.0
3.239844e-01 2.292251e-01 0.0
2.266110e-01 2.331684e-01 0.0
1.366832e-01 2.036996e-01 0.0
7.535166e-02 1.297344e-01 0.0
5.798978e-02 1.864794e-02 0.0
9.086433e-02 -1.190385e-01 0.0
1.663566e-01 -2.490215e-01 0.0
2.834172e-01 -3.433410e-01 0.0
4.310861e-01 -3.743644e-01 0.0
5.873951e-01 -3.357341e-01 0.0
7.318682e-01 -2.427220e-01 0.0
8.486921e-01 -1.234494e-01 0.0
9.264431e-01 -7.092239e-03 0.0
9.756315e-01 8.637180e-02 0.0
1.004645e+00 1.650753e-01 0.0
1.017359e+00 2.336816e-01 0.0
1.016522e+00 2.916505e-01 0.0
1.004637e+00 3.374383e-01 0.0
9.841714e-01 3.693808e-01 0.0
9.570525e-01 3.857383e-01 0.0
9.234166e-01 3.845108e-01 0.0
8.840104e-01 3.622076e-01 0.0
8.429229e-01 3.161913e-01 0.0
8.091592e-01 2.440799e-01 0.0
7.920997e-01 1.485180e-01 0.0
7.945815e-01 4.116669e-02 0.0
8.117034e-01 -6.162474e-02 0.0
8.357731e-01 -1.474370e-01 0.0
8.607930e-01 -2.129667e-01 0.0
8.834166e-01 -2.594418e-01 0.0
9.023486e-01 -2.877751e-01 0.0
9.171234e-01 -2.968992e-01 0.0
9.271470e-01 -2.850134e-01 0.0
9.317511e-01 -2.520265e-01 0.0
9.305412e-01 -2.002068e-01 0.0
9.235860e-01 -1.333173e-01 0.0
9.116178e-01 -5.627170e-02 0.0
8.967030e-01 2.413424e-02 0.0
8.817493e-01 9.902938e-02 0.0
8.694102e-01 1.616997e-01 0.0
8.617460e-01 2.067120e-01 0.0
8.593113e-01 2.305931e-01 0.0
8.606651e-01 2.331564e-01 0.0
8.633106e-01 2.178217e-01 0.0
8.651796e-01 1.891943e-01 0.0
8.652670e-01 1.520335e-01 0.0
8.638790e-01 1.103485e-01 0.0
8.623277e-01 6.707686e-02 0.0
8.623104e-01 2.436060e-02 0.0
8.652731e-01 -1.601575e-02 0.0
8.718242e-01 -5.219499e-02 0.0
8.815570e-01 -8.241486e-02 0.0
8.934647e-01 -1.057352e-01 0.0
9.063930e-01 -1.220206e-01 0.0
9.193083e-01 -1.316179e-01 0.0
9.313873e-01 -1.350515e-01 0.0
9.419823e-01 -1.328320e-01 0.0
9.505832e-01 -1.254365e-01 0.0
9.567970e-01 -1.133838e-01 0.0
9.602755e-01 -9.716912e-02 0.0
9.606424e-01 -7.725274e-02 0.0
9.574673e-01 -5.405181e-02 0.0
9.503710e-01 -2.796161e-02 0.0
9.394662e-01 3.794751e-04 0.0
9.261236e-01 2.900920e-02 0.0
9.119637e-01 5.598806e-02 0.0
8.988480e-01 7.955706e-02 0.0
8.885969e-01 9.804407e-02 0.0
8.825066e-01 1.101692e-01 0.0
8.808922e-01 1.154342e-01 0.0
8.829167e-01 1.143567e-01 0.0
8.869622e-01 1.084126e-01 0.0
8.915832e-01 9.912001e-02 0.0
8.956909e-01 8.776879e-02 0.0
8.986343e-01 7.535583e-02 0.0
9.001750e-01 6.256178e-02 0.0
9.003898e-01 4.980852e-02 0.0
8.995579e-01 3.739463e-02 0.0
8.982360e-01 2.419944e-02 0.0
0.000000e+00 2.334829e-02 0.0
1.000000e+00 -1.025465e-01 0.0
9.868392e-01 -1.034243e-01 0.0
9.698218e-01 -1.149753e-01 0.0
9.440185e-01 -1.400401e-01 0.0
9.010165e-01 -1.840085e-01 0.0
8.241286e-01 -2.572034e-01 0.0
6.889795e-01 -3.830507e-01 0.0
2.034454e-01 -5.131475e-01 0.0
-1.011223e+00 5.110821e-01 0.0
0.000000e+00 -5.808011e-02 0.0
-9.664235e-02 5.942090e-02 0.0
-2.963181e-02 -7.140175e-02 0.0
7.011464e-02 -8.197314e-02 0.0
1.561944e-01 -4.197818e-02 0.0
2.076691e-01 1.898619e-02 0.0
2.289198e-01 7.597106e-02 0.0
2.235806e-01 1.286189e-01 0.0
1.947896e-01 1.758825e-01 0.0
1.463677e-01 2.160791e-01 0.0
8.340298e-02 2.475853e-01 0.0
1.238078e-02 2.697905e-01 0.0
-5.598879e-02 2.826484e-01 0.0
-1.105864e-01 2.838527e-01 0.0
-1.414032e-01 2.640152e-01 0.0
-1.474830e-01 2.098094e-01 0.0
-1.250254e-01 1.073068e-01 0.0
-7.234533e-02 -3.400213e-02 0.0
1.447045e-03 -1.928009e-01 0.0
7.857147e-02 -3.261159e-01 0.0
1.582134e-01 -4.229528e-01 0.0
2.600597e-01 -4.761807e-01 0.0
3.849096e-01 -4.605540e-01 0.0
5.176146e-01 -3.753970e-01 0.0
6.396428e-01 -2.454476e-01 0.0
7.368477e-01 -1.042671e-01 0.0
8.016686e-01 2.158100e-02 0.0
8.433014e-01 1.234725e-01 0.0
8.667480e-01 2.102651e-01 0.0
8.751130e-01 2.833156e-01 0.0
8.707369e-01 3.418445e-01 0.0
8.553063e-01 3.848415e-01 0.0
8.296106e-01 4.114642e-01 0.0
7.940792e-01 4.200723e-01 0.0
7.538840e-01 4.024328e-01 0.0
7.209620e-01 3.491434e-01 0.0
7.074952e-01 2.575767e-01 0.0
7.172119e-01 1.388314e-01 0.0
7.448805e-01 1.352816e-02 0.0
7.804774e-01 -9.719145e-02 0.0
8.164956e-01 -1.834251e-01 0.0
8.479137e-01 -2.443546e-01 0.0
8.720945e-01 -2.835925e-01 0.0
8.886478e-01 -3.042982e-01 0.0
8.983590e-01 -3.065802e-01 0.0
9.019888e-01 -2.886131e-01 0.0
8.998644e-01 -2.498719e-01 0.0
8.922585e-01 -1.925707e-01 0.0
8.799126e-01 -1.209413e-01 0.0
8.644657e-01 -4.079466e-02 0.0
8.487607e-01 3.986936e-02 0.0
8.352021e-01 1.126182e-01 0.0
8.255787e-01 1.713533e-01 0.0
8.207213e-01 2.115996e-01 0.0
8.199839e-01 2.313606e-01 0.0
8.213210e-01 2.318495e-01 0.0
8.225792e-01 2.165937e-01 0.0
8.224179e-01 1.893857e-01 0.0
8.207566e-01 1.537250e-01 0.0
8.187099e-01 1.124253e-01 0.0
8.180331e-01 6.778384e-02 0.0
8.204209e-01 2.200302e-02 0.0
8.269417e-01 -2.250636e-02 0.0
8.374744e-01 -6.269748e-02 0.0
8.509312e-01 -9.584145e-02 0.0
8.657997e-01 -1.205734e-01 0.0
8.806173e-01 -1.368080e-01 0.0
8.942233e-01 -1.451936e-01 0.0
9.057978e-01 -1.465958e-01 0.0
9.147681e-01 -1.417721e-01 0.0
9.207764e-01 -1.314145e-01 0.0
9.235920e-01 -1.161692e-01 0.0
9.230372e-01 -9.658406e-02 0.0
9.189455e-01 -7.313090e-02 0.0
9.112350e-01 -4.631100e-02 0.0
9.002235e-01 -1.691988e-02 0.0
8.873169e-01 1.331625e-02 0.0
8.743465e-01 4.200984e-02 0.0
8.630134e-01 6.735142e-02 0.0
8.548198e-01 8.778085e-02 0.0
8.507124e-01 1.021817e-01 0.0
8.507659e-01 1.101459e-01 0.0
8.541443e-01 1.120861e-01 0.0
8.593889e-01 1.091424e-01 0.0
8.651609e-01 1.026707e-01 0.0
8.704906e-01 9.382058e-02 0.0
8.747961e-01 8.349348e-02 0.0
8.778391e-01 7.234314e-02 0.0
8.796183e-01 6.081277e-02 0.0
8.802624e-01 4.919472e-02 0.0
8.799414e-01 3.774584e-02 0.0
8.790202e-01 2.515084e-02 0.0
0.000000e+00 2.437652e-02 0.0
1.000000e+00 -8.257504e-02 0.0
9.801515e-01 -8.346098e-02 0.0
9.546395e-01 -8.943338e-02 0.0
9.158253e-01 -1.011959e-01 0.0
8.497462e-01 -1.178995e-01 0.0
7.269786e-01 -1.344058e-01 0.0
4.714899e-01 -1.275321e-01 0.0
-1.016775e-02 -3.154477e-02 0.0
7.807460e-05 0.000000e+00 0.0
0.000000e+00 -0.000000e+00 0.0
0.000000e+00 -7.583348e-02 0.0
-1.518826e-01 8.051083e-02 0.0
-1.239467e-01 -1.098791e-01 0.0
-8.923716e-02 -7.665775e-02 0.0
-7.797360e-02 7.752613e-03 0.0
-7.586810e-02 7.389555e-02 0.0
-8.373850e-02 1.365193e-01 0.0
-1.000289e-01 1.922029e-01 0.0
-1.218894e-01 2.379697e-01 0.0
-1.461174e-01 2.718433e-01 0.0