# vtk DataFile Version 3.0
Vector Field
ASCII
DATASET RECTILINEAR_GRID
DIMENSIONS 102 22 1
X_COORDINATES 102 double
0.000000 0.100000 0.200000 0.300000 0.400000 0.500000 0.600000 0.700000 0.800000 0.900000 1.000000 1.100000 1.200000 1.300000 1.400000 1.500000 1.600000 1.700000 1.800000 1.900000 2.000000 2.100000 2.200000 2.300000 2.400000 2.500000 2.600000 2.700000 2.800000 2.900000 3.000000 3.100000 3.200000 3.300000 3.400000 3.500000 3.600000 3.700000 3.800000 3.900000 4.000000 4.100000 4.200000 4.300000 4.400000 4.500000 4.600000 4.700000 4.800000 4.900000 5.000000 5.100000 5.200000 5.300000 5.400000 5.500000 5.600000 5.700000 5.800000 5.900000 6.000000 6.100000 6.200000 6.300000 6.400000 6.500000 6.600000 6.700000 6.800000 6.900000 7.000000 7.100000 7.200000 7.300000 7.400000 7.500000 7.600000 7.700000 7.800000 7.900000 8.000000 8.100000 8.200000 8.300000 8.400000 8.500000 8.600000 8.700000 8.800000 8.900000 9.000000 9.100000 9.200000 9.300000 9.400000 9.500000 9.600000 9.700000 9.800000 9.900000 10.000000 10.100000 
Y_COORDINATES 22 double
0.000000 0.100000 0.200000 0.300000 0.400000 0.500000 0.600000 0.700000 0.800000 0.900000 1.000000 1.100000 1.200000 1.300000 1.400000 1.500000 1.600000 1.700000 1.800000 1.900000 2.000000 2.100000 
Z_COORDINATES 1 double
0.0
POINT_DATA 2244
VECTORS Velocity double
0.000000e+00 0.000000e+00 0.0
-1.032142e+00 0.000000e+00 0.0
-1.067458e+00 0.000000e+00 0.0
-1.109019e+00 0.000000e+00 0.0
-1.159698e+00 0.000000e+00 0.0
-1.221560e+00 0.000000e+00 0.0
-1.293458e+00 0.000000e+00 0.0
-1.373743e+00 0.000000e+00 0.0
-1.441931e+00 0.000000e+00 0.0
-1.484873e+00 0.000000e+00 0.0
-1.499972e+00 0.000000e+00 0.0
-1.489223e+00 0.000000e+00 0.0
-1.455507e+00 0.000000e+00 0.0
-1.402812e+00 0.000000e+00 0.0
-1.337306e+00 0.000000e+00 0.0
-1.267218e+00 0.000000e+00 0.0
-1.200862e+00 0.000000e+00 0.0
-1.144267e+00 0.000000e+00 0.0
-1.099881e+00 0.000000e+00 0.0
-1.067047e+00 0.000000e+00 0.0
-1.043529e+00 0.000000e+00 0.0
-1.026818e+00 0.000000e+00 0.0
-1.014806e+00 0.000000e+00 0.0
-1.005980e+00 0.000000e+00 0.0
-9.993438e-01 0.000000e+00 0.0
-9.942701e-01 0.000000e+00 0.0
-9.903648e-01 0.000000e+00 0.0
-9.873731e-01 0.000000e+00 0.0
-9.851202e-01 0.000000e+00 0.0
-9.834772e-01 0.000000e+00 0.0
-9.823422e-01 0.000000e+00 0.0
-9.816299e-01 0.000000e+00 0.0
-9.812664e-01 0.000000e+00 0.0
-9.811853e-01 0.000000e+00 0.0
-9.813270e-01 0.000000e+00 0.0
-9.816391e-01 0.000000e+00 0.0
-9.820772e-01 0.000000e+00 0.0
-9.826038e-01 0.000000e+00 0.0
-9.831879e-01 0.000000e+00 0.0
-9.838039e-01 0.000000e+00 0.0
-9.844317e-01 0.000000e+00 0.0
-9.850554e-01 0.000000e+00 0.0
-9.856628e-01 0.000000e+00 0.0
-9.862451e-01 0.000000e+00 0.0
-9.867963e-01 0.000000e+00 0.0
-9.873126e-01 0.000000e+00 0.0
-9.877917e-01 0.000000e+00 0.0
-9.882330e-01 0.000000e+00 0.0
-9.886366e-01 0.000000e+00 0.0
-9.890036e-01 0.000000e+00 0.0
-9.893356e-01 0.000000e+00 0.0
-9.896343e-01 0.000000e+00 0.0
-9.899020e-01 0.000000e+00 0.0
-9.901408e-01 0.000000e+00 0.0
-9.903531e-01 0.000000e+00 0.0
-9.905410e-01 0.000000e+00 0.0
-9.907068e-01 0.000000e+00 0.0
-9.908524e-01 0.000000e+00 0.0
-9.909799e-01 0.000000e+00 0.0
-9.910910e-01 0.000000e+00 0.0
-9.911874e-01 0.000000e+00 0.0
-9.912706e-01 0.000000e+00 0.0
-9.913421e-01 0.000000e+00 0.0
-9.914031e-01 0.000000e+00 0.0
-9.914548e-01 0.000000e+00 0.0
-9.914981e-01 0.000000e+00 0.0
-9.915341e-01 0.000000e+00 0.0
-9.915636e-01 0.000000e+00 0.0
-9.915873e-01 0.000000e+00 0.0
-9.916060e-01 0.000000e+00 0.0
-9.916201e-01 0.000000e+00 0.0
-9.916302e-01 0.000000e+00 0.0
-9.916368e-01 0.000000e+00 0.0
-9.916403e-01 0.000000e+00 0.0
-9.916410e-01 0.000000e+00 0.0
-9.916394e-01 0.000000e+00 0.0
-9.916356e-01 0.000000e+00 0.0
-9.916300e-01 0.000000e+00 0.0
-9.916227e-01 0.000000e+00 0.0
-9.916139e-01 0.000000e+00 0.0
-9.916039e-01 0.000000e+00 0.0
-9.915928e-01 0.000000e+00 0.0
-9.915807e-01 0.000000e+00 0.0
-9.915677e-01 0.000000e+00 0.0
-9.915539e-01 0.000000e+00 0.0
-9.915396e-01 0.000000e+00 0.0
-9.915247e-01 0.000000e+00 0.0
-9.915094e-01 0.000000e+00 0.0
-9.914939e-01 0.000000e+00 0.0
-9.914784e-01 0.000000e+00 0.0
-9.914632e-01 0.000000e+00 0.0
-9.914486e-01 0.000000e+00 0.0
-9.914355e-01 0.000000e+00 0.0
-9.914248e-01 0.000000e+00 0.0
-9.914184e-01 0.000000e+00 0.0
-9.914192e-01 0.000000e+00 0.0
-9.914334e-01 0.000000e+00 0.0
-9.914741e-01 0.000000e+00 0.0
-9.915727e-01 0.000000e+00 0.0
-9.918672e-01 0.000000e+00 0.0
-9.918672e-01 0.000000e+00 0.0
0.000000e+00 0.000000e+00 0.0
1.000000e+00 -3.227331e-02 0.0
1.032296e+00 -3.238553e-02 0.0
1.067744e+00 -3.549960e-02 0.0
1.109415e+00 -4.172353e-02 0.0
1.160173e+00 -5.080923e-02 0.0
1.222096e+00 -6.197507e-02 0.0
1.294083e+00 -7.203815e-02 0.0
1.374643e+00 -8.061169e-02 0.0
1.443325e+00 -6.873390e-02 0.0
1.487059e+00 -4.378585e-02 0.0
1.503473e+00 -1.646570e-02 0.0
1.494786e+00 8.636091e-03 0.0
1.463759e+00 3.097496e-02 0.0
1.413732e+00 4.997536e-02 0.0
1.349929e+00 6.375114e-02 0.0
1.279890e+00 6.998748e-02 0.0
1.211955e+00 6.788378e-02 0.0
1.152805e+00 5.909779e-02 0.0
1.105741e+00 4.701318e-02 0.0
1.070682e+00 3.500710e-02 0.0
1.045574e+00 2.505645e-02 0.0
1.027835e+00 1.768749e-02 0.0
1.015198e+00 1.258594e-02 0.0
1.005995e+00 9.151780e-03 0.0
9.991199e-01 6.823165e-03 0.0
9.938797e-01 5.188796e-03 0.0
9.898436e-01 3.984625e-03 0.0
9.867390e-01 3.053222e-03 0.0
9.843834e-01 2.304247e-03 0.0
9.826455e-01 1.686535e-03 0.0
9.814235e-01 1.170714e-03 0.0
9.806330e-01 7.391680e-04 0.0
9.802011e-01 3.805260e-04 0.0
9.800629e-01 8.693151e-05 0.0
9.801590e-01 -1.473236e-04 0.0
9.804367e-01 -3.289494e-04 0.0
9.808508e-01 -4.652848e-04 0.0
9.813628e-01 -5.631434e-04 0.0
9.819404e-01 -6.287744e-04 0.0
9.825571e-01 -6.678726e-04 0.0
9.831915e-01 -6.855391e-04 0.0
9.838266e-01 -6.861937e-04 0.0
9.844493e-01 -6.737175e-04 0.0
9.850497e-01 -6.515171e-04 0.0
9.856211e-01 -6.224331e-04 0.0
9.861589e-01 -5.887857e-04 0.0
9.866604e-01 -5.524360e-04 0.0
9.871243e-01 -5.148470e-04 0.0
9.875505e-01 -4.771430e-04 0.0
9.879397e-01 -4.401648e-04 0.0
9.882934e-01 -4.045202e-04 0.0
9.886131e-01 -3.706281e-04 0.0
9.889011e-01 -3.387576e-04 0.0
9.891593e-01 -3.090607e-04 0.0
9.893901e-01 -2.815995e-04 0.0
9.895957e-01 -2.563690e-04 0.0
9.897783e-01 -2.333152e-04 0.0
9.899399e-01 -2.123496e-04 0.0
9.900826e-01 -1.933611e-04 0.0
9.902081e-01 -1.762243e-04 0.0
9.903183e-01 -1.608069e-04 0.0
9.904146e-01 -1.469742e-04 0.0
9.904986e-01 -1.345931e-04 0.0
9.905716e-01 -1.235349e-04 0.0
9.906347e-01 -1.136769e-04 0.0
9.906890e-01 -1.049033e-04 0.0
9.907356e-01 -9.710638e-05 0.0
9.907753e-01 -9.018649e-05 0.0
9.908089e-01 -8.405208e-05 0.0
9.908370e-01 -7.861950e-05 0.0
9.908604e-01 -7.381277e-05 0.0
9.908795e-01 -6.956306e-05 0.0
9.908949e-01 -6.580834e-05 0.0
9.909070e-01 -6.249279e-05 0.0
9.909162e-01 -5.956640e-05 0.0
9.909228e-01 -5.698443e-05 0.0
9.909272e-01 -5.470698e-05 0.0
9.909296e-01 -5.269857e-05 0.0
9.909302e-01 -5.092777e-05 0.0
9.909293e-01 -4.936691e-05 0.0
9.909270e-01 -4.799180e-05 0.0
9.909235e-01 -4.678171e-05 0.0
9.909189e-01 -4.571932e-05 0.0
9.909135e-01 -4.479105e-05 0.0
9.909072e-01 -4.398764e-05 0.0
9.909003e-01 -4.330520e-05 0.0
9.908929e-01 -4.274701e-05 0.0
9.908850e-01 -4.232649e-05 0.0
9.908769e-01 -4.207201e-05 0.0
9.908687e-01 -4.203587e-05 0.0
9.908608e-01 -4.230247e-05 0.0
9.908537e-01 -4.301292e-05 0.0
9.908479e-01 -4.440152e-05 0.0
9.908446e-01 -4.686575e-05 0.0
9.908455e-01 -5.111222e-05 0.0
9.908539e-01 -5.849540e-05 0.0
9.908756e-01 -7.189115e-05 0.0
9.909241e-01 -9.864671e-05 0.0
9.910310e-01 -1.570542e-04 0.0
9.913353e-01 -3.544425e-04 0.0
9.918672e-01 -5.819774e-04 0.0
0.000000e+00 -5.940819e-04 0.0
1.000000e+00 -6.474388e-02 0.0
1.032568e+00 -6.500564e-02 0.0
1.068326e+00 -7.127057e-02 0.0
1.110508e+00 -8.391888e-02 0.0
1.162304e+00 -1.026191e-01 0.0
1.226483e+00 -1.261672e-01 0.0
1.301943e+00 -1.475119e-01 0.0
1.392625e+00 -1.713070e-01 0.0
1.466006e+00 -1.421285e-01 0.0
1.508814e+00 -8.660746e-02 0.0
1.522454e+00 -3.011858e-02 0.0
1.511767e+00 1.930947e-02 0.0
1.480642e+00 6.208586e-02 0.0
1.432439e+00 9.816511e-02 0.0
1.371387e+00 1.247901e-01 0.0
1.303385e+00 1.379758e-01 0.0
1.235663e+00 1.355925e-01 0.0
1.175064e+00 1.196833e-01 0.0
1.125837e+00 9.622620e-02 0.0
1.088751e+00 7.208041e-02 0.0
1.062126e+00 5.166736e-02 0.0
1.043411e+00 3.638885e-02 0.0
1.030203e+00 2.578127e-02 0.0
1.020688e+00 1.865277e-02 0.0
1.013666e+00 1.383214e-02 0.0
1.008387e+00 1.045401e-02 0.0
1.004392e+00 7.966738e-03 0.0
1.001386e+00 6.045472e-03 0.0
9.991714e-01 4.505660e-03 0.0
9.976014e-01 3.243142e-03 0.0
9.965610e-01 2.197668e-03 0.0
9.959544e-01 1.332448e-03 0.0
9.956987e-01 6.227959e-04 0.0
9.957222e-01 5.013531e-05 0.0
9.959634e-01 -4.019457e-04 0.0
9.963703e-01 -7.491562e-04 0.0
9.968979e-01 -1.006247e-03 0.0
9.975084e-01 -1.186949e-03 0.0
9.981702e-01 -1.303942e-03 0.0
9.988578e-01 -1.368793e-03 0.0
9.995508e-01 -1.391897e-03 0.0
1.000234e+00 -1.382489e-03 0.0
1.000895e+00 -1.348478e-03 0.0
1.001527e+00 -1.296452e-03 0.0
1.002123e+00 -1.231886e-03 0.0
1.002680e+00 -1.159248e-03 0.0
1.003197e+00 -1.082113e-03 0.0
1.003672e+00 -1.003279e-03 0.0
1.004106e+00 -9.248749e-04 0.0
1.004501e+00 -8.484788e-04 0.0
1.004859e+00 -7.752137e-04 0.0
1.005181e+00 -7.058378e-04 0.0
1.005469e+00 -6.408208e-04 0.0
1.005728e+00 -5.804090e-04 0.0
1.005957e+00 -5.246785e-04 0.0
1.006161e+00 -4.735793e-04 0.0
1.006342e+00 -4.269708e-04 0.0
1.006501e+00 -3.846493e-04 0.0
1.006641e+00 -3.463706e-04 0.0
1.006763e+00 -3.118664e-04 0.0
1.006870e+00 -2.808575e-04 0.0
1.006963e+00 -2.530632e-04 0.0
1.007043e+00 -2.282083e-04 0.0
1.007113e+00 -2.060279e-04 0.0
1.007172e+00 -1.862704e-04 0.0
1.007223e+00 -1.687000e-04 0.0
1.007265e+00 -1.530975e-04 0.0
1.007301e+00 -1.392606e-04 0.0
1.007331e+00 -1.270038e-04 0.0
1.007356e+00 -1.161580e-04 0.0
1.007375e+00 -1.065698e-04 0.0
1.007391e+00 -9.810039e-05 0.0
1.007402e+00 -9.062475e-05 0.0
1.007411e+00 -8.403057e-05 0.0
1.007416e+00 -7.821723e-05 0.0
1.007419e+00 -7.309481e-05 0.0
1.007420e+00 -6.858314e-05 0.0
1.007419e+00 -6.461096e-05 0.0
1.007416e+00 -6.111513e-05 0.0
1.007411e+00 -5.804003e-05 0.0
1.007406e+00 -5.533704e-05 0.0
1.007399e+00 -5.296433e-05 0.0
1.007391e+00 -5.088687e-05 0.0
1.007382e+00 -4.907691e-05 0.0
1.007372e+00 -4.751502e-05 0.0
1.007362e+00 -4.619212e-05 0.0
1.007351e+00 -4.511275e-05 0.0
1.007340e+00 -4.430050e-05 0.0
1.007329e+00 -4.380644e-05 0.0
1.007317e+00 -4.372161e-05 0.0
1.007306e+00 -4.420395e-05 0.0
1.007296e+00 -4.551083e-05 0.0
1.007286e+00 -4.806240e-05 0.0
1.007279e+00 -5.255475e-05 0.0
1.007275e+00 -6.017515e-05 0.0
1.007276e+00 -7.304057e-05 0.0
1.007286e+00 -9.513914e-05 0.0
1.007309e+00 -1.344722e-04 0.0
1.007346e+00 -2.067118e-04 0.0
1.007324e+00 -3.459622e-04 0.0
1.007248e+00 -5.189328e-04 0.0
0.000000e+00 -5.298469e-04 0.0
1.000000e+00 -9.388725e-02 0.0
1.029239e+00 -9.429655e-02 0.0
1.061861e+00 -1.039055e-01 0.0
1.101445e+00 -1.235168e-01 0.0
1.151983e+00 -1.531704e-01 0.0
1.217900e+00 -1.920974e-01 0.0
1.299064e+00 -2.286897e-01 0.0
1.412765e+00 -2.850220e-01 0.0
1.493431e+00 -2.228081e-01 0.0
1.531526e+00 -1.247154e-01 0.0
1.537238e+00 -3.584450e-02 0.0
1.520258e+00 3.627686e-02 0.0
1.486091e+00 9.623898e-02 0.0
1.437924e+00 1.463186e-01 0.0
1.378467e+00 1.842335e-01 0.0
1.311500e+00 2.049291e-01 0.0
1.242680e+00 2.043998e-01 0.0
1.178868e+00 1.834821e-01 0.0
1.125575e+00 1.495057e-01 0.0
1.084995e+00 1.126460e-01 0.0
1.056210e+00 8.043974e-02 0.0
1.036558e+00 5.602691e-02 0.0
1.023209e+00 3.911694e-02 0.0
1.013969e+00 2.787897e-02 0.0
1.007409e+00 2.037931e-02 0.0
1.002671e+00 1.517889e-02 0.0
9.992470e-01 1.137693e-02 0.0
9.968218e-01 8.457273e-03 0.0
9.951806e-01 6.133486e-03 0.0
9.941642e-01 4.246123e-03 0.0
9.936463e-01 2.702233e-03 0.0
9.935217e-01 1.443633e-03 0.0
9.937016e-01 4.295338e-04 0.0
9.941115e-01 -3.730637e-04 0.0
9.946899e-01 -9.937090e-04 0.0
9.953858e-01 -1.458434e-03 0.0
9.961571e-01 -1.790960e-03 0.0
9.969699e-01 -2.013037e-03 0.0
9.977971e-01 -2.144450e-03 0.0
9.986179e-01 -2.202933e-03 0.0
9.994168e-01 -2.204112e-03 0.0
1.000182e+00 -2.161498e-03 0.0
1.000907e+00 -2.086517e-03 0.0
1.001586e+00 -1.988658e-03 0.0
1.002217e+00 -1.875664e-03 0.0
1.002798e+00 -1.753740e-03 0.0
1.003330e+00 -1.627766e-03 0.0
1.003815e+00 -1.501485e-03 0.0
1.004255e+00 -1.377690e-03 0.0
1.004651e+00 -1.258398e-03 0.0
1.005008e+00 -1.144995e-03 0.0
1.005327e+00 -1.038370e-03 0.0
1.005612e+00 -9.390232e-04 0.0
1.005866e+00 -8.471564e-04 0.0
1.006090e+00 -7.627495e-04 0.0
1.006289e+00 -6.856205e-04 0.0
1.006464e+00 -6.154734e-04 0.0
1.006619e+00 -5.519366e-04 0.0
1.006754e+00 -4.945922e-04 0.0
1.006871e+00 -4.429982e-04 0.0
1.006974e+00 -3.967058e-04 0.0
1.007063e+00 -3.552712e-04 0.0
1.007140e+00 -3.182650e-04 0.0
1.007206e+00 -2.852774e-04 0.0
1.007263e+00 -2.559225e-04 0.0
1.007310e+00 -2.298404e-04 0.0
1.007351e+00 -2.066983e-04 0.0
1.007385e+00 -1.861902e-04 0.0
1.007413e+00 -1.680366e-04 0.0
1.007435e+00 -1.519833e-04 0.0
1.007453e+00 -1.378002e-04 0.0
1.007467e+00 -1.252795e-04 0.0
1.007478e+00 -1.142344e-04 0.0
1.007485e+00 -1.044974e-04 0.0
1.007490e+00 -9.591860e-05 0.0
1.007492e+00 -8.836402e-05 0.0
1.007492e+00 -8.171447e-05 0.0
1.007490e+00 -7.586396e-05 0.0
1.007486e+00 -7.071868e-05 0.0
1.007481e+00 -6.619589e-05 0.0
1.007475e+00 -6.222324e-05 0.0
1.007468e+00 -5.873828e-05 0.0
1.007460e+00 -5.568843e-05 0.0
1.007450e+00 -5.303151e-05 0.0
1.007441e+00 -5.073714e-05 0.0
1.007430e+00 -4.878932e-05 0.0
1.007419e+00 -4.719082e-05 0.0
1.007408e+00 -4.597037e-05 0.0
1.007396e+00 -4.519386e-05 0.0
1.007384e+00 -4.498226e-05 0.0
1.007372e+00 -4.554127e-05 0.0
1.007361e+00 -4.720547e-05 0.0
1.007350e+00 -5.051217e-05 0.0
1.007341e+00 -5.632529e-05 0.0
1.007334e+00 -6.604772e-05 0.0
1.007330e+00 -8.199165e-05 0.0
1.007329e+00 -1.080101e-04 0.0
1.007332e+00 -1.504380e-04 0.0
1.007331e+00 -2.187248e-04 0.0
1.007294e+00 -3.221315e-04 0.0
1.007214e+00 -4.514096e-04 0.0
0.000000e+00 -4.614170e-04 0.0
1.000000e+00 -1.178607e-01 0.0
1.024066e+00 -1.184142e-01 0.0
1.051557e+00 -1.314104e-01 0.0
1.086401e+00 -1.583740e-01 0.0
1.133854e+00 -2.006367e-01 0.0
1.201256e+00 -2.595127e-01 0.0
1.293044e+00 -3.204914e-01 0.0
1.447598e+00 -4.395891e-01 0.0
1.531132e+00 -3.063560e-01 0.0
1.556833e+00 -1.504300e-01 0.0
1.550312e+00 -2.933691e-02 0.0
1.524927e+00 6.164858e-02 0.0
1.486575e+00 1.345776e-01 0.0
1.437883e+00 1.949968e-01 0.0
1.380106e+00 2.419969e-01 0.0
1.314702e+00 2.703198e-01 0.0
1.245075e+00 2.740141e-01 0.0
1.177577e+00 2.509664e-01 0.0
1.119086e+00 2.079829e-01 0.0
1.073972e+00 1.577464e-01 0.0
1.042532e+00 1.118672e-01 0.0
1.022096e+00 7.644930e-02 0.0
1.009197e+00 5.200229e-02 0.0
1.001015e+00 3.604779e-02 0.0
9.957317e-01 2.564889e-02 0.0
9.923109e-01 1.858627e-02 0.0
9.901727e-01 1.350174e-02 0.0
9.889704e-01 9.646189e-03 0.0
9.884734e-01 6.617130e-03 0.0
9.885103e-01 4.195780e-03 0.0
9.889460e-01 2.253213e-03 0.0
9.896689e-01 7.073687e-04 0.0
9.905898e-01 -5.048009e-04 0.0
9.916393e-01 -1.435859e-03 0.0
9.927615e-01 -2.129343e-03 0.0
9.939129e-01 -2.623179e-03 0.0
9.950600e-01 -2.951359e-03 0.0
9.961780e-01 -3.144352e-03 0.0
9.972493e-01 -3.229166e-03 0.0
9.982624e-01 -3.229360e-03 0.0
9.992101e-01 -3.165121e-03 0.0
1.000089e+00 -3.053455e-03 0.0
1.000897e+00 -2.908432e-03 0.0
1.001637e+00 -2.741470e-03 0.0
1.002310e+00 -2.561668e-03 0.0
1.002919e+00 -2.376148e-03 0.0
1.003468e+00 -2.190357e-03 0.0
1.003962e+00 -2.008349e-03 0.0
1.004404e+00 -1.833041e-03 0.0
1.004798e+00 -1.666434e-03 0.0
1.005150e+00 -1.509804e-03 0.0
1.005462e+00 -1.363868e-03 0.0
1.005739e+00 -1.228910e-03 0.0
1.005983e+00 -1.104892e-03 0.0
1.006199e+00 -9.915450e-04 0.0
1.006388e+00 -8.884333e-04 0.0
1.006555e+00 -7.950129e-04 0.0
1.006700e+00 -7.106727e-04 0.0
1.006827e+00 -6.347669e-04 0.0
1.006938e+00 -5.666398e-04 0.0
1.007033e+00 -5.056430e-04 0.0
1.007116e+00 -4.511483e-04 0.0
1.007187e+00 -4.025568e-04 0.0
1.007248e+00 -3.593039e-04 0.0
1.007300e+00 -3.208627e-04 0.0
1.007344e+00 -2.867457e-04 0.0
1.007380e+00 -2.565044e-04 0.0
1.007411e+00 -2.297291e-04 0.0
1.007435e+00 -2.060468e-04 0.0
1.007455e+00 -1.851197e-04 0.0
1.007471e+00 -1.666428e-04 0.0
1.007483e+00 -1.503416e-04 0.0
1.007492e+00 -1.359699e-04 0.0
1.007497e+00 -1.233071e-04 0.0
1.007500e+00 -1.121561e-04 0.0
1.007501e+00 -1.023413e-04 0.0
1.007500e+00 -9.370635e-05 0.0
1.007497e+00 -8.611253e-05 0.0
1.007493e+00 -7.943695e-05 0.0
1.007487e+00 -7.357126e-05 0.0
1.007480e+00 -6.842057e-05 0.0
1.007472e+00 -6.390269e-05 0.0
1.007463e+00 -5.994798e-05 0.0
1.007454e+00 -5.649981e-05 0.0
1.007443e+00 -5.351598e-05 0.0
1.007433e+00 -5.097160e-05 0.0
1.007421e+00 -4.886405e-05 0.0
1.007409e+00 -4.722097e-05 0.0
1.007397e+00 -4.611299e-05 0.0
1.007385e+00 -4.567346e-05 0.0
1.007372e+00 -4.612935e-05 0.0
1.007360e+00 -4.784769e-05 0.0
1.007348e+00 -5.140762e-05 0.0
1.007336e+00 -5.771126e-05 0.0
1.007325e+00 -6.815153e-05 0.0
1.007315e+00 -8.485326e-05 0.0
1.007305e+00 -1.109687e-04 0.0
1.007292e+00 -1.508391e-04 0.0
1.007269e+00 -2.093810e-04 0.0
1.007222e+00 -2.879254e-04 0.0
1.007142e+00 -3.841744e-04 0.0
0.000000e+00 -3.933154e-04 0.0
1.000000e+00 -1.346985e-01 0.0
1.016923e+00 -1.353888e-01 0.0
1.036830e+00 -1.513306e-01 0.0
1.063583e+00 -1.851404e-01 0.0
1.103656e+00 -2.407235e-01 0.0
1.168258e+00 -3.241278e-01 0.0
1.272864e+00 -4.251116e-01 0.0
1.479605e+00 -6.463430e-01 0.0
1.542709e+00 -3.694742e-01 0.0
1.544381e+00 -1.521154e-01 0.0
1.524447e+00 -9.416396e-03 0.0
1.493148e+00 9.293469e-02 0.0
1.454080e+00 1.736322e-01 0.0
1.408318e+00 2.407448e-01 0.0
1.355905e+00 2.943970e-01 0.0
1.296612e+00 3.295989e-01 0.0
1.230849e+00 3.397640e-01 0.0
1.163067e+00 3.187346e-01 0.0
1.101204e+00 2.698332e-01 0.0
1.052242e+00 2.066948e-01 0.0
1.018591e+00 1.455046e-01 0.0
9.980854e-01 9.694144e-02 0.0
9.866527e-01 6.342156e-02 0.0
9.806888e-01 4.199824e-02 0.0
9.778446e-01 2.847973e-02 0.0
9.768227e-01 1.959470e-02 0.0
9.769378e-01 1.337323e-02 0.0
9.777999e-01 8.770673e-03 0.0
9.791633e-01 5.240347e-03 0.0
9.808492e-01 2.496487e-03 0.0
9.827209e-01 3.681517e-04 0.0
9.846793e-01 -1.264377e-03 0.0
9.866523e-01 -2.491166e-03 0.0
9.885857e-01 -3.382637e-03 0.0
9.904403e-01 -3.997349e-03 0.0
9.921900e-01 -4.386139e-03 0.0
9.938188e-01 -4.593520e-03 0.0
9.953192e-01 -4.658117e-03 0.0
9.966897e-01 -4.613000e-03 0.0
9.979330e-01 -4.485967e-03 0.0
9.990546e-01 -4.300077e-03 0.0
1.000062e+00 -4.074126e-03 0.0
1.000963e+00 -3.823130e-03 0.0
1.001767e+00 -3.558872e-03 0.0
1.002483e+00 -3.290437e-03 0.0
1.003118e+00 -3.024660e-03 0.0
1.003681e+00 -2.766531e-03 0.0
1.004179e+00 -2.519561e-03 0.0
1.004619e+00 -2.286082e-03 0.0
1.005007e+00 -2.067505e-03 0.0
1.005348e+00 -1.864535e-03 0.0
1.005648e+00 -1.677342e-03 0.0
1.005912e+00 -1.505703e-03 0.0
1.006143e+00 -1.349109e-03 0.0
1.006345e+00 -1.206862e-03 0.0
1.006521e+00 -1.078133e-03 0.0
1.006675e+00 -9.620261e-04 0.0
1.006809e+00 -8.576087e-04 0.0
1.006925e+00 -7.639477e-04 0.0
1.007025e+00 -6.801291e-04 0.0
1.007111e+00 -6.052732e-04 0.0
1.007186e+00 -5.385449e-04 0.0
1.007249e+00 -4.791606e-04 0.0
1.007303e+00 -4.263909e-04 0.0
1.007349e+00 -3.795623e-04 0.0
1.007387e+00 -3.380566e-04 0.0
1.007418e+00 -3.013094e-04 0.0
1.007444e+00 -2.688080e-04 0.0
1.007465e+00 -2.400880e-04 0.0
1.007482e+00 -2.147305e-04 0.0
1.007494e+00 -1.923589e-04 0.0
1.007503e+00 -1.726351e-04 0.0
1.007509e+00 -1.552566e-04 0.0
1.007513e+00 -1.399531e-04 0.0
1.007514e+00 -1.264839e-04 0.0
1.007513e+00 -1.146342e-04 0.0
1.007511e+00 -1.042137e-04 0.0
1.007506e+00 -9.505326e-05 0.0
1.007501e+00 -8.700321e-05 0.0
1.007494e+00 -7.993163e-05 0.0
1.007486e+00 -7.372272e-05 0.0
1.007478e+00 -6.827588e-05 0.0
1.007468e+00 -6.350518e-05 0.0
1.007458e+00 -5.933962e-05 0.0
1.007447e+00 -5.572443e-05 0.0
1.007435e+00 -5.262375e-05 0.0
1.007424e+00 -5.002555e-05 0.0
1.007411e+00 -4.794960e-05 0.0
1.007398e+00 -4.645997e-05 0.0
1.007385e+00 -4.568441e-05 0.0
1.007372e+00 -4.584330e-05 0.0
1.007358e+00 -4.729241e-05 0.0
1.007344e+00 -5.058475e-05 0.0
1.007330e+00 -5.655701e-05 0.0
1.007315e+00 -6.644208e-05 0.0
1.007299e+00 -8.199174e-05 0.0
1.007281e+00 -1.055432e-04 0.0
1.007257e+00 -1.398265e-04 0.0
1.007221e+00 -1.871267e-04 0.0
1.007167e+00 -2.463660e-04 0.0
1.007087e+00 -3.171951e-04 0.0
0.000000e+00 -3.254951e-04 0.0
1.000000e+00 -1.425949e-01 0.0
1.007968e+00 -1.434089e-01 0.0
1.017585e+00 -1.609607e-01 0.0
1.031478e+00 -1.990469e-01 0.0
1.055628e+00 -2.648871e-01 0.0
1.103332e+00 -3.718453e-01 0.0
1.204822e+00 -5.266147e-01 0.0
1.450892e+00 -8.924269e-01 0.0
1.449094e+00 -3.676890e-01 0.0
1.413093e+00 -1.161284e-01 0.0
1.380821e+00 2.284197e-02 0.0
1.351758e+00 1.219840e-01 0.0
1.322968e+00 2.024088e-01 0.0
1.291360e+00 2.723394e-01 0.0
1.254575e+00 3.311688e-01 0.0
1.211227e+00 3.729332e-01 0.0
1.160239e+00 3.907390e-01 0.0
1.103207e+00 3.757532e-01 0.0
1.047741e+00 3.252859e-01 0.0
1.002618e+00 2.518046e-01 0.0
9.725528e-01 1.755560e-01 0.0
9.564887e-01 1.129922e-01 0.0
9.501797e-01 6.971709e-02 0.0
9.494572e-01 4.270737e-02 0.0
9.515300e-01 2.639345e-02 0.0
9.549119e-01 1.619940e-02 0.0
9.588867e-01 9.385071e-03 0.0
9.630799e-01 4.564054e-03 0.0
9.672790e-01 1.027933e-03 0.0
9.713579e-01 -1.595804e-03 0.0
9.752391e-01 -3.526500e-03 0.0
9.788714e-01 -4.910068e-03 0.0
9.822213e-01 -5.854413e-03 0.0
9.852721e-01 -6.446780e-03 0.0
9.880215e-01 -6.760118e-03 0.0
9.904782e-01 -6.856176e-03 0.0
9.926584e-01 -6.787051e-03 0.0
9.945828e-01 -6.595848e-03 0.0
9.962742e-01 -6.317782e-03 0.0
9.977562e-01 -5.981302e-03 0.0
9.990517e-01 -5.608918e-03 0.0
1.000182e+00 -5.218043e-03 0.0
1.001168e+00 -4.821972e-03 0.0
1.002026e+00 -4.430602e-03 0.0
1.002774e+00 -4.051087e-03 0.0
1.003424e+00 -3.688403e-03 0.0
1.003990e+00 -3.345815e-03 0.0
1.004483e+00 -3.025265e-03 0.0
1.004911e+00 -2.727686e-03 0.0
1.005283e+00 -2.453257e-03 0.0
1.005607e+00 -2.201599e-03 0.0
1.005888e+00 -1.971943e-03 0.0
1.006133e+00 -1.763246e-03 0.0
1.006345e+00 -1.574295e-03 0.0
1.006528e+00 -1.403777e-03 0.0
1.006687e+00 -1.250335e-03 0.0
1.006825e+00 -1.112612e-03 0.0
1.006943e+00 -9.892805e-04 0.0
1.007045e+00 -8.790624e-04 0.0
1.007133e+00 -7.807447e-04 0.0
1.007207e+00 -6.931882e-04 0.0
1.007271e+00 -6.153320e-04 0.0
1.007325e+00 -5.461957e-04 0.0
1.007370e+00 -4.848784e-04 0.0
1.007408e+00 -4.305570e-04 0.0
1.007439e+00 -3.824826e-04 0.0
1.007465e+00 -3.399765e-04 0.0
1.007485e+00 -3.024261e-04 0.0
1.007501e+00 -2.692794e-04 0.0
1.007513e+00 -2.400411e-04 0.0
1.007522e+00 -2.142672e-04 0.0
1.007528e+00 -1.915610e-04 0.0
1.007531e+00 -1.715684e-04 0.0
1.007532e+00 -1.539737e-04 0.0
1.007531e+00 -1.384963e-04 0.0
1.007528e+00 -1.248869e-04 0.0
1.007523e+00 -1.129241e-04 0.0
1.007518e+00 -1.024119e-04 0.0
1.007511e+00 -9.317689e-05 0.0
1.007503e+00 -8.506593e-05 0.0
1.007494e+00 -7.794457e-05 0.0
1.007484e+00 -7.169545e-05 0.0
1.007474e+00 -6.621749e-05 0.0
1.007463e+00 -6.142580e-05 0.0
1.007451e+00 -5.725246e-05 0.0
1.007439e+00 -5.364881e-05 0.0
1.007426e+00 -5.058963e-05 0.0
1.007414e+00 -4.808015e-05 0.0
1.007400e+00 -4.616715e-05 0.0
1.007386e+00 -4.495584e-05 0.0
1.007372e+00 -4.463464e-05 0.0
1.007357e+00 -4.551043e-05 0.0
1.007342e+00 -4.805644e-05 0.0
1.007325e+00 -5.297275e-05 0.0
1.007307e+00 -6.125122e-05 0.0
1.007286e+00 -7.421766e-05 0.0
1.007261e+00 -9.348248e-05 0.0
1.007228e+00 -1.206540e-04 0.0
1.007185e+00 -1.566401e-04 0.0
1.007125e+00 -1.998605e-04 0.0
1.007045e+00 -2.504472e-04 0.0
0.000000e+00 -2.579244e-04 0.0
1.000000e+00 -1.404542e-01 0.0
9.979114e-01 -1.413720e-01 0.0
9.950655e-01 -1.581282e-01 0.0
9.909481e-01 -1.949429e-01 0.0
9.866873e-01 -2.606397e-01 0.0
9.884120e-01 -3.735836e-01 0.0
1.024665e+00 -5.628807e-01 0.0
1.201226e+00 -1.069002e+00 0.0
1.070356e+00 -2.367944e-01 0.0
9.682576e-01 -1.400484e-02 0.0
9.319384e-01 5.914777e-02 0.0
9.324106e-01 1.214984e-01 0.0
9.496987e-01 1.851072e-01 0.0
9.678836e-01 2.541410e-01 0.0
9.776341e-01 3.214048e-01 0.0
9.760922e-01 3.744617e-01 0.0
9.640251e-01 4.027926e-01 0.0
9.421728e-01 3.975920e-01 0.0
9.176453e-01 3.498000e-01 0.0
8.991277e-01 2.703087e-01 0.0
8.909883e-01 1.836820e-01 0.0
8.919895e-01 1.119775e-01 0.0
8.984623e-01 6.323091e-02 0.0
9.074686e-01 3.368769e-02 0.0
9.172842e-01 1.656439e-02 0.0
9.271085e-01 6.361701e-03 0.0
9.365175e-01 -3.732547e-05 0.0
9.453169e-01 -4.248747e-03 0.0
9.533916e-01 -7.060186e-03 0.0
9.606857e-01 -8.903244e-03 0.0
9.671849e-01 -1.003913e-02 0.0
9.729095e-01 -1.064799e-02 0.0
9.779047e-01 -1.086301e-02 0.0
9.822316e-01 -1.078708e-02 0.0
9.859584e-01 -1.050025e-02 0.0
9.891541e-01 -1.006524e-02 0.0
9.918853e-01 -9.531548e-03 0.0
9.942141e-01 -8.937971e-03 0.0
9.961969e-01 -8.313998e-03 0.0
9.978840e-01 -7.681689e-03 0.0
9.993191e-01 -7.057289e-03 0.0
1.000540e+00 -6.452334e-03 0.0
1.001579e+00 -5.874709e-03 0.0
1.002465e+00 -5.329482e-03 0.0
1.003220e+00 -4.819588e-03 0.0
1.003865e+00 -4.346359e-03 0.0
1.004416e+00 -3.909953e-03 0.0
1.004887e+00 -3.509678e-03 0.0
1.005290e+00 -3.144245e-03 0.0
1.005636e+00 -2.811969e-03 0.0
1.005932e+00 -2.510908e-03 0.0
1.006185e+00 -2.238982e-03 0.0
1.006403e+00 -1.994055e-03 0.0
1.006589e+00 -1.773993e-03 0.0
1.006749e+00 -1.576714e-03 0.0
1.006886e+00 -1.400215e-03 0.0
1.007003e+00 -1.242595e-03 0.0
1.007102e+00 -1.102068e-03 0.0
1.007187e+00 -9.769689e-04 0.0
1.007259e+00 -8.657566e-04 0.0
1.007319e+00 -7.670138e-04 0.0
1.007370e+00 -6.794430e-04 0.0
1.007413e+00 -6.018617e-04 0.0
1.007448e+00 -5.331970e-04 0.0
1.007477e+00 -4.724779e-04 0.0
1.007500e+00 -4.188289e-04 0.0
1.007518e+00 -3.714624e-04 0.0
1.007532e+00 -3.296720e-04 0.0
1.007542e+00 -2.928248e-04 0.0
1.007550e+00 -2.603554e-04 0.0
1.007554e+00 -2.317594e-04 0.0
1.007556e+00 -2.065875e-04 0.0
1.007556e+00 -1.844399e-04 0.0
1.007553e+00 -1.649616e-04 0.0
1.007550e+00 -1.478373e-04 0.0
1.007544e+00 -1.327875e-04 0.0
1.007538e+00 -1.195648e-04 0.0
1.007530e+00 -1.079499e-04 0.0
1.007522e+00 -9.774920e-05 0.0
1.007512e+00 -8.879159e-05 0.0
1.007502e+00 -8.092654e-05 0.0
1.007491e+00 -7.402212e-05 0.0
1.007480e+00 -6.796368e-05 0.0
1.007468e+00 -6.265329e-05 0.0
1.007456e+00 -5.800985e-05 0.0
1.007443e+00 -5.397055e-05 0.0
1.007430e+00 -5.049386e-05 0.0
1.007416e+00 -4.756486e-05 0.0
1.007402e+00 -4.520382e-05 0.0
1.007388e+00 -4.347924e-05 0.0
1.007373e+00 -4.252676e-05 0.0
1.007356e+00 -4.257520e-05 0.0
1.007339e+00 -4.398012e-05 0.0
1.007321e+00 -4.726201e-05 0.0
1.007299e+00 -5.313843e-05 0.0
1.007275e+00 -6.252422e-05 0.0
1.007244e+00 -7.644724e-05 0.0
1.007206e+00 -9.579304e-05 0.0
1.007158e+00 -1.208210e-04 0.0
1.007095e+00 -1.501437e-04 0.0
1.007015e+00 -1.839315e-04 0.0
0.000000e+00 -1.906006e-04 0.0
1.000000e+00 -1.286086e-01 0.0
9.881821e-01 -1.296058e-01 0.0
9.727297e-01 -1.426894e-01 0.0
9.486869e-01 -1.709136e-01 0.0
9.078888e-01 -2.198551e-01 0.0
8.347553e-01 -3.004636e-01 0.0
7.090599e-01 -4.371988e-01 0.0
2.368708e-01 -5.967883e-01 0.0
-1.071653e+00 5.945021e-01 0.0
0.000000e+00 4.713811e-03 0.0
4.365047e-02 1.440823e-03 0.0
2.212060e-01 -5.607067e-02 0.0
3.804456e-01 2.585412e-02 0.0
4.972189e-01 1.373543e-01 0.0
5.757080e-01 2.429023e-01 0.0
6.247271e-01 3.254291e-01 0.0
6.543380e-01 3.731682e-01 0.0
6.718385e-01 3.800781e-01 0.0
6.875557e-01 3.340693e-01 0.0
7.098849e-01 2.479661e-01 0.0
7.400861e-01 1.534673e-01 0.0
7.744816e-01 7.756860e-02 0.0
8.084816e-01 2.921745e-02 0.0
8.393121e-01 2.843801e-03 0.0
8.661564e-01 -1.029337e-02 0.0
8.890895e-01 -1.658478e-02 0.0
9.085352e-01 -1.949639e-02 0.0
9.249411e-01 -2.066803e-02 0.0
9.387327e-01 -2.086516e-02 0.0
9.502921e-01 -2.047607e-02 0.0
9.599539e-01 -1.971436e-02 0.0
9.680092e-01 -1.871664e-02 0.0
9.747102e-01 -1.757740e-02 0.0
9.802741e-01 -1.636429e-02 0.0
9.848876e-01 -1.512710e-02 0.0
9.887099e-01 -1.390094e-02 0.0
9.918759e-01 -1.271089e-02 0.0
9.944988e-01 -1.157415e-02 0.0
9.966730e-01 -1.050155e-02 0.0
9.984771e-01 -9.499169e-03 0.0
9.999761e-01 -8.569600e-03 0.0
1.001223e+00 -7.712941e-03 0.0
1.002263e+00 -6.927552e-03 0.0
1.003131e+00 -6.210630e-03 0.0
1.003857e+00 -5.558633e-03 0.0
1.004464e+00 -4.967585e-03 0.0
1.004975e+00 -4.433301e-03 0.0
1.005403e+00 -3.951540e-03 0.0
1.005764e+00 -3.518117e-03 0.0
1.006067e+00 -3.128978e-03 0.0
1.006324e+00 -2.780249e-03 0.0
1.006540e+00 -2.468265e-03 0.0
1.006722e+00 -2.189593e-03 0.0
1.006876e+00 -1.941039e-03 0.0
1.007005e+00 -1.719643e-03 0.0
1.007115e+00 -1.522685e-03 0.0
1.007206e+00 -1.347669e-03 0.0
1.007283e+00 -1.192317e-03 0.0
1.007348e+00 -1.054559e-03 0.0
1.007401e+00 -9.325140e-04 0.0
1.007446e+00 -8.244841e-04 0.0
1.007482e+00 -7.289366e-04 0.0
1.007511e+00 -6.444926e-04 0.0
1.007535e+00 -5.699137e-04 0.0
1.007553e+00 -5.040905e-04 0.0
1.007567e+00 -4.460303e-04 0.0
1.007578e+00 -3.948468e-04 0.0
1.007585e+00 -3.497493e-04 0.0
1.007589e+00 -3.100341e-04 0.0
1.007590e+00 -2.750750e-04 0.0
1.007590e+00 -2.443158e-04 0.0
1.007587e+00 -2.172629e-04 0.0
1.007583e+00 -1.934786e-04 0.0
1.007577e+00 -1.725751e-04 0.0
1.007571e+00 -1.542092e-04 0.0
1.007563e+00 -1.380770e-04 0.0
1.007554e+00 -1.239098e-04 0.0
1.007544e+00 -1.114703e-04 0.0
1.007534e+00 -1.005484e-04 0.0
1.007523e+00 -9.095903e-05 0.0
1.007512e+00 -8.253857e-05 0.0
1.007500e+00 -7.514318e-05 0.0
1.007487e+00 -6.864672e-05 0.0
1.007474e+00 -6.293961e-05 0.0
1.007461e+00 -5.792814e-05 0.0
1.007448e+00 -5.353481e-05 0.0
1.007434e+00 -4.969978e-05 0.0
1.007420e+00 -4.638393e-05 0.0
1.007405e+00 -4.357421e-05 0.0
1.007390e+00 -4.129190e-05 0.0
1.007374e+00 -3.960474e-05 0.0
1.007357e+00 -3.864333e-05 0.0
1.007338e+00 -3.862150e-05 0.0
1.007318e+00 -3.985758e-05 0.0
1.007294e+00 -4.278794e-05 0.0
1.007266e+00 -4.795441e-05 0.0
1.007233e+00 -5.593322e-05 0.0
1.007191e+00 -6.716148e-05 0.0
1.007139e+00 -8.164941e-05 0.0
1.007074e+00 -9.846382e-05 0.0
1.006995e+00 -1.176699e-04 0.0
0.000000e+00 -1.235435e-04 0.0
1.000000e+00 -1.091710e-01 0.0
9.805644e-01 -1.102218e-01 0.0
9.555184e-01 -1.176569e-01 0.0
9.169696e-01 -1.323783e-01 0.0
8.507157e-01 -1.536147e-01 0.0
7.271066e-01 -1.768680e-01 0.0
4.682732e-01 -1.783789e-01 0.0
-1.196208e-02 -1.165283e-01 0.0
-5.598110e-05 0.000000e+00 0.0
0.000000e+00 -0.000000e+00 0.0
0.000000e+00 -8.413917e-02 0.0
-1.477571e-01 9.167302e-02 0.0