# vtk DataFile Version 3.0
Vector Field
ASCII
DATASET RECTILINEAR_GRID
DIMENSIONS 102 22 1
X_COORDINATES 102 double
0.000000 0.100000 0.200000 0.300000 0.400000 0.500000 0.600000 0.700000 0.800000 0.900000 1.000000 1.100000 1.200000 1.300000 1.400000 1.500000 1.600000 1.700000 1.800000 1.900000 2.000000 2.100000 2.200000 2.300000 2.400000 2.500000 2.600000 2.700000 2.800000 2.900000 3.000000 3.100000 3.200000 3.300000 3.400000 3.500000 3.600000 3.700000 3.800000 3.900000 4.000000 4.100000 4.200000 4.300000 4.400000 4.500000 4.600000 4.700000 4.800000 4.900000 5.000000 5.100000 5.200000 5.300000 5.400000 5.500000 5.600000 5.700000 5.800000 5.900000 6.000000 6.100000 6.200000 6.300000 6.400000 6.500000 6.600000 6.700000 6.800000 6.900000 7.000000 7.100000 7.200000 7.300000 7.400000 7.500000 7.600000 7.700000 7.800000 7.900000 8.000000 8.100000 8.200000 8.300000 8.400000 8.500000 8.600000 8.700000 8.800000 8.900000 9.000000 9.100000 9.200000 9.300000 9.400000 9.500000 9.600000 9.700000 9.800000 9.900000 10.000000 10.100000 
Y_COORDINATES 22 double
0.000000 0.100000 0.200000 0.300000 0.400000 0.500000 0.600000 0.700000 0.800000 0.900000 1.000000 1.100000 1.200000 1.300000 1.400000 1.500000 1.600000 1.700000 1.800000 1.900000 2.000000 2.100000 
Z_COORDINATES 1 double
0.0
POINT_DATA 2244
VECTORS Velocity double
0.000000e+00 0.000000e+00 0.0
-1.026681e+00 0.000000e+00 0.0
-1.056312e+00 0.000000e+00 0.0
-1.091802e+00 0.000000e+00 0.0
-1.135810e+00 0.000000e+00 0.0
-1.190343e+00 0.000000e+00 0.0
-1.254878e+00 0.000000e+00 0.0
-1.328692e+00 0.000000e+00 0.0
-1.395501e+00 0.000000e+00 0.0
-1.445230e+00 0.000000e+00 0.0
-1.476888e+00 0.000000e+00 0.0
-1.493752e+00 0.000000e+00 0.0
-1.499935e+00 0.000000e+00 0.0
-1.499000e+00 0.000000e+00 0.0
-1.493675e+00 0.000000e+00 0.0
-1.486103e+00 0.000000e+00 0.0
-1.478296e+00 0.000000e+00 0.0
-1.472624e+00 0.000000e+00 0.0
-1.472128e+00 0.000000e+00 0.0
-1.479965e+00 0.000000e+00 0.0
-1.497710e+00 0.000000e+00 0.0
-1.523410e+00 0.000000e+00 0.0
-1.551660e+00 0.000000e+00 0.0
-1.576299e+00 0.000000e+00 0.0
-1.593256e+00 0.000000e+00 0.0
-1.601543e+00 0.000000e+00 0.0
-1.602296e+00 0.000000e+00 0.0
-1.596869e+00 0.000000e+00 0.0
-1.585838e+00 0.000000e+00 0.0
-1.569077e+00 0.000000e+00 0.0
-1.546035e+00 0.000000e+00 0.0
-1.516024e+00 0.000000e+00 0.0
-1.478464e+00 0.000000e+00 0.0
-1.433076e+00 0.000000e+00 0.0
-1.379975e+00 0.000000e+00 0.0
-1.319664e+00 0.000000e+00 0.0
-1.252984e+00 0.000000e+00 0.0
-1.181111e+00 0.000000e+00 0.0
-1.105858e+00 0.000000e+00 0.0
-1.030064e+00 0.000000e+00 0.0
-9.576150e-01 0.000000e+00 0.0
-8.934797e-01 0.000000e+00 0.0
-8.431210e-01 0.000000e+00 0.0
-8.113340e-01 0.000000e+00 0.0
-8.009204e-01 0.000000e+00 0.0
-8.120300e-01 0.000000e+00 0.0
-8.437005e-01 0.000000e+00 0.0
-8.946674e-01 0.000000e+00 0.0
-9.632226e-01 0.000000e+00 0.0
-1.046614e+00 0.000000e+00 0.0
-1.140296e+00 0.000000e+00 0.0
-1.238150e+00 0.000000e+00 0.0
-1.333221e+00 0.000000e+00 0.0
-1.418412e+00 0.000000e+00 0.0
-1.487171e+00 0.000000e+00 0.0
-1.534534e+00 0.000000e+00 0.0
-1.558156e+00 0.000000e+00 0.0
-1.558160e+00 0.000000e+00 0.0
-1.534338e+00 0.000000e+00 0.0
-1.485997e+00 0.000000e+00 0.0
-1.413195e+00 0.000000e+00 0.0
-1.318952e+00 0.000000e+00 0.0
-1.212056e+00 0.000000e+00 0.0
-1.106574e+00 0.000000e+00 0.0
-1.015731e+00 0.000000e+00 0.0
-9.479090e-01 0.000000e+00 0.0
-9.060146e-01 0.000000e+00 0.0
-8.884921e-01 0.000000e+00 0.0
-8.908547e-01 0.000000e+00 0.0
-9.074980e-01 0.000000e+00 0.0
-9.334520e-01 0.000000e+00 0.0
-9.647999e-01 0.000000e+00 0.0
-9.986034e-01 0.000000e+00 0.0
-1.032718e+00 0.000000e+00 0.0
-1.065594e+00 0.000000e+00 0.0
-1.096139e+00 0.000000e+00 0.0
-1.123583e+00 0.000000e+00 0.0
-1.147399e+00 0.000000e+00 0.0
-1.167254e+00 0.000000e+00 0.0
-1.182987e+00 0.000000e+00 0.0
-1.194597e+00 0.000000e+00 0.0
-1.202244e+00 0.000000e+00 0.0
-1.206227e+00 0.000000e+00 0.0
-1.206877e+00 0.000000e+00 0.0
-1.204381e+00 0.000000e+00 0.0
-1.198893e+00 0.000000e+00 0.0
-1.190605e+00 0.000000e+00 0.0
-1.179793e+00 0.000000e+00 0.0
-1.166907e+00 0.000000e+00 0.0
-1.152674e+00 0.000000e+00 0.0
-1.138120e+00 0.000000e+00 0.0
-1.124382e+00 0.000000e+00 0.0
-1.112427e+00 0.000000e+00 0.0
-1.102821e+00 0.000000e+00 0.0
-1.095682e+00 0.000000e+00 0.0
-1.090746e+00 0.000000e+00 0.0
-1.087531e+00 0.000000e+00 0.0
-1.085528e+00 0.000000e+00 0.0
-1.084350e+00 0.000000e+00 0.0
-1.083798e+00 0.000000e+00 0.0
-1.083798e+00 0.000000e+00 0.0
0.000000e+00 0.000000e+00 0.0
1.000000e+00 -2.666154e-02 0.0
1.026879e+00 -2.683780e-02 0.0
1.056706e+00 -2.980393e-02 0.0
1.092410e+00 -3.568019e-02 0.0
1.136652e+00 -4.421856e-02 0.0
1.191443e+00 -5.476761e-02 0.0
1.256250e+00 -6.478410e-02 0.0
1.330353e+00 -7.407879e-02 0.0
1.397383e+00 -6.700725e-02 0.0
1.447208e+00 -4.980125e-02 0.0
1.478809e+00 -3.157781e-02 0.0
1.495465e+00 -1.663242e-02 0.0
1.501293e+00 -5.804411e-03 0.0
1.499854e+00 1.462519e-03 0.0
1.493841e+00 6.036520e-03 0.0
1.485331e+00 8.533310e-03 0.0
1.476214e+00 9.141026e-03 0.0
1.468675e+00 7.561750e-03 0.0
1.465630e+00 3.068919e-03 0.0
1.470424e+00 -4.770318e-03 0.0
1.485336e+00 -1.488925e-02 0.0
1.509467e+00 -2.410717e-02 0.0
1.538075e+00 -2.858474e-02 0.0
1.564778e+00 -2.667965e-02 0.0
1.584683e+00 -1.988089e-02 0.0
1.595926e+00 -1.121928e-02 0.0
1.599178e+00 -3.228867e-03 0.0
1.595873e+00 3.328088e-03 0.0
1.586775e+00 9.122336e-03 0.0
1.571876e+00 1.492225e-02 0.0
1.550677e+00 2.122268e-02 0.0
1.522496e+00 2.820461e-02 0.0
1.486722e+00 3.579724e-02 0.0
1.443018e+00 4.372767e-02 0.0
1.391437e+00 5.160378e-02 0.0
1.332429e+00 5.903224e-02 0.0
1.266788e+00 6.566407e-02 0.0
1.195638e+00 7.117413e-02 0.0
1.120653e+00 7.500847e-02 0.0
1.044495e+00 7.618160e-02 0.0
9.708575e-01 7.366073e-02 0.0
9.045223e-01 6.635878e-02 0.0
8.509054e-01 5.364049e-02 0.0
8.149908e-01 3.593811e-02 0.0
8.000063e-01 1.500813e-02 0.0
8.065671e-01 -6.537263e-03 0.0
8.337415e-01 -2.715083e-02 0.0
8.802992e-01 -4.653403e-02 0.0
9.446394e-01 -6.431662e-02 0.0
1.024286e+00 -7.962274e-02 0.0
1.115158e+00 -9.084859e-02 0.0
1.211554e+00 -9.637263e-02 0.0
1.306802e+00 -9.522444e-02 0.0
1.394005e+00 -8.717900e-02 0.0
1.466603e+00 -7.257458e-02 0.0
1.519300e+00 -5.267354e-02 0.0
1.549095e+00 -2.977151e-02 0.0
1.555623e+00 -6.503918e-03 0.0
1.538898e+00 1.674869e-02 0.0
1.498171e+00 4.075003e-02 0.0
1.433029e+00 6.516643e-02 0.0
1.345223e+00 8.782958e-02 0.0
1.241579e+00 1.036672e-01 0.0
1.135037e+00 1.065654e-01 0.0
1.039735e+00 9.532569e-02 0.0
9.655790e-01 7.417999e-02 0.0
9.169519e-01 4.865070e-02 0.0
8.933862e-01 2.358934e-02 0.0
8.910260e-01 2.383962e-03 0.0
9.043479e-01 -1.329830e-02 0.0
9.281160e-01 -2.374437e-02 0.0
9.581229e-01 -2.998321e-02 0.0
9.911916e-01 -3.304503e-02 0.0
1.025005e+00 -3.378996e-02 0.0
1.057890e+00 -3.286152e-02 0.0
1.088671e+00 -3.075701e-02 0.0
1.116524e+00 -2.782871e-02 0.0
1.140881e+00 -2.433356e-02 0.0
1.161379e+00 -2.047468e-02 0.0
1.177828e+00 -1.642546e-02 0.0
1.190197e+00 -1.234488e-02 0.0
1.198609e+00 -8.388304e-03 0.0
1.203335e+00 -4.701995e-03 0.0
1.204716e+00 -1.357367e-03 0.0
1.202972e+00 1.767202e-03 0.0
1.198259e+00 4.737274e-03 0.0
1.190757e+00 7.525290e-03 0.0
1.180720e+00 1.006119e-02 0.0
1.168543e+00 1.220055e-02 0.0
1.154866e+00 1.370023e-02 0.0
1.140622e+00 1.426820e-02 0.0
1.126900e+00 1.374552e-02 0.0
1.114685e+00 1.223824e-02 0.0
1.104617e+00 1.009230e-02 0.0
1.096901e+00 7.739976e-03 0.0
1.091357e+00 5.567444e-03 0.0
1.087565e+00 3.815597e-03 0.0
1.085043e+00 2.545802e-03 0.0
1.083420e+00 1.647045e-03 0.0
1.082506e+00 9.374195e-04 0.0
1.083798e+00 -1.268498e-03 0.0
0.000000e+00 -1.404110e-03 0.0
1.000000e+00 -5.372575e-02 0.0
1.027276e+00 -5.409073e-02 0.0
1.057520e+00 -6.004144e-02 0.0
1.093805e+00 -7.195951e-02 0.0
1.139143e+00 -8.955028e-02 0.0
1.196266e+00 -1.118844e-01 0.0
1.264896e+00 -1.334080e-01 0.0
1.349057e+00 -1.582333e-01 0.0
1.421885e+00 -1.398290e-01 0.0
1.472905e+00 -1.008153e-01 0.0
1.503941e+00 -6.260822e-02 0.0
1.520021e+00 -3.270596e-02 0.0
1.525864e+00 -1.164154e-02 0.0
1.525080e+00 2.253403e-03 0.0
1.520175e+00 1.094767e-02 0.0
1.512995e+00 1.571936e-02 0.0
1.505037e+00 1.710498e-02 0.0
1.497956e+00 1.464874e-02 0.0
1.494086e+00 6.945262e-03 0.0
1.496625e+00 -7.303592e-03 0.0
1.508575e+00 -2.683277e-02 0.0
1.530505e+00 -4.603145e-02 0.0
1.558766e+00 -5.683960e-02 0.0
1.587141e+00 -5.504858e-02 0.0
1.610227e+00 -4.296076e-02 0.0
1.625231e+00 -2.621722e-02 0.0
1.632072e+00 -1.006352e-02 0.0
1.632170e+00 3.235911e-03 0.0
1.626580e+00 1.471861e-02 0.0
1.615367e+00 2.614123e-02 0.0
1.598019e+00 3.857691e-02 0.0
1.573852e+00 5.237789e-02 0.0
1.542263e+00 6.739302e-02 0.0
1.502931e+00 8.306587e-02 0.0
1.455980e+00 9.856071e-02 0.0
1.401942e+00 1.130763e-01 0.0
1.341758e+00 1.258544e-01 0.0
1.276735e+00 1.362024e-01 0.0
1.208465e+00 1.432849e-01 0.0
1.138859e+00 1.457935e-01 0.0
1.070699e+00 1.418269e-01 0.0
1.007602e+00 1.294620e-01 0.0
9.537312e-01 1.075176e-01 0.0
9.132150e-01 7.646053e-02 0.0
8.893029e-01 3.892638e-02 0.0
8.835206e-01 -7.488589e-04 0.0
8.951649e-01 -3.878893e-02 0.0
9.228927e-01 -7.425568e-02 0.0
9.652740e-01 -1.066918e-01 0.0
1.020379e+00 -1.347219e-01 0.0
1.085794e+00 -1.562571e-01 0.0
1.157723e+00 -1.682954e-01 0.0
1.231041e+00 -1.685366e-01 0.0
1.300157e+00 -1.562883e-01 0.0
1.359585e+00 -1.319962e-01 0.0
1.404633e+00 -9.771635e-02 0.0
1.431900e+00 -5.703159e-02 0.0
1.439183e+00 -1.378094e-02 0.0
1.425597e+00 3.034090e-02 0.0
1.391985e+00 7.436770e-02 0.0
1.341084e+00 1.160740e-01 0.0
1.278034e+00 1.508861e-01 0.0
1.209833e+00 1.718741e-01 0.0
1.143765e+00 1.726396e-01 0.0
1.086260e+00 1.528369e-01 0.0
1.041642e+00 1.188043e-01 0.0
1.011273e+00 7.902544e-02 0.0
9.950845e-01 3.978416e-02 0.0
9.917927e-01 5.681953e-03 0.0
9.989609e-01 -2.046034e-02 0.0
1.013783e+00 -3.856024e-02 0.0
1.033690e+00 -4.988398e-02 0.0
1.056465e+00 -5.581354e-02 0.0
1.080301e+00 -5.762036e-02 0.0
1.103938e+00 -5.649234e-02 0.0
1.126427e+00 -5.323948e-02 0.0
1.147031e+00 -4.842709e-02 0.0
1.165205e+00 -4.250065e-02 0.0
1.180573e+00 -3.583671e-02 0.0
1.192921e+00 -2.876777e-02 0.0
1.202175e+00 -2.159243e-02 0.0
1.208359e+00 -1.456613e-02 0.0
1.211510e+00 -7.846938e-03 0.0
1.211525e+00 -1.365539e-03 0.0
1.208287e+00 5.010562e-03 0.0
1.201856e+00 1.117463e-02 0.0
1.192426e+00 1.696197e-02 0.0
1.180408e+00 2.208475e-02 0.0
1.166539e+00 2.607586e-02 0.0
1.151958e+00 2.828815e-02 0.0
1.138200e+00 2.803221e-02 0.0
1.126866e+00 2.508568e-02 0.0
1.119141e+00 1.996916e-02 0.0
1.115503e+00 1.373624e-02 0.0
1.115632e+00 7.617203e-03 0.0
1.118583e+00 2.623007e-03 0.0
1.123230e+00 -8.248955e-04 0.0
1.128579e+00 -2.797720e-03 0.0
1.133863e+00 -3.630747e-03 0.0
1.138640e+00 -3.833399e-03 0.0
1.141357e+00 -3.979228e-03 0.0
0.000000e+00 -4.139423e-03 0.0
1.000000e+00 -7.757422e-02 0.0
1.024052e+00 -7.811932e-02 0.0
1.051189e+00 -8.717250e-02 0.0
1.084795e+00 -1.055594e-01 0.0
1.128685e+00 -1.334335e-01 0.0
1.187266e+00 -1.704599e-01 0.0
1.261549e+00 -2.076850e-01 0.0
1.366913e+00 -2.635904e-01 0.0
1.447282e+00 -2.201918e-01 0.0
1.495529e+00 -1.490562e-01 0.0
1.521049e+00 -8.812297e-02 0.0
1.532195e+00 -4.384508e-02 0.0
1.534482e+00 -1.392278e-02 0.0
1.531375e+00 5.366358e-03 0.0
1.524893e+00 1.743648e-02 0.0
1.516490e+00 2.412759e-02 0.0
1.507224e+00 2.637732e-02 0.0
1.497877e+00 2.400184e-02 0.0
1.489413e+00 1.541536e-02 0.0
1.484003e+00 -1.887035e-03 0.0
1.485438e+00 -2.826203e-02 0.0
1.497176e+00 -5.776311e-02 0.0
1.518959e+00 -7.861646e-02 0.0
1.545592e+00 -8.167530e-02 0.0
1.570869e+00 -6.823165e-02 0.0
1.590374e+00 -4.571651e-02 0.0
1.602170e+00 -2.185325e-02 0.0
1.606679e+00 -1.266693e-03 0.0
1.605472e+00 1.593126e-02 0.0
1.598899e+00 3.272126e-02 0.0
1.586381e+00 5.110014e-02 0.0
1.567210e+00 7.155577e-02 0.0
1.540769e+00 9.384004e-02 0.0
1.506721e+00 1.171199e-01 0.0
1.465068e+00 1.402199e-01 0.0
1.416300e+00 1.618506e-01 0.0
1.361366e+00 1.807942e-01 0.0
1.301562e+00 1.960122e-01 0.0
1.238409e+00 2.064440e-01 0.0
1.173752e+00 2.104575e-01 0.0
1.110110e+00 2.054743e-01 0.0
1.050642e+00 1.889364e-01 0.0
9.986884e-01 1.594775e-01 0.0
9.571969e-01 1.179582e-01 0.0
9.284095e-01 6.771990e-02 0.0
9.139334e-01 1.373339e-02 0.0
9.140288e-01 -3.887817e-02 0.0
9.277157e-01 -8.793638e-02 0.0
9.541159e-01 -1.330859e-01 0.0
9.919701e-01 -1.725699e-01 0.0
1.038822e+00 -2.031031e-01 0.0
1.091391e+00 -2.208579e-01 0.0
1.145666e+00 -2.228057e-01 0.0
1.197202e+00 -2.078183e-01 0.0
1.241710e+00 -1.764982e-01 0.0
1.275461e+00 -1.314612e-01 0.0
1.295489e+00 -7.705272e-02 0.0
1.299615e+00 -1.790135e-02 0.0
1.287399e+00 4.256369e-02 0.0
1.260916e+00 1.008563e-01 0.0
1.224209e+00 1.527874e-01 0.0
1.182690e+00 1.924117e-01 0.0
1.141692e+00 2.128782e-01 0.0
1.104769e+00 2.095688e-01 0.0
1.073355e+00 1.842564e-01 0.0
1.048277e+00 1.438888e-01 0.0
1.030410e+00 9.689887e-02 0.0
1.019816e+00 5.038446e-02 0.0
1.016009e+00 9.495189e-03 0.0
1.018300e+00 -2.274510e-02 0.0
1.025713e+00 -4.596778e-02 0.0
1.037147e+00 -6.131127e-02 0.0
1.051460e+00 -7.012041e-02 0.0
1.067494e+00 -7.364863e-02 0.0
1.084093e+00 -7.308525e-02 0.0
1.100274e+00 -6.941447e-02 0.0
1.115235e+00 -6.338137e-02 0.0
1.128358e+00 -5.561752e-02 0.0
1.139209e+00 -4.668133e-02 0.0
1.147517e+00 -3.706930e-02 0.0
1.153140e+00 -2.720938e-02 0.0
1.155994e+00 -1.741475e-02 0.0
1.155898e+00 -7.743967e-03 0.0
1.152457e+00 2.081709e-03 0.0
1.145591e+00 1.188264e-02 0.0
1.135435e+00 2.133607e-02 0.0
1.122429e+00 2.997420e-02 0.0
1.107473e+00 3.704761e-02 0.0
1.092075e+00 4.148013e-02 0.0
1.078334e+00 4.203542e-02 0.0
1.068217e+00 3.815497e-02 0.0
1.062779e+00 3.052949e-02 0.0
1.062095e+00 2.065927e-02 0.0
1.065368e+00 1.047012e-02 0.0
1.071236e+00 1.754971e-03 0.0
1.078423e+00 -4.557229e-03 0.0
1.085891e+00 -8.287369e-03 0.0
1.092846e+00 -9.746507e-03 0.0
1.098798e+00 -9.576071e-03 0.0
1.103445e+00 -8.474861e-03 0.0
1.106328e+00 -6.856019e-03 0.0
0.000000e+00 -7.000108e-03 0.0
1.000000e+00 -9.648869e-02 0.0
1.019104e+00 -9.720035e-02 0.0
1.041255e+00 -1.093167e-01 0.0
1.070125e+00 -1.344239e-01 0.0
1.110731e+00 -1.740329e-01 0.0
1.170308e+00 -2.300303e-01 0.0
1.254243e+00 -2.916143e-01 0.0
1.396056e+00 -4.053976e-01 0.0
1.477901e+00 -3.020309e-01 0.0
1.513657e+00 -1.848054e-01 0.0
1.527256e+00 -1.017157e-01 0.0
1.530026e+00 -4.660927e-02 0.0
1.527079e+00 -1.096972e-02 0.0
1.520374e+00 1.207713e-02 0.0
1.511102e+00 2.671537e-02 0.0
1.500189e+00 3.504625e-02 0.0
1.488268e+00 3.830474e-02 0.0
1.475282e+00 3.699357e-02 0.0
1.460343e+00 3.036062e-02 0.0
1.442581e+00 1.588084e-02 0.0
1.424546e+00 -1.022075e-02 0.0
1.413483e+00 -4.669429e-02 0.0
1.415655e+00 -8.078142e-02 0.0
1.430775e+00 -9.678923e-02 0.0
1.453015e+00 -9.046638e-02 0.0
1.477173e+00 -6.986755e-02 0.0
1.498927e+00 -4.360185e-02 0.0
1.514702e+00 -1.703477e-02 0.0
1.523501e+00 7.137542e-03 0.0
1.526779e+00 2.944977e-02 0.0
1.523895e+00 5.399013e-02 0.0
1.514177e+00 8.128042e-02 0.0
1.496899e+00 1.111241e-01 0.0
1.471612e+00 1.424132e-01 0.0
1.438221e+00 1.736163e-01 0.0
1.397135e+00 2.029428e-01 0.0
1.349277e+00 2.286583e-01 0.0
1.295970e+00 2.493258e-01 0.0
1.238746e+00 2.636742e-01 0.0
1.179302e+00 2.699071e-01 0.0
1.120015e+00 2.647679e-01 0.0
1.063982e+00 2.449760e-01 0.0
1.014186e+00 2.092788e-01 0.0
9.727090e-01 1.594417e-01 0.0
9.408189e-01 9.961620e-02 0.0
9.199639e-01 3.459447e-02 0.0
9.119686e-01 -3.087667e-02 0.0
9.171288e-01 -9.309048e-02 0.0
9.343032e-01 -1.502541e-01 0.0
9.613032e-01 -1.995638e-01 0.0
9.954084e-01 -2.372021e-01 0.0
1.033586e+00 -2.590290e-01 0.0
1.072561e+00 -2.617752e-01 0.0
1.108902e+00 -2.441523e-01 0.0
1.139441e+00 -2.070315e-01 0.0
1.161448e+00 -1.534619e-01 0.0
1.172671e+00 -8.826984e-02 0.0
1.171657e+00 -1.688112e-02 0.0
1.159114e+00 5.511272e-02 0.0
1.137998e+00 1.219788e-01 0.0
1.112546e+00 1.782456e-01 0.0
1.087224e+00 2.177399e-01 0.0
1.065289e+00 2.348196e-01 0.0
1.047569e+00 2.272945e-01 0.0
1.033263e+00 1.985688e-01 0.0
1.021621e+00 1.555370e-01 0.0
1.012426e+00 1.060995e-01 0.0
1.005767e+00 5.705045e-02 0.0
1.002077e+00 1.319138e-02 0.0
1.001993e+00 -2.265558e-02 0.0
1.005758e+00 -4.972672e-02 0.0
1.013093e+00 -6.864023e-02 0.0
1.023312e+00 -8.033254e-02 0.0
1.035448e+00 -8.577884e-02 0.0
1.048383e+00 -8.601414e-02 0.0
1.061083e+00 -8.210794e-02 0.0
1.072677e+00 -7.496887e-02 0.0
1.082494e+00 -6.542845e-02 0.0
1.090062e+00 -5.424368e-02 0.0
1.095074e+00 -4.207453e-02 0.0
1.097308e+00 -2.943713e-02 0.0
1.096480e+00 -1.658139e-02 0.0
1.092003e+00 -3.260477e-03 0.0
1.083597e+00 1.049402e-02 0.0
1.071465e+00 2.402061e-02 0.0
1.056226e+00 3.658167e-02 0.0
1.039105e+00 4.710138e-02 0.0
1.022064e+00 5.409432e-02 0.0
1.007656e+00 5.589461e-02 0.0
9.980493e-01 5.164826e-02 0.0
9.939212e-01 4.228925e-02 0.0
9.948368e-01 2.962009e-02 0.0
9.995801e-01 1.592215e-02 0.0
1.006607e+00 3.448896e-03 0.0
1.014687e+00 -6.317929e-03 0.0
1.022995e+00 -1.285900e-02 0.0
1.030906e+00 -1.619294e-02 0.0
1.038001e+00 -1.683495e-02 0.0
1.043981e+00 -1.555028e-02 0.0
1.048611e+00 -1.309832e-02 0.0
1.051665e+00 -9.903380e-03 0.0
0.000000e+00 -1.003369e-02 0.0
1.000000e+00 -1.086976e-01 0.0
1.012379e+00 -1.095562e-01 0.0
1.027301e+00 -1.242322e-01 0.0
1.048317e+00 -1.554342e-01 0.0
1.081531e+00 -2.072400e-01 0.0
1.137811e+00 -2.863047e-01 0.0
1.232418e+00 -3.862156e-01 0.0
1.420319e+00 -5.932920e-01 0.0
1.478471e+00 -3.601768e-01 0.0
1.485935e+00 -1.922629e-01 0.0
1.480660e+00 -9.643502e-02 0.0
1.472387e+00 -3.833009e-02 0.0
1.463225e+00 -1.801407e-03 0.0
1.452149e+00 2.315895e-02 0.0
1.438872e+00 3.999881e-02 0.0
1.423595e+00 5.032889e-02 0.0
1.406779e+00 5.512685e-02 0.0
1.388149e+00 5.563021e-02 0.0
1.365930e+00 5.258527e-02 0.0
1.336392e+00 4.542502e-02 0.0
1.295775e+00 3.040274e-02 0.0
1.247569e+00 1.517780e-03 0.0
1.206936e+00 -4.014249e-02 0.0
1.188307e+00 -7.815366e-02 0.0
1.190568e+00 -9.272160e-02 0.0
1.209589e+00 -8.888289e-02 0.0
1.242040e+00 -7.604649e-02 0.0
1.282176e+00 -5.716436e-02 0.0
1.320958e+00 -3.163845e-02 0.0
1.349487e+00 9.267188e-04 0.0
1.367822e+00 3.566194e-02 0.0
1.377741e+00 7.136664e-02 0.0
1.378846e+00 1.100258e-01 0.0
1.370699e+00 1.505662e-01 0.0
1.353044e+00 1.912772e-01 0.0
1.326150e+00 2.298428e-01 0.0
1.290906e+00 2.639090e-01 0.0
1.248701e+00 2.915369e-01 0.0
1.201207e+00 3.111746e-01 0.0
1.150199e+00 3.209207e-01 0.0
1.097818e+00 3.171549e-01 0.0
1.046841e+00 2.959593e-01 0.0
9.996862e-01 2.564400e-01 0.0
9.579634e-01 2.011707e-01 0.0
9.234059e-01 1.341799e-01 0.0
8.988836e-01 5.912293e-02 0.0
8.877255e-01 -1.971246e-02 0.0
8.905454e-01 -9.590427e-02 0.0
9.045057e-01 -1.642082e-01 0.0
9.259511e-01 -2.210030e-01 0.0
9.518168e-01 -2.630616e-01 0.0
9.795516e-01 -2.867577e-01 0.0
1.006686e+00 -2.889030e-01 0.0
1.030672e+00 -2.681324e-01 0.0
1.049367e+00 -2.257205e-01 0.0
1.061057e+00 -1.651454e-01 0.0
1.064423e+00 -9.163054e-02 0.0
1.059062e+00 -1.151376e-02 0.0
1.046678e+00 6.750314e-02 0.0
1.030426e+00 1.382370e-01 0.0
1.013963e+00 1.947145e-01 0.0
1.000379e+00 2.313302e-01 0.0
9.910655e-01 2.441394e-01 0.0
9.851843e-01 2.331818e-01 0.0
9.810076e-01 2.027517e-01 0.0
9.771458e-01 1.594050e-01 0.0
9.730381e-01 1.102134e-01 0.0
9.689740e-01 6.112073e-02 0.0
9.659165e-01 1.625503e-02 0.0
9.651726e-01 -2.190555e-02 0.0
9.676697e-01 -5.221764e-02 0.0
9.735571e-01 -7.452141e-02 0.0
9.823138e-01 -8.908303e-02 0.0
9.929925e-01 -9.645136e-02 0.0
1.004432e+00 -9.744735e-02 0.0
1.015480e+00 -9.314998e-02 0.0
1.025161e+00 -8.464363e-02 0.0
1.032736e+00 -7.299713e-02 0.0
1.037688e+00 -5.919003e-02 0.0
1.039649e+00 -4.402908e-02 0.0
1.038246e+00 -2.802802e-02 0.0
1.032849e+00 -1.117755e-02 0.0
1.022896e+00 6.698300e-03 0.0
1.008813e+00 2.458319e-02 0.0
9.915014e-01 4.133843e-02 0.0
9.725710e-01 5.551827e-02 0.0
9.543792e-01 6.529933e-02 0.0
9.396915e-01 6.878824e-02 0.0
9.306024e-01 6.498987e-02 0.0
9.272336e-01 5.502327e-02 0.0
9.286573e-01 4.087170e-02 0.0
9.334018e-01 2.488175e-02 0.0
9.399841e-01 9.346100e-03 0.0
9.473520e-01 -3.912888e-03 0.0
9.550644e-01 -1.402406e-02 0.0
9.628213e-01 -2.060974e-02 0.0
9.703473e-01 -2.371278e-02 0.0
9.773371e-01 -2.381854e-02 0.0
9.834078e-01 -2.161480e-02 0.0
9.882535e-01 -1.793787e-02 0.0
9.914848e-01 -1.312844e-02 0.0
0.000000e+00 -1.325874e-02 0.0
1.000000e+00 -1.126475e-01 0.0
1.004094e+00 -1.136267e-01 0.0
1.009397e+00 -1.295295e-01 0.0
1.018218e+00 -1.642482e-01 0.0
1.036076e+00 -2.250921e-01 0.0
1.075702e+00 -3.259247e-01 0.0
1.165833e+00 -4.763405e-01 0.0
1.389814e+00 -8.172671e-01 0.0
1.377599e+00 -3.479552e-01 0.0
1.331905e+00 -1.465633e-01 0.0
1.300477e+00 -6.500110e-02 0.0
1.281802e+00 -1.964818e-02 0.0
1.266682e+00 1.332437e-02 0.0
1.251202e+00 3.864484e-02 0.0
1.233282e+00 5.792467e-02 0.0
1.211912e+00 7.170517e-02 0.0
1.186962e+00 8.008318e-02 0.0
1.158443e+00 8.415559e-02 0.0
1.124107e+00 8.692721e-02 0.0
1.078780e+00 9.075845e-02 0.0
1.015634e+00 9.355438e-02 0.0
9.339411e-01 8.321703e-02 0.0
8.431023e-01 5.070243e-02 0.0
7.634952e-01 1.459598e-03 0.0
7.187695e-01 -4.798976e-02 0.0
7.138827e-01 -8.398995e-02 0.0
7.495470e-01 -1.117047e-01 0.0
8.202852e-01 -1.278965e-01 0.0
9.132554e-01 -1.246025e-01 0.0
1.009934e+00 -9.574618e-02 0.0
1.088645e+00 -4.304243e-02 0.0
1.140095e+00 1.992303e-02 0.0
1.173066e+00 7.706028e-02 0.0
1.192136e+00 1.315026e-01 0.0
1.198492e+00 1.849275e-01 0.0
1.192794e+00 2.355473e-01 0.0
1.176116e+00 2.805925e-01 0.0
1.150065e+00 3.175948e-01 0.0
1.116639e+00 3.446065e-01 0.0
1.077986e+00 3.595799e-01 0.0
1.035765e+00 3.593815e-01 0.0
9.914435e-01 3.402871e-01 0.0
9.460560e-01 3.018337e-01 0.0
9.020064e-01 2.452263e-01 0.0
8.655247e-01 1.706678e-01 0.0
8.442284e-01 8.042536e-02 0.0
8.411501e-01 -1.662800e-02 0.0
8.525401e-01 -1.072881e-01 0.0
8.717056e-01 -1.833675e-01 0.0
8.936277e-01 -2.429190e-01 0.0
9.156275e-01 -2.850553e-01 0.0
9.362359e-01 -3.073600e-01 0.0
9.540894e-01 -3.067503e-01 0.0
9.677249e-01 -2.817617e-01 0.0
9.760710e-01 -2.340604e-01 0.0
9.785363e-01 -1.676046e-01 0.0
9.749704e-01 -8.805845e-02 0.0
9.660987e-01 -2.635871e-03 0.0
9.541753e-01 7.943265e-02 0.0
9.419416e-01 1.504768e-01 0.0
9.320385e-01 2.046238e-01 0.0
9.261459e-01 2.372290e-01 0.0
9.242279e-01 2.460636e-01 0.0
9.245661e-01 2.328498e-01 0.0
9.251605e-01 2.021635e-01 0.0
9.245896e-01 1.599820e-01 0.0
9.224935e-01 1.123157e-01 0.0
9.195971e-01 6.402337e-02 0.0
9.173633e-01 1.849501e-02 0.0
9.174585e-01 -2.199459e-02 0.0
9.209796e-01 -5.573261e-02 0.0
9.279866e-01 -8.152218e-02 0.0
9.377326e-01 -9.882282e-02 0.0
9.490467e-01 -1.077593e-01 0.0
9.606343e-01 -1.090287e-01 0.0
9.712267e-01 -1.037363e-01 0.0
9.797738e-01 -9.318454e-02 0.0
9.854903e-01 -7.870746e-02 0.0
9.878077e-01 -6.150124e-02 0.0
9.862479e-01 -4.246302e-02 0.0
9.802229e-01 -2.199691e-02 0.0
9.690615e-01 -9.966634e-06 0.0
9.534240e-01 2.234200e-02 0.0
9.346248e-01 4.338863e-02 0.0
9.146438e-01 6.132560e-02 0.0
8.960650e-01 7.410323e-02 0.0
8.815688e-01 7.980168e-02 0.0
8.729119e-01 7.745134e-02 0.0
8.697166e-01 6.819138e-02 0.0
8.706838e-01 5.406221e-02 0.0
8.742634e-01 3.729835e-02 0.0
8.791459e-01 2.000542e-02 0.0
8.846098e-01 3.888357e-03 0.0
8.905970e-01 -9.893847e-03 0.0
8.972153e-01 -2.063625e-02 0.0
9.044310e-01 -2.781925e-02 0.0
9.119957e-01 -3.127129e-02 0.0
9.194279e-01 -3.124449e-02 0.0
9.261457e-01 -2.832643e-02 0.0
9.316477e-01 -2.343368e-02 0.0
9.351025e-01 -1.657702e-02 0.0
0.000000e+00 -1.671089e-02 0.0
1.000000e+00 -1.075091e-01 0.0
9.949731e-01 -1.085764e-01 0.0
9.888535e-01 -1.234038e-01 0.0
9.809012e-01 -1.562898e-01 0.0
9.718530e-01 -2.160379e-01 0.0
9.672338e-01 -3.212993e-01 0.0
9.944256e-01 -5.035262e-01 0.0
1.157253e+00 -9.800886e-01 0.0
1.010036e+00 -2.007493e-01 0.0
8.821708e-01 -1.870915e-02 0.0
8.275977e-01 -1.042190e-02 0.0
8.017346e-01 6.221085e-03 0.0
7.857116e-01 2.935349e-02 0.0
7.695908e-01 5.477174e-02 0.0
7.463068e-01 8.121478e-02 0.0
7.099965e-01 1.080216e-01 0.0
6.571399e-01 1.329459e-01 0.0
5.876448e-01 1.536569e-01 0.0
5.075176e-01 1.670605e-01 0.0
4.306333e-01 1.676489e-01 0.0
3.642337e-01 1.599601e-01 0.0
2.992181e-01 1.482388e-01 0.0
2.273571e-01 1.225696e-01 0.0
1.566289e-01 7.219398e-02 0.0
1.117814e-01 -3.136113e-03 0.0
1.196748e-01 -9.187727e-02 0.0
1.846011e-01 -1.766249e-01 0.0
2.986927e-01 -2.419818e-01 0.0
4.444289e-01 -2.703326e-01 0.0
5.985159e-01 -2.498271e-01 0.0
7.405868e-01 -1.851072e-01 0.0
8.542687e-01 -9.375273e-02 0.0
9.295189e-01 1.816212e-03 0.0
9.787229e-01 8.230476e-02 0.0
1.009461e+00 1.541952e-01 0.0
1.024422e+00 2.205929e-01 0.0
1.025548e+00 2.794728e-01 0.0
1.014889e+00 3.282599e-01 0.0
9.947264e-01 3.647750e-01 0.0
9.671143e-01 3.871982e-01 0.0
9.319474e-01 3.945545e-01 0.0
8.881463e-01 3.840943e-01 0.0
8.389307e-01 3.510555e-01 0.0
7.953737e-01 2.887895e-01 0.0
7.712666e-01 1.947810e-01 0.0
7.719118e-01 7.978634e-02 0.0
7.911823e-01 -3.589238e-02 0.0
8.187205e-01 -1.348201e-01 0.0
8.468042e-01 -2.114451e-01 0.0
8.713374e-01 -2.674460e-01 0.0
8.910025e-01 -3.047142e-01 0.0
9.059035e-01 -3.222548e-01 0.0
9.160780e-01 -3.169187e-01 0.0
9.211883e-01 -2.868658e-01 0.0
9.210192e-01 -2.338851e-01 0.0
9.158929e-01 -1.624722e-01 0.0
9.067146e-01 -7.887393e-02 0.0
8.952016e-01 8.883307e-03 0.0
8.836713e-01 9.096913e-02 0.0
8.741603e-01 1.599940e-01 0.0
8.682344e-01 2.105558e-01 0.0
8.663799e-01 2.390897e-01 0.0
8.675550e-01 2.448946e-01 0.0
8.697229e-01 2.306881e-01 0.0
8.710124e-01 2.008802e-01 0.0
8.704302e-01 1.605703e-01 0.0
8.682593e-01 1.144928e-01 0.0
8.658869e-01 6.640194e-02 0.0
8.651819e-01 1.920615e-02 0.0
8.677729e-01 -2.457940e-02 0.0
8.743044e-01 -6.225787e-02 0.0
8.842691e-01 -9.148076e-02 0.0
8.964712e-01 -1.110187e-01 0.0
9.094791e-01 -1.207611e-01 0.0
9.218869e-01 -1.214303e-01 0.0
9.323874e-01 -1.142306e-01 0.0
9.399170e-01 -1.007079e-01 0.0
9.436561e-01 -8.244038e-02 0.0
9.429541e-01 -6.079310e-02 0.0
9.372185e-01 -3.672122e-02 0.0
9.259257e-01 -1.069791e-02 0.0
9.097661e-01 1.615577e-02 0.0
8.905398e-01 4.157453e-02 0.0
8.704921e-01 6.344254e-02 0.0
8.522306e-01 7.959321e-02 0.0
8.381470e-01 8.819301e-02 0.0
8.295461e-01 8.840883e-02 0.0
8.257994e-01 8.120420e-02 0.0
8.254510e-01 6.854596e-02 0.0
8.270465e-01 5.247294e-02 0.0
8.295243e-01 3.482674e-02 0.0
8.324667e-01 1.706921e-02 0.0
8.360723e-01 2.889378e-04 0.0
8.408310e-01 -1.464635e-02 0.0
8.469695e-01 -2.676857e-02 0.0
8.543614e-01 -3.520501e-02 0.0
8.625577e-01 -3.946136e-02 0.0
8.708459e-01 -3.952646e-02 0.0
8.784199e-01 -3.589426e-02 0.0
8.845593e-01 -2.956686e-02 0.0
8.881345e-01 -2.014611e-02 0.0
0.000000e+00 -2.027016e-02 0.0
1.000000e+00 -9.381532e-02 0.0
9.863812e-01 -9.493411e-02 0.0
9.689842e-01 -1.060006e-01 0.0
9.428277e-01 -1.301273e-01 0.0
8.995436e-01 -1.727476e-01 0.0
8.224223e-01 -2.441720e-01 0.0
6.873592e-01 -3.684569e-01 0.0
2.007146e-01 -4.934553e-01 0.0
-1.009504e+00 4.909249e-01 0.0
0.000000e+00 -4.627668e-02 0.0
-7.674171e-02 4.763413e-02 0.0
-9.932253e-03 -6.058225e-02 0.0
7.534249e-02 -5.591513e-02 0.0
1.378929e-01 -7.772504e-03 0.0
1.670762e-01 5.203755e-02 0.0
1.674124e-01 1.076915e-01 0.0
1.441363e-01 1.562280e-01 0.0
1.039351e-01 1.938642e-01 0.0
5.416473e-02 2.168371e-01 0.0
-4.447548e-03 2.262673e-01 0.0
-6.620024e-02 2.217189e-01 0.0
-1.211077e-01 2.031523e-01 0.0
-1.614374e-01 1.629055e-01 0.0
-1.826058e-01 9.336851e-02 0.0
-1.762774e-01 -9.458392e-03 0.0
-1.375253e-01 -1.306232e-01 0.0
-6.680122e-02 -2.473428e-01 0.0
3.642460e-02 -3.452015e-01 0.0
1.681983e-01 -4.021002e-01 0.0
3.179711e-01 -3.995937e-01 0.0
4.691769e-01 -3.363069e-01 0.0
6.047490e-01 -2.293186e-01 0.0
7.118372e-01 -1.052659e-01 0.0
7.831325e-01 1.101559e-02 0.0
8.300403e-01 1.072935e-01 0.0
8.579767e-01 1.926627e-01 0.0
8.697160e-01 2.677396e-01 0.0
8.672805e-01 3.307016e-01 0.0
8.520936e-01 3.799680e-01 0.0
8.245176e-01 4.147803e-01 0.0
7.847012e-01 4.343771e-01 0.0
7.367654e-01 4.320363e-01 0.0
6.948681e-01 3.929590e-01 0.0
6.756265e-01 3.080372e-01 0.0
6.850860e-01 1.853276e-01 0.0
7.167339e-01 4.814460e-02 0.0
7.582271e-01 -7.737939e-02 0.0
7.998996e-01 -1.764864e-01 0.0
8.358286e-01 -2.473680e-01 0.0
8.628704e-01 -2.944816e-01 0.0
8.804714e-01 -3.223091e-01 0.0
8.900261e-01 -3.318033e-01 0.0
8.932389e-01 -3.201253e-01 0.0
8.911160e-01 -2.847368e-01 0.0
8.841649e-01 -2.269279e-01 0.0
8.732628e-01 -1.515638e-01 0.0
8.600031e-01 -6.560814e-02 0.0
8.466682e-01 2.222437e-02 0.0
8.352627e-01 1.023808e-01 0.0
8.270734e-01 1.681895e-01 0.0
8.227240e-01 2.149114e-01 0.0
8.217808e-01 2.400391e-01 0.0
8.226517e-01 2.440299e-01 0.0
8.233953e-01 2.299506e-01 0.0
8.226791e-01 2.016026e-01 0.0
8.203588e-01 1.628968e-01 0.0
8.175765e-01 1.172812e-01 0.0
8.162248e-01 6.775978e-02 0.0
8.181489e-01 1.728826e-02 0.0
8.244651e-01 -3.088939e-02 0.0
8.349974e-01 -7.278397e-02 0.0
8.485668e-01 -1.050440e-01 0.0
8.635648e-01 -1.260106e-01 0.0
8.783732e-01 -1.355633e-01 0.0
8.915241e-01 -1.345750e-01 0.0
9.017575e-01 -1.244578e-01 0.0
9.080565e-01 -1.070007e-01 0.0
9.095998e-01 -8.397750e-02 0.0
9.057227e-01 -5.690982e-02 0.0
8.960246e-01 -2.701690e-02 0.0
8.810461e-01 4.286792e-03 0.0
8.628960e-01 3.431200e-02 0.0
8.439239e-01 6.055281e-02 0.0
8.266073e-01 8.076534e-02 0.0
8.129887e-01 9.321805e-02 0.0
8.040018e-01 9.718602e-02 0.0
7.990422e-01 9.337470e-02 0.0
7.967345e-01 8.351805e-02 0.0
7.958587e-01 6.942789e-02 0.0
7.956353e-01 5.270261e-02 0.0
7.958754e-01 3.459277e-02 0.0
7.969077e-01 1.604309e-02 0.0
7.993398e-01 -2.136906e-03 0.0
8.036633e-01 -1.896367e-02 0.0
8.099350e-01 -3.303415e-02 0.0
8.178183e-01 -4.308207e-02 0.0
8.266677e-01 -4.830458e-02 0.0
8.356102e-01 -4.846282e-02 0.0
8.436841e-01 -4.396192e-02 0.0
8.500014e-01 -3.587799e-02 0.0
8.534720e-01 -2.361057e-02 0.0
0.000000e+00 -2.370112e-02 0.0
1.000000e+00 -7.373949e-02 0.0
9.799630e-01 -7.487371e-02 0.0
9.543752e-01 -8.040667e-02 0.0
9.155715e-01 -9.131743e-02 0.0
8.496987e-01 -1.068687e-01 0.0
7.271969e-01 -1.216640e-01 0.0
4.727348e-01 -1.139887e-01 0.0
-1.014056e-02 -1.059117e-02 0.0
8.276678e-06 0.000000e+00 0.0
0.000000e+00 -0.000000e+00 0.0
0.000000e+00 -2.936273e-02 0.0
-9.584619e-02 3.527006e-02 0.0
-9.162316e-02 -6.013203e-02 0.0
-8.388824e-02 -1.550130e-02 0.0
-9.515635e-02 6.331179e-02 0.0
-1.090764e-01 1.216177e-01 0.0
-1.265197e-01 1.736775e-01 0.0
-1.462659e-01 2.136165e-01 0.0
-1.679068e-01 2.384841e-01 0.0