# vtk DataFile Version 3.0
Vector Field
ASCII
DATASET RECTILINEAR_GRID
DIMENSIONS 102 22 1
X_COORDINATES 102 double
0.000000 0.100000 0.200000 0.300000 0.400000 0.500000 0.600000 0.700000 0.800000 0.900000 1.000000 1.100000 1.200000 1.300000 1.400000 1.500000 1.600000 1.700000 1.800000 1.900000 2.000000 2.100000 2.200000 2.300000 2.400000 2.500000 2.600000 2.700000 2.800000 2.900000 3.000000 3.100000 3.200000 3.300000 3.400000 3.500000 3.600000 3.700000 3.800000 3.900000 4.000000 4.100000 4.200000 4.300000 4.400000 4.500000 4.600000 4.700000 4.800000 4.900000 5.000000 5.100000 5.200000 5.300000 5.400000 5.500000 5.600000 5.700000 5.800000 5.900000 6.000000 6.100000 6.200000 6.300000 6.400000 6.500000 6.600000 6.700000 6.800000 6.900000 7.000000 7.100000 7.200000 7.300000 7.400000 7.500000 7.600000 7.700000 7.800000 7.900000 8.000000 8.100000 8.200000 8.300000 8.400000 8.500000 8.600000 8.700000 8.800000 8.900000 9.000000 9.100000 9.200000 9.300000 9.400000 9.500000 9.600000 9.700000 9.800000 9.900000 10.000000 10.100000 
Y_COORDINATES 22 double
0.000000 0.100000 0.200000 0.300000 0.400000 0.500000 0.600000 0.700000 0.800000 0.900000 1.000000 1.100000 1.200000 1.300000 1.400000 1.500000 1.600000 1.700000 1.800000 1.900000 2.000000 2.100000 
Z_COORDINATES 1 double
0.0
POINT_DATA 2244
VECTORS Velocity double
0.000000e+00 0.000000e+00 0.0
-1.023670e+00 0.000000e+00 0.0
-1.050426e+00 0.000000e+00 0.0
-1.083132e+00 0.000000e+00 0.0
-1.124698e+00 0.000000e+00 0.0
-1.177644e+00 0.000000e+00 0.0
-1.242223e+00 0.000000e+00 0.0
-1.319437e+00 0.000000e+00 0.0
-1.395129e+00 0.000000e+00 0.0
-1.460270e+00 0.000000e+00 0.0
-1.513665e+00 0.000000e+00 0.0
-1.557567e+00 0.000000e+00 0.0
-1.594409e+00 0.000000e+00 0.0
-1.625480e+00 0.000000e+00 0.0
-1.650616e+00 0.000000e+00 0.0
-1.668580e+00 0.000000e+00 0.0
-1.678044e+00 0.000000e+00 0.0
-1.678697e+00 0.000000e+00 0.0
-1.671233e+00 0.000000e+00 0.0
-1.656688e+00 0.000000e+00 0.0
-1.636124e+00 0.000000e+00 0.0
-1.610390e+00 0.000000e+00 0.0
-1.579987e+00 0.000000e+00 0.0
-1.545060e+00 0.000000e+00 0.0
-1.505509e+00 0.000000e+00 0.0
-1.461138e+00 0.000000e+00 0.0
-1.411826e+00 0.000000e+00 0.0
-1.357625e+00 0.000000e+00 0.0
-1.298750e+00 0.000000e+00 0.0
-1.235527e+00 0.000000e+00 0.0
-1.168520e+00 0.000000e+00 0.0
-1.099152e+00 0.000000e+00 0.0
-1.030526e+00 0.000000e+00 0.0
-9.681735e-01 0.000000e+00 0.0
-9.202796e-01 0.000000e+00 0.0
-8.962138e-01 0.000000e+00 0.0
-9.031475e-01 0.000000e+00 0.0
-9.435435e-01 0.000000e+00 0.0
-1.015618e+00 0.000000e+00 0.0
-1.114343e+00 0.000000e+00 0.0
-1.231842e+00 0.000000e+00 0.0
-1.356721e+00 0.000000e+00 0.0
-1.475601e+00 0.000000e+00 0.0
-1.575307e+00 0.000000e+00 0.0
-1.644812e+00 0.000000e+00 0.0
-1.678664e+00 0.000000e+00 0.0
-1.679753e+00 0.000000e+00 0.0
-1.656245e+00 0.000000e+00 0.0
-1.614763e+00 0.000000e+00 0.0
-1.560570e+00 0.000000e+00 0.0
-1.498068e+00 0.000000e+00 0.0
-1.430935e+00 0.000000e+00 0.0
-1.362128e+00 0.000000e+00 0.0
-1.294155e+00 0.000000e+00 0.0
-1.229260e+00 0.000000e+00 0.0
-1.169339e+00 0.000000e+00 0.0
-1.115776e+00 0.000000e+00 0.0
-1.069382e+00 0.000000e+00 0.0
-1.030385e+00 0.000000e+00 0.0
-9.985038e-01 0.000000e+00 0.0
-9.730809e-01 0.000000e+00 0.0
-9.532459e-01 0.000000e+00 0.0
-9.380584e-01 0.000000e+00 0.0
-9.266124e-01 0.000000e+00 0.0
-9.180977e-01 0.000000e+00 0.0
-9.118274e-01 0.000000e+00 0.0
-9.072412e-01 0.000000e+00 0.0
-9.038954e-01 0.000000e+00 0.0
-9.014479e-01 0.000000e+00 0.0
-8.996407e-01 0.000000e+00 0.0
-8.982838e-01 0.000000e+00 0.0
-8.972407e-01 0.000000e+00 0.0
-8.964156e-01 0.000000e+00 0.0
-8.957438e-01 0.000000e+00 0.0
-8.951827e-01 0.000000e+00 0.0
-8.947058e-01 0.000000e+00 0.0
-8.942978e-01 0.000000e+00 0.0
-8.939507e-01 0.000000e+00 0.0
-8.936617e-01 0.000000e+00 0.0
-8.934319e-01 0.000000e+00 0.0
-8.932640e-01 0.000000e+00 0.0
-8.931566e-01 0.000000e+00 0.0
-8.931063e-01 0.000000e+00 0.0
-8.931079e-01 0.000000e+00 0.0
-8.931552e-01 0.000000e+00 0.0
-8.932414e-01 0.000000e+00 0.0
-8.933594e-01 0.000000e+00 0.0
-8.935025e-01 0.000000e+00 0.0
-8.936636e-01 0.000000e+00 0.0
-8.938361e-01 0.000000e+00 0.0
-8.940137e-01 0.000000e+00 0.0
-8.941900e-01 0.000000e+00 0.0
-8.943592e-01 0.000000e+00 0.0
-8.945155e-01 0.000000e+00 0.0
-8.946545e-01 0.000000e+00 0.0
-8.947742e-01 0.000000e+00 0.0
-8.948772e-01 0.000000e+00 0.0
-8.949768e-01 0.000000e+00 0.0
-8.951078e-01 0.000000e+00 0.0
-8.953780e-01 0.000000e+00 0.0
-8.953780e-01 0.000000e+00 0.0
0.000000e+00 0.000000e+00 0.0
1.000000e+00 -2.400903e-02 0.0
1.023529e+00 -2.388080e-02 0.0
1.050138e+00 -2.681115e-02 0.0
1.082675e+00 -3.273897e-02 0.0
1.124035e+00 -4.156215e-02 0.0
1.176719e+00 -5.288594e-02 0.0
1.240965e+00 -6.444866e-02 0.0
1.317724e+00 -7.696134e-02 0.0
1.392871e+00 -7.534925e-02 0.0
1.457433e+00 -6.476416e-02 0.0
1.510282e+00 -5.305121e-02 0.0
1.553767e+00 -4.368708e-02 0.0
1.590446e+00 -3.688072e-02 0.0
1.621745e+00 -3.150159e-02 0.0
1.647596e+00 -2.605333e-02 0.0
1.666745e+00 -1.935112e-02 0.0
1.677676e+00 -1.113286e-02 0.0
1.679790e+00 -2.316196e-03 0.0
1.673646e+00 5.941517e-03 0.0
1.660236e+00 1.320778e-02 0.0
1.640639e+00 1.939496e-02 0.0
1.615755e+00 2.468115e-02 0.0
1.586146e+00 2.940744e-02 0.0
1.552004e+00 3.393965e-02 0.0
1.513248e+00 3.855384e-02 0.0
1.469672e+00 4.337302e-02 0.0
1.421121e+00 4.834920e-02 0.0
1.367603e+00 5.331537e-02 0.0
1.309312e+00 5.808928e-02 0.0
1.246559e+00 6.255073e-02 0.0
1.179845e+00 6.651194e-02 0.0
1.110378e+00 6.926412e-02 0.0
1.040902e+00 6.927409e-02 0.0
9.764125e-01 6.428700e-02 0.0
9.245734e-01 5.163679e-02 0.0
8.946144e-01 2.975673e-02 0.0
8.942928e-01 1.193188e-04 0.0
9.269061e-01 -3.281565e-02 0.0
9.914298e-01 -6.472598e-02 0.0
1.083719e+00 -9.249108e-02 0.0
1.196810e+00 -1.132940e-01 0.0
1.320616e+00 -1.240079e-01 0.0
1.442216e+00 -1.218026e-01 0.0
1.548485e+00 -1.064712e-01 0.0
1.627634e+00 -7.935084e-02 0.0
1.672255e+00 -4.482372e-02 0.0
1.682593e+00 -1.054077e-02 0.0
1.666030e+00 1.636133e-02 0.0
1.629616e+00 3.621129e-02 0.0
1.578834e+00 5.057986e-02 0.0
1.518258e+00 6.037306e-02 0.0
1.451806e+00 6.624973e-02 0.0
1.382730e+00 6.887341e-02 0.0
1.313754e+00 6.877402e-02 0.0
1.247291e+00 6.626056e-02 0.0
1.185415e+00 6.167377e-02 0.0
1.129688e+00 5.552489e-02 0.0
1.081069e+00 4.841632e-02 0.0
1.039924e+00 4.094255e-02 0.0
1.006075e+00 3.364631e-02 0.0
9.789316e-01 2.694122e-02 0.0
9.576500e-01 2.107916e-02 0.0
9.412867e-01 1.616086e-02 0.0
9.289121e-01 1.217214e-02 0.0
9.196825e-01 9.027214e-03 0.0
9.128740e-01 6.605995e-03 0.0
9.078913e-01 4.780315e-03 0.0
9.042595e-01 3.429346e-03 0.0
9.016101e-01 2.446970e-03 0.0
8.996635e-01 1.744141e-03 0.0
8.982125e-01 1.248533e-03 0.0
8.971071e-01 9.029345e-04 0.0
8.962414e-01 6.631616e-04 0.0
8.955431e-01 4.958818e-04 0.0
8.949640e-01 3.765522e-04 0.0
8.944740e-01 2.875600e-04 0.0
8.940549e-01 2.166024e-04 0.0
8.936971e-01 1.553046e-04 0.0
8.933967e-01 9.795399e-05 0.0
8.931540e-01 4.016421e-05 0.0
8.929719e-01 -2.039210e-05 0.0
8.928497e-01 -8.029858e-05 0.0
8.927843e-01 -1.371273e-04 0.0
8.927710e-01 -1.891843e-04 0.0
8.928038e-01 -2.353330e-04 0.0
8.928762e-01 -2.748881e-04 0.0
8.929812e-01 -3.075103e-04 0.0
8.931118e-01 -3.331508e-04 0.0
8.932612e-01 -3.519003e-04 0.0
8.934226e-01 -3.638792e-04 0.0
8.935894e-01 -3.693654e-04 0.0
8.937555e-01 -3.686497e-04 0.0
8.939148e-01 -3.617691e-04 0.0
8.940615e-01 -3.492712e-04 0.0
8.941913e-01 -3.323382e-04 0.0
8.943021e-01 -3.133344e-04 0.0
8.943966e-01 -2.969648e-04 0.0
8.944883e-01 -2.941932e-04 0.0
8.946123e-01 -3.265844e-04 0.0
8.948765e-01 -4.666713e-04 0.0
8.953780e-01 -7.040774e-04 0.0
0.000000e+00 -7.009052e-04 0.0
1.000000e+00 -4.819130e-02 0.0
1.023845e+00 -4.792816e-02 0.0
1.050812e+00 -5.383089e-02 0.0
1.083873e+00 -6.585276e-02 0.0
1.126231e+00 -8.397270e-02 0.0
1.181039e+00 -1.077464e-01 0.0
1.248731e+00 -1.321933e-01 0.0
1.334780e+00 -1.630631e-01 0.0
1.414953e+00 -1.555753e-01 0.0
1.479996e+00 -1.298599e-01 0.0
1.531494e+00 -1.046024e-01 0.0
1.573552e+00 -8.579722e-02 0.0
1.609413e+00 -7.279506e-02 0.0
1.640780e+00 -6.292139e-02 0.0
1.667665e+00 -5.299071e-02 0.0
1.688685e+00 -4.042419e-02 0.0
1.701927e+00 -2.442771e-02 0.0
1.706326e+00 -6.767055e-03 0.0
1.702399e+00 9.815313e-03 0.0
1.691232e+00 2.432243e-02 0.0
1.673993e+00 3.658085e-02 0.0
1.651652e+00 4.696953e-02 0.0
1.624798e+00 5.620826e-02 0.0
1.593624e+00 6.506106e-02 0.0
1.558033e+00 7.409166e-02 0.0
1.517800e+00 8.355356e-02 0.0
1.472747e+00 9.334983e-02 0.0
1.422878e+00 1.031318e-01 0.0
1.368426e+00 1.124882e-01 0.0
1.309847e+00 1.210771e-01 0.0
1.247820e+00 1.284855e-01 0.0
1.183342e+00 1.336894e-01 0.0
1.118302e+00 1.342616e-01 0.0
1.056488e+00 1.260479e-01 0.0
1.003951e+00 1.041214e-01 0.0
9.682357e-01 6.541929e-02 0.0
9.555222e-01 1.278008e-02 0.0
9.665748e-01 -4.392100e-02 0.0
9.981300e-01 -9.633402e-02 0.0
1.048699e+00 -1.431127e-01 0.0
1.118519e+00 -1.831667e-01 0.0
1.205333e+00 -2.108744e-01 0.0
1.301268e+00 -2.177908e-01 0.0
1.395935e+00 -2.011908e-01 0.0
1.478545e+00 -1.620136e-01 0.0
1.539880e+00 -1.062120e-01 0.0
1.574360e+00 -4.507342e-02 0.0
1.582579e+00 8.089169e-03 0.0
1.571804e+00 4.693418e-02 0.0
1.547535e+00 7.479520e-02 0.0
1.513653e+00 9.420325e-02 0.0
1.472919e+00 1.069305e-01 0.0
1.427452e+00 1.142872e-01 0.0
1.379202e+00 1.169716e-01 0.0
1.330304e+00 1.151055e-01 0.0
1.282912e+00 1.090128e-01 0.0
1.238789e+00 9.959520e-02 0.0
1.199105e+00 8.804832e-02 0.0
1.164505e+00 7.548932e-02 0.0
1.135127e+00 6.297151e-02 0.0
1.110714e+00 5.130129e-02 0.0
1.090763e+00 4.097744e-02 0.0
1.074654e+00 3.221735e-02 0.0
1.061746e+00 2.502739e-02 0.0
1.051438e+00 1.928222e-02 0.0
1.043200e+00 1.479124e-02 0.0
1.036583e+00 1.134472e-02 0.0
1.031218e+00 8.740978e-03 0.0
1.026812e+00 6.799759e-03 0.0
1.023137e+00 5.367095e-03 0.0
1.020017e+00 4.315625e-03 0.0
1.017324e+00 3.542790e-03 0.0
1.014966e+00 2.968108e-03 0.0
1.012879e+00 2.530112e-03 0.0
1.011020e+00 2.183275e-03 0.0
1.009359e+00 1.895025e-03 0.0
1.007880e+00 1.642952e-03 0.0
1.006570e+00 1.412286e-03 0.0
1.005422e+00 1.193783e-03 0.0
1.004427e+00 9.822211e-04 0.0
1.003577e+00 7.764475e-04 0.0
1.002865e+00 5.790556e-04 0.0
1.002282e+00 3.928513e-04 0.0
1.001820e+00 2.200120e-04 0.0
1.001470e+00 6.203302e-05 0.0
1.001222e+00 -7.982705e-05 0.0
1.001066e+00 -2.046460e-04 0.0
1.000993e+00 -3.120838e-04 0.0
1.000990e+00 -4.020991e-04 0.0
1.001048e+00 -4.745550e-04 0.0
1.001155e+00 -5.291641e-04 0.0
1.001299e+00 -5.659436e-04 0.0
1.001470e+00 -5.857670e-04 0.0
1.001658e+00 -5.899116e-04 0.0
1.001854e+00 -5.806703e-04 0.0
1.002050e+00 -5.621676e-04 0.0
1.002242e+00 -5.417656e-04 0.0
1.002426e+00 -5.314325e-04 0.0
1.002601e+00 -5.541059e-04 0.0
1.002734e+00 -6.523096e-04 0.0
1.002858e+00 -8.809040e-04 0.0
0.000000e+00 -8.782444e-04 0.0
1.000000e+00 -6.920628e-02 0.0
1.020688e+00 -6.881835e-02 0.0
1.044570e+00 -7.776610e-02 0.0
1.074881e+00 -9.621576e-02 0.0
1.115553e+00 -1.246974e-01 0.0
1.171273e+00 -1.635190e-01 0.0
1.243719e+00 -2.046927e-01 0.0
1.348544e+00 -2.679410e-01 0.0
1.433769e+00 -2.408530e-01 0.0
1.493854e+00 -1.899979e-01 0.0
1.537555e+00 -1.483562e-01 0.0
1.572292e+00 -1.205869e-01 0.0
1.602300e+00 -1.028553e-01 0.0
1.629704e+00 -9.037777e-02 0.0
1.654832e+00 -7.817163e-02 0.0
1.676207e+00 -6.185258e-02 0.0
1.691145e+00 -3.941788e-02 0.0
1.697338e+00 -1.301263e-02 0.0
1.694895e+00 1.220512e-02 0.0
1.685078e+00 3.408635e-02 0.0
1.669241e+00 5.236514e-02 0.0
1.648517e+00 6.764080e-02 0.0
1.623592e+00 8.108063e-02 0.0
1.594689e+00 9.391139e-02 0.0
1.561663e+00 1.070648e-01 0.0
1.524203e+00 1.209614e-01 0.0
1.482036e+00 1.354635e-01 0.0
1.435100e+00 1.500149e-01 0.0
1.383630e+00 1.639055e-01 0.0
1.328154e+00 1.765006e-01 0.0
1.269428e+00 1.871584e-01 0.0
1.208521e+00 1.945441e-01 0.0
1.147261e+00 1.954684e-01 0.0
1.088910e+00 1.843462e-01 0.0
1.037831e+00 1.551475e-01 0.0
9.978517e-01 1.053460e-01 0.0
9.704067e-01 4.017233e-02 0.0
9.546321e-01 -2.819925e-02 0.0
9.506437e-01 -9.239835e-02 0.0
9.606652e-01 -1.531870e-01 0.0
9.882266e-01 -2.107809e-01 0.0
1.035898e+00 -2.585989e-01 0.0
1.101912e+00 -2.838572e-01 0.0
1.177808e+00 -2.771392e-01 0.0
1.254490e+00 -2.387485e-01 0.0
1.322955e+00 -1.747302e-01 0.0
1.375606e+00 -9.777685e-02 0.0
1.407450e+00 -2.380797e-02 0.0
1.420695e+00 3.363690e-02 0.0
1.420695e+00 7.474194e-02 0.0
1.410786e+00 1.040599e-01 0.0
1.393253e+00 1.244102e-01 0.0
1.369928e+00 1.375596e-01 0.0
1.342368e+00 1.444790e-01 0.0
1.311933e+00 1.454872e-01 0.0
1.280270e+00 1.406235e-01 0.0
1.249036e+00 1.307760e-01 0.0
1.219591e+00 1.174409e-01 0.0
1.192741e+00 1.022861e-01 0.0
1.168818e+00 8.684239e-02 0.0
1.147798e+00 7.226801e-02 0.0
1.129449e+00 5.927397e-02 0.0
1.113441e+00 4.817266e-02 0.0
1.099430e+00 3.898558e-02 0.0
1.087101e+00 3.155775e-02 0.0
1.076190e+00 2.564996e-02 0.0
1.066481e+00 2.100049e-02 0.0
1.057809e+00 1.736041e-02 0.0
1.050046e+00 1.451020e-02 0.0
1.043095e+00 1.226523e-02 0.0
1.036882e+00 1.047550e-02 0.0
1.031349e+00 9.022710e-03 0.0
1.026448e+00 7.816359e-03 0.0
1.022136e+00 6.789358e-03 0.0
1.018373e+00 5.893687e-03 0.0
1.015119e+00 5.096305e-03 0.0
1.012334e+00 4.375222e-03 0.0
1.009977e+00 3.716047e-03 0.0
1.008008e+00 3.109626e-03 0.0
1.006387e+00 2.550805e-03 0.0
1.005073e+00 2.037336e-03 0.0
1.004031e+00 1.568404e-03 0.0
1.003227e+00 1.143672e-03 0.0
1.002632e+00 7.626054e-04 0.0
1.002217e+00 4.237077e-04 0.0
1.001959e+00 1.258482e-04 0.0
1.001835e+00 -1.330567e-04 0.0
1.001825e+00 -3.551236e-04 0.0
1.001911e+00 -5.416304e-04 0.0
1.002078e+00 -6.934747e-04 0.0
1.002307e+00 -8.113991e-04 0.0
1.002585e+00 -8.963795e-04 0.0
1.002896e+00 -9.498947e-04 0.0
1.003227e+00 -9.739912e-04 0.0
1.003565e+00 -9.718559e-04 0.0
1.003899e+00 -9.485828e-04 0.0
1.004217e+00 -9.124792e-04 0.0
1.004509e+00 -8.768553e-04 0.0
1.004766e+00 -8.634705e-04 0.0
1.004961e+00 -9.005080e-04 0.0
1.005096e+00 -1.068790e-03 0.0
0.000000e+00 -1.065838e-03 0.0
1.000000e+00 -8.537537e-02 0.0
1.015857e+00 -8.487742e-02 0.0
1.034806e+00 -9.676833e-02 0.0
1.060290e+00 -1.217518e-01 0.0
1.097301e+00 -1.617616e-01 0.0
1.153075e+00 -2.193455e-01 0.0
1.233380e+00 -2.850507e-01 0.0
1.369338e+00 -4.039514e-01 0.0
1.450875e+00 -3.224429e-01 0.0
1.493593e+00 -2.327690e-01 0.0
1.519904e+00 -1.747194e-01 0.0
1.539436e+00 -1.401723e-01 0.0
1.556741e+00 -1.202127e-01 0.0
1.574524e+00 -1.082133e-01 0.0
1.594068e+00 -9.776838e-02 0.0
1.614489e+00 -8.232647e-02 0.0
1.632576e+00 -5.755787e-02 0.0
1.643857e+00 -2.434620e-02 0.0
1.645799e+00 1.021042e-02 0.0
1.639962e+00 3.987010e-02 0.0
1.627977e+00 6.429828e-02 0.0
1.611256e+00 8.430879e-02 0.0
1.590622e+00 1.016619e-01 0.0
1.566300e+00 1.181805e-01 0.0
1.538051e+00 1.352612e-01 0.0
1.505404e+00 1.535553e-01 0.0
1.467912e+00 1.729027e-01 0.0
1.425371e+00 1.925038e-01 0.0
1.377961e+00 2.112620e-01 0.0
1.326290e+00 2.281190e-01 0.0
1.271300e+00 2.420952e-01 0.0
1.214143e+00 2.516491e-01 0.0
1.156511e+00 2.530471e-01 0.0
1.101207e+00 2.395973e-01 0.0
1.050790e+00 2.055120e-01 0.0
1.004750e+00 1.513329e-01 0.0
9.600675e-01 8.480233e-02 0.0
9.187091e-01 1.310632e-02 0.0
8.872044e-01 -6.094638e-02 0.0
8.711256e-01 -1.371610e-01 0.0
8.733919e-01 -2.131000e-01 0.0
8.939260e-01 -2.791858e-01 0.0
9.321425e-01 -3.221265e-01 0.0
9.840990e-01 -3.291485e-01 0.0
1.043894e+00 -2.985958e-01 0.0
1.105247e+00 -2.361362e-01 0.0
1.161696e+00 -1.542784e-01 0.0
1.207278e+00 -6.944351e-02 0.0
1.237698e+00 3.164847e-03 0.0
1.256034e+00 5.635266e-02 0.0
1.264995e+00 9.504618e-02 0.0
1.266375e+00 1.229778e-01 0.0
1.261663e+00 1.422184e-01 0.0
1.252216e+00 1.538734e-01 0.0
1.239096e+00 1.585537e-01 0.0
1.223253e+00 1.564144e-01 0.0
1.205876e+00 1.481002e-01 0.0
1.188012e+00 1.352515e-01 0.0
1.170401e+00 1.198448e-01 0.0
1.153483e+00 1.037077e-01 0.0
1.137471e+00 8.822654e-02 0.0
1.122434e+00 7.425891e-02 0.0
1.108360e+00 6.219402e-02 0.0
1.095211e+00 5.208146e-02 0.0
1.082950e+00 4.376597e-02 0.0
1.071552e+00 3.699516e-02 0.0
1.061008e+00 3.149169e-02 0.0
1.051321e+00 2.699450e-02 0.0
1.042500e+00 2.327851e-02 0.0
1.034552e+00 2.016057e-02 0.0
1.027476e+00 1.749785e-02 0.0
1.021263e+00 1.518320e-02 0.0
1.015887e+00 1.313931e-02 0.0
1.011311e+00 1.131239e-02 0.0
1.007486e+00 9.666232e-03 0.0
1.004352e+00 8.177594e-03 0.0
1.001843e+00 6.831665e-03 0.0
9.998884e-01 5.617620e-03 0.0
9.984189e-01 4.526232e-03 0.0
9.973662e-01 3.550655e-03 0.0
9.966657e-01 2.685033e-03 0.0
9.962601e-01 1.921205e-03 0.0
9.960990e-01 1.251895e-03 0.0
9.961372e-01 6.715967e-04 0.0
9.963369e-01 1.712338e-04 0.0
9.966686e-01 -2.586911e-04 0.0
9.971076e-01 -6.249453e-04 0.0
9.976315e-01 -9.318455e-04 0.0
9.982197e-01 -1.182658e-03 0.0
9.988535e-01 -1.380082e-03 0.0
9.995158e-01 -1.526506e-03 0.0
1.000191e+00 -1.624308e-03 0.0
1.000864e+00 -1.676095e-03 0.0
1.001522e+00 -1.684887e-03 0.0
1.002152e+00 -1.654608e-03 0.0
1.002742e+00 -1.590780e-03 0.0
1.003278e+00 -1.501774e-03 0.0
1.003749e+00 -1.400432e-03 0.0
1.004139e+00 -1.306456e-03 0.0
1.004430e+00 -1.244577e-03 0.0
1.004611e+00 -1.302855e-03 0.0
0.000000e+00 -1.297431e-03 0.0
1.000000e+00 -9.500720e-02 0.0
1.009339e+00 -9.441823e-02 0.0
1.021198e+00 -1.086800e-01 0.0
1.038787e+00 -1.393943e-01 0.0
1.067980e+00 -1.910071e-01 0.0
1.119213e+00 -2.706309e-01 0.0
1.207175e+00 -3.730658e-01 0.0
1.381432e+00 -5.782614e-01 0.0
1.432898e+00 -3.739609e-01 0.0
1.437656e+00 -2.375804e-01 0.0
1.432347e+00 -1.694634e-01 0.0
1.425426e+00 -1.333031e-01 0.0
1.419524e+00 -1.143638e-01 0.0
1.417444e+00 -1.061859e-01 0.0
1.422603e+00 -1.029802e-01 0.0
1.436681e+00 -9.645780e-02 0.0
1.457536e+00 -7.846522e-02 0.0
1.479736e+00 -4.659953e-02 0.0
1.494519e+00 -4.624741e-03 0.0
1.500051e+00 3.428538e-02 0.0
1.498743e+00 6.555305e-02 0.0
1.492696e+00 9.030317e-02 0.0
1.482972e+00 1.113331e-01 0.0
1.469796e+00 1.313044e-01 0.0
1.452733e+00 1.522713e-01 0.0
1.431005e+00 1.752298e-01 0.0
1.403835e+00 2.000205e-01 0.0
1.370748e+00 2.255380e-01 0.0
1.331782e+00 2.501750e-01 0.0
1.287565e+00 2.722835e-01 0.0
1.239235e+00 2.903726e-01 0.0
1.188168e+00 3.026630e-01 0.0
1.135740e+00 3.054222e-01 0.0
1.083434e+00 2.918507e-01 0.0
1.031318e+00 2.575752e-01 0.0
9.764522e-01 2.061460e-01 0.0
9.161937e-01 1.450080e-01 0.0
8.560794e-01 7.316787e-02 0.0
8.107425e-01 -1.566229e-02 0.0
7.879614e-01 -1.144327e-01 0.0
7.837230e-01 -2.089144e-01 0.0
7.922916e-01 -2.878072e-01 0.0
8.114435e-01 -3.413311e-01 0.0
8.414981e-01 -3.592559e-01 0.0
8.805754e-01 -3.377260e-01 0.0
9.261492e-01 -2.817628e-01 0.0
9.744979e-01 -2.026799e-01 0.0
1.020736e+00 -1.157346e-01 0.0
1.059456e+00 -3.560809e-02 0.0
1.088182e+00 2.757450e-02 0.0
1.108857e+00 7.431840e-02 0.0
1.122723e+00 1.090585e-01 0.0
1.130938e+00 1.339512e-01 0.0
1.134629e+00 1.501296e-01 0.0
1.134797e+00 1.583331e-01 0.0
1.131947e+00 1.592108e-01 0.0
1.126647e+00 1.533475e-01 0.0
1.119473e+00 1.423726e-01 0.0
1.110913e+00 1.283525e-01 0.0
1.101358e+00 1.132102e-01 0.0
1.091125e+00 9.840636e-02 0.0
1.080481e+00 8.485028e-02 0.0
1.069658e+00 7.296396e-02 0.0
1.058870e+00 6.281693e-02 0.0
1.048316e+00 5.426714e-02 0.0
1.038184e+00 4.707452e-02 0.0
1.028645e+00 4.097780e-02 0.0
1.019848e+00 3.573859e-02 0.0
1.011911e+00 3.116210e-02 0.0
1.004917e+00 2.710188e-02 0.0
9.989082e-01 2.345404e-02 0.0
9.938900e-01 2.014851e-02 0.0
9.898353e-01 1.714120e-02 0.0
9.866895e-01 1.440543e-02 0.0
9.843786e-01 1.192427e-02 0.0
9.828156e-01 9.687815e-03 0.0
9.819037e-01 7.690711e-03 0.0
9.815427e-01 5.925785e-03 0.0
9.816374e-01 4.378690e-03 0.0
9.820987e-01 3.036524e-03 0.0
9.828410e-01 1.889969e-03 0.0
9.837925e-01 9.168291e-04 0.0
9.848991e-01 9.245958e-05 0.0
9.861240e-01 -6.061384e-04 0.0
9.874367e-01 -1.194288e-03 0.0
9.888085e-01 -1.683304e-03 0.0
9.902129e-01 -2.082135e-03 0.0
9.916263e-01 -2.398147e-03 0.0
9.930286e-01 -2.637712e-03 0.0
9.944021e-01 -2.806460e-03 0.0
9.957321e-01 -2.909356e-03 0.0
9.970059e-01 -2.950870e-03 0.0
9.982122e-01 -2.935306e-03 0.0
9.993413e-01 -2.866803e-03 0.0
1.000384e+00 -2.749701e-03 0.0
1.001329e+00 -2.589415e-03 0.0
1.002168e+00 -2.393339e-03 0.0
1.002887e+00 -2.172239e-03 0.0
1.003470e+00 -1.942186e-03 0.0
1.003899e+00 -1.726269e-03 0.0
1.004138e+00 -1.594867e-03 0.0
0.000000e+00 -1.583863e-03 0.0
1.000000e+00 -9.667362e-02 0.0
1.001395e+00 -9.601591e-02 0.0
1.003931e+00 -1.112682e-01 0.0
1.009478e+00 -1.449938e-01 0.0
1.023119e+00 -2.047013e-01 0.0
1.056752e+00 -3.043161e-01 0.0
1.137402e+00 -4.537686e-01 0.0
1.342169e+00 -7.830818e-01 0.0
1.314601e+00 -3.464456e-01 0.0
1.251860e+00 -1.748919e-01 0.0
1.201036e+00 -1.186920e-01 0.0
1.158142e+00 -9.046239e-02 0.0
1.118575e+00 -7.484921e-02 0.0
1.082509e+00 -7.017287e-02 0.0
1.057067e+00 -7.759059e-02 0.0
1.051652e+00 -9.109609e-02 0.0
1.067994e+00 -9.485935e-02 0.0
1.102157e+00 -8.081506e-02 0.0
1.145481e+00 -4.800223e-02 0.0
1.182145e+00 -2.431402e-03 0.0
1.207401e+00 4.024470e-02 0.0
1.226450e+00 7.120183e-02 0.0
1.241221e+00 9.650887e-02 0.0
1.252140e+00 1.203322e-01 0.0
1.258504e+00 1.458551e-01 0.0
1.259025e+00 1.746557e-01 0.0
1.252399e+00 2.065938e-01 0.0
1.237760e+00 2.401248e-01 0.0
1.214952e+00 2.729302e-01 0.0
1.184636e+00 3.025465e-01 0.0
1.148307e+00 3.266489e-01 0.0
1.108069e+00 3.428483e-01 0.0
1.065080e+00 3.483579e-01 0.0
1.016251e+00 3.406270e-01 0.0
9.536312e-01 3.201424e-01 0.0
8.741698e-01 2.855546e-01 0.0
7.946688e-01 2.244562e-01 0.0
7.409133e-01 1.268706e-01 0.0
7.188512e-01 6.347085e-03 0.0
7.157213e-01 -1.113557e-01 0.0
7.189128e-01 -2.121587e-01 0.0
7.238749e-01 -2.928220e-01 0.0
7.315200e-01 -3.490290e-01 0.0
7.450199e-01 -3.728087e-01 0.0
7.659788e-01 -3.587376e-01 0.0
7.946184e-01 -3.104552e-01 0.0
8.297598e-01 -2.378741e-01 0.0
8.683694e-01 -1.543970e-01 0.0
9.059927e-01 -7.328422e-02 0.0
9.377176e-01 -4.203184e-03 0.0
9.631316e-01 4.885153e-02 0.0
9.829994e-01 8.913796e-02 0.0
9.981865e-01 1.187112e-01 0.0
1.009597e+00 1.386667e-01 0.0
1.018014e+00 1.498627e-01 0.0
1.023818e+00 1.533537e-01 0.0
1.027010e+00 1.501027e-01 0.0
1.027700e+00 1.416305e-01 0.0
1.026070e+00 1.299300e-01 0.0
1.022387e+00 1.168400e-01 0.0
1.016996e+00 1.037444e-01 0.0
1.010296e+00 9.149755e-02 0.0
1.002714e+00 8.049343e-02 0.0
9.946781e-01 7.079972e-02 0.0
9.865952e-01 6.229724e-02 0.0
9.788263e-01 5.479058e-02 0.0
9.716710e-01 4.808028e-02 0.0
9.653581e-01 4.199869e-02 0.0
9.600428e-01 3.642458e-02 0.0
9.558074e-01 3.128448e-02 0.0
9.526696e-01 2.653900e-02 0.0
9.505974e-01 2.216794e-02 0.0
9.495203e-01 1.816548e-02 0.0
9.493397e-01 1.453313e-02 0.0
9.499443e-01 1.126689e-02 0.0
9.512182e-01 8.361130e-03 0.0
9.530382e-01 5.817828e-03 0.0
9.552735e-01 3.637699e-03 0.0
9.578097e-01 1.789596e-03 0.0
9.605596e-01 2.338385e-04 0.0
9.634688e-01 -1.072054e-03 0.0
9.664878e-01 -2.155018e-03 0.0
9.695653e-01 -3.037821e-03 0.0
9.726488e-01 -3.742460e-03 0.0
9.756911e-01 -4.289430e-03 0.0
9.786528e-01 -4.697840e-03 0.0
9.815028e-01 -4.985008e-03 0.0
9.842180e-01 -5.166155e-03 0.0
9.867820e-01 -5.254493e-03 0.0
9.891841e-01 -5.261425e-03 0.0
9.914184e-01 -5.196481e-03 0.0
9.934820e-01 -5.067272e-03 0.0
9.953737e-01 -4.879881e-03 0.0
9.970934e-01 -4.639337e-03 0.0
9.986409e-01 -4.350005e-03 0.0
1.000015e+00 -4.016137e-03 0.0
1.001211e+00 -3.642559e-03 0.0
1.002222e+00 -3.235778e-03 0.0
1.003032e+00 -2.805250e-03 0.0
1.003623e+00 -2.369981e-03 0.0
1.003921e+00 -1.946123e-03 0.0
0.000000e+00 -1.925809e-03 0.0
1.000000e+00 -8.970265e-02 0.0
9.927820e-01 -8.900015e-02 0.0
9.844139e-01 -1.029528e-01 0.0
9.737025e-01 -1.343351e-01 0.0
9.608899e-01 -1.919415e-01 0.0
9.506532e-01 -2.941321e-01 0.0
9.687749e-01 -4.719431e-01 0.0
1.116759e+00 -9.311187e-01 0.0
9.494546e-01 -1.790445e-01 0.0
7.918674e-01 -1.720797e-02 0.0
7.024344e-01 -2.931170e-02 0.0
6.356043e-01 -2.368504e-02 0.0
5.696363e-01 -8.933962e-03 0.0
4.985822e-01 8.284856e-04 0.0
4.399015e-01 -1.896263e-02 0.0
4.196156e-01 -7.086292e-02 0.0
4.436666e-01 -1.189631e-01 0.0
4.969549e-01 -1.341562e-01 0.0
5.698507e-01 -1.209508e-01 0.0
6.537524e-01 -8.638591e-02 0.0
7.347382e-01 -4.079386e-02 0.0
8.008624e-01 5.024938e-03 0.0
8.558591e-01 4.145939e-02 0.0
9.045525e-01 7.158606e-02 0.0
9.466026e-01 1.037522e-01 0.0
9.801546e-01 1.410509e-01 0.0
1.003216e+00 1.834798e-01 0.0
1.014439e+00 2.288492e-01 0.0
1.013366e+00 2.739497e-01 0.0
1.000265e+00 3.155948e-01 0.0
9.757122e-01 3.511493e-01 0.0
9.396788e-01 3.788289e-01 0.0
8.895997e-01 3.983843e-01 0.0
8.187547e-01 4.114192e-01 0.0
7.325688e-01 4.062755e-01 0.0
6.600155e-01 3.580553e-01 0.0
6.277989e-01 2.566200e-01 0.0
6.333744e-01 1.212423e-01 0.0
6.551693e-01 -1.550066e-02 0.0
6.752592e-01 -1.314983e-01 0.0
6.868008e-01 -2.237531e-01 0.0
6.895432e-01 -2.956173e-01 0.0
6.879574e-01 -3.474959e-01 0.0
6.878800e-01 -3.727841e-01 0.0
6.935201e-01 -3.644305e-01 0.0
7.067016e-01 -3.236895e-01 0.0
7.276792e-01 -2.589045e-01 0.0
7.548254e-01 -1.815960e-01 0.0
7.847916e-01 -1.033032e-01 0.0
8.134651e-01 -3.292948e-02 0.0
8.380130e-01 2.425082e-02 0.0
8.586419e-01 6.845629e-02 0.0
8.758960e-01 1.014043e-01 0.0
8.903839e-01 1.241260e-01 0.0
9.025427e-01 1.376511e-01 0.0
9.125324e-01 1.433112e-01 0.0
9.200033e-01 1.425789e-01 0.0
9.247301e-01 1.368509e-01 0.0
9.267146e-01 1.278928e-01 0.0
9.262027e-01 1.172990e-01 0.0
9.236499e-01 1.062444e-01 0.0
9.196440e-01 9.545062e-02 0.0
9.148177e-01 8.526688e-02 0.0
9.097684e-01 7.579628e-02 0.0
9.049985e-01 6.701434e-02 0.0
9.008854e-01 5.885082e-02 0.0
8.976760e-01 5.123691e-02 0.0
8.955069e-01 4.411491e-02 0.0
8.944356e-01 3.744308e-02 0.0
8.944533e-01 3.121401e-02 0.0
8.955006e-01 2.543886e-02 0.0
8.974949e-01 2.012081e-02 0.0
9.003394e-01 1.526811e-02 0.0
9.039150e-01 1.090476e-02 0.0
9.081033e-01 7.025743e-03 0.0
9.128072e-01 3.604390e-03 0.0
9.179374e-01 6.348554e-04 0.0
9.234263e-01 -1.904046e-03 0.0
9.291869e-01 -4.023837e-03 0.0
9.351130e-01 -5.745121e-03 0.0
9.410861e-01 -7.097966e-03 0.0
9.469958e-01 -8.117558e-03 0.0
9.527488e-01 -8.843648e-03 0.0
9.582709e-01 -9.317359e-03 0.0
9.635075e-01 -9.578863e-03 0.0
9.684222e-01 -9.665355e-03 0.0
9.729941e-01 -9.609706e-03 0.0
9.772145e-01 -9.439464e-03 0.0
9.810845e-01 -9.177295e-03 0.0
9.846115e-01 -8.841253e-03 0.0
9.878075e-01 -8.445358e-03 0.0
9.906877e-01 -8.000289e-03 0.0
9.932686e-01 -7.513614e-03 0.0
9.955667e-01 -6.990285e-03 0.0
9.975968e-01 -6.432928e-03 0.0
9.993705e-01 -5.842671e-03 0.0
1.000895e+00 -5.219545e-03 0.0
1.002169e+00 -4.563114e-03 0.0
1.003183e+00 -3.872380e-03 0.0
1.003919e+00 -3.158221e-03 0.0
1.004260e+00 -2.339636e-03 0.0
0.000000e+00 -2.306567e-03 0.0
1.000000e+00 -7.477497e-02 0.0
9.848487e-01 -7.405103e-02 0.0
9.659480e-01 -8.410483e-02 0.0
9.379614e-01 -1.064013e-01 0.0
8.921784e-01 -1.462113e-01 0.0
8.112169e-01 -2.132233e-01 0.0
6.686597e-01 -3.294387e-01 0.0
1.793434e-01 -4.417057e-01 0.0
-9.480846e-01 4.432400e-01 0.0
0.000000e+00 -9.631386e-03 0.0
-5.608001e-02 9.358132e-03 0.0
-7.393539e-02 -5.882409e-03 0.0
-5.254865e-02 -3.037346e-02 0.0
-6.705699e-03 -4.506721e-02 0.0
1.122113e-02 -3.694221e-02 0.0
4.101532e-03 -6.379608e-02 0.0
-3.477241e-04 -1.145666e-01 0.0
2.591784e-02 -1.604745e-01 0.0
8.377972e-02 -1.788654e-01 0.0
1.684792e-01 -1.711381e-01 0.0
2.697424e-01 -1.421098e-01 0.0
3.764086e-01 -1.016941e-01 0.0
4.766863e-01 -5.887101e-02 0.0
5.602301e-01 -1.201056e-02 0.0
6.291919e-01 3.473768e-02 0.0
6.865468e-01 8.364332e-02 0.0
7.300496e-01 1.399241e-01 0.0
7.576739e-01 2.011723e-01 0.0
7.682014e-01 2.633694e-01 0.0
7.606235e-01 3.231200e-01 0.0
7.336074e-01 3.781126e-01 0.0
6.855183e-01 4.268653e-01 0.0
6.170681e-01 4.667818e-01 0.0
5.435100e-01 4.849245e-01 0.0
4.965417e-01 4.531911e-01 0.0
4.934326e-01 3.611116e-01 0.0
5.276696e-01 2.223302e-01 0.0
5.800650e-01 6.879416e-02 0.0
6.311080e-01 -6.659641e-02 0.0
6.690053e-01 -1.694484e-01 0.0
6.893477e-01 -2.441483e-01 0.0
6.919271e-01 -2.982495e-01 0.0
6.816531e-01 -3.372747e-01 0.0
6.676950e-01 -3.588788e-01 0.0
6.578794e-01 -3.546677e-01 0.0
6.556732e-01 -3.215360e-01 0.0
6.620294e-01 -2.653135e-01 0.0
6.760587e-01 -1.956781e-01 0.0
6.952135e-01 -1.225107e-01 0.0
7.161969e-01 -5.396572e-02 0.0
7.358557e-01 4.539242e-03 0.0
7.533801e-01 5.087907e-02 0.0
7.689071e-01 8.582445e-02 0.0
7.826281e-01 1.103523e-01 0.0
7.945668e-01 1.256596e-01 0.0
8.045695e-01 1.332557e-01 0.0
8.122495e-01 1.348462e-01 0.0
8.173535e-01 1.316940e-01 0.0
8.200008e-01 1.251927e-01 0.0
8.206481e-01 1.165989e-01 0.0
8.199657e-01 1.068740e-01 0.0
8.186784e-01 9.668506e-02 0.0
8.174345e-01 8.645805e-02 0.0
8.167329e-01 7.644505e-02 0.0
8.169011e-01 6.679335e-02 0.0
8.181175e-01 5.758156e-02 0.0
8.204361e-01 4.886553e-02 0.0
8.238377e-01 4.066045e-02 0.0
8.283006e-01 3.292738e-02 0.0
8.337821e-01 2.567966e-02 0.0
8.401957e-01 1.897249e-02 0.0
8.474600e-01 1.280373e-02 0.0
8.555182e-01 7.157090e-03 0.0
8.642461e-01 2.124021e-03 0.0
8.734597e-01 -2.240671e-03 0.0
8.829542e-01 -5.942965e-03 0.0
8.925449e-01 -9.008707e-03 0.0
9.020625e-01 -1.147446e-02 0.0
9.113677e-01 -1.338180e-02 0.0
9.203519e-01 -1.478223e-02 0.0
9.289336e-01 -1.573248e-02 0.0
9.370547e-01 -1.629149e-02 0.0
9.446777e-01 -1.651945e-02 0.0
9.517805e-01 -1.647299e-02 0.0
9.583542e-01 -1.620535e-02 0.0
9.644004e-01 -1.576440e-02 0.0
9.699289e-01 -1.519109e-02 0.0
9.749566e-01 -1.451997e-02 0.0
9.795055e-01 -1.377904e-02 0.0
9.836015e-01 -1.299009e-02 0.0
9.872726e-01 -1.216932e-02 0.0
9.905476e-01 -1.132809e-02 0.0
9.934546e-01 -1.047339e-02 0.0
9.960199e-01 -9.608455e-03 0.0
9.982673e-01 -8.733158e-03 0.0
1.000216e+00 -7.844451e-03 0.0
1.001880e+00 -6.936446e-03 0.0
1.003265e+00 -6.000427e-03 0.0
1.004362e+00 -5.022833e-03 0.0
1.005155e+00 -4.003844e-03 0.0
1.005496e+00 -2.732895e-03 0.0
0.000000e+00 -2.685587e-03 0.0
1.000000e+00 -5.414758e-02 0.0
9.791696e-01 -5.342285e-02 0.0
9.529431e-01 -5.793106e-02 0.0
9.134839e-01 -6.699480e-02 0.0
8.469945e-01 -7.977459e-02 0.0
7.242867e-01 -9.056826e-02 0.0
4.731697e-01 -7.837440e-02 0.0
-4.026567e-03 3.558726e-02 0.0
-1.440134e-04 0.000000e+00 0.0
0.000000e+00 -0.000000e+00 0.0
0.000000e+00 -6.791160e-03 0.0
-6.686689e-03 7.515283e-04 0.0
-5.354500e-02 1.643210e-02 0.0
-1.051428e-01 6.477822e-03 0.0
-1.466038e-01 4.466095e-03 0.0
-1.837345e-01 -2.671823e-02 0.0
-2.170967e-01 -8.125717e-02 0.0
-2.332569e-01 -1.443669e-01 0.0
-2.157364e-01 -1.964387e-01 0.0