# vtk DataFile Version 3.0
Vector Field
ASCII
DATASET RECTILINEAR_GRID
DIMENSIONS 102 22 1
X_COORDINATES 102 double
0.000000 0.100000 0.200000 0.300000 0.400000 0.500000 0.600000 0.700000 0.800000 0.900000 1.000000 1.100000 1.200000 1.300000 1.400000 1.500000 1.600000 1.700000 1.800000 1.900000 2.000000 2.100000 2.200000 2.300000 2.400000 2.500000 2.600000 2.700000 2.800000 2.900000 3.000000 3.100000 3.200000 3.300000 3.400000 3.500000 3.600000 3.700000 3.800000 3.900000 4.000000 4.100000 4.200000 4.300000 4.400000 4.500000 4.600000 4.700000 4.800000 4.900000 5.000000 5.100000 5.200000 5.300000 5.400000 5.500000 5.600000 5.700000 5.800000 5.900000 6.000000 6.100000 6.200000 6.300000 6.400000 6.500000 6.600000 6.700000 6.800000 6.900000 7.000000 7.100000 7.200000 7.300000 7.400000 7.500000 7.600000 7.700000 7.800000 7.900000 8.000000 8.100000 8.200000 8.300000 8.400000 8.500000 8.600000 8.700000 8.800000 8.900000 9.000000 9.100000 9.200000 9.300000 9.400000 9.500000 9.600000 9.700000 9.800000 9.900000 10.000000 10.100000 
Y_COORDINATES 22 double
0.000000 0.100000 0.200000 0.300000 0.400000 0.500000 0.600000 0.700000 0.800000 0.900000 1.000000 1.100000 1.200000 1.300000 1.400000 1.500000 1.600000 1.700000 1.800000 1.900000 2.000000 2.100000 
Z_COORDINATES 1 double
0.0
POINT_DATA 2244
VECTORS Velocity double
0.000000e+00 0.000000e+00 0.0
-1.023099e+00 0.000000e+00 0.0
-1.049203e+00 0.000000e+00 0.0
-1.081076e+00 0.000000e+00 0.0
-1.121482e+00 0.000000e+00 0.0
-1.172723e+00 0.000000e+00 0.0
-1.234822e+00 0.000000e+00 0.0
-1.308116e+00 0.000000e+00 0.0
-1.378338e+00 0.000000e+00 0.0
-1.436664e+00 0.000000e+00 0.0
-1.482354e+00 0.000000e+00 0.0
-1.518471e+00 0.000000e+00 0.0
-1.548702e+00 0.000000e+00 0.0
-1.576030e+00 0.000000e+00 0.0
-1.602151e+00 0.000000e+00 0.0
-1.627150e+00 0.000000e+00 0.0
-1.649450e+00 0.000000e+00 0.0
-1.666464e+00 0.000000e+00 0.0
-1.675917e+00 0.000000e+00 0.0
-1.677069e+00 0.000000e+00 0.0
-1.670555e+00 0.000000e+00 0.0
-1.657449e+00 0.000000e+00 0.0
-1.638855e+00 0.000000e+00 0.0
-1.615612e+00 0.000000e+00 0.0
-1.588144e+00 0.000000e+00 0.0
-1.556460e+00 0.000000e+00 0.0
-1.520272e+00 0.000000e+00 0.0
-1.479174e+00 0.000000e+00 0.0
-1.432827e+00 0.000000e+00 0.0
-1.381106e+00 0.000000e+00 0.0
-1.324160e+00 0.000000e+00 0.0
-1.262364e+00 0.000000e+00 0.0
-1.196324e+00 0.000000e+00 0.0
-1.127174e+00 0.000000e+00 0.0
-1.057139e+00 0.000000e+00 0.0
-9.898549e-01 0.000000e+00 0.0
-9.306858e-01 0.000000e+00 0.0
-8.863930e-01 0.000000e+00 0.0
-8.637374e-01 0.000000e+00 0.0
-8.671802e-01 0.000000e+00 0.0
-8.979588e-01 0.000000e+00 0.0
-9.556787e-01 0.000000e+00 0.0
-1.039282e+00 0.000000e+00 0.0
-1.145777e+00 0.000000e+00 0.0
-1.268433e+00 0.000000e+00 0.0
-1.395023e+00 0.000000e+00 0.0
-1.510895e+00 0.000000e+00 0.0
-1.601371e+00 0.000000e+00 0.0
-1.655506e+00 0.000000e+00 0.0
-1.670239e+00 0.000000e+00 0.0
-1.650006e+00 0.000000e+00 0.0
-1.599100e+00 0.000000e+00 0.0
-1.521912e+00 0.000000e+00 0.0
-1.424055e+00 0.000000e+00 0.0
-1.313153e+00 0.000000e+00 0.0
-1.198591e+00 0.000000e+00 0.0
-1.089807e+00 0.000000e+00 0.0
-9.950563e-01 0.000000e+00 0.0
-9.203308e-01 0.000000e+00 0.0
-8.688351e-01 0.000000e+00 0.0
-8.408651e-01 0.000000e+00 0.0
-8.341960e-01 0.000000e+00 0.0
-8.447847e-01 0.000000e+00 0.0
-8.684831e-01 0.000000e+00 0.0
-9.015967e-01 0.000000e+00 0.0
-9.409594e-01 0.000000e+00 0.0
-9.838699e-01 0.000000e+00 0.0
-1.028048e+00 0.000000e+00 0.0
-1.071594e+00 0.000000e+00 0.0
-1.112953e+00 0.000000e+00 0.0
-1.150863e+00 0.000000e+00 0.0
-1.184322e+00 0.000000e+00 0.0
-1.212593e+00 0.000000e+00 0.0
-1.235219e+00 0.000000e+00 0.0
-1.251990e+00 0.000000e+00 0.0
-1.262963e+00 0.000000e+00 0.0
-1.268437e+00 0.000000e+00 0.0
-1.268721e+00 0.000000e+00 0.0
-1.263848e+00 0.000000e+00 0.0
-1.253780e+00 0.000000e+00 0.0
-1.238512e+00 0.000000e+00 0.0
-1.218245e+00 0.000000e+00 0.0
-1.193724e+00 0.000000e+00 0.0
-1.166619e+00 0.000000e+00 0.0
-1.139572e+00 0.000000e+00 0.0
-1.115536e+00 0.000000e+00 0.0
-1.096846e+00 0.000000e+00 0.0
-1.084626e+00 0.000000e+00 0.0
-1.078843e+00 0.000000e+00 0.0
-1.078548e+00 0.000000e+00 0.0
-1.082266e+00 0.000000e+00 0.0
-1.088493e+00 0.000000e+00 0.0
-1.095985e+00 0.000000e+00 0.0
-1.103823e+00 0.000000e+00 0.0
-1.111367e+00 0.000000e+00 0.0
-1.118225e+00 0.000000e+00 0.0
-1.124190e+00 0.000000e+00 0.0
-1.129172e+00 0.000000e+00 0.0
-1.133138e+00 0.000000e+00 0.0
-1.136137e+00 0.000000e+00 0.0
-1.136137e+00 0.000000e+00 0.0
0.000000e+00 0.000000e+00 0.0
1.000000e+00 -2.342899e-02 0.0
1.023106e+00 -2.343575e-02 0.0
1.049213e+00 -2.629622e-02 0.0
1.081074e+00 -3.205111e-02 0.0
1.121444e+00 -4.055891e-02 0.0
1.172602e+00 -5.134757e-02 0.0
1.234546e+00 -6.213342e-02 0.0
1.307546e+00 -7.319009e-02 0.0
1.377299e+00 -6.994202e-02 0.0
1.434967e+00 -5.785787e-02 0.0
1.479834e+00 -4.505649e-02 0.0
1.515006e+00 -3.536163e-02 0.0
1.544256e+00 -2.943928e-02 0.0
1.570700e+00 -2.663418e-02 0.0
1.596239e+00 -2.572824e-02 0.0
1.621193e+00 -2.514336e-02 0.0
1.644146e+00 -2.314276e-02 0.0
1.662471e+00 -1.851500e-02 0.0
1.673611e+00 -1.132955e-02 0.0
1.676443e+00 -3.021850e-03 0.0
1.671429e+00 4.824435e-03 0.0
1.659610e+00 1.162965e-02 0.0
1.642116e+00 1.730431e-02 0.0
1.619846e+00 2.208055e-02 0.0
1.593293e+00 2.636309e-02 0.0
1.562521e+00 3.058230e-02 0.0
1.527267e+00 3.506502e-02 0.0
1.487118e+00 3.995929e-02 0.0
1.441703e+00 4.522525e-02 0.0
1.390850e+00 5.066365e-02 0.0
1.334661e+00 5.599849e-02 0.0
1.273490e+00 6.098153e-02 0.0
1.207907e+00 6.539307e-02 0.0
1.138927e+00 6.879064e-02 0.0
1.068551e+00 7.018601e-02 0.0
1.000127e+00 6.823507e-02 0.0
9.386640e-01 6.127304e-02 0.0
8.906710e-01 4.780330e-02 0.0
8.629721e-01 2.750919e-02 0.0
8.605463e-01 2.236039e-03 0.0
8.850650e-01 -2.470841e-02 0.0
9.363198e-01 -5.144452e-02 0.0
1.013444e+00 -7.731430e-02 0.0
1.114093e+00 -1.008383e-01 0.0
1.232818e+00 -1.189152e-01 0.0
1.358868e+00 -1.262391e-01 0.0
1.478242e+00 -1.195646e-01 0.0
1.576349e+00 -9.829670e-02 0.0
1.641065e+00 -6.490537e-02 0.0
1.666913e+00 -2.603756e-02 0.0
1.656646e+00 1.007682e-02 0.0
1.614706e+00 4.175014e-02 0.0
1.545018e+00 6.949866e-02 0.0
1.452538e+00 9.228979e-02 0.0
1.344222e+00 1.081260e-01 0.0
1.229302e+00 1.147303e-01 0.0
1.117679e+00 1.114336e-01 0.0
1.018307e+00 9.918136e-02 0.0
9.379581e-01 8.015945e-02 0.0
8.805754e-01 5.719289e-02 0.0
8.470807e-01 3.330483e-02 0.0
8.357112e-01 1.117954e-02 0.0
8.426549e-01 -7.133520e-03 0.0
8.636056e-01 -2.114063e-02 0.0
8.947121e-01 -3.129636e-02 0.0
9.326712e-01 -3.814907e-02 0.0
9.746782e-01 -4.219688e-02 0.0
1.018369e+00 -4.388098e-02 0.0
1.061782e+00 -4.360217e-02 0.0
1.103310e+00 -4.171846e-02 0.0
1.141655e+00 -3.853481e-02 0.0
1.175780e+00 -3.431492e-02 0.0
1.204907e+00 -2.931750e-02 0.0
1.228532e+00 -2.381436e-02 0.0
1.246404e+00 -1.806253e-02 0.0
1.258526e+00 -1.231133e-02 0.0
1.265152e+00 -6.815827e-03 0.0
1.266629e+00 -1.667178e-03 0.0
1.263051e+00 3.388075e-03 0.0
1.254396e+00 8.464733e-03 0.0
1.240654e+00 1.355183e-02 0.0
1.221961e+00 1.850308e-02 0.0
1.198888e+00 2.288330e-02 0.0
1.172821e+00 2.587725e-02 0.0
1.146121e+00 2.650966e-02 0.0
1.121659e+00 2.427179e-02 0.0
1.101923e+00 1.954609e-02 0.0
1.088311e+00 1.342167e-02 0.0
1.081059e+00 7.062475e-03 0.0
1.079438e+00 1.431265e-03 0.0
1.082105e+00 -2.857124e-03 0.0
1.087572e+00 -5.657547e-03 0.0
1.094554e+00 -7.171372e-03 0.0
1.102077e+00 -7.713839e-03 0.0
1.109456e+00 -7.568612e-03 0.0
1.116248e+00 -6.982263e-03 0.0
1.122209e+00 -6.150857e-03 0.0
1.127222e+00 -5.203183e-03 0.0
1.131237e+00 -4.204236e-03 0.0
1.134292e+00 -3.245800e-03 0.0
1.136137e+00 -2.034844e-03 0.0
0.000000e+00 -1.967818e-03 0.0
1.000000e+00 -4.705447e-02 0.0
1.023443e+00 -4.706810e-02 0.0
1.049927e+00 -5.282940e-02 0.0
1.082341e+00 -6.451496e-02 0.0
1.123763e+00 -8.203022e-02 0.0
1.177146e+00 -1.047799e-01 0.0
1.242728e+00 -1.277652e-01 0.0
1.325184e+00 -1.556959e-01 0.0
1.400242e+00 -1.450496e-01 0.0
1.458698e+00 -1.163625e-01 0.0
1.502429e+00 -8.883684e-02 0.0
1.536149e+00 -6.913165e-02 0.0
1.564169e+00 -5.750829e-02 0.0
1.589744e+00 -5.225911e-02 0.0
1.614920e+00 -5.095332e-02 0.0
1.640287e+00 -5.056045e-02 0.0
1.664604e+00 -4.750867e-02 0.0
1.685124e+00 -3.908499e-02 0.0
1.698860e+00 -2.511421e-02 0.0
1.704170e+00 -8.381430e-03 0.0
1.701488e+00 7.457080e-03 0.0
1.692018e+00 2.104934e-02 0.0
1.677021e+00 3.225273e-02 0.0
1.657464e+00 4.158805e-02 0.0
1.633867e+00 4.990989e-02 0.0
1.606282e+00 5.811779e-02 0.0
1.574411e+00 6.688693e-02 0.0
1.537814e+00 7.650729e-02 0.0
1.496101e+00 8.688830e-02 0.0
1.449094e+00 9.762095e-02 0.0
1.396918e+00 1.081249e-01 0.0
1.340016e+00 1.178343e-01 0.0
1.279137e+00 1.262229e-01 0.0
1.215334e+00 1.325441e-01 0.0
1.150086e+00 1.353848e-01 0.0
1.085924e+00 1.323469e-01 0.0
1.026712e+00 1.204354e-01 0.0
9.774826e-01 9.698359e-02 0.0
9.436252e-01 6.131702e-02 0.0
9.291413e-01 1.667048e-02 0.0
9.345745e-01 -3.019114e-02 0.0
9.582399e-01 -7.515935e-02 0.0
9.997503e-01 -1.188743e-01 0.0
1.060497e+00 -1.616340e-01 0.0
1.139991e+00 -1.984596e-01 0.0
1.233386e+00 -2.196827e-01 0.0
1.330439e+00 -2.166677e-01 0.0
1.419093e+00 -1.869999e-01 0.0
1.487788e+00 -1.336499e-01 0.0
1.528068e+00 -6.636769e-02 0.0
1.536970e+00 1.125517e-03 0.0
1.518359e+00 6.031201e-02 0.0
1.477286e+00 1.105220e-01 0.0
1.419132e+00 1.503938e-01 0.0
1.349046e+00 1.781627e-01 0.0
1.271669e+00 1.920580e-01 0.0
1.192768e+00 1.902854e-01 0.0
1.118787e+00 1.731122e-01 0.0
1.054821e+00 1.440765e-01 0.0
1.004554e+00 1.074102e-01 0.0
9.700850e-01 6.772414e-02 0.0
9.518669e-01 2.934814e-02 0.0
9.488074e-01 -4.123606e-03 0.0
9.581593e-01 -3.054207e-02 0.0
9.768467e-01 -5.003323e-02 0.0
1.002151e+00 -6.350258e-02 0.0
1.031722e+00 -7.181790e-02 0.0
1.063478e+00 -7.568626e-02 0.0
1.095723e+00 -7.589672e-02 0.0
1.127115e+00 -7.315996e-02 0.0
1.156515e+00 -6.798455e-02 0.0
1.182975e+00 -6.082424e-02 0.0
1.205744e+00 -5.213608e-02 0.0
1.224274e+00 -4.239455e-02 0.0
1.238241e+00 -3.207819e-02 0.0
1.247514e+00 -2.163391e-02 0.0
1.252003e+00 -1.135479e-02 0.0
1.251395e+00 -1.108393e-03 0.0
1.245384e+00 9.348865e-03 0.0
1.233934e+00 1.986496e-02 0.0
1.217316e+00 3.012061e-02 0.0
1.196365e+00 3.940492e-02 0.0
1.172758e+00 4.644057e-02 0.0
1.149123e+00 4.946204e-02 0.0
1.128660e+00 4.692320e-02 0.0
1.113975e+00 3.890746e-02 0.0
1.106399e+00 2.707252e-02 0.0
1.105871e+00 1.390033e-02 0.0
1.111048e+00 1.836248e-03 0.0
1.120010e+00 -7.580865e-03 0.0
1.130965e+00 -1.386154e-02 0.0
1.142486e+00 -1.722784e-02 0.0
1.153563e+00 -1.829802e-02 0.0
1.163592e+00 -1.779223e-02 0.0
1.172310e+00 -1.633669e-02 0.0
1.179673e+00 -1.439496e-02 0.0
1.185749e+00 -1.227612e-02 0.0
1.190655e+00 -1.015882e-02 0.0
1.194502e+00 -8.100373e-03 0.0
1.197325e+00 -6.118727e-03 0.0
1.198707e+00 -3.466182e-03 0.0
0.000000e+00 -3.320884e-03 0.0
1.000000e+00 -6.757899e-02 0.0
1.020345e+00 -6.760296e-02 0.0
1.043818e+00 -7.635148e-02 0.0
1.073585e+00 -9.433127e-02 0.0
1.113477e+00 -1.219722e-01 0.0
1.168022e+00 -1.593740e-01 0.0
1.238737e+00 -1.985300e-01 0.0
1.340535e+00 -2.575434e-01 0.0
1.421570e+00 -2.261334e-01 0.0
1.475933e+00 -1.707749e-01 0.0
1.512483e+00 -1.254364e-01 0.0
1.538954e+00 -9.565244e-02 0.0
1.560311e+00 -7.891433e-02 0.0
1.579787e+00 -7.178523e-02 0.0
1.599709e+00 -7.092448e-02 0.0
1.621489e+00 -7.238963e-02 0.0
1.644519e+00 -7.058845e-02 0.0
1.665970e+00 -6.058526e-02 0.0
1.682012e+00 -4.120620e-02 0.0
1.689672e+00 -1.609005e-02 0.0
1.688811e+00 8.268391e-03 0.0
1.680996e+00 2.881435e-02 0.0
1.667753e+00 4.544653e-02 0.0
1.650225e+00 5.906670e-02 0.0
1.629023e+00 7.106191e-02 0.0
1.604202e+00 8.288984e-02 0.0
1.575421e+00 9.561799e-02 0.0
1.542143e+00 1.097363e-01 0.0
1.503856e+00 1.251258e-01 0.0
1.460283e+00 1.411447e-01 0.0
1.411503e+00 1.568556e-01 0.0
1.357986e+00 1.713016e-01 0.0
1.300536e+00 1.836235e-01 0.0
1.240236e+00 1.927946e-01 0.0
1.178618e+00 1.969535e-01 0.0
1.118108e+00 1.928074e-01 0.0
1.062084e+00 1.764097e-01 0.0
1.014082e+00 1.449356e-01 0.0
9.765639e-01 9.878605e-02 0.0
9.505019e-01 4.268295e-02 0.0
9.363150e-01 -1.605375e-02 0.0
9.353398e-01 -7.423363e-02 0.0
9.504510e-01 -1.340350e-01 0.0
9.831950e-01 -1.944276e-01 0.0
1.032809e+00 -2.481236e-01 0.0
1.096629e+00 -2.835514e-01 0.0
1.168507e+00 -2.885957e-01 0.0
1.239823e+00 -2.583656e-01 0.0
1.301639e+00 -1.955156e-01 0.0
1.346116e+00 -1.108937e-01 0.0
1.368108e+00 -2.091611e-02 0.0
1.368428e+00 5.994229e-02 0.0
1.350992e+00 1.279090e-01 0.0
1.320005e+00 1.813310e-01 0.0
1.279242e+00 2.188767e-01 0.0
1.231972e+00 2.392784e-01 0.0
1.181132e+00 2.410757e-01 0.0
1.130339e+00 2.238562e-01 0.0
1.083749e+00 1.906165e-01 0.0
1.044714e+00 1.463954e-01 0.0
1.015231e+00 9.715826e-02 0.0
9.960487e-01 4.848044e-02 0.0
9.872657e-01 4.609887e-03 0.0
9.879799e-01 -3.130576e-02 0.0
9.963840e-01 -5.848694e-02 0.0
1.010748e+00 -7.791614e-02 0.0
1.029506e+00 -9.062573e-02 0.0
1.051205e+00 -9.743482e-02 0.0
1.074354e+00 -9.909538e-02 0.0
1.097556e+00 -9.641066e-02 0.0
1.119590e+00 -9.006800e-02 0.0
1.139435e+00 -8.071968e-02 0.0
1.156289e+00 -6.903957e-02 0.0
1.169566e+00 -5.572093e-02 0.0
1.178879e+00 -4.144039e-02 0.0
1.183948e+00 -2.675256e-02 0.0
1.184370e+00 -1.182654e-02 0.0
1.179454e+00 3.758261e-03 0.0
1.169056e+00 1.969750e-02 0.0
1.153467e+00 3.540376e-02 0.0
1.133648e+00 4.989057e-02 0.0
1.111523e+00 6.148012e-02 0.0
1.090115e+00 6.779915e-02 0.0
1.073050e+00 6.647766e-02 0.0
1.062646e+00 5.727711e-02 0.0
1.059426e+00 4.207834e-02 0.0
1.062495e+00 2.395369e-02 0.0
1.070045e+00 6.300655e-03 0.0
1.080124e+00 -8.292403e-03 0.0
1.091305e+00 -1.881170e-02 0.0
1.102588e+00 -2.519351e-02 0.0
1.113317e+00 -2.800661e-02 0.0
1.123140e+00 -2.817043e-02 0.0
1.131874e+00 -2.657586e-02 0.0
1.139420e+00 -2.393179e-02 0.0
1.145763e+00 -2.078820e-02 0.0
1.150966e+00 -1.752832e-02 0.0
1.155130e+00 -1.437238e-02 0.0
1.158352e+00 -1.137168e-02 0.0
1.160678e+00 -8.495183e-03 0.0
1.161865e+00 -4.702503e-03 0.0
0.000000e+00 -4.464917e-03 0.0
1.000000e+00 -8.335186e-02 0.0
1.015598e+00 -8.339080e-02 0.0
1.034242e+00 -9.504472e-02 0.0
1.059333e+00 -1.194713e-01 0.0
1.095802e+00 -1.584913e-01 0.0
1.150812e+00 -2.144329e-01 0.0
1.230028e+00 -2.777960e-01 0.0
1.364532e+00 -3.920968e-01 0.0
1.444085e+00 -3.057357e-01 0.0
1.483028e+00 -2.097670e-01 0.0
1.503809e+00 -1.462667e-01 0.0
1.516270e+00 -1.081635e-01 0.0
1.524689e+00 -8.738295e-02 0.0
1.531633e+00 -7.877840e-02 0.0
1.539478e+00 -7.881847e-02 0.0
1.551383e+00 -8.434437e-02 0.0
1.568690e+00 -8.794505e-02 0.0
1.589285e+00 -8.122966e-02 0.0
1.608847e+00 -6.081798e-02 0.0
1.622359e+00 -2.965078e-02 0.0
1.626664e+00 3.913963e-03 0.0
1.623429e+00 3.199981e-02 0.0
1.614762e+00 5.406356e-02 0.0
1.602077e+00 7.170206e-02 0.0
1.586150e+00 8.693952e-02 0.0
1.566981e+00 1.020099e-01 0.0
1.544066e+00 1.184830e-01 0.0
1.516674e+00 1.370787e-01 0.0
1.484091e+00 1.576599e-01 0.0
1.445857e+00 1.793294e-01 0.0
1.401941e+00 2.007217e-01 0.0
1.352811e+00 2.203819e-01 0.0
1.299382e+00 2.370036e-01 0.0
1.242862e+00 2.492651e-01 0.0
1.184744e+00 2.550212e-01 0.0
1.127385e+00 2.501177e-01 0.0
1.073866e+00 2.298786e-01 0.0
1.026323e+00 1.924297e-01 0.0
9.841499e-01 1.409093e-01 0.0
9.460804e-01 8.070296e-02 0.0
9.162381e-01 1.373901e-02 0.0
9.017949e-01 -5.983992e-02 0.0
9.060330e-01 -1.383226e-01 0.0
9.271824e-01 -2.156265e-01 0.0
9.609530e-01 -2.819438e-01 0.0
1.003392e+00 -3.260395e-01 0.0
1.051399e+00 -3.366521e-01 0.0
1.100765e+00 -3.077810e-01 0.0
1.146774e+00 -2.415749e-01 0.0
1.184401e+00 -1.485697e-01 0.0
1.209063e+00 -4.562819e-02 0.0
1.219028e+00 4.992781e-02 0.0
1.216198e+00 1.306894e-01 0.0
1.203199e+00 1.942809e-01 0.0
1.182553e+00 2.394732e-01 0.0
1.156540e+00 2.652414e-01 0.0
1.126975e+00 2.705916e-01 0.0
1.095806e+00 2.549750e-01 0.0
1.065377e+00 2.209964e-01 0.0
1.037863e+00 1.738600e-01 0.0
1.015023e+00 1.199484e-01 0.0
9.980987e-01 6.535528e-02 0.0
9.876670e-01 1.499208e-02 0.0
9.839259e-01 -2.761427e-02 0.0
9.865216e-01 -6.113218e-02 0.0
9.946703e-01 -8.611432e-02 0.0
1.007296e+00 -1.033005e-01 0.0
1.023107e+00 -1.132961e-01 0.0
1.040661e+00 -1.166982e-01 0.0
1.058503e+00 -1.143022e-01 0.0
1.075351e+00 -1.069662e-01 0.0
1.090149e+00 -9.556730e-02 0.0
1.102082e+00 -8.102209e-02 0.0
1.110550e+00 -6.423833e-02 0.0
1.115084e+00 -4.602413e-02 0.0
1.115162e+00 -2.688021e-02 0.0
1.109910e+00 -6.624139e-03 0.0
1.098900e+00 1.471948e-02 0.0
1.082574e+00 3.597321e-02 0.0
1.062151e+00 5.577706e-02 0.0
1.039895e+00 7.209791e-02 0.0
1.019160e+00 8.216488e-02 0.0
1.003785e+00 8.312498e-02 0.0
9.958835e-01 7.432949e-02 0.0
9.952519e-01 5.785916e-02 0.0
1.000347e+00 3.693395e-02 0.0
1.009042e+00 1.520832e-02 0.0
1.019352e+00 -4.058705e-03 0.0
1.030236e+00 -1.922573e-02 0.0
1.041165e+00 -2.979025e-02 0.0
1.051835e+00 -3.591332e-02 0.0
1.062026e+00 -3.824675e-02 0.0
1.071536e+00 -3.773014e-02 0.0
1.080145e+00 -3.523497e-02 0.0
1.087694e+00 -3.153028e-02 0.0
1.094106e+00 -2.724985e-02 0.0
1.099390e+00 -2.286128e-02 0.0
1.103614e+00 -1.864567e-02 0.0
1.106867e+00 -1.467511e-02 0.0
1.109216e+00 -1.089374e-02 0.0
1.110326e+00 -5.861853e-03 0.0
0.000000e+00 -5.499252e-03 0.0
1.000000e+00 -9.270066e-02 0.0
1.009179e+00 -9.275919e-02 0.0
1.020858e+00 -1.067730e-01 0.0
1.038245e+00 -1.369080e-01 0.0
1.067217e+00 -1.875128e-01 0.0
1.118292e+00 -2.655576e-01 0.0
1.206303e+00 -3.658566e-01 0.0
1.382021e+00 -5.678637e-01 0.0
1.434847e+00 -3.586114e-01 0.0
1.439866e+00 -2.148356e-01 0.0
1.433195e+00 -1.396453e-01 0.0
1.423104e+00 -9.812170e-02 0.0
1.411014e+00 -7.534228e-02 0.0
1.397215e+00 -6.502878e-02 0.0
1.382862e+00 -6.451532e-02 0.0
1.372652e+00 -7.418382e-02 0.0
1.373480e+00 -8.882220e-02 0.0
1.386224e+00 -9.402333e-02 0.0
1.407383e+00 -8.202626e-02 0.0
1.431316e+00 -5.363362e-02 0.0
1.449967e+00 -1.478644e-02 0.0
1.459335e+00 2.258216e-02 0.0
1.462819e+00 5.053034e-02 0.0
1.462365e+00 7.210715e-02 0.0
1.459209e+00 9.004566e-02 0.0
1.453214e+00 1.079551e-01 0.0
1.443538e+00 1.281102e-01 0.0
1.429088e+00 1.514786e-01 0.0
1.408771e+00 1.779275e-01 0.0
1.381794e+00 2.062570e-01 0.0
1.347909e+00 2.345576e-01 0.0
1.307517e+00 2.607240e-01 0.0
1.261633e+00 2.828379e-01 0.0
1.211680e+00 2.991688e-01 0.0
1.159220e+00 3.074318e-01 0.0
1.106137e+00 3.031510e-01 0.0
1.054459e+00 2.815070e-01 0.0
1.004608e+00 2.422316e-01 0.0
9.549341e-01 1.905336e-01 0.0
9.068446e-01 1.287430e-01 0.0
8.696971e-01 5.083701e-02 0.0
8.547309e-01 -4.492321e-02 0.0
8.611549e-01 -1.447962e-01 0.0
8.804409e-01 -2.349619e-01 0.0
9.059821e-01 -3.075345e-01 0.0
9.346838e-01 -3.547907e-01 0.0
9.653488e-01 -3.673666e-01 0.0
9.965936e-01 -3.390754e-01 0.0
1.026885e+00 -2.719160e-01 0.0
1.054146e+00 -1.758801e-01 0.0
1.075503e+00 -6.703473e-02 0.0
1.088307e+00 3.707485e-02 0.0
1.092760e+00 1.261866e-01 0.0
1.090102e+00 1.968893e-01 0.0
1.081829e+00 2.476966e-01 0.0
1.069445e+00 2.775759e-01 0.0
1.054231e+00 2.857556e-01 0.0
1.037054e+00 2.721031e-01 0.0
1.019006e+00 2.389947e-01 0.0
1.001292e+00 1.915249e-01 0.0
9.850960e-01 1.360945e-01 0.0
9.714821e-01 7.891959e-02 0.0
9.614851e-01 2.493952e-02 0.0
9.563229e-01 -2.250158e-02 0.0
9.566625e-01 -6.152130e-02 0.0
9.622892e-01 -9.179054e-02 0.0
9.722918e-01 -1.133527e-01 0.0
9.853447e-01 -1.263986e-01 0.0
9.999463e-01 -1.313494e-01 0.0
1.014573e+00 -1.289784e-01 0.0
1.027869e+00 -1.203117e-01 0.0
1.038753e+00 -1.065011e-01 0.0
1.046416e+00 -8.873464e-02 0.0
1.050237e+00 -6.810872e-02 0.0
1.049620e+00 -4.545662e-02 0.0
1.043737e+00 -2.104710e-02 0.0
1.031741e+00 5.322313e-03 0.0
1.014355e+00 3.205639e-02 0.0
9.930860e-01 5.719236e-02 0.0
9.704969e-01 7.831666e-02 0.0
9.501267e-01 9.241855e-02 0.0
9.357206e-01 9.652134e-02 0.0
9.292100e-01 8.958607e-02 0.0
9.297338e-01 7.375604e-02 0.0
9.353296e-01 5.221379e-02 0.0
9.437339e-01 2.848010e-02 0.0
9.531308e-01 5.761851e-03 0.0
9.627229e-01 -1.370035e-02 0.0
9.724630e-01 -2.901539e-02 0.0
9.824257e-01 -3.980256e-02 0.0
9.925897e-01 -4.612689e-02 0.0
1.002763e+00 -4.846946e-02 0.0
1.012597e+00 -4.761370e-02 0.0
1.021723e+00 -4.441022e-02 0.0
1.029840e+00 -3.969740e-02 0.0
1.036759e+00 -3.421815e-02 0.0
1.042403e+00 -2.855497e-02 0.0
1.046793e+00 -2.308491e-02 0.0
1.050017e+00 -1.794860e-02 0.0
1.052168e+00 -1.309449e-02 0.0
1.053068e+00 -6.811887e-03 0.0
0.000000e+00 -6.275239e-03 0.0
1.000000e+00 -9.420233e-02 0.0
1.001335e+00 -9.428358e-02 0.0
1.003820e+00 -1.093071e-01 0.0
1.009367e+00 -1.425049e-01 0.0
1.023150e+00 -2.013451e-01 0.0
1.057326e+00 -2.997835e-01 0.0
1.139451e+00 -4.480311e-01 0.0
1.348529e+00 -7.769906e-01 0.0
1.327607e+00 -3.377394e-01 0.0
1.271658e+00 -1.589357e-01 0.0
1.226624e+00 -9.466043e-02 0.0
1.188906e+00 -6.045318e-02 0.0
1.153153e+00 -3.963877e-02 0.0
1.114936e+00 -2.686142e-02 0.0
1.071487e+00 -2.111640e-02 0.0
1.023939e+00 -2.668519e-02 0.0
9.868520e-01 -5.178430e-02 0.0
9.758470e-01 -8.306785e-02 0.0
9.895625e-01 -9.579121e-02 0.0
1.021731e+00 -8.585191e-02 0.0
1.065184e+00 -5.828879e-02 0.0
1.108315e+00 -2.059820e-02 0.0
1.141940e+00 1.685639e-02 0.0
1.168954e+00 4.504327e-02 0.0
1.193134e+00 6.581642e-02 0.0
1.214163e+00 8.687600e-02 0.0
1.230663e+00 1.115616e-01 0.0
1.241126e+00 1.409659e-01 0.0
1.243919e+00 1.750852e-01 0.0
1.237782e+00 2.123441e-01 0.0
1.222197e+00 2.500931e-01 0.0
1.197511e+00 2.853608e-01 0.0
1.164922e+00 3.153767e-01 0.0
1.126392e+00 3.376500e-01 0.0
1.084099e+00 3.496754e-01 0.0
1.038304e+00 3.488963e-01 0.0
9.851766e-01 3.345848e-01 0.0
9.196301e-01 3.077287e-01 0.0
8.480052e-01 2.621090e-01 0.0
7.943228e-01 1.823758e-01 0.0
7.775401e-01 6.757025e-02 0.0
7.910489e-01 -5.848154e-02 0.0
8.165923e-01 -1.703891e-01 0.0
8.424083e-01 -2.608274e-01 0.0
8.647141e-01 -3.298898e-01 0.0
8.841619e-01 -3.742880e-01 0.0
9.023408e-01 -3.855950e-01 0.0
9.199636e-01 -3.567477e-01 0.0
9.373598e-01 -2.893617e-01 0.0
9.544624e-01 -1.930323e-01 0.0
9.700266e-01 -8.264837e-02 0.0
9.816134e-01 2.543845e-02 0.0
9.883414e-01 1.194091e-01 0.0
9.904593e-01 1.947220e-01 0.0
9.887231e-01 2.493832e-01 0.0
9.840889e-01 2.821606e-01 0.0
9.773588e-01 2.924362e-01 0.0
9.688425e-01 2.805698e-01 0.0
9.587876e-01 2.490001e-01 0.0
9.476376e-01 2.026254e-01 0.0
9.361739e-01 1.475087e-01 0.0
9.256366e-01 8.940731e-02 0.0
9.176755e-01 3.285106e-02 0.0
9.140277e-01 -1.890330e-02 0.0
9.157463e-01 -6.328942e-02 0.0
9.225436e-01 -9.863741e-02 0.0
9.332246e-01 -1.240833e-01 0.0
9.462196e-01 -1.394431e-01 0.0
9.599155e-01 -1.450949e-01 0.0
9.727775e-01 -1.418899e-01 0.0
9.834634e-01 -1.310471e-01 0.0
9.909288e-01 -1.140161e-01 0.0
9.943874e-01 -9.224282e-02 0.0
9.931799e-01 -6.695077e-02 0.0
9.865748e-01 -3.890111e-02 0.0
9.737236e-01 -8.245409e-03 0.0
9.553590e-01 2.363738e-02 0.0
9.334324e-01 5.393339e-02 0.0
9.107258e-01 7.984940e-02 0.0
8.907521e-01 9.824084e-02 0.0
8.768991e-01 1.062220e-01 0.0
8.708293e-01 1.025416e-01 0.0
8.712625e-01 8.910325e-02 0.0
8.760168e-01 6.895220e-02 0.0
8.828734e-01 4.530766e-02 0.0
8.902598e-01 2.104408e-02 0.0
8.976212e-01 -1.649119e-03 0.0
9.053604e-01 -2.148912e-02 0.0
9.139436e-01 -3.764812e-02 0.0
9.235582e-01 -4.946672e-02 0.0
9.340600e-01 -5.667823e-02 0.0
9.450227e-01 -5.948171e-02 0.0
9.558500e-01 -5.849060e-02 0.0
9.659620e-01 -5.457184e-02 0.0
9.748883e-01 -4.867324e-02 0.0
9.823058e-01 -4.168526e-02 0.0
9.880441e-01 -3.434282e-02 0.0
9.920748e-01 -2.716516e-02 0.0
9.945143e-01 -2.043763e-02 0.0
9.955535e-01 -1.418325e-02 0.0
9.959263e-01 -7.234266e-03 0.0
0.000000e+00 -6.467277e-03 0.0
1.000000e+00 -8.717341e-02 0.0
9.928044e-01 -8.727749e-02 0.0
9.844929e-01 -1.010451e-01 0.0
9.739483e-01 -1.320097e-01 0.0
9.615563e-01 -1.890025e-01 0.0
9.523174e-01 -2.905940e-01 0.0
9.726212e-01 -4.683844e-01 0.0
1.125342e+00 -9.297607e-01 0.0
9.693358e-01 -1.816426e-01 0.0
8.266054e-01 -1.611474e-02 0.0
7.496931e-01 -1.779754e-02 0.0
6.974409e-01 -8.250501e-03 0.0
6.463351e-01 1.141759e-02 0.0
5.855365e-01 3.388780e-02 0.0
5.137310e-01 5.063963e-02 0.0
4.417547e-01 4.524161e-02 0.0
3.876879e-01 2.233001e-03 0.0
3.664377e-01 -6.186705e-02 0.0
3.831117e-01 -1.125147e-01 0.0
4.266048e-01 -1.293945e-01 0.0
4.902084e-01 -1.219418e-01 0.0
5.688540e-01 -9.929327e-02 0.0
6.548641e-01 -6.920319e-02 0.0
7.369582e-01 -3.710030e-02 0.0
8.077319e-01 -5.006784e-03 0.0
8.678156e-01 2.674284e-02 0.0
9.198137e-01 5.951408e-02 0.0
9.632638e-01 9.746636e-02 0.0
9.960695e-01 1.422300e-01 0.0
1.016454e+00 1.919102e-01 0.0
1.023608e+00 2.428898e-01 0.0
1.017680e+00 2.912394e-01 0.0
9.994918e-01 3.335152e-01 0.0
9.700073e-01 3.670850e-01 0.0
9.290544e-01 3.905788e-01 0.0
8.723908e-01 4.055104e-01 0.0
7.956656e-01 4.112605e-01 0.0
7.154828e-01 3.878619e-01 0.0
6.659637e-01 3.115786e-01 0.0
6.658103e-01 1.824797e-01 0.0
7.024050e-01 3.092606e-02 0.0
7.494013e-01 -1.055273e-01 0.0
7.917473e-01 -2.127847e-01 0.0
8.234636e-01 -2.925932e-01 0.0
8.437092e-01 -3.501849e-01 0.0
8.555893e-01 -3.862176e-01 0.0
8.633180e-01 -3.933732e-01 0.0
8.696914e-01 -3.631705e-01 0.0
8.762093e-01 -2.959291e-01 0.0
8.838054e-01 -2.006780e-01 0.0
8.923184e-01 -9.121082e-02 0.0
9.000751e-01 1.763217e-02 0.0
9.056235e-01 1.138112e-01 0.0
9.085825e-01 1.917135e-01 0.0
9.091784e-01 2.487378e-01 0.0
9.079134e-01 2.833760e-01 0.0
9.051814e-01 2.951187e-01 0.0
9.008218e-01 2.848798e-01 0.0
8.945486e-01 2.552238e-01 0.0
8.865055e-01 2.106189e-01 0.0
8.776961e-01 1.562686e-01 0.0
8.700193e-01 9.703453e-02 0.0
8.657086e-01 3.711221e-02 0.0
8.664643e-01 -1.970848e-02 0.0
8.727343e-01 -6.960904e-02 0.0
8.834707e-01 -1.094233e-01 0.0
8.969388e-01 -1.376009e-01 0.0
9.113519e-01 -1.539058e-01 0.0
9.251138e-01 -1.589063e-01 0.0
9.367973e-01 -1.536229e-01 0.0
9.451874e-01 -1.394867e-01 0.0
9.493246e-01 -1.182029e-01 0.0
9.484457e-01 -9.141340e-02 0.0
9.418753e-01 -6.042997e-02 0.0
9.290313e-01 -2.610666e-02 0.0
9.103816e-01 1.035472e-02 0.0
8.884199e-01 4.554957e-02 0.0
8.660324e-01 7.627126e-02 0.0
8.465281e-01 9.930421e-02 0.0
8.328255e-01 1.118939e-01 0.0
8.262197e-01 1.127782e-01 0.0
8.254011e-01 1.033105e-01 0.0
8.281658e-01 8.628907e-02 0.0
8.324926e-01 6.457582e-02 0.0
8.370780e-01 4.067269e-02 0.0
8.416196e-01 1.645289e-02 0.0
8.467098e-01 -6.788937e-03 0.0
8.532196e-01 -2.804840e-02 0.0
8.615730e-01 -4.605109e-02 0.0
8.717080e-01 -5.965131e-02 0.0
8.831680e-01 -6.818781e-02 0.0
8.952440e-01 -7.160725e-02 0.0
9.071182e-01 -7.041438e-02 0.0
9.180276e-01 -6.553083e-02 0.0
9.273568e-01 -5.805199e-02 0.0
9.346673e-01 -4.904535e-02 0.0
9.397071e-01 -3.943221e-02 0.0
9.424284e-01 -2.993604e-02 0.0
9.430501e-01 -2.110887e-02 0.0
9.420734e-01 -1.325616e-02 0.0
9.416821e-01 -6.892527e-03 0.0
0.000000e+00 -5.870060e-03 0.0
1.000000e+00 -7.226809e-02 0.0
9.849243e-01 -7.239134e-02 0.0
9.661411e-01 -8.231139e-02 0.0
9.383957e-01 -1.043137e-01 0.0
8.930939e-01 -1.437501e-01 0.0
8.130390e-01 -2.105886e-01 0.0
6.721888e-01 -3.275836e-01 0.0
1.819228e-01 -4.394040e-01 0.0
-9.672956e-01 4.389755e-01 0.0
0.000000e+00 -1.291588e-02 0.0
-4.787889e-02 1.377704e-02 0.0
-3.887525e-02 -1.730360e-02 0.0
-1.444484e-02 -1.306228e-02 0.0
1.569673e-02 3.696776e-03 0.0
3.397472e-02 3.231218e-02 0.0
3.608278e-02 4.308409e-02 0.0
1.611134e-02 2.215499e-02 0.0
-1.629003e-02 -2.951514e-02 0.0
-3.819794e-02 -9.065621e-02 0.0
-2.796783e-02 -1.396741e-01 0.0
1.624519e-02 -1.662043e-01 0.0
9.107328e-02 -1.741708e-01 0.0
1.899791e-01 -1.681585e-01 0.0
3.025239e-01 -1.496945e-01 0.0
4.191488e-01 -1.216812e-01 0.0
5.272225e-01 -8.138028e-02 0.0
6.156284e-01 -2.894132e-02 0.0
6.840435e-01 2.900178e-02 0.0
7.376481e-01 8.857591e-02 0.0
7.753821e-01 1.541267e-01 0.0
7.961162e-01 2.221063e-01 0.0
7.992484e-01 2.880577e-01 0.0
7.841190e-01 3.485951e-01 0.0
7.493926e-01 4.017620e-01 0.0
6.931863e-01 4.467356e-01 0.0
6.186127e-01 4.800345e-01 0.0
5.501987e-01 4.796250e-01 0.0
5.198115e-01 4.181995e-01 0.0
5.398979e-01 2.914428e-01 0.0
5.978036e-01 1.245245e-01 0.0
6.690850e-01 -4.040484e-02 0.0
7.346577e-01 -1.711495e-01 0.0
7.874986e-01 -2.656750e-01 0.0
8.238498e-01 -3.289939e-01 0.0
8.429577e-01 -3.693423e-01 0.0
8.482993e-01 -3.916087e-01 0.0
8.465083e-01 -3.916317e-01 0.0
8.429839e-01 -3.596956e-01 0.0
8.401990e-01 -2.931937e-01 0.0
8.392466e-01 -1.997751e-01 0.0
8.404420e-01 -9.245568e-02 0.0
8.428267e-01 1.519794e-02 0.0
8.450039e-01 1.115844e-01 0.0
8.462169e-01 1.904510e-01 0.0
8.462799e-01 2.486253e-01 0.0
8.452577e-01 2.843487e-01 0.0
8.430523e-01 2.972745e-01 0.0
8.391713e-01 2.887113e-01 0.0
8.332807e-01 2.610649e-01 0.0
8.259878e-01 2.178623e-01 0.0
8.191258e-01 1.630811e-01 0.0
8.152082e-01 1.009025e-01 0.0
8.163900e-01 3.588091e-02 0.0
8.236209e-01 -2.698896e-02 0.0
8.361036e-01 -8.214126e-02 0.0
8.518951e-01 -1.252644e-01 0.0
8.688117e-01 -1.545670e-01 0.0
8.849739e-01 -1.701175e-01 0.0
8.989071e-01 -1.728891e-01 0.0
9.094012e-01 -1.641666e-01 0.0
9.154721e-01 -1.456072e-01 0.0
9.163031e-01 -1.190834e-01 0.0
9.112252e-01 -8.638503e-02 0.0
8.998070e-01 -4.906138e-02 0.0
8.824027e-01 -8.751897e-03 0.0
8.615322e-01 3.117565e-02 0.0
8.401590e-01 6.687317e-02 0.0
8.213055e-01 9.507522e-02 0.0
8.074272e-01 1.131329e-01 0.0
7.995132e-01 1.197584e-01 0.0
7.965285e-01 1.157133e-01 0.0
7.964595e-01 1.033300e-01 0.0
7.976028e-01 8.509620e-02 0.0
7.989488e-01 6.318027e-02 0.0
8.003666e-01 3.920536e-02 0.0
8.024695e-01 1.430035e-02 0.0
8.062646e-01 -1.063356e-02 0.0
8.124666e-01 -3.430001e-02 0.0
8.211960e-01 -5.482998e-02 0.0
8.320703e-01 -7.057521e-02 0.0
8.443664e-01 -8.053344e-02 0.0
8.571743e-01 -8.446478e-02 0.0
8.695266e-01 -8.281620e-02 0.0
8.805450e-01 -7.659883e-02 0.0
8.895252e-01 -6.708180e-02 0.0
8.959628e-01 -5.553250e-02 0.0
8.995829e-01 -4.310186e-02 0.0
9.004101e-01 -3.081284e-02 0.0
8.989095e-01 -1.965783e-02 0.0
8.961352e-01 -1.053140e-02 0.0
8.951419e-01 -5.948774e-03 0.0
0.000000e+00 -4.711184e-03 0.0
1.000000e+00 -5.171136e-02 0.0
9.792661e-01 -5.184703e-02 0.0
9.531629e-01 -5.625764e-02 0.0
9.139143e-01 -6.511446e-02 0.0
8.477180e-01 -7.760333e-02 0.0
7.253587e-01 -8.827878e-02 0.0
4.742162e-01 -7.649054e-02 0.0
-4.682242e-03 3.958511e-02 0.0
-1.403261e-04 0.000000e+00 0.0
0.000000e+00 -0.000000e+00 0.0
0.000000e+00 3.406135e-02 0.0
1.913214e-02 -3.648519e-02 0.0
-3.499275e-02 4.101315e-02 0.0
-8.498410e-02 5.363866e-02 0.0
-1.279515e-01 7.523016e-02 0.0
-1.566248e-01 7.170794e-02 0.0
-1.831418e-01 4.862250e-02 0.0