# vtk DataFile Version 3.0
Vector Field
ASCII
DATASET RECTILINEAR_GRID
DIMENSIONS 102 22 1
X_COORDINATES 102 double
0.000000 0.100000 0.200000 0.300000 0.400000 0.500000 0.600000 0.700000 0.800000 0.900000 1.000000 1.100000 1.200000 1.300000 1.400000 1.500000 1.600000 1.700000 1.800000 1.900000 2.000000 2.100000 2.200000 2.300000 2.400000 2.500000 2.600000 2.700000 2.800000 2.900000 3.000000 3.100000 3.200000 3.300000 3.400000 3.500000 3.600000 3.700000 3.800000 3.900000 4.000000 4.100000 4.200000 4.300000 4.400000 4.500000 4.600000 4.700000 4.800000 4.900000 5.000000 5.100000 5.200000 5.300000 5.400000 5.500000 5.600000 5.700000 5.800000 5.900000 6.000000 6.100000 6.200000 6.300000 6.400000 6.500000 6.600000 6.700000 6.800000 6.900000 7.000000 7.100000 7.200000 7.300000 7.400000 7.500000 7.600000 7.700000 7.800000 7.900000 8.000000 8.100000 8.200000 8.300000 8.400000 8.500000 8.600000 8.700000 8.800000 8.900000 9.000000 9.100000 9.200000 9.300000 9.400000 9.500000 9.600000 9.700000 9.800000 9.900000 10.000000 10.100000 
Y_COORDINATES 22 double
0.000000 0.100000 0.200000 0.300000 0.400000 0.500000 0.600000 0.700000 0.800000 0.900000 1.000000 1.100000 1.200000 1.300000 1.400000 1.500000 1.600000 1.700000 1.800000 1.900000 2.000000 2.100000 
Z_COORDINATES 1 double
0.0
POINT_DATA 2244
VECTORS Velocity double
0.000000e+00 0.000000e+00 0.0
-1.021936e+00 0.000000e+00 0.0
-1.044909e+00 0.000000e+00 0.0
-1.068939e+00 0.000000e+00 0.0
-1.093744e+00 0.000000e+00 0.0
-1.118175e+00 0.000000e+00 0.0
-1.139917e+00 0.000000e+00 0.0
-1.155600e+00 0.000000e+00 0.0
-1.161758e+00 0.000000e+00 0.0
-1.156647e+00 0.000000e+00 0.0
-1.141439e+00 0.000000e+00 0.0
-1.119446e+00 0.000000e+00 0.0
-1.094565e+00 0.000000e+00 0.0
-1.070066e+00 0.000000e+00 0.0
-1.048097e+00 0.000000e+00 0.0
-1.029718e+00 0.000000e+00 0.0
-1.015174e+00 0.000000e+00 0.0
-1.004205e+00 0.000000e+00 0.0
-9.962999e-01 0.000000e+00 0.0
-9.908692e-01 0.000000e+00 0.0
-9.873486e-01 0.000000e+00 0.0
-9.852477e-01 0.000000e+00 0.0
-9.841662e-01 0.000000e+00 0.0
-9.837919e-01 0.000000e+00 0.0
-9.838895e-01 0.000000e+00 0.0
-9.842866e-01 0.000000e+00 0.0
-9.848602e-01 0.000000e+00 0.0
-9.855248e-01 0.000000e+00 0.0
-9.862223e-01 0.000000e+00 0.0
-9.869152e-01 0.000000e+00 0.0
-9.875797e-01 0.000000e+00 0.0
-9.882024e-01 0.000000e+00 0.0
-9.887765e-01 0.000000e+00 0.0
-9.892998e-01 0.000000e+00 0.0
-9.897730e-01 0.000000e+00 0.0
-9.901986e-01 0.000000e+00 0.0
-9.905802e-01 0.000000e+00 0.0
-9.909218e-01 0.000000e+00 0.0
-9.912276e-01 0.000000e+00 0.0
-9.915018e-01 0.000000e+00 0.0
-9.917483e-01 0.000000e+00 0.0
-9.919706e-01 0.000000e+00 0.0
-9.921721e-01 0.000000e+00 0.0
-9.923558e-01 0.000000e+00 0.0
-9.925243e-01 0.000000e+00 0.0
-9.926800e-01 0.000000e+00 0.0
-9.928249e-01 0.000000e+00 0.0
-9.929607e-01 0.000000e+00 0.0
-9.930890e-01 0.000000e+00 0.0
-9.932113e-01 0.000000e+00 0.0
-9.933285e-01 0.000000e+00 0.0
-9.934418e-01 0.000000e+00 0.0
-9.935519e-01 0.000000e+00 0.0
-9.936595e-01 0.000000e+00 0.0
-9.937654e-01 0.000000e+00 0.0
-9.938700e-01 0.000000e+00 0.0
-9.939737e-01 0.000000e+00 0.0
-9.940769e-01 0.000000e+00 0.0
-9.941799e-01 0.000000e+00 0.0
-9.942830e-01 0.000000e+00 0.0
-9.943863e-01 0.000000e+00 0.0
-9.944901e-01 0.000000e+00 0.0
-9.945944e-01 0.000000e+00 0.0
-9.946995e-01 0.000000e+00 0.0
-9.948053e-01 0.000000e+00 0.0
-9.949119e-01 0.000000e+00 0.0
-9.950194e-01 0.000000e+00 0.0
-9.951279e-01 0.000000e+00 0.0
-9.952372e-01 0.000000e+00 0.0
-9.953476e-01 0.000000e+00 0.0
-9.954588e-01 0.000000e+00 0.0
-9.955710e-01 0.000000e+00 0.0
-9.956841e-01 0.000000e+00 0.0
-9.957982e-01 0.000000e+00 0.0
-9.959131e-01 0.000000e+00 0.0
-9.960289e-01 0.000000e+00 0.0
-9.961455e-01 0.000000e+00 0.0
-9.962629e-01 0.000000e+00 0.0
-9.963811e-01 0.000000e+00 0.0
-9.965001e-01 0.000000e+00 0.0
-9.966198e-01 0.000000e+00 0.0
-9.967402e-01 0.000000e+00 0.0
-9.968613e-01 0.000000e+00 0.0
-9.969830e-01 0.000000e+00 0.0
-9.971054e-01 0.000000e+00 0.0
-9.972284e-01 0.000000e+00 0.0
-9.973521e-01 0.000000e+00 0.0
-9.974764e-01 0.000000e+00 0.0
-9.976016e-01 0.000000e+00 0.0
-9.977276e-01 0.000000e+00 0.0
-9.978546e-01 0.000000e+00 0.0
-9.979829e-01 0.000000e+00 0.0
-9.981130e-01 0.000000e+00 0.0
-9.982456e-01 0.000000e+00 0.0
-9.983818e-01 0.000000e+00 0.0
-9.985239e-01 0.000000e+00 0.0
-9.986762e-01 0.000000e+00 0.0
-9.988478e-01 0.000000e+00 0.0
-9.990614e-01 0.000000e+00 0.0
-9.993796e-01 0.000000e+00 0.0
-9.993796e-01 0.000000e+00 0.0
0.000000e+00 0.000000e+00 0.0
1.000000e+00 -2.223783e-02 0.0
1.023777e+00 -2.630463e-02 0.0
1.049978e+00 -2.764957e-02 0.0
1.077957e+00 -2.942439e-02 0.0
1.107523e+00 -3.100685e-02 0.0
1.137403e+00 -3.131562e-02 0.0
1.164820e+00 -2.884703e-02 0.0
1.185636e+00 -2.223815e-02 0.0
1.195717e+00 -1.149562e-02 0.0
1.193412e+00 8.981970e-04 0.0
1.180191e+00 1.182218e-02 0.0
1.159317e+00 1.948447e-02 0.0
1.134559e+00 2.337678e-02 0.0
1.109216e+00 2.397165e-02 0.0
1.085643e+00 2.221166e-02 0.0
1.065195e+00 1.909661e-02 0.0
1.048396e+00 1.545690e-02 0.0
1.035198e+00 1.186850e-02 0.0
1.025216e+00 8.662354e-03 0.0
1.017928e+00 5.981591e-03 0.0
1.012785e+00 3.847295e-03 0.0
1.009290e+00 2.213052e-03 0.0
1.007018e+00 1.002937e-03 0.0
1.005628e+00 1.347070e-04 0.0
1.004854e+00 -4.681987e-04 0.0
1.004498e+00 -8.710050e-04 0.0
1.004412e+00 -1.126662e-03 0.0
1.004491e+00 -1.276519e-03 0.0
1.004661e+00 -1.351991e-03 0.0
1.004872e+00 -1.376435e-03 0.0
1.005088e+00 -1.366902e-03 0.0
1.005290e+00 -1.335636e-03 0.0
1.005465e+00 -1.291280e-03 0.0
1.005605e+00 -1.239826e-03 0.0
1.005707e+00 -1.185341e-03 0.0
1.005773e+00 -1.130509e-03 0.0
1.005802e+00 -1.077036e-03 0.0
1.005798e+00 -1.025944e-03 0.0
1.005764e+00 -9.777840e-04 0.0
1.005704e+00 -9.327916e-04 0.0
1.005619e+00 -8.909930e-04 0.0
1.005515e+00 -8.522831e-04 0.0
1.005393e+00 -8.164791e-04 0.0
1.005257e+00 -7.833563e-04 0.0
1.005109e+00 -7.526735e-04 0.0
1.004952e+00 -7.241862e-04 0.0
1.004786e+00 -6.976607e-04 0.0
1.004615e+00 -6.728791e-04 0.0
1.004439e+00 -6.496411e-04 0.0
1.004260e+00 -6.277661e-04 0.0
1.004080e+00 -6.070933e-04 0.0
1.003898e+00 -5.874806e-04 0.0
1.003717e+00 -5.688040e-04 0.0
1.003536e+00 -5.509556e-04 0.0
1.003357e+00 -5.338425e-04 0.0
1.003179e+00 -5.173848e-04 0.0
1.003004e+00 -5.015148e-04 0.0
1.002832e+00 -4.861751e-04 0.0
1.002662e+00 -4.713172e-04 0.0
1.002496e+00 -4.569009e-04 0.0
1.002334e+00 -4.428927e-04 0.0
1.002175e+00 -4.292654e-04 0.0
1.002019e+00 -4.159967e-04 0.0
1.001868e+00 -4.030688e-04 0.0
1.001721e+00 -3.904680e-04 0.0
1.001577e+00 -3.781834e-04 0.0
1.001438e+00 -3.662074e-04 0.0
1.001303e+00 -3.545343e-04 0.0
1.001171e+00 -3.431609e-04 0.0
1.001044e+00 -3.320852e-04 0.0
1.000920e+00 -3.213070e-04 0.0
1.000800e+00 -3.108271e-04 0.0
1.000684e+00 -3.006474e-04 0.0
1.000572e+00 -2.907707e-04 0.0
1.000463e+00 -2.812004e-04 0.0
1.000357e+00 -2.719407e-04 0.0
1.000255e+00 -2.629961e-04 0.0
1.000156e+00 -2.543720e-04 0.0
1.000060e+00 -2.460741e-04 0.0
9.999677e-01 -2.381088e-04 0.0
9.998778e-01 -2.304833e-04 0.0
9.997907e-01 -2.232057e-04 0.0
9.997062e-01 -2.162853e-04 0.0
9.996243e-01 -2.097335e-04 0.0
9.995448e-01 -2.035636e-04 0.0
9.994676e-01 -1.977930e-04 0.0
9.993927e-01 -1.924437e-04 0.0
9.993200e-01 -1.875453e-04 0.0
9.992494e-01 -1.831382e-04 0.0
9.991810e-01 -1.792795e-04 0.0
9.991149e-01 -1.760521e-04 0.0
9.990513e-01 -1.735811e-04 0.0
9.989906e-01 -1.720625e-04 0.0
9.989337e-01 -1.718200e-04 0.0
9.988817e-01 -1.734222e-04 0.0
9.988371e-01 -1.779492e-04 0.0
9.988045e-01 -1.876619e-04 0.0
9.987939e-01 -2.078773e-04 0.0
9.988295e-01 -2.528538e-04 0.0
9.989793e-01 -3.663583e-04 0.0
9.993796e-01 -6.167425e-04 0.0
0.000000e+00 -1.987347e-04 0.0
1.000000e+00 -4.443948e-02 0.0
1.023767e+00 -5.152261e-02 0.0
1.049703e+00 -5.396090e-02 0.0
1.077835e+00 -5.793103e-02 0.0
1.108581e+00 -6.212531e-02 0.0
1.141103e+00 -6.420784e-02 0.0
1.172528e+00 -6.064123e-02 0.0
1.197456e+00 -4.753211e-02 0.0
1.209392e+00 -2.379562e-02 0.0
1.206028e+00 3.900619e-03 0.0
1.189837e+00 2.765419e-02 0.0
1.165256e+00 4.370896e-02 0.0
1.137093e+00 5.118622e-02 0.0
1.109227e+00 5.148653e-02 0.0
1.084149e+00 4.694133e-02 0.0
1.063072e+00 3.982746e-02 0.0
1.046264e+00 3.192156e-02 0.0
1.033418e+00 2.437420e-02 0.0
1.023954e+00 1.779008e-02 0.0
1.017214e+00 1.238722e-02 0.0
1.012581e+00 8.150426e-03 0.0
1.009521e+00 4.946603e-03 0.0
1.007601e+00 2.599177e-03 0.0
1.006487e+00 9.302296e-04 0.0
1.005922e+00 -2.190168e-04 0.0
1.005720e+00 -9.807772e-04 0.0
1.005746e+00 -1.460280e-03 0.0
1.005905e+00 -1.738585e-03 0.0
1.006130e+00 -1.876636e-03 0.0
1.006378e+00 -1.919371e-03 0.0
1.006620e+00 -1.899361e-03 0.0
1.006838e+00 -1.839833e-03 0.0
1.007022e+00 -1.757085e-03 0.0
1.007168e+00 -1.662341e-03 0.0
1.007273e+00 -1.563160e-03 0.0
1.007339e+00 -1.464481e-03 0.0
1.007368e+00 -1.369400e-03 0.0
1.007364e+00 -1.279724e-03 0.0
1.007329e+00 -1.196387e-03 0.0
1.007267e+00 -1.119730e-03 0.0
1.007181e+00 -1.049715e-03 0.0
1.007076e+00 -9.860626e-04 0.0
1.006954e+00 -9.283553e-04 0.0
1.006817e+00 -8.761049e-04 0.0
1.006669e+00 -8.287977e-04 0.0
1.006511e+00 -7.859236e-04 0.0
1.006345e+00 -7.469954e-04 0.0
1.006174e+00 -7.115592e-04 0.0
1.005999e+00 -6.792003e-04 0.0
1.005820e+00 -6.495440e-04 0.0
1.005640e+00 -6.222561e-04 0.0
1.005459e+00 -5.970408e-04 0.0
1.005279e+00 -5.736382e-04 0.0
1.005099e+00 -5.518215e-04 0.0
1.004920e+00 -5.313933e-04 0.0
1.004743e+00 -5.121832e-04 0.0
1.004569e+00 -4.940444e-04 0.0
1.004398e+00 -4.768508e-04 0.0
1.004229e+00 -4.604946e-04 0.0
1.004064e+00 -4.448843e-04 0.0
1.003902e+00 -4.299419e-04 0.0
1.003744e+00 -4.156018e-04 0.0
1.003590e+00 -4.018087e-04 0.0
1.003440e+00 -3.885163e-04 0.0
1.003293e+00 -3.756862e-04 0.0
1.003151e+00 -3.632866e-04 0.0
1.003012e+00 -3.512913e-04 0.0
1.002877e+00 -3.396792e-04 0.0
1.002747e+00 -3.284333e-04 0.0
1.002620e+00 -3.175402e-04 0.0
1.002497e+00 -3.069895e-04 0.0
1.002377e+00 -2.967737e-04 0.0
1.002262e+00 -2.868872e-04 0.0
1.002150e+00 -2.773266e-04 0.0
1.002041e+00 -2.680901e-04 0.0
1.001936e+00 -2.591774e-04 0.0
1.001835e+00 -2.505897e-04 0.0
1.001736e+00 -2.423295e-04 0.0
1.001641e+00 -2.344006e-04 0.0
1.001548e+00 -2.268085e-04 0.0
1.001459e+00 -2.195602e-04 0.0
1.001372e+00 -2.126650e-04 0.0
1.001287e+00 -2.061349e-04 0.0
1.001206e+00 -1.999855e-04 0.0
1.001126e+00 -1.942374e-04 0.0
1.001049e+00 -1.889179e-04 0.0
1.000974e+00 -1.840643e-04 0.0
1.000901e+00 -1.797274e-04 0.0
1.000831e+00 -1.759785e-04 0.0
1.000762e+00 -1.729188e-04 0.0
1.000695e+00 -1.706953e-04 0.0
1.000631e+00 -1.695270e-04 0.0
1.000570e+00 -1.697499e-04 0.0
1.000511e+00 -1.718983e-04 0.0
1.000457e+00 -1.768567e-04 0.0
1.000407e+00 -1.861582e-04 0.0
1.000365e+00 -2.025767e-04 0.0
1.000331e+00 -2.312774e-04 0.0
1.000303e+00 -2.816856e-04 0.0
1.000247e+00 -3.679844e-04 0.0
1.000077e+00 -5.042054e-04 0.0
0.000000e+00 -1.157632e-05 0.0
1.000000e+00 -6.506742e-02 0.0
1.021500e+00 -7.447346e-02 0.0
1.045837e+00 -7.867329e-02 0.0
1.073620e+00 -8.608830e-02 0.0
1.106253e+00 -9.513020e-02 0.0
1.144084e+00 -1.024098e-01 0.0
1.184666e+00 -1.015915e-01 0.0
1.220031e+00 -8.326292e-02 0.0
1.236350e+00 -4.047852e-02 0.0
1.230146e+00 9.743703e-03 0.0
1.206971e+00 5.047101e-02 0.0
1.173911e+00 7.641314e-02 0.0
1.138270e+00 8.647380e-02 0.0
1.105165e+00 8.424043e-02 0.0
1.077216e+00 7.454248e-02 0.0
1.055161e+00 6.153702e-02 0.0
1.038614e+00 4.812506e-02 0.0
1.026693e+00 3.595533e-02 0.0
1.018406e+00 2.574075e-02 0.0
1.012847e+00 1.761322e-02 0.0
1.009267e+00 1.139974e-02 0.0
1.007086e+00 6.801713e-03 0.0
1.005865e+00 3.496795e-03 0.0
1.005287e+00 1.189101e-03 0.0
1.005124e+00 -3.708691e-04 0.0
1.005215e+00 -1.383280e-03 0.0
1.005450e+00 -2.002957e-03 0.0
1.005755e+00 -2.346658e-03 0.0
1.006080e+00 -2.500722e-03 0.0
1.006394e+00 -2.527947e-03 0.0
1.006677e+00 -2.473314e-03 0.0
1.006920e+00 -2.368561e-03 0.0
1.007117e+00 -2.235722e-03 0.0
1.007268e+00 -2.089797e-03 0.0
1.007373e+00 -1.940749e-03 0.0
1.007435e+00 -1.794974e-03 0.0
1.007459e+00 -1.656371e-03 0.0
1.007448e+00 -1.527115e-03 0.0
1.007407e+00 -1.408218e-03 0.0
1.007338e+00 -1.299918e-03 0.0
1.007246e+00 -1.201957e-03 0.0
1.007135e+00 -1.113780e-03 0.0
1.007007e+00 -1.034664e-03 0.0
1.006865e+00 -9.638099e-04 0.0
1.006712e+00 -9.004005e-04 0.0
1.006550e+00 -8.436401e-04 0.0
1.006381e+00 -7.927768e-04 0.0
1.006207e+00 -7.471156e-04 0.0
1.006029e+00 -7.060243e-04 0.0
1.005848e+00 -6.689345e-04 0.0
1.005666e+00 -6.353404e-04 0.0
1.005483e+00 -6.047950e-04 0.0
1.005301e+00 -5.769056e-04 0.0
1.005120e+00 -5.513293e-04 0.0
1.004940e+00 -5.277680e-04 0.0
1.004762e+00 -5.059632e-04 0.0
1.004587e+00 -4.856919e-04 0.0
1.004414e+00 -4.667621e-04 0.0
1.004245e+00 -4.490090e-04 0.0
1.004079e+00 -4.322916e-04 0.0
1.003917e+00 -4.164897e-04 0.0
1.003758e+00 -4.015008e-04 0.0
1.003604e+00 -3.872379e-04 0.0
1.003453e+00 -3.736276e-04 0.0
1.003306e+00 -3.606080e-04 0.0
1.003163e+00 -3.481269e-04 0.0
1.003024e+00 -3.361409e-04 0.0
1.002889e+00 -3.246138e-04 0.0
1.002758e+00 -3.135157e-04 0.0
1.002631e+00 -3.028222e-04 0.0
1.002507e+00 -2.925133e-04 0.0
1.002388e+00 -2.825733e-04 0.0
1.002272e+00 -2.729895e-04 0.0
1.002159e+00 -2.637526e-04 0.0
1.002051e+00 -2.548557e-04 0.0
1.001945e+00 -2.462943e-04 0.0
1.001843e+00 -2.380662e-04 0.0
1.001744e+00 -2.301709e-04 0.0
1.001649e+00 -2.226105e-04 0.0
1.001556e+00 -2.153890e-04 0.0
1.001466e+00 -2.085131e-04 0.0
1.001379e+00 -2.019927e-04 0.0
1.001294e+00 -1.958413e-04 0.0
1.001212e+00 -1.900778e-04 0.0
1.001132e+00 -1.847279e-04 0.0
1.001054e+00 -1.798265e-04 0.0
1.000979e+00 -1.754216e-04 0.0
1.000905e+00 -1.715795e-04 0.0
1.000834e+00 -1.683927e-04 0.0
1.000764e+00 -1.659913e-04 0.0
1.000697e+00 -1.645614e-04 0.0
1.000631e+00 -1.643728e-04 0.0
1.000568e+00 -1.658238e-04 0.0
1.000507e+00 -1.695137e-04 0.0
1.000448e+00 -1.763604e-04 0.0
1.000392e+00 -1.877860e-04 0.0
1.000338e+00 -2.059810e-04 0.0
1.000283e+00 -2.341548e-04 0.0
1.000220e+00 -2.762603e-04 0.0
1.000129e+00 -3.343772e-04 0.0
9.999729e-01 -4.054703e-04 0.0
0.000000e+00 7.101888e-05 0.0
1.000000e+00 -8.284490e-02 0.0
1.017613e+00 -9.353639e-02 0.0
1.038667e+00 -1.001034e-01 0.0
1.064660e+00 -1.124554e-01 0.0
1.098719e+00 -1.295620e-01 0.0
1.144042e+00 -1.481026e-01 0.0
1.201255e+00 -1.591737e-01 0.0
1.260291e+00 -1.426643e-01 0.0
1.284709e+00 -6.525941e-02 0.0
1.271745e+00 2.234770e-02 0.0
1.235171e+00 8.668713e-02 0.0
1.186161e+00 1.250681e-01 0.0
1.137438e+00 1.348437e-01 0.0
1.096091e+00 1.252374e-01 0.0
1.064351e+00 1.059344e-01 0.0
1.041636e+00 8.390661e-02 0.0
1.026221e+00 6.319729e-02 0.0
1.016227e+00 4.561060e-02 0.0
1.010040e+00 3.159062e-02 0.0
1.006428e+00 2.089204e-02 0.0
1.004503e+00 1.299491e-02 0.0
1.003652e+00 7.326787e-03 0.0
1.003460e+00 3.365245e-03 0.0
1.003656e+00 6.745388e-04 0.0
1.004060e+00 -1.090393e-03 0.0
1.004559e+00 -2.193774e-03 0.0
1.005082e+00 -2.832873e-03 0.0
1.005585e+00 -3.152499e-03 0.0
1.006043e+00 -3.257405e-03 0.0
1.006442e+00 -3.222374e-03 0.0
1.006779e+00 -3.100092e-03 0.0
1.007052e+00 -2.927160e-03 0.0
1.007263e+00 -2.728576e-03 0.0
1.007417e+00 -2.521050e-03 0.0
1.007520e+00 -2.315428e-03 0.0
1.007575e+00 -2.118447e-03 0.0
1.007590e+00 -1.934007e-03 0.0
1.007569e+00 -1.764075e-03 0.0
1.007516e+00 -1.609329e-03 0.0
1.007437e+00 -1.469613e-03 0.0
1.007336e+00 -1.344252e-03 0.0
1.007215e+00 -1.232275e-03 0.0
1.007079e+00 -1.132558e-03 0.0
1.006929e+00 -1.043930e-03 0.0
1.006770e+00 -9.652295e-04 0.0
1.006602e+00 -8.953513e-04 0.0
1.006428e+00 -8.332648e-04 0.0
1.006249e+00 -7.780276e-04 0.0
1.006066e+00 -7.287888e-04 0.0
1.005882e+00 -6.847876e-04 0.0
1.005697e+00 -6.453498e-04 0.0
1.005512e+00 -6.098813e-04 0.0
1.005327e+00 -5.778617e-04 0.0
1.005143e+00 -5.488372e-04 0.0
1.004962e+00 -5.224133e-04 0.0
1.004782e+00 -4.982485e-04 0.0
1.004606e+00 -4.760478e-04 0.0
1.004432e+00 -4.555571e-04 0.0
1.004262e+00 -4.365581e-04 0.0
1.004095e+00 -4.188636e-04 0.0
1.003932e+00 -4.023137e-04 0.0
1.003773e+00 -3.867715e-04 0.0
1.003617e+00 -3.721208e-04 0.0
1.003466e+00 -3.582627e-04 0.0
1.003318e+00 -3.451132e-04 0.0
1.003175e+00 -3.326017e-04 0.0
1.003035e+00 -3.206683e-04 0.0
1.002900e+00 -3.092631e-04 0.0
1.002769e+00 -2.983441e-04 0.0
1.002641e+00 -2.878764e-04 0.0
1.002517e+00 -2.778314e-04 0.0
1.002397e+00 -2.681855e-04 0.0
1.002281e+00 -2.589197e-04 0.0
1.002168e+00 -2.500189e-04 0.0
1.002059e+00 -2.414715e-04 0.0
1.001954e+00 -2.332689e-04 0.0
1.001851e+00 -2.254054e-04 0.0
1.001752e+00 -2.178780e-04 0.0
1.001656e+00 -2.106865e-04 0.0
1.001563e+00 -2.038334e-04 0.0
1.001472e+00 -1.973243e-04 0.0
1.001385e+00 -1.911690e-04 0.0
1.001300e+00 -1.853815e-04 0.0
1.001217e+00 -1.799823e-04 0.0
1.001137e+00 -1.749995e-04 0.0
1.001059e+00 -1.704722e-04 0.0
1.000983e+00 -1.664541e-04 0.0
1.000909e+00 -1.630192e-04 0.0
1.000836e+00 -1.602699e-04 0.0
1.000766e+00 -1.583479e-04 0.0
1.000697e+00 -1.574512e-04 0.0
1.000630e+00 -1.578572e-04 0.0
1.000564e+00 -1.599568e-04 0.0
1.000500e+00 -1.643006e-04 0.0
1.000437e+00 -1.716595e-04 0.0
1.000374e+00 -1.830859e-04 0.0
1.000310e+00 -1.999283e-04 0.0
1.000242e+00 -2.236477e-04 0.0
1.000163e+00 -2.550725e-04 0.0
1.000064e+00 -2.924460e-04 0.0
9.999311e-01 -3.306772e-04 0.0
0.000000e+00 1.117414e-04 0.0
1.000000e+00 -9.589977e-02 0.0
1.011560e+00 -1.065458e-01 0.0
1.026780e+00 -1.156996e-01 0.0
1.047879e+00 -1.339286e-01 0.0
1.080140e+00 -1.621962e-01 0.0
1.132050e+00 -2.003834e-01 0.0
1.215030e+00 -2.425222e-01 0.0
1.332122e+00 -2.601222e-01 0.0
1.367115e+00 -1.006156e-01 0.0
1.338484e+00 5.062003e-02 0.0
1.278271e+00 1.465436e-01 0.0
1.199736e+00 2.032496e-01 0.0
1.129669e+00 2.045587e-01 0.0
1.077311e+00 1.772449e-01 0.0
1.042238e+00 1.406595e-01 0.0
1.020591e+00 1.052086e-01 0.0
1.008225e+00 7.522145e-02 0.0
1.001809e+00 5.168678e-02 0.0
9.989958e-01 3.406746e-02 0.0
9.982495e-01 2.130520e-02 0.0
9.986160e-01 1.229860e-02 0.0
9.995256e-01 6.091023e-03 0.0
1.000649e+00 1.918926e-03 0.0
1.001805e+00 -7.997930e-04 0.0
1.002897e+00 -2.497319e-03 0.0
1.003879e+00 -3.487570e-03 0.0
1.004735e+00 -3.995973e-03 0.0
1.005462e+00 -4.182771e-03 0.0
1.006067e+00 -4.160786e-03 0.0
1.006559e+00 -4.008662e-03 0.0
1.006949e+00 -3.780596e-03 0.0
1.007250e+00 -3.513402e-03 0.0
1.007471e+00 -3.231607e-03 0.0
1.007624e+00 -2.951113e-03 0.0
1.007719e+00 -2.681822e-03 0.0
1.007762e+00 -2.429500e-03 0.0
1.007762e+00 -2.197104e-03 0.0
1.007726e+00 -1.985723e-03 0.0
1.007658e+00 -1.795231e-03 0.0
1.007564e+00 -1.624747e-03 0.0
1.007449e+00 -1.472952e-03 0.0
1.007316e+00 -1.338301e-03 0.0
1.007169e+00 -1.219168e-03 0.0
1.007009e+00 -1.113942e-03 0.0
1.006841e+00 -1.021076e-03 0.0
1.006665e+00 -9.391303e-04 0.0
1.006484e+00 -8.667838e-04 0.0
1.006299e+00 -8.028417e-04 0.0
1.006111e+00 -7.462352e-04 0.0
1.005922e+00 -6.960152e-04 0.0
1.005733e+00 -6.513448e-04 0.0
1.005544e+00 -6.114899e-04 0.0
1.005356e+00 -5.758093e-04 0.0
1.005170e+00 -5.437451e-04 0.0
1.004986e+00 -5.148136e-04 0.0
1.004805e+00 -4.885962e-04 0.0
1.004627e+00 -4.647318e-04 0.0
1.004452e+00 -4.429094e-04 0.0
1.004280e+00 -4.228620e-04 0.0
1.004112e+00 -4.043604e-04 0.0
1.003948e+00 -3.872083e-04 0.0
1.003788e+00 -3.712381e-04 0.0
1.003631e+00 -3.563068e-04 0.0
1.003479e+00 -3.422925e-04 0.0
1.003331e+00 -3.290917e-04 0.0
1.003187e+00 -3.166167e-04 0.0
1.003047e+00 -3.047931e-04 0.0
1.002911e+00 -2.935582e-04 0.0
1.002779e+00 -2.828594e-04 0.0
1.002651e+00 -2.726526e-04 0.0
1.002527e+00 -2.629009e-04 0.0
1.002407e+00 -2.535739e-04 0.0
1.002290e+00 -2.446466e-04 0.0
1.002177e+00 -2.360988e-04 0.0
1.002067e+00 -2.279144e-04 0.0
1.001961e+00 -2.200811e-04 0.0
1.001859e+00 -2.125900e-04 0.0
1.001759e+00 -2.054353e-04 0.0
1.001663e+00 -1.986144e-04 0.0
1.001569e+00 -1.921280e-04 0.0
1.001479e+00 -1.859803e-04 0.0
1.001391e+00 -1.801797e-04 0.0
1.001305e+00 -1.747397e-04 0.0
1.001222e+00 -1.696802e-04 0.0
1.001141e+00 -1.650293e-04 0.0
1.001063e+00 -1.608263e-04 0.0
1.000986e+00 -1.571253e-04 0.0
1.000911e+00 -1.540002e-04 0.0
1.000838e+00 -1.515519e-04 0.0
1.000767e+00 -1.499182e-04 0.0
1.000697e+00 -1.492858e-04 0.0
1.000628e+00 -1.499070e-04 0.0
1.000560e+00 -1.521192e-04 0.0
1.000493e+00 -1.563653e-04 0.0
1.000426e+00 -1.632062e-04 0.0
1.000358e+00 -1.733040e-04 0.0
1.000287e+00 -1.873254e-04 0.0
1.000211e+00 -2.056687e-04 0.0
1.000126e+00 -2.278716e-04 0.0
1.000028e+00 -2.516193e-04 0.0
9.999119e-01 -2.731456e-04 0.0
0.000000e+00 1.332002e-04 0.0
1.000000e+00 -1.020057e-01 0.0
1.003158e+00 -1.111538e-01 0.0
1.009311e+00 -1.222278e-01 0.0
1.020364e+00 -1.453565e-01 0.0
1.042540e+00 -1.847460e-01 0.0
1.089721e+00 -2.479358e-01 0.0
1.194416e+00 -3.475865e-01 0.0
1.478539e+00 -5.446119e-01 0.0
1.500351e+00 -1.227903e-01 0.0
1.441978e+00 1.086368e-01 0.0
1.344816e+00 2.433508e-01 0.0
1.207070e+00 3.406430e-01 0.0
1.103900e+00 3.073780e-01 0.0
1.040645e+00 2.401498e-01 0.0
1.006219e+00 1.747386e-01 0.0
9.899163e-01 1.211659e-01 0.0
9.840292e-01 8.076626e-02 0.0
9.836194e-01 5.175722e-02 0.0
9.857740e-01 3.157654e-02 0.0
9.888902e-01 1.785596e-02 0.0
9.921472e-01 8.711990e-03 0.0
9.951651e-01 2.746970e-03 0.0
9.977969e-01 -1.035388e-03 0.0
1.000015e+00 -3.336481e-03 0.0
1.001844e+00 -4.641327e-03 0.0
1.003330e+00 -5.284364e-03 0.0
1.004522e+00 -5.495469e-03 0.0
1.005468e+00 -5.432029e-03 0.0
1.006210e+00 -5.201229e-03 0.0
1.006783e+00 -4.875504e-03 0.0
1.007215e+00 -4.503225e-03 0.0
1.007532e+00 -4.116120e-03 0.0
1.007754e+00 -3.734439e-03 0.0
1.007896e+00 -3.370554e-03 0.0
1.007974e+00 -3.031480e-03 0.0
1.007997e+00 -2.720631e-03 0.0
1.007977e+00 -2.439051e-03 0.0
1.007919e+00 -2.186264e-03 0.0
1.007831e+00 -1.960863e-03 0.0
1.007719e+00 -1.760915e-03 0.0
1.007586e+00 -1.584230e-03 0.0
1.007437e+00 -1.428543e-03 0.0
1.007276e+00 -1.291628e-03 0.0
1.007104e+00 -1.171370e-03 0.0
1.006924e+00 -1.065805e-03 0.0
1.006738e+00 -9.731380e-04 0.0
1.006549e+00 -8.917503e-04 0.0
1.006356e+00 -8.201959e-04 0.0
1.006162e+00 -7.571928e-04 0.0
1.005968e+00 -7.016117e-04 0.0
1.005773e+00 -6.524622e-04 0.0
1.005580e+00 -6.088799e-04 0.0
1.005389e+00 -5.701126e-04 0.0
1.005199e+00 -5.355080e-04 0.0
1.005013e+00 -5.045014e-04 0.0
1.004829e+00 -4.766056e-04 0.0
1.004649e+00 -4.514006e-04 0.0
1.004472e+00 -4.285252e-04 0.0
1.004299e+00 -4.076690e-04 0.0
1.004129e+00 -3.885662e-04 0.0
1.003964e+00 -3.709890e-04 0.0
1.003803e+00 -3.547425e-04 0.0
1.003646e+00 -3.396607e-04 0.0
1.003492e+00 -3.256017e-04 0.0
1.003344e+00 -3.124448e-04 0.0
1.003199e+00 -3.000876e-04 0.0
1.003058e+00 -2.884431e-04 0.0
1.002922e+00 -2.774378e-04 0.0
1.002789e+00 -2.670096e-04 0.0
1.002661e+00 -2.571062e-04 0.0
1.002536e+00 -2.476838e-04 0.0
1.002416e+00 -2.387061e-04 0.0
1.002298e+00 -2.301427e-04 0.0
1.002185e+00 -2.219689e-04 0.0
1.002075e+00 -2.141646e-04 0.0
1.001969e+00 -2.067142e-04 0.0
1.001866e+00 -1.996055e-04 0.0
1.001766e+00 -1.928303e-04 0.0
1.001669e+00 -1.863834e-04 0.0
1.001575e+00 -1.802633e-04 0.0
1.001484e+00 -1.744723e-04 0.0
1.001396e+00 -1.690166e-04 0.0
1.001310e+00 -1.639078e-04 0.0
1.001227e+00 -1.591633e-04 0.0
1.001146e+00 -1.548088e-04 0.0
1.001067e+00 -1.508799e-04 0.0
1.000989e+00 -1.474259e-04 0.0
1.000914e+00 -1.445139e-04 0.0
1.000840e+00 -1.422343e-04 0.0
1.000768e+00 -1.407078e-04 0.0
1.000696e+00 -1.400943e-04 0.0
1.000626e+00 -1.406014e-04 0.0
1.000556e+00 -1.424926e-04 0.0
1.000486e+00 -1.460890e-04 0.0
1.000416e+00 -1.517555e-04 0.0
1.000344e+00 -1.598516e-04 0.0
1.000269e+00 -1.706178e-04 0.0
1.000189e+00 -1.839542e-04 0.0
1.000103e+00 -1.990706e-04 0.0
1.000007e+00 -2.140840e-04 0.0
9.999020e-01 -2.266587e-04 0.0
0.000000e+00 1.447282e-04 0.0
1.000000e+00 -9.926417e-02 0.0
9.930438e-01 -1.056476e-01 0.0
9.872369e-01 -1.167971e-01 0.0
9.822590e-01 -1.407537e-01 0.0
9.809811e-01 -1.838419e-01 0.0
9.920231e-01 -2.593502e-01 0.0
1.035915e+00 -3.918495e-01 0.0
1.489691e+00 -9.987560e-01 0.0
1.666267e+00 -2.986765e-01 0.0
1.737348e+00 3.823389e-02 0.0
1.463998e+00 5.163494e-01 0.0
1.181018e+00 6.232714e-01 0.0
1.036071e+00 4.519749e-01 0.0
9.739681e-01 3.019030e-01 0.0
9.514264e-01 1.969328e-01 0.0
9.484141e-01 1.238332e-01 0.0
9.540827e-01 7.475532e-02 0.0
9.626936e-01 4.280693e-02 0.0
9.714937e-01 2.244019e-02 0.0
9.793422e-01 9.674406e-03 0.0
9.859007e-01 1.823939e-03 0.0
9.911876e-01 -2.865961e-03 0.0
9.953646e-01 -5.534825e-03 0.0
9.986235e-01 -6.914156e-03 0.0
1.001145e+00 -7.477804e-03 0.0
1.003084e+00 -7.533911e-03 0.0
1.004565e+00 -7.283523e-03 0.0
1.005688e+00 -6.857964e-03 0.0
1.006531e+00 -6.342702e-03 0.0
1.007154e+00 -5.792809e-03 0.0
1.007604e+00 -5.243094e-03 0.0
1.007917e+00 -4.714817e-03 0.0
1.008121e+00 -4.220197e-03 0.0
1.008240e+00 -3.765458e-03 0.0
1.008289e+00 -3.352896e-03 0.0
1.008283e+00 -2.982299e-03 0.0
1.008233e+00 -2.651907e-03 0.0
1.008148e+00 -2.359067e-03 0.0
1.008034e+00 -2.100672e-03 0.0
1.007898e+00 -1.873452e-03 0.0
1.007744e+00 -1.674159e-03 0.0
1.007576e+00 -1.499687e-03 0.0
1.007398e+00 -1.347134e-03 0.0
1.007211e+00 -1.213841e-03 0.0
1.007018e+00 -1.097402e-03 0.0
1.006821e+00 -9.956624e-04 0.0
1.006621e+00 -9.067086e-04 0.0
1.006420e+00 -8.288509e-04 0.0
1.006219e+00 -7.606060e-04 0.0
1.006017e+00 -7.006771e-04 0.0
1.005818e+00 -6.479342e-04 0.0
1.005619e+00 -6.013961e-04 0.0
1.005424e+00 -5.602124e-04 0.0
1.005231e+00 -5.236481e-04 0.0
1.005041e+00 -4.910688e-04 0.0
1.004855e+00 -4.619283e-04 0.0
1.004672e+00 -4.357565e-04 0.0
1.004493e+00 -4.121497e-04 0.0
1.004318e+00 -3.907616e-04 0.0
1.004147e+00 -3.712954e-04 0.0
1.003980e+00 -3.534970e-04 0.0
1.003818e+00 -3.371493e-04 0.0
1.003660e+00 -3.220667e-04 0.0
1.003506e+00 -3.080912e-04 0.0
1.003356e+00 -2.950880e-04 0.0
1.003211e+00 -2.829424e-04 0.0
1.003069e+00 -2.715571e-04 0.0
1.002932e+00 -2.608495e-04 0.0
1.002799e+00 -2.507499e-04 0.0
1.002670e+00 -2.411993e-04 0.0
1.002545e+00 -2.321482e-04 0.0
1.002424e+00 -2.235549e-04 0.0
1.002307e+00 -2.153850e-04 0.0
1.002193e+00 -2.076098e-04 0.0
1.002083e+00 -2.002059e-04 0.0
1.001976e+00 -1.931545e-04 0.0
1.001873e+00 -1.864408e-04 0.0
1.001773e+00 -1.800539e-04 0.0
1.001675e+00 -1.739863e-04 0.0
1.001581e+00 -1.682340e-04 0.0
1.001490e+00 -1.627967e-04 0.0
1.001401e+00 -1.576780e-04 0.0
1.001315e+00 -1.528860e-04 0.0
1.001231e+00 -1.484344e-04 0.0
1.001150e+00 -1.443437e-04 0.0
1.001070e+00 -1.406430e-04 0.0
1.000992e+00 -1.373727e-04 0.0
1.000916e+00 -1.345872e-04 0.0
1.000842e+00 -1.323596e-04 0.0
1.000768e+00 -1.307855e-04 0.0
1.000696e+00 -1.299883e-04 0.0
1.000624e+00 -1.301231e-04 0.0
1.000553e+00 -1.313768e-04 0.0
1.000481e+00 -1.339614e-04 0.0
1.000408e+00 -1.380906e-04 0.0
1.000333e+00 -1.439300e-04 0.0
1.000256e+00 -1.515055e-04 0.0
1.000174e+00 -1.605606e-04 0.0
1.000087e+00 -1.703815e-04 0.0
9.999947e-01 -1.796701e-04 0.0
9.998965e-01 -1.870753e-04 0.0
0.000000e+00 1.507202e-04 0.0
1.000000e+00 -8.716971e-02 0.0
9.829196e-01 -9.001738e-02 0.0
9.644759e-01 -9.872974e-02 0.0
9.407937e-01 -1.174470e-01 0.0
9.078749e-01 -1.512976e-01 0.0
8.598858e-01 -2.117347e-01 0.0
7.938739e-01 -3.262103e-01 0.0
3.007818e-01 -5.049834e-01 0.0
-1.952029e+00 6.232022e-01 0.0
0.000000e+00 -5.446923e-01 0.0
7.071981e-01 -1.540076e-01 0.0
9.122130e-01 4.179057e-01 0.0
8.828894e-01 4.809477e-01 0.0
8.669585e-01 3.174841e-01 0.0
8.767128e-01 1.868307e-01 0.0
8.979059e-01 1.022948e-01 0.0
9.209551e-01 5.136368e-02 0.0
9.414445e-01 2.197808e-02 0.0
9.581133e-01 5.435054e-03 0.0
9.710807e-01 -3.625963e-03 0.0
9.809387e-01 -8.363641e-03 0.0
9.883464e-01 -1.059965e-02 0.0
9.938778e-01 -1.138866e-02 0.0
9.979944e-01 -1.134933e-02 0.0
1.001050e+00 -1.084872e-02 0.0
1.003313e+00 -1.010717e-02 0.0
1.004980e+00 -9.257730e-03 0.0
1.006200e+00 -8.380528e-03 0.0
1.007082e+00 -7.523068e-03 0.0
1.007707e+00 -6.712444e-03 0.0
1.008137e+00 -5.962875e-03 0.0
1.008417e+00 -5.280451e-03 0.0
1.008582e+00 -4.666186e-03 0.0
1.008658e+00 -4.117991e-03 0.0
1.008665e+00 -3.631974e-03 0.0
1.008619e+00 -3.203291e-03 0.0
1.008531e+00 -2.826698e-03 0.0
1.008410e+00 -2.496905e-03 0.0
1.008265e+00 -2.208804e-03 0.0
1.008101e+00 -1.957589e-03 0.0
1.007922e+00 -1.738834e-03 0.0
1.007732e+00 -1.548518e-03 0.0
1.007533e+00 -1.383028e-03 0.0
1.007329e+00 -1.239147e-03 0.0
1.007122e+00 -1.114028e-03 0.0
1.006912e+00 -1.005167e-03 0.0
1.006700e+00 -9.103705e-04 0.0
1.006489e+00 -8.277238e-04 0.0
1.006279e+00 -7.555622e-04 0.0
1.006071e+00 -6.924409e-04 0.0
1.005865e+00 -6.371092e-04 0.0
1.005661e+00 -5.884864e-04 0.0
1.005461e+00 -5.456403e-04 0.0
1.005264e+00 -5.077676e-04 0.0
1.005071e+00 -4.741776e-04 0.0
1.004881e+00 -4.442764e-04 0.0
1.004696e+00 -4.175544e-04 0.0
1.004515e+00 -3.935744e-04 0.0
1.004338e+00 -3.719619e-04 0.0
1.004165e+00 -3.523962e-04 0.0
1.003997e+00 -3.346031e-04 0.0
1.003833e+00 -3.183481e-04 0.0
1.003674e+00 -3.034310e-04 0.0
1.003519e+00 -2.896812e-04 0.0
1.003368e+00 -2.769532e-04 0.0
1.003222e+00 -2.651231e-04 0.0
1.003080e+00 -2.540856e-04 0.0
1.002942e+00 -2.437515e-04 0.0
1.002809e+00 -2.340449e-04 0.0
1.002679e+00 -2.249019e-04 0.0
1.002554e+00 -2.162684e-04 0.0
1.002432e+00 -2.080991e-04 0.0
1.002315e+00 -2.003558e-04 0.0
1.002200e+00 -1.930069e-04 0.0
1.002090e+00 -1.860263e-04 0.0
1.001983e+00 -1.793925e-04 0.0
1.001879e+00 -1.730885e-04 0.0
1.001779e+00 -1.671010e-04 0.0
1.001681e+00 -1.614200e-04 0.0
1.001587e+00 -1.560391e-04 0.0
1.001495e+00 -1.509551e-04 0.0
1.001406e+00 -1.461681e-04 0.0
1.001319e+00 -1.416824e-04 0.0
1.001235e+00 -1.375061e-04 0.0
1.001153e+00 -1.336531e-04 0.0
1.001073e+00 -1.301433e-04 0.0
1.000995e+00 -1.270050e-04 0.0
1.000919e+00 -1.242765e-04 0.0
1.000843e+00 -1.220085e-04 0.0
1.000769e+00 -1.202668e-04 0.0
1.000696e+00 -1.191346e-04 0.0
1.000623e+00 -1.187132e-04 0.0
1.000550e+00 -1.191197e-04 0.0
1.000477e+00 -1.204780e-04 0.0
1.000402e+00 -1.228987e-04 0.0
1.000326e+00 -1.264415e-04 0.0
1.000247e+00 -1.310564e-04 0.0
1.000165e+00 -1.365054e-04 0.0
1.000078e+00 -1.422857e-04 0.0
9.999875e-01 -1.476069e-04 0.0
9.998934e-01 -1.517350e-04 0.0
0.000000e+00 1.535206e-04 0.0
1.000000e+00 -6.743871e-02 0.0
9.750658e-01 -6.653350e-02 0.0
9.467860e-01 -7.082646e-02 0.0
9.083883e-01 -7.942498e-02 0.0
8.496961e-01 -9.298022e-02 0.0
7.488457e-01 -1.112587e-01 0.0
5.519227e-01 -1.296617e-01 0.0
-6.900129e-02 1.166261e-01 0.0
-1.194471e-04 0.000000e+00 0.0
0.000000e+00 -0.000000e+00 0.0