# vtk DataFile Version 3.0
Vector Field
ASCII
DATASET RECTILINEAR_GRID
DIMENSIONS 102 22 1
X_COORDINATES 102 double
0.000000 0.100000 0.200000 0.300000 0.400000 0.500000 0.600000 0.700000 0.800000 0.900000 1.000000 1.100000 1.200000 1.300000 1.400000 1.500000 1.600000 1.700000 1.800000 1.900000 2.000000 2.100000 2.200000 2.300000 2.400000 2.500000 2.600000 2.700000 2.800000 2.900000 3.000000 3.100000 3.200000 3.300000 3.400000 3.500000 3.600000 3.700000 3.800000 3.900000 4.000000 4.100000 4.200000 4.300000 4.400000 4.500000 4.600000 4.700000 4.800000 4.900000 5.000000 5.100000 5.200000 5.300000 5.400000 5.500000 5.600000 5.700000 5.800000 5.900000 6.000000 6.100000 6.200000 6.300000 6.400000 6.500000 6.600000 6.700000 6.800000 6.900000 7.000000 7.100000 7.200000 7.300000 7.400000 7.500000 7.600000 7.700000 7.800000 7.900000 8.000000 8.100000 8.200000 8.300000 8.400000 8.500000 8.600000 8.700000 8.800000 8.900000 9.000000 9.100000 9.200000 9.300000 9.400000 9.500000 9.600000 9.700000 9.800000 9.900000 10.000000 10.100000 
Y_COORDINATES 22 double
0.000000 0.100000 0.200000 0.300000 0.400000 0.500000 0.600000 0.700000 0.800000 0.900000 1.000000 1.100000 1.200000 1.300000 1.400000 1.500000 1.600000 1.700000 1.800000 1.900000 2.000000 2.100000 
Z_COORDINATES 1 double
0.0
POINT_DATA 2244
VECTORS Velocity double
0.000000e+00 0.000000e+00 0.0
-1.029703e+00 0.000000e+00 0.0
-1.062406e+00 0.000000e+00 0.0
-1.101327e+00 0.000000e+00 0.0
-1.149307e+00 0.000000e+00 0.0
-1.208556e+00 0.000000e+00 0.0
-1.278592e+00 0.000000e+00 0.0
-1.359195e+00 0.000000e+00 0.0
-1.433016e+00 0.000000e+00 0.0
-1.488964e+00 0.000000e+00 0.0
-1.525329e+00 0.000000e+00 0.0
-1.544887e+00 0.000000e+00 0.0
-1.551493e+00 0.000000e+00 0.0
-1.548607e+00 0.000000e+00 0.0
-1.538716e+00 0.000000e+00 0.0
-1.523541e+00 0.000000e+00 0.0
-1.504304e+00 0.000000e+00 0.0
-1.481903e+00 0.000000e+00 0.0
-1.456981e+00 0.000000e+00 0.0
-1.429969e+00 0.000000e+00 0.0
-1.401236e+00 0.000000e+00 0.0
-1.371522e+00 0.000000e+00 0.0
-1.342627e+00 0.000000e+00 0.0
-1.318147e+00 0.000000e+00 0.0
-1.303558e+00 0.000000e+00 0.0
-1.304855e+00 0.000000e+00 0.0
-1.325874e+00 0.000000e+00 0.0
-1.365886e+00 0.000000e+00 0.0
-1.418559e+00 0.000000e+00 0.0
-1.473857e+00 0.000000e+00 0.0
-1.522022e+00 0.000000e+00 0.0
-1.556335e+00 0.000000e+00 0.0
-1.574092e+00 0.000000e+00 0.0
-1.576251e+00 0.000000e+00 0.0
-1.565190e+00 0.000000e+00 0.0
-1.542625e+00 0.000000e+00 0.0
-1.509566e+00 0.000000e+00 0.0
-1.466597e+00 0.000000e+00 0.0
-1.414246e+00 0.000000e+00 0.0
-1.353254e+00 0.000000e+00 0.0
-1.284651e+00 0.000000e+00 0.0
-1.209831e+00 0.000000e+00 0.0
-1.130913e+00 0.000000e+00 0.0
-1.051113e+00 0.000000e+00 0.0
-9.745659e-01 0.000000e+00 0.0
-9.061701e-01 0.000000e+00 0.0
-8.509687e-01 0.000000e+00 0.0
-8.131735e-01 0.000000e+00 0.0
-7.951997e-01 0.000000e+00 0.0
-7.971281e-01 0.000000e+00 0.0
-8.173729e-01 0.000000e+00 0.0
-8.540070e-01 0.000000e+00 0.0
-9.047904e-01 0.000000e+00 0.0
-9.670791e-01 0.000000e+00 0.0
-1.037656e+00 0.000000e+00 0.0
-1.112706e+00 0.000000e+00 0.0
-1.188049e+00 0.000000e+00 0.0
-1.259632e+00 0.000000e+00 0.0
-1.323624e+00 0.000000e+00 0.0
-1.376663e+00 0.000000e+00 0.0
-1.416179e+00 0.000000e+00 0.0
-1.440740e+00 0.000000e+00 0.0
-1.450063e+00 0.000000e+00 0.0
-1.443790e+00 0.000000e+00 0.0
-1.420805e+00 0.000000e+00 0.0
-1.379797e+00 0.000000e+00 0.0
-1.320122e+00 0.000000e+00 0.0
-1.243789e+00 0.000000e+00 0.0
-1.157833e+00 0.000000e+00 0.0
-1.073851e+00 0.000000e+00 0.0
-1.002710e+00 0.000000e+00 0.0
-9.509104e-01 0.000000e+00 0.0
-9.203930e-01 0.000000e+00 0.0
-9.095613e-01 0.000000e+00 0.0
-9.146328e-01 0.000000e+00 0.0
-9.311030e-01 0.000000e+00 0.0
-9.551510e-01 0.000000e+00 0.0
-9.838885e-01 0.000000e+00 0.0
-1.015217e+00 0.000000e+00 0.0
-1.047585e+00 0.000000e+00 0.0
-1.079773e+00 0.000000e+00 0.0
-1.110777e+00 0.000000e+00 0.0
-1.139739e+00 0.000000e+00 0.0
-1.165917e+00 0.000000e+00 0.0
-1.188685e+00 0.000000e+00 0.0
-1.207557e+00 0.000000e+00 0.0
-1.222211e+00 0.000000e+00 0.0
-1.232528e+00 0.000000e+00 0.0
-1.238599e+00 0.000000e+00 0.0
-1.240654e+00 0.000000e+00 0.0
-1.238784e+00 0.000000e+00 0.0
-1.232857e+00 0.000000e+00 0.0
-1.222700e+00 0.000000e+00 0.0
-1.208157e+00 0.000000e+00 0.0
-1.189187e+00 0.000000e+00 0.0
-1.166061e+00 0.000000e+00 0.0
-1.139666e+00 0.000000e+00 0.0
-1.111778e+00 0.000000e+00 0.0
-1.085069e+00 0.000000e+00 0.0
-1.062782e+00 0.000000e+00 0.0
-1.062782e+00 0.000000e+00 0.0
0.000000e+00 0.000000e+00 0.0
1.000000e+00 -2.939468e-02 0.0
1.029755e+00 -2.944464e-02 0.0
1.062515e+00 -3.258162e-02 0.0
1.101507e+00 -3.881290e-02 0.0
1.149583e+00 -4.789739e-02 0.0
1.208968e+00 -5.920654e-02 0.0
1.279197e+00 -7.005010e-02 0.0
1.360092e+00 -8.071710e-02 0.0
1.434297e+00 -7.402630e-02 0.0
1.490694e+00 -5.621777e-02 0.0
1.527527e+00 -3.665533e-02 0.0
1.547523e+00 -1.981683e-02 0.0
1.554496e+00 -6.794983e-03 0.0
1.551892e+00 2.783010e-03 0.0
1.542192e+00 9.878280e-03 0.0
1.527109e+00 1.526144e-02 0.0
1.507857e+00 1.943073e-02 0.0
1.485327e+00 2.270847e-02 0.0
1.460167e+00 2.533926e-02 0.0
1.432805e+00 2.753992e-02 0.0
1.403562e+00 2.942213e-02 0.0
1.373005e+00 3.073530e-02 0.0
1.342607e+00 3.057681e-02 0.0
1.315504e+00 2.728207e-02 0.0
1.296847e+00 1.883524e-02 0.0
1.292898e+00 4.127742e-03 0.0
1.308564e+00 -1.548764e-02 0.0
1.344785e+00 -3.604200e-02 0.0
1.396757e+00 -5.179340e-02 0.0
1.454800e+00 -5.786465e-02 0.0
1.508176e+00 -5.319768e-02 0.0
1.548664e+00 -4.030919e-02 0.0
1.572115e+00 -2.327228e-02 0.0
1.578598e+00 -6.304505e-03 0.0
1.570632e+00 8.144928e-03 0.0
1.550420e+00 2.039075e-02 0.0
1.519332e+00 3.126623e-02 0.0
1.478146e+00 4.136447e-02 0.0
1.427431e+00 5.089399e-02 0.0
1.367887e+00 5.972277e-02 0.0
1.300486e+00 6.757946e-02 0.0
1.226531e+00 7.413368e-02 0.0
1.147960e+00 7.874962e-02 0.0
1.067791e+00 8.034823e-02 0.0
9.900060e-01 7.796347e-02 0.0
9.193968e-01 7.078793e-02 0.0
8.610432e-01 5.853227e-02 0.0
8.193838e-01 4.183815e-02 0.0
7.972226e-01 2.233985e-02 0.0
7.950920e-01 2.309381e-03 0.0
8.115527e-01 -1.628200e-02 0.0
8.447105e-01 -3.297914e-02 0.0
8.923647e-01 -4.747545e-02 0.0
9.519618e-01 -5.941837e-02 0.0
1.020422e+00 -6.828159e-02 0.0
1.094102e+00 -7.350092e-02 0.0
1.168924e+00 -7.464375e-02 0.0
1.240878e+00 -7.177536e-02 0.0
1.306165e+00 -6.510768e-02 0.0
1.361379e+00 -5.503498e-02 0.0
1.403815e+00 -4.225722e-02 0.0
1.431797e+00 -2.780355e-02 0.0
1.444823e+00 -1.284704e-02 0.0
1.442754e+00 2.247372e-03 0.0
1.424589e+00 1.834403e-02 0.0
1.389034e+00 3.573340e-02 0.0
1.335121e+00 5.409221e-02 0.0
1.263836e+00 7.146313e-02 0.0
1.180579e+00 8.343626e-02 0.0
1.095890e+00 8.486776e-02 0.0
1.021277e+00 7.479127e-02 0.0
9.644509e-01 5.700530e-02 0.0
9.285441e-01 3.608564e-02 0.0
9.128249e-01 1.589797e-02 0.0
9.140443e-01 -1.040614e-03 0.0
9.277598e-01 -1.353671e-02 0.0
9.499347e-01 -2.199603e-02 0.0
9.774499e-01 -2.733645e-02 0.0
1.008026e+00 -3.039687e-02 0.0
1.039995e+00 -3.179081e-02 0.0
1.072072e+00 -3.189779e-02 0.0
1.103207e+00 -3.095605e-02 0.0
1.132517e+00 -2.913138e-02 0.0
1.159239e+00 -2.654291e-02 0.0
1.182723e+00 -2.330514e-02 0.0
1.202452e+00 -1.955033e-02 0.0
1.218068e+00 -1.543749e-02 0.0
1.229403e+00 -1.115610e-02 0.0
1.236499e+00 -6.917306e-03 0.0
1.239570e+00 -2.892139e-03 0.0
1.238787e+00 9.624530e-04 0.0
1.234055e+00 4.910680e-03 0.0
1.225217e+00 9.016915e-03 0.0
1.212123e+00 1.327213e-02 0.0
1.194711e+00 1.759084e-02 0.0
1.173173e+00 2.171749e-02 0.0
1.148237e+00 2.511491e-02 0.0
1.121479e+00 2.693626e-02 0.0
1.095440e+00 2.621808e-02 0.0
1.073338e+00 2.228106e-02 0.0
1.062782e+00 1.073432e-02 0.0
0.000000e+00 1.069914e-02 0.0
1.000000e+00 -5.937391e-02 0.0
1.030209e+00 -5.947464e-02 0.0
1.063445e+00 -6.577098e-02 0.0
1.103072e+00 -7.839365e-02 0.0
1.152281e+00 -9.706023e-02 0.0
1.214020e+00 -1.208989e-01 0.0
1.288004e+00 -1.439870e-01 0.0
1.379217e+00 -1.718842e-01 0.0
1.459213e+00 -1.539753e-01 0.0
1.516702e+00 -1.136605e-01 0.0
1.552943e+00 -7.284960e-02 0.0
1.572390e+00 -3.921698e-02 0.0
1.579453e+00 -1.381162e-02 0.0
1.577644e+00 4.639265e-03 0.0
1.569258e+00 1.831056e-02 0.0
1.555836e+00 2.872978e-02 0.0
1.538477e+00 3.683675e-02 0.0
1.518011e+00 4.322090e-02 0.0
1.495083e+00 4.831370e-02 0.0
1.470176e+00 5.249391e-02 0.0
1.443638e+00 5.600616e-02 0.0
1.415838e+00 5.858165e-02 0.0
1.387656e+00 5.880534e-02 0.0
1.361214e+00 5.377091e-02 0.0
1.340375e+00 3.972122e-02 0.0
1.330484e+00 1.406519e-02 0.0
1.336692e+00 -2.164957e-02 0.0
1.362025e+00 -6.132807e-02 0.0
1.405532e+00 -9.525388e-02 0.0
1.460665e+00 -1.129511e-01 0.0
1.517467e+00 -1.099525e-01 0.0
1.566480e+00 -8.927555e-02 0.0
1.600528e+00 -5.727362e-02 0.0
1.616268e+00 -2.199805e-02 0.0
1.615165e+00 9.294154e-03 0.0
1.600528e+00 3.507478e-02 0.0
1.574524e+00 5.731616e-02 0.0
1.538443e+00 7.749255e-02 0.0
1.493112e+00 9.627117e-02 0.0
1.439397e+00 1.134843e-01 0.0
1.378496e+00 1.285272e-01 0.0
1.311937e+00 1.407397e-01 0.0
1.241563e+00 1.491702e-01 0.0
1.169507e+00 1.524503e-01 0.0
1.098726e+00 1.487919e-01 0.0
1.032825e+00 1.367349e-01 0.0
9.756887e-01 1.157154e-01 0.0
9.310150e-01 8.655853e-02 0.0
9.017546e-01 5.164685e-02 0.0
8.895211e-01 1.458946e-02 0.0
8.939546e-01 -2.066881e-02 0.0
9.131987e-01 -5.217659e-02 0.0
9.450724e-01 -7.930254e-02 0.0
9.873354e-01 -1.016348e-01 0.0
1.037451e+00 -1.183505e-01 0.0
1.092684e+00 -1.286871e-01 0.0
1.149975e+00 -1.318884e-01 0.0
1.206065e+00 -1.278191e-01 0.0
1.257696e+00 -1.166915e-01 0.0
1.301874e+00 -9.916613e-02 0.0
1.336151e+00 -7.648797e-02 0.0
1.358772e+00 -5.037841e-02 0.0
1.368425e+00 -2.245274e-02 0.0
1.363591e+00 7.128316e-03 0.0
1.343482e+00 3.849874e-02 0.0
1.308289e+00 7.097336e-02 0.0
1.259969e+00 1.024587e-01 0.0
1.203114e+00 1.283654e-01 0.0
1.144654e+00 1.419429e-01 0.0
1.091763e+00 1.378052e-01 0.0
1.049418e+00 1.171830e-01 0.0
1.020012e+00 8.645779e-02 0.0
1.003248e+00 5.289604e-02 0.0
9.975584e-01 2.163438e-02 0.0
1.000935e+00 -4.370280e-03 0.0
1.011273e+00 -2.382866e-02 0.0
1.026812e+00 -3.748765e-02 0.0
1.046089e+00 -4.656741e-02 0.0
1.067887e+00 -5.214804e-02 0.0
1.091173e+00 -5.503014e-02 0.0
1.115053e+00 -5.573136e-02 0.0
1.138780e+00 -5.463606e-02 0.0
1.161655e+00 -5.196020e-02 0.0
1.183021e+00 -4.786201e-02 0.0
1.202283e+00 -4.252075e-02 0.0
1.218948e+00 -3.616805e-02 0.0
1.232646e+00 -2.908954e-02 0.0
1.243137e+00 -2.160025e-02 0.0
1.250251e+00 -1.398415e-02 0.0
1.253788e+00 -6.382745e-03 0.0
1.253459e+00 1.337611e-03 0.0
1.249021e+00 9.396005e-03 0.0
1.240302e+00 1.778210e-02 0.0
1.227282e+00 2.633929e-02 0.0
1.210227e+00 3.469175e-02 0.0
1.189853e+00 4.213844e-02 0.0
1.167405e+00 4.760993e-02 0.0
1.144650e+00 4.973765e-02 0.0
1.123890e+00 4.702481e-02 0.0
1.107493e+00 3.872513e-02 0.0
1.098818e+00 1.945523e-02 0.0
0.000000e+00 1.925995e-02 0.0
1.000000e+00 -8.597293e-02 0.0
1.026823e+00 -8.611930e-02 0.0
1.056791e+00 -9.569229e-02 0.0
1.093577e+00 -1.151332e-01 0.0
1.141178e+00 -1.446148e-01 0.0
1.204223e+00 -1.838968e-01 0.0
1.283697e+00 -2.234144e-01 0.0
1.396454e+00 -2.845951e-01 0.0
1.483567e+00 -2.410413e-01 0.0
1.537887e+00 -1.679335e-01 0.0
1.568590e+00 -1.035065e-01 0.0
1.583274e+00 -5.385423e-02 0.0
1.587056e+00 -1.754724e-02 0.0
1.583389e+00 8.353038e-03 0.0
1.574091e+00 2.765555e-02 0.0
1.560342e+00 4.252499e-02 0.0
1.543024e+00 5.420171e-02 0.0
1.522854e+00 6.343741e-02 0.0
1.500447e+00 7.076677e-02 0.0
1.476324e+00 7.666388e-02 0.0
1.450892e+00 8.148496e-02 0.0
1.424468e+00 8.505170e-02 0.0
1.397433e+00 8.588725e-02 0.0
1.370547e+00 8.070360e-02 0.0
1.345170e+00 6.514492e-02 0.0
1.323642e+00 3.563968e-02 0.0
1.310339e+00 -8.300067e-03 0.0
1.311044e+00 -6.198617e-02 0.0
1.330979e+00 -1.151430e-01 0.0
1.371018e+00 -1.529437e-01 0.0
1.424704e+00 -1.635913e-01 0.0
1.482514e+00 -1.470394e-01 0.0
1.533939e+00 -1.086518e-01 0.0
1.568799e+00 -5.681109e-02 0.0
1.581782e+00 -3.642884e-03 0.0
1.576980e+00 3.992362e-02 0.0
1.558783e+00 7.555943e-02 0.0
1.529839e+00 1.064840e-01 0.0
1.491659e+00 1.344973e-01 0.0
1.445313e+00 1.598771e-01 0.0
1.391901e+00 1.819861e-01 0.0
1.332845e+00 1.998420e-01 0.0
1.269806e+00 2.122562e-01 0.0
1.204710e+00 2.175923e-01 0.0
1.140130e+00 2.134188e-01 0.0
1.079162e+00 1.977490e-01 0.0
1.025055e+00 1.698690e-01 0.0
9.808097e-01 1.308509e-01 0.0
9.488065e-01 8.369667e-02 0.0
9.305630e-01 3.287963e-02 0.0
9.263902e-01 -1.644944e-02 0.0
9.348151e-01 -6.055479e-02 0.0
9.539094e-01 -9.835029e-02 0.0
9.819429e-01 -1.296216e-01 0.0
1.017298e+00 -1.536589e-01 0.0
1.057819e+00 -1.691616e-01 0.0
1.100879e+00 -1.749013e-01 0.0
1.143529e+00 -1.704232e-01 0.0
1.182858e+00 -1.559740e-01 0.0
1.216222e+00 -1.324827e-01 0.0
1.241412e+00 -1.016314e-01 0.0
1.256670e+00 -6.559052e-02 0.0
1.260404e+00 -2.614002e-02 0.0
1.251187e+00 1.639241e-02 0.0
1.229222e+00 6.051057e-02 0.0
1.196391e+00 1.038510e-01 0.0
1.156632e+00 1.422640e-01 0.0
1.115740e+00 1.693043e-01 0.0
1.079707e+00 1.780220e-01 0.0
1.051686e+00 1.658735e-01 0.0
1.031760e+00 1.371552e-01 0.0
1.018886e+00 9.937859e-02 0.0
1.011991e+00 5.983788e-02 0.0
1.010071e+00 2.360107e-02 0.0
1.012239e+00 -6.491308e-03 0.0
1.018040e+00 -2.958384e-02 0.0
1.027135e+00 -4.653526e-02 0.0
1.039150e+00 -5.853624e-02 0.0
1.053631e+00 -6.658261e-02 0.0
1.070007e+00 -7.135935e-02 0.0
1.087618e+00 -7.329530e-02 0.0
1.105748e+00 -7.271928e-02 0.0
1.123709e+00 -6.987496e-02 0.0
1.140840e+00 -6.494601e-02 0.0
1.156531e+00 -5.816501e-02 0.0
1.170258e+00 -4.984862e-02 0.0
1.181602e+00 -4.038661e-02 0.0
1.190236e+00 -3.018763e-02 0.0
1.195874e+00 -1.957595e-02 0.0
1.198184e+00 -8.646199e-03 0.0
1.196730e+00 2.838573e-03 0.0
1.191284e+00 1.488866e-02 0.0
1.181818e+00 2.729463e-02 0.0
1.168585e+00 3.961895e-02 0.0
1.152250e+00 5.107341e-02 0.0
1.133985e+00 6.044984e-02 0.0
1.115448e+00 6.619371e-02 0.0
1.098628e+00 6.660459e-02 0.0
1.085118e+00 6.058139e-02 0.0
1.075677e+00 4.821222e-02 0.0
1.069696e+00 2.548376e-02 0.0
0.000000e+00 2.514073e-02 0.0
1.000000e+00 -1.073863e-01 0.0
1.021630e+00 -1.075708e-01 0.0
1.046363e+00 -1.203782e-01 0.0
1.078158e+00 -1.468822e-01 0.0
1.122216e+00 -1.886264e-01 0.0
1.185977e+00 -2.476106e-01 0.0
1.274915e+00 -3.123058e-01 0.0
1.423789e+00 -4.334225e-01 0.0
1.510578e+00 -3.277838e-01 0.0
1.551366e+00 -2.086757e-01 0.0
1.570331e+00 -1.224240e-01 0.0
1.577593e+00 -6.107000e-02 0.0
1.577275e+00 -1.718281e-02 0.0
1.571588e+00 1.408704e-02 0.0
1.561479e+00 3.781049e-02 0.0
1.547601e+00 5.645033e-02 0.0
1.530535e+00 7.131381e-02 0.0
1.510842e+00 8.317704e-02 0.0
1.489070e+00 9.258518e-02 0.0
1.465739e+00 1.000414e-01 0.0
1.441285e+00 1.059855e-01 0.0
1.415948e+00 1.104356e-01 0.0
1.389582e+00 1.123003e-01 0.0
1.361608e+00 1.087239e-01 0.0
1.330910e+00 9.588977e-02 0.0
1.295907e+00 7.068922e-02 0.0
1.256198e+00 3.145572e-02 0.0
1.216705e+00 -2.244694e-02 0.0
1.188737e+00 -8.712865e-02 0.0
1.183968e+00 -1.481277e-01 0.0
1.210118e+00 -1.896952e-01 0.0
1.264045e+00 -2.009195e-01 0.0
1.335052e+00 -1.796120e-01 0.0
1.406181e+00 -1.278939e-01 0.0
1.458014e+00 -5.542860e-02 0.0
1.480086e+00 1.789807e-02 0.0
1.480935e+00 7.475646e-02 0.0
1.466802e+00 1.206640e-01 0.0
1.441208e+00 1.601384e-01 0.0
1.406161e+00 1.949702e-01 0.0
1.363189e+00 2.250044e-01 0.0
1.313847e+00 2.492310e-01 0.0
1.259799e+00 2.663506e-01 0.0
1.202796e+00 2.746419e-01 0.0
1.145006e+00 2.712552e-01 0.0
1.089377e+00 2.534256e-01 0.0
1.039059e+00 2.202331e-01 0.0
9.967948e-01 1.731617e-01 0.0
9.644561e-01 1.160820e-01 0.0
9.429839e-01 5.439842e-02 0.0
9.327542e-01 -6.173137e-03 0.0
9.332491e-01 -6.100303e-02 0.0
9.435995e-01 -1.086541e-01 0.0
9.625249e-01 -1.485003e-01 0.0
9.882215e-01 -1.793089e-01 0.0
1.018477e+00 -1.993702e-01 0.0
1.050807e+00 -2.071847e-01 0.0
1.082583e+00 -2.021528e-01 0.0
1.111283e+00 -1.846273e-01 0.0
1.134677e+00 -1.558304e-01 0.0
1.150848e+00 -1.177557e-01 0.0
1.158081e+00 -7.277712e-02 0.0
1.154751e+00 -2.276288e-02 0.0
1.140404e+00 3.078595e-02 0.0
1.116729e+00 8.423184e-02 0.0
1.087160e+00 1.334674e-01 0.0
1.056674e+00 1.727958e-01 0.0
1.030612e+00 1.954132e-01 0.0
1.012370e+00 1.963111e-01 0.0
1.001338e+00 1.769521e-01 0.0
9.952428e-01 1.432967e-01 0.0
9.919567e-01 1.027113e-01 0.0
9.902922e-01 6.154906e-02 0.0
9.899346e-01 2.400528e-02 0.0
9.912158e-01 -7.725857e-03 0.0
9.947540e-01 -3.307536e-02 0.0
1.000907e+00 -5.264139e-02 0.0
1.009680e+00 -6.726251e-02 0.0
1.020794e+00 -7.764995e-02 0.0
1.033781e+00 -8.429959e-02 0.0
1.048060e+00 -8.752814e-02 0.0
1.062966e+00 -8.757867e-02 0.0
1.077836e+00 -8.469862e-02 0.0
1.092038e+00 -7.910083e-02 0.0
1.104988e+00 -7.106813e-02 0.0
1.116170e+00 -6.098412e-02 0.0
1.125137e+00 -4.930672e-02 0.0
1.131482e+00 -3.648668e-02 0.0
1.134786e+00 -2.283336e-02 0.0
1.134542e+00 -8.354724e-03 0.0
1.130323e+00 7.103320e-03 0.0
1.122142e+00 2.311635e-02 0.0
1.110364e+00 3.911972e-02 0.0
1.095782e+00 5.424752e-02 0.0
1.079680e+00 6.722247e-02 0.0
1.063755e+00 7.642142e-02 0.0
1.049862e+00 8.013328e-02 0.0
1.039383e+00 7.713051e-02 0.0
1.032467e+00 6.754317e-02 0.0
1.028350e+00 5.237629e-02 0.0
1.024733e+00 2.914722e-02 0.0
0.000000e+00 2.871468e-02 0.0
1.000000e+00 -1.217461e-01 0.0
1.014567e+00 -1.219594e-01 0.0
1.031715e+00 -1.374791e-01 0.0
1.055261e+00 -1.703816e-01 0.0
1.091470e+00 -2.247888e-01 0.0
1.151330e+00 -3.074242e-01 0.0
1.250220e+00 -4.111492e-01 0.0
1.443038e+00 -6.261946e-01 0.0
1.502415e+00 -3.871134e-01 0.0
1.512384e+00 -2.185984e-01 0.0
1.512382e+00 -1.223754e-01 0.0
1.510358e+00 -5.899991e-02 0.0
1.506548e+00 -1.332562e-02 0.0
1.500316e+00 2.036495e-02 0.0
1.491094e+00 4.707949e-02 0.0
1.478761e+00 6.883042e-02 0.0
1.463501e+00 8.661950e-02 0.0
1.445640e+00 1.010852e-01 0.0
1.425596e+00 1.126757e-01 0.0
1.403803e+00 1.218810e-01 0.0
1.380571e+00 1.292635e-01 0.0
1.355914e+00 1.351401e-01 0.0
1.329157e+00 1.391035e-01 0.0
1.298339e+00 1.395886e-01 0.0
1.260386e+00 1.338893e-01 0.0
1.211121e+00 1.200006e-01 0.0
1.145487e+00 9.713614e-02 0.0
1.058728e+00 6.435875e-02 0.0
9.561203e-01 1.552578e-02 0.0
8.664905e-01 -5.845138e-02 0.0
8.281770e-01 -1.513351e-01 0.0
8.616528e-01 -2.343487e-01 0.0
9.485672e-01 -2.664798e-01 0.0
1.061481e+00 -2.407610e-01 0.0
1.172379e+00 -1.662799e-01 0.0
1.255947e+00 -6.562330e-02 0.0
1.300721e+00 3.002887e-02 0.0
1.319208e+00 1.022240e-01 0.0
1.319204e+00 1.601885e-01 0.0
1.305127e+00 2.090941e-01 0.0
1.279911e+00 2.502664e-01 0.0
1.245936e+00 2.832533e-01 0.0
1.205358e+00 3.069752e-01 0.0
1.160211e+00 3.198356e-01 0.0
1.112540e+00 3.189723e-01 0.0
1.065117e+00 3.008956e-01 0.0
1.020843e+00 2.645537e-01 0.0
9.820905e-01 2.119607e-01 0.0
9.504766e-01 1.477425e-01 0.0
9.272124e-01 7.770932e-02 0.0
9.136338e-01 7.452025e-03 0.0
9.106726e-01 -5.799514e-02 0.0
9.176121e-01 -1.155470e-01 0.0
9.325164e-01 -1.633580e-01 0.0
9.530195e-01 -1.997653e-01 0.0
9.767363e-01 -2.230403e-01 0.0
1.001338e+00 -2.317402e-01 0.0
1.024512e+00 -2.252796e-01 0.0
1.044145e+00 -2.042139e-01 0.0
1.058482e+00 -1.701208e-01 0.0
1.066016e+00 -1.252431e-01 0.0
1.065340e+00 -7.205487e-02 0.0
1.055378e+00 -1.275405e-02 0.0
1.037272e+00 4.893870e-02 0.0
1.013960e+00 1.075911e-01 0.0
9.896782e-01 1.577953e-01 0.0
9.691926e-01 1.933281e-01 0.0
9.560301e-01 2.086223e-01 0.0
9.503027e-01 2.020851e-01 0.0
9.494065e-01 1.778950e-01 0.0
9.504519e-01 1.422979e-01 0.0
9.514963e-01 1.017136e-01 0.0
9.519220e-01 6.117002e-02 0.0
9.521564e-01 2.381747e-02 0.0
9.532030e-01 -8.725781e-03 0.0
9.561294e-01 -3.595516e-02 0.0
9.615006e-01 -5.796594e-02 0.0
9.693497e-01 -7.506498e-02 0.0
9.793377e-01 -8.759129e-02 0.0
9.909303e-01 -9.584557e-02 0.0
1.003524e+00 -1.000753e-01 0.0
1.016490e+00 -1.004977e-01 0.0
1.029195e+00 -9.735721e-02 0.0
1.041056e+00 -9.091470e-02 0.0
1.051542e+00 -8.150784e-02 0.0
1.060169e+00 -6.956446e-02 0.0
1.066473e+00 -5.556439e-02 0.0
1.069975e+00 -3.994180e-02 0.0
1.070136e+00 -2.294767e-02 0.0
1.066379e+00 -4.551562e-03 0.0
1.058663e+00 1.486597e-02 0.0
1.047502e+00 3.432497e-02 0.0
1.033868e+00 5.279964e-02 0.0
1.019213e+00 6.894990e-02 0.0
1.005320e+00 8.116130e-02 0.0
9.939692e-01 8.781922e-02 0.0
9.864140e-01 8.773509e-02 0.0
9.825076e-01 8.108359e-02 0.0
9.811718e-01 6.892564e-02 0.0
9.808661e-01 5.272858e-02 0.0
9.790827e-01 3.097728e-02 0.0
0.000000e+00 3.053612e-02 0.0
1.000000e+00 -1.274042e-01 0.0
1.005855e+00 -1.276360e-01 0.0
1.012911e+00 -1.444884e-01 0.0
1.023688e+00 -1.811121e-01 0.0
1.043787e+00 -2.448408e-01 0.0
1.085886e+00 -3.494765e-01 0.0
1.178601e+00 -5.038176e-01 0.0
1.404356e+00 -8.519034e-01 0.0
1.385777e+00 -3.684880e-01 0.0
1.336148e+00 -1.689223e-01 0.0
1.307897e+00 -9.407817e-02 0.0
1.296601e+00 -4.765740e-02 0.0
1.293002e+00 -9.679814e-03 0.0
1.291007e+00 2.240633e-02 0.0
1.287531e+00 5.060186e-02 0.0
1.281339e+00 7.506982e-02 0.0
1.272048e+00 9.595663e-02 0.0
1.259529e+00 1.136512e-01 0.0
1.243937e+00 1.283135e-01 0.0
1.225550e+00 1.403150e-01 0.0
1.204379e+00 1.504810e-01 0.0
1.179687e+00 1.598789e-01 0.0
1.149556e+00 1.692807e-01 0.0
1.110006e+00 1.791858e-01 0.0
1.053007e+00 1.909344e-01 0.0
9.664932e-01 2.065613e-01 0.0
8.385912e-01 2.250847e-01 0.0
6.717521e-01 2.312444e-01 0.0
5.083587e-01 1.789658e-01 0.0
4.108809e-01 3.907309e-02 0.0
3.968867e-01 -1.372943e-01 0.0
4.454702e-01 -2.828856e-01 0.0
5.495387e-01 -3.705017e-01 0.0
6.850910e-01 -3.762667e-01 0.0
8.275169e-01 -3.086592e-01 0.0
9.548979e-01 -1.929577e-01 0.0
1.049247e+00 -6.427374e-02 0.0
1.106176e+00 4.534173e-02 0.0
1.137635e+00 1.287762e-01 0.0
1.149944e+00 1.968314e-01 0.0
1.147137e+00 2.531200e-01 0.0
1.132368e+00 2.980685e-01 0.0
1.108415e+00 3.309747e-01 0.0
1.077872e+00 3.504253e-01 0.0
1.042871e+00 3.540204e-01 0.0
1.005749e+00 3.380642e-01 0.0
9.688133e-01 3.015360e-01 0.0
9.341689e-01 2.466517e-01 0.0
9.043337e-01 1.776243e-01 0.0
8.825364e-01 9.955318e-02 0.0
8.716538e-01 1.838124e-02 0.0
8.726131e-01 -5.890776e-02 0.0
8.831550e-01 -1.260423e-01 0.0
8.997531e-01 -1.799094e-01 0.0
9.193499e-01 -2.193155e-01 0.0
9.396667e-01 -2.433105e-01 0.0
9.588252e-01 -2.508521e-01 0.0
9.750390e-01 -2.414468e-01 0.0
9.867444e-01 -2.158726e-01 0.0
9.927247e-01 -1.760544e-01 0.0
9.920105e-01 -1.244823e-01 0.0
9.838646e-01 -6.386225e-02 0.0
9.685198e-01 2.637368e-03 0.0
9.486733e-01 6.883178e-02 0.0
9.278582e-01 1.284529e-01 0.0
9.101199e-01 1.755803e-01 0.0
8.988248e-01 2.046699e-01 0.0
8.949605e-01 2.125332e-01 0.0
8.963163e-01 2.007759e-01 0.0
8.998422e-01 1.744158e-01 0.0
9.030788e-01 1.391079e-01 0.0
9.048925e-01 9.994649e-02 0.0
9.054863e-01 6.062292e-02 0.0
9.059314e-01 2.341901e-02 0.0
9.075950e-01 -1.034279e-02 0.0
9.115681e-01 -3.988158e-02 0.0
9.181986e-01 -6.454982e-02 0.0
9.272005e-01 -8.402022e-02 0.0
9.379398e-01 -9.828392e-02 0.0
9.496800e-01 -1.075391e-01 0.0
9.617231e-01 -1.120717e-01 0.0
9.734577e-01 -1.121857e-01 0.0
9.843178e-01 -1.081707e-01 0.0
9.938172e-01 -1.003674e-01 0.0
1.001523e+00 -8.916710e-02 0.0
1.007013e+00 -7.500768e-02 0.0
1.009834e+00 -5.833871e-02 0.0
1.009482e+00 -3.954332e-02 0.0
1.005438e+00 -1.885692e-02 0.0
9.975021e-01 3.431076e-03 0.0
9.864564e-01 2.595833e-02 0.0
9.734682e-01 4.735979e-02 0.0
9.601118e-01 6.620264e-02 0.0
9.481863e-01 8.092209e-02 0.0
9.393310e-01 9.006321e-02 0.0
9.345392e-01 9.265775e-02 0.0
9.335482e-01 8.877275e-02 0.0
9.350694e-01 7.960901e-02 0.0
9.375660e-01 6.647568e-02 0.0
9.395129e-01 5.082834e-02 0.0
9.389616e-01 3.157522e-02 0.0
0.000000e+00 3.119529e-02 0.0
1.000000e+00 -1.234566e-01 0.0
9.962396e-01 -1.236971e-01 0.0
9.913016e-01 -1.395037e-01 0.0
9.845728e-01 -1.743367e-01 0.0
9.767383e-01 -2.369598e-01 0.0
9.731370e-01 -3.458286e-01 0.0
1.000679e+00 -5.313134e-01 0.0
1.162595e+00 -1.013772e+00 0.0
9.989099e-01 -2.048888e-01 0.0
8.531015e-01 -2.319933e-02 0.0
7.927710e-01 -3.370106e-02 0.0
7.760690e-01 -3.090876e-02 0.0
7.854971e-01 -1.906134e-02 0.0
8.040449e-01 3.905059e-03 0.0
8.192621e-01 3.543125e-02 0.0
8.295527e-01 6.482580e-02 0.0
8.337125e-01 9.184347e-02 0.0
8.298098e-01 1.176005e-01 0.0
8.162593e-01 1.419105e-01 0.0
7.916010e-01 1.650199e-01 0.0
7.540358e-01 1.880928e-01 0.0
7.008608e-01 2.131006e-01 0.0
6.280606e-01 2.421274e-01 0.0
5.311934e-01 2.760996e-01 0.0
4.092342e-01 3.129402e-01 0.0
2.747430e-01 3.410991e-01 0.0
1.649822e-01 3.348921e-01 0.0
1.175653e-01 2.787079e-01 0.0
1.389742e-01 1.576035e-01 0.0
2.015396e-01 -2.344565e-02 0.0
2.603714e-01 -1.960796e-01 0.0
3.140631e-01 -3.365307e-01 0.0
3.812890e-01 -4.376810e-01 0.0
4.796942e-01 -4.746253e-01 0.0
5.994554e-01 -4.283738e-01 0.0
7.221722e-01 -3.156279e-01 0.0
8.302517e-01 -1.723066e-01 0.0
9.089178e-01 -3.327777e-02 0.0
9.595258e-01 7.821483e-02 0.0
9.892457e-01 1.671581e-01 0.0
1.002354e+00 2.400585e-01 0.0
1.002105e+00 2.983640e-01 0.0
9.913591e-01 3.417672e-01 0.0
9.727538e-01 3.690772e-01 0.0
9.482549e-01 3.785659e-01 0.0
9.188605e-01 3.675052e-01 0.0
8.863107e-01 3.341324e-01 0.0
8.542651e-01 2.787440e-01 0.0
8.288437e-01 2.030923e-01 0.0
8.159473e-01 1.124962e-01 0.0
8.175807e-01 1.679443e-02 0.0
8.308850e-01 -7.216538e-02 0.0
8.506930e-01 -1.458037e-01 0.0
8.724272e-01 -2.015971e-01 0.0
8.931633e-01 -2.400049e-01 0.0
9.113683e-01 -2.614688e-01 0.0
9.260652e-01 -2.655024e-01 0.0
9.362404e-01 -2.515754e-01 0.0
9.409707e-01 -2.205563e-01 0.0
9.395783e-01 -1.746153e-01 0.0
9.317119e-01 -1.165694e-01 0.0
9.176084e-01 -4.971213e-02 0.0
8.992002e-01 2.109220e-02 0.0
8.798702e-01 8.820841e-02 0.0
8.629685e-01 1.454013e-01 0.0
8.514837e-01 1.871116e-01 0.0
8.467949e-01 2.094053e-01 0.0
8.477094e-01 2.116653e-01 0.0
8.512764e-01 1.972556e-01 0.0
8.549031e-01 1.708357e-01 0.0
8.570855e-01 1.369721e-01 0.0
8.577211e-01 9.935751e-02 0.0
8.578201e-01 6.057064e-02 0.0
8.588924e-01 2.239327e-02 0.0
8.623396e-01 -1.374333e-02 0.0
8.688501e-01 -4.634543e-02 0.0
8.782053e-01 -7.385837e-02 0.0
8.895991e-01 -9.536737e-02 0.0
9.020287e-01 -1.106668e-01 0.0
9.145565e-01 -1.200203e-01 0.0
9.264207e-01 -1.238893e-01 0.0
9.370283e-01 -1.227467e-01 0.0
9.459086e-01 -1.170043e-01 0.0
9.527020e-01 -1.071141e-01 0.0
9.570966e-01 -9.351512e-02 0.0
9.587657e-01 -7.663009e-02 0.0
9.573378e-01 -5.686416e-02 0.0
9.524511e-01 -3.460994e-02 0.0
9.440052e-01 -1.036444e-02 0.0
9.328864e-01 1.459658e-02 0.0
9.205192e-01 3.837222e-02 0.0
9.085166e-01 5.940904e-02 0.0
8.985576e-01 7.620827e-02 0.0
8.920286e-01 8.749775e-02 0.0
8.896061e-01 9.253236e-02 0.0
8.909481e-01 9.136237e-02 0.0
8.946988e-01 8.506872e-02 0.0
8.994087e-01 7.494573e-02 0.0
9.037419e-01 6.218918e-02 0.0
9.065979e-01 4.801900e-02 0.0
9.067439e-01 3.147586e-02 0.0
0.000000e+00 3.119583e-02 0.0
1.000000e+00 -1.104087e-01 0.0
9.871312e-01 -1.106497e-01 0.0
9.703158e-01 -1.226418e-01 0.0
9.446135e-01 -1.485877e-01 0.0
9.014993e-01 -1.937990e-01 0.0
8.242315e-01 -2.685142e-01 0.0
6.880140e-01 -3.950494e-01 0.0
2.046248e-01 -5.304681e-01 0.0
-1.000362e+00 5.299044e-01 0.0
0.000000e+00 -7.172066e-02 0.0
-1.290569e-01 7.233512e-02 0.0
-8.296890e-02 -7.695019e-02 0.0
1.835716e-02 -1.203408e-01 0.0
1.326596e-01 -1.103508e-01 0.0
2.214057e-01 -5.326819e-02 0.0
2.791861e-01 7.091939e-03 0.0
3.121326e-01 5.894361e-02 0.0
3.234767e-01 1.063030e-01 0.0
3.147403e-01 1.506935e-01 0.0
2.873237e-01 1.924831e-01 0.0
2.432901e-01 2.321730e-01 0.0
1.852189e-01 2.712184e-01 0.0
1.158558e-01 3.115370e-01 0.0
4.116563e-02 3.508364e-01 0.0
-2.446189e-02 3.786143e-01 0.0
-6.011618e-02 3.768000e-01 0.0
-6.222092e-02 3.370434e-01 0.0
-1.197213e-02 2.285057e-01 0.0
1.001289e-01 4.554902e-02 0.0
2.161200e-01 -1.393901e-01 0.0
3.074999e-01 -2.874129e-01 0.0
3.638901e-01 -3.928743e-01 0.0
3.923513e-01 -4.660956e-01 0.0
4.282863e-01 -5.105137e-01 0.0
4.959078e-01 -4.959486e-01 0.0
5.850088e-01 -4.046823e-01 0.0
6.775916e-01 -2.648427e-01 0.0
7.577876e-01 -1.134272e-01 0.0
8.144843e-01 2.156472e-02 0.0
8.511519e-01 1.305371e-01 0.0
8.714532e-01 2.198038e-01 0.0
8.782946e-01 2.915692e-01 0.0
8.741028e-01 3.460057e-01 0.0
8.607850e-01 3.824415e-01 0.0
8.394967e-01 3.999009e-01 0.0
8.112311e-01 3.958174e-01 0.0
7.804226e-01 3.649875e-01 0.0
7.554078e-01 3.038054e-01 0.0
7.444716e-01 2.140751e-01 0.0
7.507906e-01 1.062239e-01 0.0
7.714924e-01 -3.860765e-03 0.0
7.997489e-01 -1.003753e-01 0.0
8.295779e-01 -1.755860e-01 0.0
8.567379e-01 -2.287105e-01 0.0
8.788042e-01 -2.620246e-01 0.0
8.950222e-01 -2.776402e-01 0.0
9.054161e-01 -2.758496e-01 0.0
9.099801e-01 -2.560928e-01 0.0
9.085423e-01 -2.190719e-01 0.0
9.009934e-01 -1.670197e-01 0.0
8.876665e-01 -1.031959e-01 0.0
8.699106e-01 -3.190962e-02 0.0
8.509106e-01 4.013893e-02 0.0
8.336988e-01 1.054668e-01 0.0
8.208224e-01 1.583243e-01 0.0
8.137730e-01 1.942077e-01 0.0
8.121657e-01 2.110592e-01 0.0
8.137249e-01 2.101529e-01 0.0
8.158933e-01 1.951338e-01 0.0
8.170054e-01 1.697703e-01 0.0
8.166864e-01 1.373378e-01 0.0
8.157758e-01 1.003147e-01 0.0
8.157971e-01 6.059602e-02 0.0
8.183163e-01 1.992070e-02 0.0
8.244330e-01 -1.981336e-02 0.0
8.342079e-01 -5.607370e-02 0.0
8.467996e-01 -8.640342e-02 0.0
8.609080e-01 -1.094291e-01 0.0
8.751979e-01 -1.249101e-01 0.0
8.885572e-01 -1.333330e-01 0.0
9.001756e-01 -1.354610e-01 0.0
9.094824e-01 -1.320067e-01 0.0
9.161225e-01 -1.235978e-01 0.0
9.198780e-01 -1.108230e-01 0.0
9.205907e-01 -9.418116e-02 0.0
9.181148e-01 -7.410751e-02 0.0
9.123534e-01 -5.105613e-02 0.0
9.034729e-01 -2.568275e-02 0.0
8.923448e-01 8.103170e-04 0.0
8.806716e-01 2.631640e-02 0.0
8.700060e-01 4.908448e-02 0.0
8.617873e-01 6.767435e-02 0.0
8.570799e-01 8.096237e-02 0.0
8.562705e-01 8.835377e-02 0.0
8.589122e-01 8.993733e-02 0.0
8.637902e-01 8.653106e-02 0.0
8.695919e-01 7.931363e-02 0.0
8.752098e-01 6.937453e-02 0.0
8.797751e-01 5.767050e-02 0.0
8.826580e-01 4.518277e-02 0.0
8.831130e-01 3.106755e-02 0.0
0.000000e+00 3.089434e-02 0.0
1.000000e+00 -9.046658e-02 0.0
9.802313e-01 -9.070246e-02 0.0
9.546913e-01 -9.705514e-02 0.0
9.157215e-01 -1.095713e-01 0.0
8.492591e-01 -1.272901e-01 0.0
7.260479e-01 -1.452564e-01 0.0
4.700286e-01 -1.389835e-01 0.0
-9.433844e-03 -5.109109e-02 0.0
1.309931e-04 0.000000e+00 0.0
0.000000e+00 -0.000000e+00 0.0
0.000000e+00 -1.160407e-01 0.0
-1.943079e-01 1.174043e-01 0.0
-1.733340e-01 -1.412682e-01 0.0
-1.151501e-01 -1.684882e-01 0.0
-7.517096e-02 -9.320070e-02 0.0
-4.218157e-02 -2.585085e-02 0.0
-2.281958e-02 3.962820e-02 0.0
-1.667511e-02 1.002051e-01 0.0
-2.278401e-02 1.568490e-01 0.0
-3.897876e-02 2.087244e-01 0.0