# vtk DataFile Version 3.0
Vector Field
ASCII
DATASET RECTILINEAR_GRID
DIMENSIONS 102 22 1
X_COORDINATES 102 double
0.000000 0.100000 0.200000 0.300000 0.400000 0.500000 0.600000 0.700000 0.800000 0.900000 1.000000 1.100000 1.200000 1.300000 1.400000 1.500000 1.600000 1.700000 1.800000 1.900000 2.000000 2.100000 2.200000 2.300000 2.400000 2.500000 2.600000 2.700000 2.800000 2.900000 3.000000 3.100000 3.200000 3.300000 3.400000 3.500000 3.600000 3.700000 3.800000 3.900000 4.000000 4.100000 4.200000 4.300000 4.400000 4.500000 4.600000 4.700000 4.800000 4.900000 5.000000 5.100000 5.200000 5.300000 5.400000 5.500000 5.600000 5.700000 5.800000 5.900000 6.000000 6.100000 6.200000 6.300000 6.400000 6.500000 6.600000 6.700000 6.800000 6.900000 7.000000 7.100000 7.200000 7.300000 7.400000 7.500000 7.600000 7.700000 7.800000 7.900000 8.000000 8.100000 8.200000 8.300000 8.400000 8.500000 8.600000 8.700000 8.800000 8.900000 9.000000 9.100000 9.200000 9.300000 9.400000 9.500000 9.600000 9.700000 9.800000 9.900000 10.000000 10.100000 
Y_COORDINATES 22 double
0.000000 0.100000 0.200000 0.300000 0.400000 0.500000 0.600000 0.700000 0.800000 0.900000 1.000000 1.100000 1.200000 1.300000 1.400000 1.500000 1.600000 1.700000 1.800000 1.900000 2.000000 2.100000 
Z_COORDINATES 1 double
0.0
POINT_DATA 2244
VECTORS Velocity double
0.000000e+00 0.000000e+00 0.0
-1.029252e+00 0.000000e+00 0.0
-1.061640e+00 0.000000e+00 0.0
-1.100421e+00 0.000000e+00 0.0
-1.148640e+00 0.000000e+00 0.0
-1.208854e+00 0.000000e+00 0.0
-1.281019e+00 0.000000e+00 0.0
-1.366005e+00 0.000000e+00 0.0
-1.447028e+00 0.000000e+00 0.0
-1.512877e+00 0.000000e+00 0.0
-1.561008e+00 0.000000e+00 0.0
-1.592854e+00 0.000000e+00 0.0
-1.610739e+00 0.000000e+00 0.0
-1.617003e+00 0.000000e+00 0.0
-1.613904e+00 0.000000e+00 0.0
-1.603180e+00 0.000000e+00 0.0
-1.586090e+00 0.000000e+00 0.0
-1.563511e+00 0.000000e+00 0.0
-1.536037e+00 0.000000e+00 0.0
-1.504072e+00 0.000000e+00 0.0
-1.467924e+00 0.000000e+00 0.0
-1.427873e+00 0.000000e+00 0.0
-1.384193e+00 0.000000e+00 0.0
-1.337122e+00 0.000000e+00 0.0
-1.286900e+00 0.000000e+00 0.0
-1.234105e+00 0.000000e+00 0.0
-1.180419e+00 0.000000e+00 0.0
-1.129653e+00 0.000000e+00 0.0
-1.088966e+00 0.000000e+00 0.0
-1.069026e+00 0.000000e+00 0.0
-1.081211e+00 0.000000e+00 0.0
-1.132325e+00 0.000000e+00 0.0
-1.219689e+00 0.000000e+00 0.0
-1.329201e+00 0.000000e+00 0.0
-1.440828e+00 0.000000e+00 0.0
-1.535693e+00 0.000000e+00 0.0
-1.600074e+00 0.000000e+00 0.0
-1.628945e+00 0.000000e+00 0.0
-1.627412e+00 0.000000e+00 0.0
-1.605209e+00 0.000000e+00 0.0
-1.570098e+00 0.000000e+00 0.0
-1.527225e+00 0.000000e+00 0.0
-1.479678e+00 0.000000e+00 0.0
-1.429071e+00 0.000000e+00 0.0
-1.376209e+00 0.000000e+00 0.0
-1.321729e+00 0.000000e+00 0.0
-1.266617e+00 0.000000e+00 0.0
-1.212307e+00 0.000000e+00 0.0
-1.160512e+00 0.000000e+00 0.0
-1.112889e+00 0.000000e+00 0.0
-1.070715e+00 0.000000e+00 0.0
-1.034695e+00 0.000000e+00 0.0
-1.004933e+00 0.000000e+00 0.0
-9.810482e-01 0.000000e+00 0.0
-9.623440e-01 0.000000e+00 0.0
-9.479823e-01 0.000000e+00 0.0
-9.371186e-01 0.000000e+00 0.0
-9.289846e-01 0.000000e+00 0.0
-9.229277e-01 0.000000e+00 0.0
-9.184194e-01 0.000000e+00 0.0
-9.150468e-01 0.000000e+00 0.0
-9.124962e-01 0.000000e+00 0.0
-9.105351e-01 0.000000e+00 0.0
-9.089955e-01 0.000000e+00 0.0
-9.077587e-01 0.000000e+00 0.0
-9.067435e-01 0.000000e+00 0.0
-9.058954e-01 0.000000e+00 0.0
-9.051799e-01 0.000000e+00 0.0
-9.045754e-01 0.000000e+00 0.0
-9.040695e-01 0.000000e+00 0.0
-9.036553e-01 0.000000e+00 0.0
-9.033293e-01 0.000000e+00 0.0
-9.030893e-01 0.000000e+00 0.0
-9.029337e-01 0.000000e+00 0.0
-9.028608e-01 0.000000e+00 0.0
-9.028684e-01 0.000000e+00 0.0
-9.029523e-01 0.000000e+00 0.0
-9.031039e-01 0.000000e+00 0.0
-9.033139e-01 0.000000e+00 0.0
-9.035734e-01 0.000000e+00 0.0
-9.038746e-01 0.000000e+00 0.0
-9.042104e-01 0.000000e+00 0.0
-9.045743e-01 0.000000e+00 0.0
-9.049602e-01 0.000000e+00 0.0
-9.053623e-01 0.000000e+00 0.0
-9.057752e-01 0.000000e+00 0.0
-9.061940e-01 0.000000e+00 0.0
-9.066137e-01 0.000000e+00 0.0
-9.070297e-01 0.000000e+00 0.0
-9.074372e-01 0.000000e+00 0.0
-9.078321e-01 0.000000e+00 0.0
-9.082106e-01 0.000000e+00 0.0
-9.085695e-01 0.000000e+00 0.0
-9.089062e-01 0.000000e+00 0.0
-9.092190e-01 0.000000e+00 0.0
-9.095083e-01 0.000000e+00 0.0
-9.097776e-01 0.000000e+00 0.0
-9.100399e-01 0.000000e+00 0.0
-9.103280e-01 0.000000e+00 0.0
-9.107561e-01 0.000000e+00 0.0
-9.107561e-01 0.000000e+00 0.0
0.000000e+00 0.000000e+00 0.0
1.000000e+00 -2.913286e-02 0.0
1.029085e+00 -2.898208e-02 0.0
1.061309e+00 -3.216461e-02 0.0
1.099924e+00 -3.855516e-02 0.0
1.147978e+00 -4.799487e-02 0.0
1.208045e+00 -6.000712e-02 0.0
1.280109e+00 -7.200417e-02 0.0
1.365090e+00 -8.492179e-02 0.0
1.446306e+00 -8.115663e-02 0.0
1.512598e+00 -6.623249e-02 0.0
1.561413e+00 -4.875575e-02 0.0
1.594129e+00 -3.265630e-02 0.0
1.612962e+00 -1.877387e-02 0.0
1.620124e+00 -7.102256e-03 0.0
1.617795e+00 2.388444e-03 0.0
1.607721e+00 1.013352e-02 0.0
1.591181e+00 1.659928e-02 0.0
1.569078e+00 2.216168e-02 0.0
1.542024e+00 2.711406e-02 0.0
1.510423e+00 3.166076e-02 0.0
1.474570e+00 3.591175e-02 0.0
1.434730e+00 3.989938e-02 0.0
1.391165e+00 4.362477e-02 0.0
1.344114e+00 4.711005e-02 0.0
1.293802e+00 5.037141e-02 0.0
1.240684e+00 5.317767e-02 0.0
1.186138e+00 5.460561e-02 0.0
1.133440e+00 5.275720e-02 0.0
1.088991e+00 4.450889e-02 0.0
1.062850e+00 2.620041e-02 0.0
1.066692e+00 -3.782264e-03 0.0
1.108776e+00 -4.202547e-02 0.0
1.188998e+00 -8.016174e-02 0.0
1.295898e+00 -1.068409e-01 0.0
1.410367e+00 -1.144096e-01 0.0
1.512832e+00 -1.024056e-01 0.0
1.587768e+00 -7.487625e-02 0.0
1.627230e+00 -3.940271e-02 0.0
1.633512e+00 -6.222118e-03 0.0
1.616019e+00 1.755184e-02 0.0
1.583419e+00 3.265936e-02 0.0
1.541691e+00 4.178809e-02 0.0
1.494547e+00 4.720366e-02 0.0
1.444029e+00 5.057654e-02 0.0
1.391158e+00 5.293086e-02 0.0
1.336585e+00 5.463211e-02 0.0
1.281181e+00 5.546409e-02 0.0
1.226263e+00 5.497780e-02 0.0
1.173482e+00 5.283950e-02 0.0
1.124530e+00 4.901239e-02 0.0
1.080787e+00 4.380254e-02 0.0
1.043098e+00 3.774777e-02 0.0
1.011708e+00 3.145015e-02 0.0
9.863365e-01 2.543058e-02 0.0
9.663490e-01 2.004699e-02 0.0
9.509282e-01 1.548022e-02 0.0
9.392218e-01 1.176589e-02 0.0
9.304372e-01 8.844101e-03 0.0
9.238905e-01 6.606195e-03 0.0
9.190214e-01 4.928591e-03 0.0
9.153880e-01 3.692933e-03 0.0
9.126518e-01 2.795634e-03 0.0
9.105605e-01 2.150846e-03 0.0
9.089299e-01 1.690013e-03 0.0
9.076295e-01 1.359940e-03 0.0
9.065686e-01 1.120389e-03 0.0
9.056864e-01 9.416722e-04 0.0
9.049435e-01 8.024491e-04 0.0
9.043152e-01 6.878085e-04 0.0
9.037870e-01 5.876945e-04 0.0
9.033508e-01 4.956663e-04 0.0
9.030024e-01 4.079169e-04 0.0
9.027395e-01 3.224750e-04 0.0
9.025604e-01 2.385879e-04 0.0
9.024637e-01 1.562222e-04 0.0
9.024475e-01 7.568880e-05 0.0
9.025087e-01 -1.662141e-06 0.0
9.026395e-01 -7.134913e-05 0.0
9.028307e-01 -1.316705e-04 0.0
9.030733e-01 -1.830769e-04 0.0
9.033592e-01 -2.264475e-04 0.0
9.036813e-01 -2.625673e-04 0.0
9.040329e-01 -2.920377e-04 0.0
9.044077e-01 -3.153157e-04 0.0
9.048000e-01 -3.327735e-04 0.0
9.052043e-01 -3.447542e-04 0.0
9.056154e-01 -3.516082e-04 0.0
9.060285e-01 -3.536022e-04 0.0
9.064387e-01 -3.506888e-04 0.0
9.068413e-01 -3.430817e-04 0.0
9.072320e-01 -3.311405e-04 0.0
9.076068e-01 -3.152830e-04 0.0
9.079623e-01 -2.960108e-04 0.0
9.082958e-01 -2.739951e-04 0.0
9.086056e-01 -2.502634e-04 0.0
9.088918e-01 -2.266159e-04 0.0
9.091579e-01 -2.066112e-04 0.0
9.094168e-01 -1.993496e-04 0.0
9.097012e-01 -2.248759e-04 0.0
9.101251e-01 -3.644301e-04 0.0
9.107561e-01 -5.714324e-04 0.0
0.000000e+00 -5.655330e-04 0.0
1.000000e+00 -5.869930e-02 0.0
1.029464e+00 -5.838688e-02 0.0
1.062100e+00 -6.478527e-02 0.0
1.101284e+00 -7.772353e-02 0.0
1.150378e+00 -9.707287e-02 0.0
1.212639e+00 -1.222529e-01 0.0
1.288189e+00 -1.475391e-01 0.0
1.383191e+00 -1.799080e-01 0.0
1.469886e+00 -1.678363e-01 0.0
1.537106e+00 -1.334369e-01 0.0
1.585383e+00 -9.701708e-02 0.0
1.617850e+00 -6.510743e-02 0.0
1.637121e+00 -3.802923e-02 0.0
1.645247e+00 -1.521330e-02 0.0
1.644276e+00 3.375266e-03 0.0
1.635864e+00 1.856071e-02 0.0
1.621229e+00 3.124975e-02 0.0
1.601240e+00 4.216593e-02 0.0
1.576486e+00 5.188420e-02 0.0
1.547346e+00 6.081573e-02 0.0
1.514088e+00 6.918524e-02 0.0
1.476948e+00 7.705550e-02 0.0
1.436182e+00 8.440642e-02 0.0
1.392087e+00 9.122051e-02 0.0
1.345015e+00 9.745854e-02 0.0
1.295444e+00 1.027644e-01 0.0
1.244280e+00 1.057845e-01 0.0
1.193830e+00 1.032233e-01 0.0
1.148926e+00 8.942836e-02 0.0
1.117736e+00 5.740551e-02 0.0
1.110236e+00 3.733829e-03 0.0
1.132004e+00 -6.377828e-02 0.0
1.182777e+00 -1.309195e-01 0.0
1.258911e+00 -1.829592e-01 0.0
1.351527e+00 -2.070104e-01 0.0
1.446665e+00 -1.975276e-01 0.0
1.530345e+00 -1.585410e-01 0.0
1.590543e+00 -9.958514e-02 0.0
1.620445e+00 -3.610876e-02 0.0
1.622839e+00 1.517358e-02 0.0
1.606657e+00 4.885637e-02 0.0
1.578564e+00 6.989653e-02 0.0
1.542898e+00 8.288526e-02 0.0
1.502299e+00 9.119146e-02 0.0
1.458394e+00 9.685140e-02 0.0
1.412321e+00 1.007206e-01 0.0
1.365044e+00 1.027567e-01 0.0
1.317740e+00 1.022972e-01 0.0
1.271890e+00 9.870494e-02 0.0
1.228986e+00 9.193170e-02 0.0
1.190239e+00 8.256479e-02 0.0
1.156392e+00 7.161064e-02 0.0
1.127676e+00 6.018150e-02 0.0
1.103892e+00 4.923061e-02 0.0
1.084546e+00 3.940836e-02 0.0
1.069000e+00 3.104187e-02 0.0
1.056585e+00 2.419629e-02 0.0
1.046678e+00 1.876623e-02 0.0
1.038740e+00 1.456000e-02 0.0
1.032324e+00 1.135988e-02 0.0
1.027075e+00 8.957300e-03 0.0
1.022717e+00 7.169164e-03 0.0
1.019041e+00 5.842749e-03 0.0
1.015892e+00 4.854928e-03 0.0
1.013158e+00 4.109126e-03 0.0
1.010762e+00 3.531613e-03 0.0
1.008652e+00 3.067772e-03 0.0
1.006791e+00 2.678568e-03 0.0
1.005157e+00 2.337238e-03 0.0
1.003734e+00 2.026372e-03 0.0
1.002510e+00 1.735502e-03 0.0
1.001474e+00 1.459096e-03 0.0
1.000617e+00 1.194811e-03 0.0
9.999291e-01 9.422471e-04 0.0
9.993985e-01 7.022639e-04 0.0
9.990133e-01 4.764159e-04 0.0
9.987603e-01 2.669326e-04 0.0
9.986280e-01 7.649639e-05 0.0
9.986058e-01 -9.394386e-05 0.0
9.986829e-01 -2.447303e-04 0.0
9.988488e-01 -3.767590e-04 0.0
9.990925e-01 -4.908210e-04 0.0
9.994036e-01 -5.875782e-04 0.0
9.997715e-01 -6.676465e-04 0.0
1.000186e+00 -7.316532e-04 0.0
1.000637e+00 -7.802604e-04 0.0
1.001115e+00 -8.141800e-04 0.0
1.001611e+00 -8.342974e-04 0.0
1.002118e+00 -8.418653e-04 0.0
1.002628e+00 -8.378519e-04 0.0
1.003136e+00 -8.231151e-04 0.0
1.003635e+00 -7.985553e-04 0.0
1.004119e+00 -7.652090e-04 0.0
1.004585e+00 -7.244006e-04 0.0
1.005028e+00 -6.780243e-04 0.0
1.005446e+00 -6.290819e-04 0.0
1.005838e+00 -5.827788e-04 0.0
1.006202e+00 -5.477130e-04 0.0
1.006534e+00 -5.408503e-04 0.0
1.006786e+00 -6.013452e-04 0.0
1.006953e+00 -7.225583e-04 0.0
0.000000e+00 -7.142239e-04 0.0
1.000000e+00 -8.484210e-02 0.0
1.026045e+00 -8.437234e-02 0.0
1.055353e+00 -9.407761e-02 0.0
1.091580e+00 -1.139349e-01 0.0
1.138852e+00 -1.443298e-01 0.0
1.202035e+00 -1.854205e-01 0.0
1.282499e+00 -2.279877e-01 0.0
1.397943e+00 -2.953362e-01 0.0
1.490498e+00 -2.603759e-01 0.0
1.553776e+00 -1.966990e-01 0.0
1.596344e+00 -1.395697e-01 0.0
1.624604e+00 -9.335181e-02 0.0
1.641468e+00 -5.487830e-02 0.0
1.648284e+00 -2.201307e-02 0.0
1.646669e+00 5.005384e-03 0.0
1.638104e+00 2.714108e-02 0.0
1.623693e+00 4.567603e-02 0.0
1.604261e+00 6.161352e-02 0.0
1.580371e+00 7.578991e-02 0.0
1.552358e+00 8.884414e-02 0.0
1.520421e+00 1.011378e-01 0.0
1.484728e+00 1.127639e-01 0.0
1.445504e+00 1.236464e-01 0.0
1.403075e+00 1.336648e-01 0.0
1.357876e+00 1.426733e-01 0.0
1.310445e+00 1.502105e-01 0.0
1.261614e+00 1.546308e-01 0.0
1.213106e+00 1.517472e-01 0.0
1.168067e+00 1.344825e-01 0.0
1.130616e+00 9.487205e-02 0.0
1.104585e+00 2.978043e-02 0.0
1.093710e+00 -5.288768e-02 0.0
1.100079e+00 -1.372733e-01 0.0
1.127550e+00 -2.104147e-01 0.0
1.181570e+00 -2.610142e-01 0.0
1.256778e+00 -2.727202e-01 0.0
1.341322e+00 -2.430692e-01 0.0
1.421076e+00 -1.793243e-01 0.0
1.482103e+00 -9.712040e-02 0.0
1.514761e+00 -1.746805e-02 0.0
1.522987e+00 4.064584e-02 0.0
1.514965e+00 7.793314e-02 0.0
1.495886e+00 1.019807e-01 0.0
1.469146e+00 1.179462e-01 0.0
1.437107e+00 1.289058e-01 0.0
1.401533e+00 1.363110e-01 0.0
1.363807e+00 1.404976e-01 0.0
1.325147e+00 1.409725e-01 0.0
1.286933e+00 1.369352e-01 0.0
1.250536e+00 1.283438e-01 0.0
1.217051e+00 1.160657e-01 0.0
1.187133e+00 1.015437e-01 0.0
1.160988e+00 8.634181e-02 0.0
1.138460e+00 7.177499e-02 0.0
1.119166e+00 5.871776e-02 0.0
1.102633e+00 4.758966e-02 0.0
1.088393e+00 3.845225e-02 0.0
1.076032e+00 3.114242e-02 0.0
1.065217e+00 2.539031e-02 0.0
1.055692e+00 2.090093e-02 0.0
1.047265e+00 1.740002e-02 0.0
1.039796e+00 1.465362e-02 0.0
1.033182e+00 1.247229e-02 0.0
1.027344e+00 1.070808e-02 0.0
1.022220e+00 9.248827e-03 0.0
1.017755e+00 8.011943e-03 0.0
1.013900e+00 6.938509e-03 0.0
1.010606e+00 5.988011e-03 0.0
1.007825e+00 5.133479e-03 0.0
1.005510e+00 4.357266e-03 0.0
1.003613e+00 3.648039e-03 0.0
1.002089e+00 2.998841e-03 0.0
1.000894e+00 2.405025e-03 0.0
9.999889e-01 1.862916e-03 0.0
9.993365e-01 1.370201e-03 0.0
9.989031e-01 9.253107e-04 0.0
9.986591e-01 5.264627e-04 0.0
9.985786e-01 1.724696e-04 0.0
9.986398e-01 -1.395888e-04 0.0
9.988236e-01 -4.129874e-04 0.0
9.991125e-01 -6.501189e-04 0.0
9.994902e-01 -8.530007e-04 0.0
9.999416e-01 -1.023462e-03 0.0
1.000453e+00 -1.163255e-03 0.0
1.001011e+00 -1.274120e-03 0.0
1.001604e+00 -1.357821e-03 0.0
1.002221e+00 -1.416167e-03 0.0
1.002854e+00 -1.451040e-03 0.0
1.003492e+00 -1.464357e-03 0.0
1.004127e+00 -1.457902e-03 0.0
1.004753e+00 -1.433363e-03 0.0
1.005362e+00 -1.392422e-03 0.0
1.005950e+00 -1.336850e-03 0.0
1.006509e+00 -1.268661e-03 0.0
1.007037e+00 -1.190377e-03 0.0
1.007529e+00 -1.105500e-03 0.0
1.007981e+00 -1.019272e-03 0.0
1.008389e+00 -9.396344e-04 0.0
1.008742e+00 -8.788308e-04 0.0
1.009010e+00 -8.538592e-04 0.0
1.009165e+00 -8.622239e-04 0.0
0.000000e+00 -8.508713e-04 0.0
1.000000e+00 -1.057434e-01 0.0
1.020811e+00 -1.051236e-01 0.0
1.044804e+00 -1.180559e-01 0.0
1.075874e+00 -1.449892e-01 0.0
1.119270e+00 -1.877096e-01 0.0
1.182504e+00 -2.486394e-01 0.0
1.271290e+00 -3.167586e-01 0.0
1.419934e+00 -4.439640e-01 0.0
1.508981e+00 -3.494073e-01 0.0
1.556324e+00 -2.440269e-01 0.0
1.585833e+00 -1.690633e-01 0.0
1.606332e+00 -1.138353e-01 0.0
1.619951e+00 -6.848133e-02 0.0
1.626203e+00 -2.824972e-02 0.0
1.624945e+00 6.278909e-03 0.0
1.617240e+00 3.486129e-02 0.0
1.604067e+00 5.886501e-02 0.0
1.586204e+00 7.949164e-02 0.0
1.564198e+00 9.781150e-02 0.0
1.538319e+00 1.147382e-01 0.0
1.508658e+00 1.308147e-01 0.0
1.475266e+00 1.461713e-01 0.0
1.438283e+00 1.606446e-01 0.0
1.398026e+00 1.739374e-01 0.0
1.355021e+00 1.856941e-01 0.0
1.309936e+00 1.953104e-01 0.0
1.263432e+00 2.011509e-01 0.0
1.216356e+00 1.988385e-01 0.0
1.169847e+00 1.810075e-01 0.0
1.123588e+00 1.411460e-01 0.0
1.074660e+00 7.872391e-02 0.0
1.023092e+00 -1.303562e-03 0.0
9.762675e-01 -9.043379e-02 0.0
9.466099e-01 -1.807416e-01 0.0
9.505011e-01 -2.648899e-01 0.0
9.951947e-01 -3.173982e-01 0.0
1.068105e+00 -3.159643e-01 0.0
1.154489e+00 -2.656924e-01 0.0
1.238685e+00 -1.813009e-01 0.0
1.306402e+00 -8.516950e-02 0.0
1.347380e+00 -3.167550e-04 0.0
1.367230e+00 5.809836e-02 0.0
1.372290e+00 9.693608e-02 0.0
1.366422e+00 1.238301e-01 0.0
1.352378e+00 1.429651e-01 0.0
1.332380e+00 1.563244e-01 0.0
1.308300e+00 1.645932e-01 0.0
1.281621e+00 1.676669e-01 0.0
1.253736e+00 1.648359e-01 0.0
1.226040e+00 1.560555e-01 0.0
1.199625e+00 1.424964e-01 0.0
1.175169e+00 1.260150e-01 0.0
1.152960e+00 1.085666e-01 0.0
1.132992e+00 9.175804e-02 0.0
1.115090e+00 7.663521e-02 0.0
1.099011e+00 6.368445e-02 0.0
1.084516e+00 5.296275e-02 0.0
1.071409e+00 4.426464e-02 0.0
1.059549e+00 3.726615e-02 0.0
1.048842e+00 3.162311e-02 0.0
1.039233e+00 2.702545e-02 0.0
1.030682e+00 2.321917e-02 0.0
1.023162e+00 2.000861e-02 0.0
1.016636e+00 1.724944e-02 0.0
1.011061e+00 1.483898e-02 0.0
1.006382e+00 1.270625e-02 0.0
1.002533e+00 1.080317e-02 0.0
9.994388e-01 9.098011e-03 0.0
9.970181e-01 7.569722e-03 0.0
9.951884e-01 6.202434e-03 0.0
9.938697e-01 4.982358e-03 0.0
9.929855e-01 3.898467e-03 0.0
9.924656e-01 2.940545e-03 0.0
9.922480e-01 2.096037e-03 0.0
9.922790e-01 1.354652e-03 0.0
9.925111e-01 7.087819e-04 0.0
9.929055e-01 1.475613e-04 0.0
9.934333e-01 -3.397767e-04 0.0
9.940703e-01 -7.611126e-04 0.0
9.947949e-01 -1.122025e-03 0.0
9.955874e-01 -1.427104e-03 0.0
9.964304e-01 -1.680435e-03 0.0
9.973082e-01 -1.885803e-03 0.0
9.982073e-01 -2.046786e-03 0.0
9.991155e-01 -2.166830e-03 0.0
1.000023e+00 -2.249278e-03 0.0
1.000919e+00 -2.297372e-03 0.0
1.001798e+00 -2.314230e-03 0.0
1.002652e+00 -2.302820e-03 0.0
1.003475e+00 -2.265863e-03 0.0
1.004263e+00 -2.205902e-03 0.0
1.005012e+00 -2.125352e-03 0.0
1.005717e+00 -2.026566e-03 0.0
1.006376e+00 -1.911981e-03 0.0
1.006986e+00 -1.784328e-03 0.0
1.007543e+00 -1.646991e-03 0.0
1.008043e+00 -1.504474e-03 0.0
1.008482e+00 -1.362906e-03 0.0
1.008849e+00 -1.230131e-03 0.0
1.009126e+00 -1.115405e-03 0.0
1.009288e+00 -1.008667e-03 0.0
0.000000e+00 -9.935443e-04 0.0
1.000000e+00 -1.195441e-01 0.0
1.013723e+00 -1.187868e-01 0.0
1.030061e+00 -1.343786e-01 0.0
1.052696e+00 -1.676094e-01 0.0
1.087812e+00 -2.228097e-01 0.0
1.146185e+00 -3.069965e-01 0.0
1.242862e+00 -4.134205e-01 0.0
1.430501e+00 -6.315872e-01 0.0
1.487445e+00 -4.063361e-01 0.0
1.497985e+00 -2.545512e-01 0.0
1.502686e+00 -1.737489e-01 0.0
1.509806e+00 -1.209397e-01 0.0
1.519479e+00 -7.813899e-02 0.0
1.528344e+00 -3.709937e-02 0.0
1.531425e+00 3.213442e-03 0.0
1.528285e+00 3.801732e-02 0.0
1.519920e+00 6.724490e-02 0.0
1.507162e+00 9.226547e-02 0.0
1.490602e+00 1.143872e-01 0.0
1.470425e+00 1.349303e-01 0.0
1.446538e+00 1.547178e-01 0.0
1.418776e+00 1.739480e-01 0.0
1.387089e+00 1.923477e-01 0.0
1.351657e+00 2.093843e-01 0.0
1.312961e+00 2.244057e-01 0.0
1.271682e+00 2.366051e-01 0.0
1.228235e+00 2.446141e-01 0.0
1.181966e+00 2.451227e-01 0.0
1.131421e+00 2.315677e-01 0.0
1.073689e+00 1.988943e-01 0.0
1.001520e+00 1.509084e-01 0.0
9.077104e-01 9.252105e-02 0.0
8.113720e-01 5.920130e-03 0.0
7.488057e-01 -1.181598e-01 0.0
7.299079e-01 -2.459766e-01 0.0
7.516980e-01 -3.391728e-01 0.0
8.068962e-01 -3.711469e-01 0.0
8.828307e-01 -3.416114e-01 0.0
9.675987e-01 -2.660534e-01 0.0
1.049034e+00 -1.665891e-01 0.0
1.115793e+00 -6.706028e-02 0.0
1.160321e+00 1.358572e-02 0.0
1.188299e+00 6.897365e-02 0.0
1.203713e+00 1.084313e-01 0.0
1.209244e+00 1.374498e-01 0.0
1.207118e+00 1.584660e-01 0.0
1.199335e+00 1.723916e-01 0.0
1.187590e+00 1.794274e-01 0.0
1.173041e+00 1.794001e-01 0.0
1.156904e+00 1.722088e-01 0.0
1.140188e+00 1.592275e-01 0.0
1.123581e+00 1.426372e-01 0.0
1.107479e+00 1.246841e-01 0.0
1.092075e+00 1.071782e-01 0.0
1.077448e+00 9.127753e-02 0.0
1.063637e+00 7.751120e-02 0.0
1.050678e+00 6.593676e-02 0.0
1.038627e+00 5.633164e-02 0.0
1.027554e+00 4.835482e-02 0.0
1.017537e+00 4.165559e-02 0.0
1.008646e+00 3.593197e-02 0.0
1.000928e+00 3.095267e-02 0.0
9.943976e-01 2.655413e-02 0.0
9.890358e-01 2.262680e-02 0.0
9.847893e-01 1.910100e-02 0.0
9.815776e-01 1.593345e-02 0.0
9.793011e-01 1.309519e-02 0.0
9.778482e-01 1.056641e-02 0.0
9.771000e-01 8.333431e-03 0.0
9.769370e-01 6.381005e-03 0.0
9.772493e-01 4.685603e-03 0.0
9.779367e-01 3.226520e-03 0.0
9.789057e-01 1.987091e-03 0.0
9.800805e-01 9.367722e-04 0.0
9.814050e-01 4.564081e-05 0.0
9.828421e-01 -7.127724e-04 0.0
9.843609e-01 -1.355752e-03 0.0
9.859331e-01 -1.896376e-03 0.0
9.875327e-01 -2.345255e-03 0.0
9.891377e-01 -2.711475e-03 0.0
9.907293e-01 -3.003167e-03 0.0
9.922921e-01 -3.227746e-03 0.0
9.938139e-01 -3.392014e-03 0.0
9.952848e-01 -3.502185e-03 0.0
9.966975e-01 -3.563980e-03 0.0
9.980464e-01 -3.582690e-03 0.0
9.993278e-01 -3.563190e-03 0.0
1.000539e+00 -3.509863e-03 0.0
1.001678e+00 -3.426656e-03 0.0
1.002745e+00 -3.317120e-03 0.0
1.003739e+00 -3.184420e-03 0.0
1.004661e+00 -3.031360e-03 0.0
1.005510e+00 -2.860457e-03 0.0
1.006288e+00 -2.674086e-03 0.0
1.006994e+00 -2.474618e-03 0.0
1.007627e+00 -2.264660e-03 0.0
1.008185e+00 -2.047345e-03 0.0
1.008664e+00 -1.826524e-03 0.0
1.009056e+00 -1.606299e-03 0.0
1.009349e+00 -1.392946e-03 0.0
1.009517e+00 -1.161146e-03 0.0
0.000000e+00 -1.141345e-03 0.0
1.000000e+00 -1.246319e-01 0.0
1.005029e+00 -1.237561e-01 0.0
1.011254e+00 -1.405880e-01 0.0
1.020990e+00 -1.773300e-01 0.0
1.039607e+00 -2.414112e-01 0.0
1.079264e+00 -3.466380e-01 0.0
1.167461e+00 -5.016020e-01 0.0
1.383619e+00 -8.477298e-01 0.0
1.354950e+00 -3.776515e-01 0.0
1.294755e+00 -1.943410e-01 0.0
1.258295e+00 -1.372729e-01 0.0
1.242536e+00 -1.051651e-01 0.0
1.244678e+00 -8.026597e-02 0.0
1.260732e+00 -5.313744e-02 0.0
1.279960e+00 -1.599940e-02 0.0
1.291567e+00 2.642541e-02 0.0
1.297163e+00 6.166451e-02 0.0
1.297949e+00 9.149568e-02 0.0
1.295080e+00 1.172716e-01 0.0
1.288698e+00 1.413274e-01 0.0
1.278340e+00 1.650910e-01 0.0
1.263416e+00 1.888881e-01 0.0
1.243492e+00 2.122868e-01 0.0
1.218476e+00 2.344165e-01 0.0
1.188717e+00 2.541799e-01 0.0
1.154913e+00 2.704247e-01 0.0
1.117394e+00 2.821481e-01 0.0
1.073115e+00 2.894179e-01 0.0
1.009159e+00 2.955390e-01 0.0
9.030308e-01 3.050378e-01 0.0
7.581349e-01 2.958199e-01 0.0
6.390874e-01 2.115840e-01 0.0
5.904421e-01 5.458098e-02 0.0
5.864919e-01 -1.141941e-01 0.0
5.950923e-01 -2.545614e-01 0.0
6.110257e-01 -3.550906e-01 0.0
6.438065e-01 -4.039123e-01 0.0
6.945422e-01 -3.923315e-01 0.0
7.589675e-01 -3.304631e-01 0.0
8.298132e-01 -2.374193e-01 0.0
8.980197e-01 -1.352513e-01 0.0
9.543790e-01 -4.275806e-02 0.0
9.949608e-01 2.840732e-02 0.0
1.023525e+00 7.988303e-02 0.0
1.042365e+00 1.186247e-01 0.0
1.053472e+00 1.473744e-01 0.0
1.058707e+00 1.671722e-01 0.0
1.059709e+00 1.784413e-01 0.0
1.057487e+00 1.816375e-01 0.0
1.052693e+00 1.770182e-01 0.0
1.045936e+00 1.660005e-01 0.0
1.037692e+00 1.508965e-01 0.0
1.028349e+00 1.340424e-01 0.0
1.018259e+00 1.172837e-01 0.0
1.007772e+00 1.017797e-01 0.0
9.972469e-01 8.805230e-02 0.0
9.870364e-01 7.616275e-02 0.0
9.774694e-01 6.591415e-02 0.0
9.688253e-01 5.701451e-02 0.0
9.613176e-01 4.917877e-02 0.0
9.550877e-01 4.217739e-02 0.0
9.502021e-01 3.585383e-02 0.0
9.466568e-01 3.011488e-02 0.0
9.443921e-01 2.490706e-02 0.0
9.433053e-01 2.020331e-02 0.0
9.432618e-01 1.599247e-02 0.0
9.441126e-01 1.225991e-02 0.0
9.457073e-01 8.987258e-03 0.0
9.478912e-01 6.165075e-03 0.0
9.505051e-01 3.782615e-03 0.0
9.534171e-01 1.789127e-03 0.0
9.565293e-01 1.297918e-04 0.0
9.597826e-01 -1.250623e-03 0.0
9.631216e-01 -2.386771e-03 0.0
9.664915e-01 -3.308667e-03 0.0
9.698383e-01 -4.044039e-03 0.0
9.731159e-01 -4.617848e-03 0.0
9.762877e-01 -5.052694e-03 0.0
9.793266e-01 -5.368634e-03 0.0
9.822139e-01 -5.583176e-03 0.0
9.849378e-01 -5.711554e-03 0.0
9.874925e-01 -5.766945e-03 0.0
9.898767e-01 -5.760711e-03 0.0
9.920925e-01 -5.702428e-03 0.0
9.941442e-01 -5.600181e-03 0.0
9.960379e-01 -5.460868e-03 0.0
9.977806e-01 -5.290329e-03 0.0
9.993798e-01 -5.093591e-03 0.0
1.000844e+00 -4.874903e-03 0.0
1.002180e+00 -4.637796e-03 0.0
1.003396e+00 -4.385158e-03 0.0
1.004500e+00 -4.119289e-03 0.0
1.005497e+00 -3.841964e-03 0.0
1.006393e+00 -3.554635e-03 0.0
1.007192e+00 -3.258502e-03 0.0
1.007898e+00 -2.954653e-03 0.0
1.008510e+00 -2.644172e-03 0.0
1.009027e+00 -2.328180e-03 0.0
1.009444e+00 -2.007157e-03 0.0
1.009752e+00 -1.685503e-03 0.0
1.009921e+00 -1.315455e-03 0.0
0.000000e+00 -1.290094e-03 0.0
1.000000e+00 -1.201628e-01 0.0
9.954987e-01 -1.191954e-01 0.0
9.898015e-01 -1.348753e-01 0.0
9.820603e-01 -1.695733e-01 0.0
9.726712e-01 -2.320067e-01 0.0
9.663955e-01 -3.403467e-01 0.0
9.888945e-01 -5.240855e-01 0.0
1.141338e+00 -1.000158e+00 0.0
9.621343e-01 -1.984763e-01 0.0
7.918188e-01 -2.405391e-02 0.0
7.084873e-01 -5.392588e-02 0.0
6.617740e-01 -5.843627e-02 0.0
6.495046e-01 -6.798108e-02 0.0
6.774238e-01 -8.104108e-02 0.0
7.303587e-01 -6.891886e-02 0.0
7.896789e-01 -3.287927e-02 0.0
8.353207e-01 1.603824e-02 0.0
8.696555e-01 5.717638e-02 0.0
8.976432e-01 8.929934e-02 0.0
9.199254e-01 1.190608e-01 0.0
9.355073e-01 1.495245e-01 0.0
9.430357e-01 1.813753e-01 0.0
9.410438e-01 2.142942e-01 0.0
9.277710e-01 2.477048e-01 0.0
9.007546e-01 2.812118e-01 0.0
8.562366e-01 3.149582e-01 0.0
7.887599e-01 3.496403e-01 0.0
6.923782e-01 3.858151e-01 0.0
5.689854e-01 4.189472e-01 0.0
4.571199e-01 4.169189e-01 0.0
4.134587e-01 3.394965e-01 0.0
4.347679e-01 1.902904e-01 0.0
4.802952e-01 9.069186e-03 0.0
5.180323e-01 -1.519158e-01 0.0
5.405804e-01 -2.770940e-01 0.0
5.523034e-01 -3.667982e-01 0.0
5.656560e-01 -4.172494e-01 0.0
5.907803e-01 -4.174403e-01 0.0
6.294389e-01 -3.691062e-01 0.0
6.790471e-01 -2.870120e-01 0.0
7.337162e-01 -1.899049e-01 0.0
7.860499e-01 -9.507620e-02 0.0
8.287980e-01 -1.432525e-02 0.0
8.613238e-01 4.737275e-02 0.0
8.854295e-01 9.453442e-02 0.0
9.028173e-01 1.300022e-01 0.0
9.150843e-01 1.549207e-01 0.0
9.235607e-01 1.699804e-01 0.0
9.291297e-01 1.760840e-01 0.0
9.319004e-01 1.742630e-01 0.0
9.320122e-01 1.659043e-01 0.0
9.296894e-01 1.532348e-01 0.0
9.253159e-01 1.384315e-01 0.0
9.194432e-01 1.231718e-01 0.0
9.127310e-01 1.085074e-01 0.0
9.058544e-01 9.494440e-02 0.0
8.994151e-01 8.261753e-02 0.0
8.938777e-01 7.146711e-02 0.0
8.895447e-01 6.136302e-02 0.0
8.865688e-01 5.217014e-02 0.0
8.849951e-01 4.376663e-02 0.0
8.847909e-01 3.607355e-02 0.0
8.858616e-01 2.905973e-02 0.0
8.880827e-01 2.270151e-02 0.0
8.913183e-01 1.698325e-02 0.0
8.954083e-01 1.191800e-02 0.0
9.001913e-01 7.492348e-03 0.0
9.055362e-01 3.657863e-03 0.0
9.113310e-01 3.857986e-04 0.0
9.174954e-01 -2.366234e-03 0.0
9.239212e-01 -4.621154e-03 0.0
9.304811e-01 -6.414600e-03 0.0
9.370378e-01 -7.791805e-03 0.0
9.434695e-01 -8.802881e-03 0.0
9.496773e-01 -9.500979e-03 0.0
9.555872e-01 -9.938438e-03 0.0
9.611490e-01 -1.016409e-02 0.0
9.663331e-01 -1.022130e-02 0.0
9.711271e-01 -1.014711e-02 0.0
9.755313e-01 -9.971823e-03 0.0
9.795554e-01 -9.720126e-03 0.0
9.832158e-01 -9.411773e-03 0.0
9.865328e-01 -9.062248e-03 0.0
9.895296e-01 -8.683693e-03 0.0
9.922304e-01 -8.285490e-03 0.0
9.946598e-01 -7.874734e-03 0.0
9.968416e-01 -7.456561e-03 0.0
9.987982e-01 -7.034678e-03 0.0
1.000551e+00 -6.611755e-03 0.0
1.002118e+00 -6.189561e-03 0.0
1.003517e+00 -5.769111e-03 0.0
1.004764e+00 -5.350787e-03 0.0
1.005872e+00 -4.934438e-03 0.0
1.006853e+00 -4.519484e-03 0.0
1.007715e+00 -4.104964e-03 0.0
1.008465e+00 -3.689575e-03 0.0
1.009108e+00 -3.271648e-03 0.0
1.009645e+00 -2.849080e-03 0.0
1.010071e+00 -2.418437e-03 0.0
1.010384e+00 -1.982041e-03 0.0
1.010547e+00 -1.463451e-03 0.0
0.000000e+00 -1.431933e-03 0.0
1.000000e+00 -1.067100e-01 0.0
9.865480e-01 -1.056839e-01 0.0
9.691566e-01 -1.174684e-01 0.0
9.426888e-01 -1.430900e-01 0.0
8.984368e-01 -1.877392e-01 0.0
8.194091e-01 -2.613035e-01 0.0
6.802183e-01 -3.848792e-01 0.0
1.983884e-01 -5.183563e-01 0.0
-9.642086e-01 5.209621e-01 0.0
0.000000e+00 -5.969824e-02 0.0
-1.350847e-01 5.716431e-02 0.0
-1.511288e-01 -4.237660e-02 0.0
-9.478163e-02 -1.243128e-01 0.0
2.260343e-02 -1.984106e-01 0.0
1.275159e-01 -1.738158e-01 0.0
2.247409e-01 -1.300888e-01 0.0
3.151213e-01 -7.432665e-02 0.0
3.889531e-01 -1.663992e-02 0.0
4.473968e-01 3.087115e-02 0.0
4.940367e-01 7.243647e-02 0.0
5.277847e-01 1.157919e-01 0.0
5.472417e-01 1.619338e-01 0.0
5.505922e-01 2.109592e-01 0.0
5.354465e-01 2.628660e-01 0.0
4.992115e-01 3.174623e-01 0.0
4.400972e-01 3.740879e-01 0.0
3.599184e-01 4.298346e-01 0.0
2.715638e-01 4.741852e-01 0.0
2.125313e-01 4.779953e-01 0.0
2.168559e-01 4.126098e-01 0.0
2.782979e-01 2.780700e-01 0.0
3.693341e-01 9.926969e-02 0.0
4.535858e-01 -7.516705e-02 0.0
5.134006e-01 -2.117151e-01 0.0
5.449506e-01 -3.086284e-01 0.0
5.522481e-01 -3.740801e-01 0.0
5.484737e-01 -4.134596e-01 0.0
5.500003e-01 -4.189514e-01 0.0
5.634816e-01 -3.825720e-01 0.0
5.893145e-01 -3.128294e-01 0.0
6.243631e-01 -2.249380e-01 0.0
6.629711e-01 -1.336687e-01 0.0
6.990486e-01 -5.038731e-02 0.0
7.281727e-01 1.826418e-02 0.0
7.509818e-01 7.174085e-02 0.0
7.686798e-01 1.123196e-01 0.0
7.824619e-01 1.411542e-01 0.0
7.932372e-01 1.592206e-01 0.0
8.015414e-01 1.677953e-01 0.0
8.073048e-01 1.685151e-01 0.0
8.104215e-01 1.628031e-01 0.0
8.110955e-01 1.525763e-01 0.0
8.098832e-01 1.396593e-01 0.0
8.075806e-01 1.254900e-01 0.0
8.050328e-01 1.110707e-01 0.0
8.029684e-01 9.702429e-02 0.0
8.019140e-01 8.368751e-02 0.0
8.021741e-01 7.122255e-02 0.0
8.038639e-01 5.968871e-02 0.0
8.069562e-01 4.909332e-02 0.0
8.113873e-01 3.935103e-02 0.0
8.170955e-01 3.038094e-02 0.0
8.239687e-01 2.220201e-02 0.0
8.318895e-01 1.479626e-02 0.0
8.407814e-01 8.106906e-03 0.0
8.504927e-01 2.222198e-03 0.0
8.607916e-01 -2.791094e-03 0.0
8.714221e-01 -6.957079e-03 0.0
8.821656e-01 -1.034222e-02 0.0
8.928182e-01 -1.300322e-02 0.0
9.032135e-01 -1.500093e-02 0.0
9.132219e-01 -1.640749e-02 0.0
9.227458e-01 -1.730024e-02 0.0
9.317175e-01 -1.775905e-02 0.0
9.400942e-01 -1.786212e-02 0.0
9.478529e-01 -1.768163e-02 0.0
9.549880e-01 -1.728360e-02 0.0
9.615070e-01 -1.672479e-02 0.0
9.674281e-01 -1.605273e-02 0.0
9.727784e-01 -1.530661e-02 0.0
9.775912e-01 -1.451742e-02 0.0
9.819039e-01 -1.370890e-02 0.0
9.857558e-01 -1.289865e-02 0.0
9.891869e-01 -1.209928e-02 0.0
9.922364e-01 -1.131940e-02 0.0
9.949416e-01 -1.056439e-02 0.0
9.973377e-01 -9.837227e-03 0.0
9.994576e-01 -9.139043e-03 0.0
1.001331e+00 -8.469661e-03 0.0
1.002985e+00 -7.827901e-03 0.0
1.004443e+00 -7.211834e-03 0.0
1.005727e+00 -6.618950e-03 0.0
1.006854e+00 -6.046276e-03 0.0
1.007841e+00 -5.490434e-03 0.0
1.008699e+00 -4.947648e-03 0.0
1.009439e+00 -4.413684e-03 0.0
1.010066e+00 -3.883715e-03 0.0
1.010585e+00 -3.352141e-03 0.0
1.010993e+00 -2.811396e-03 0.0
1.011288e+00 -2.261309e-03 0.0
1.011433e+00 -1.593101e-03 0.0
0.000000e+00 -1.555392e-03 0.0
1.000000e+00 -8.652920e-02 0.0
9.798552e-01 -8.547969e-02 0.0
9.539974e-01 -9.159516e-02 0.0
9.146522e-01 -1.037293e-01 0.0
8.477721e-01 -1.208435e-01 0.0
7.243434e-01 -1.378593e-01 0.0
4.693918e-01 -1.299121e-01 0.0
-7.145134e-03 -4.184784e-02 0.0
5.079740e-05 0.000000e+00 0.0
0.000000e+00 -0.000000e+00 0.0
0.000000e+00 -1.196974e-01 0.0
-1.602284e-01 1.178673e-01 0.0
-1.665506e-01 -1.179750e-01 0.0
-1.498504e-01 -2.150953e-01 0.0
-1.316683e-01 -1.919824e-01 0.0
-9.342551e-02 -1.683161e-01 0.0
-3.273941e-02 -1.349972e-01 0.0
3.693953e-02 -8.630336e-02 0.0
9.766133e-02 -2.983515e-02 0.0