# vtk DataFile Version 3.0
Vector Field
ASCII
DATASET RECTILINEAR_GRID
DIMENSIONS 102 22 1
X_COORDINATES 102 double
0.000000 0.100000 0.200000 0.300000 0.400000 0.500000 0.600000 0.700000 0.800000 0.900000 1.000000 1.100000 1.200000 1.300000 1.400000 1.500000 1.600000 1.700000 1.800000 1.900000 2.000000 2.100000 2.200000 2.300000 2.400000 2.500000 2.600000 2.700000 2.800000 2.900000 3.000000 3.100000 3.200000 3.300000 3.400000 3.500000 3.600000 3.700000 3.800000 3.900000 4.000000 4.100000 4.200000 4.300000 4.400000 4.500000 4.600000 4.700000 4.800000 4.900000 5.000000 5.100000 5.200000 5.300000 5.400000 5.500000 5.600000 5.700000 5.800000 5.900000 6.000000 6.100000 6.200000 6.300000 6.400000 6.500000 6.600000 6.700000 6.800000 6.900000 7.000000 7.100000 7.200000 7.300000 7.400000 7.500000 7.600000 7.700000 7.800000 7.900000 8.000000 8.100000 8.200000 8.300000 8.400000 8.500000 8.600000 8.700000 8.800000 8.900000 9.000000 9.100000 9.200000 9.300000 9.400000 9.500000 9.600000 9.700000 9.800000 9.900000 10.000000 10.100000 
Y_COORDINATES 22 double
0.000000 0.100000 0.200000 0.300000 0.400000 0.500000 0.600000 0.700000 0.800000 0.900000 1.000000 1.100000 1.200000 1.300000 1.400000 1.500000 1.600000 1.700000 1.800000 1.900000 2.000000 2.100000 
Z_COORDINATES 1 double
0.0
POINT_DATA 2244
VECTORS Velocity double
0.000000e+00 0.000000e+00 0.0
-1.026971e+00 0.000000e+00 0.0
-1.057082e+00 0.000000e+00 0.0
-1.093472e+00 0.000000e+00 0.0
-1.139181e+00 0.000000e+00 0.0
-1.196842e+00 0.000000e+00 0.0
-1.266653e+00 0.000000e+00 0.0
-1.349786e+00 0.000000e+00 0.0
-1.430685e+00 0.000000e+00 0.0
-1.499010e+00 0.000000e+00 0.0
-1.552533e+00 0.000000e+00 0.0
-1.592564e+00 0.000000e+00 0.0
-1.620759e+00 0.000000e+00 0.0
-1.638225e+00 0.000000e+00 0.0
-1.645832e+00 0.000000e+00 0.0
-1.644785e+00 0.000000e+00 0.0
-1.636426e+00 0.000000e+00 0.0
-1.621970e+00 0.000000e+00 0.0
-1.602383e+00 0.000000e+00 0.0
-1.578353e+00 0.000000e+00 0.0
-1.550269e+00 0.000000e+00 0.0
-1.518293e+00 0.000000e+00 0.0
-1.482454e+00 0.000000e+00 0.0
-1.442747e+00 0.000000e+00 0.0
-1.399182e+00 0.000000e+00 0.0
-1.351784e+00 0.000000e+00 0.0
-1.300591e+00 0.000000e+00 0.0
-1.245826e+00 0.000000e+00 0.0
-1.188465e+00 0.000000e+00 0.0
-1.130985e+00 0.000000e+00 0.0
-1.077971e+00 0.000000e+00 0.0
-1.036546e+00 0.000000e+00 0.0
-1.015897e+00 0.000000e+00 0.0
-1.025031e+00 0.000000e+00 0.0
-1.069624e+00 0.000000e+00 0.0
-1.149846e+00 0.000000e+00 0.0
-1.258655e+00 0.000000e+00 0.0
-1.382476e+00 0.000000e+00 0.0
-1.502444e+00 0.000000e+00 0.0
-1.598824e+00 0.000000e+00 0.0
-1.656117e+00 0.000000e+00 0.0
-1.670248e+00 0.000000e+00 0.0
-1.649541e+00 0.000000e+00 0.0
-1.603849e+00 0.000000e+00 0.0
-1.540971e+00 0.000000e+00 0.0
-1.466205e+00 0.000000e+00 0.0
-1.383048e+00 0.000000e+00 0.0
-1.293953e+00 0.000000e+00 0.0
-1.201387e+00 0.000000e+00 0.0
-1.108733e+00 0.000000e+00 0.0
-1.020402e+00 0.000000e+00 0.0
-9.415538e-01 0.000000e+00 0.0
-8.772128e-01 0.000000e+00 0.0
-8.312199e-01 0.000000e+00 0.0
-8.054347e-01 0.000000e+00 0.0
-7.994174e-01 0.000000e+00 0.0
-8.106978e-01 0.000000e+00 0.0
-8.364531e-01 0.000000e+00 0.0
-8.738558e-01 0.000000e+00 0.0
-9.201233e-01 0.000000e+00 0.0
-9.725046e-01 0.000000e+00 0.0
-1.028271e+00 0.000000e+00 0.0
-1.084815e+00 0.000000e+00 0.0
-1.139722e+00 0.000000e+00 0.0
-1.190868e+00 0.000000e+00 0.0
-1.236462e+00 0.000000e+00 0.0
-1.275032e+00 0.000000e+00 0.0
-1.305504e+00 0.000000e+00 0.0
-1.327284e+00 0.000000e+00 0.0
-1.340295e+00 0.000000e+00 0.0
-1.344807e+00 0.000000e+00 0.0
-1.340730e+00 0.000000e+00 0.0
-1.327609e+00 0.000000e+00 0.0
-1.304895e+00 0.000000e+00 0.0
-1.272270e+00 0.000000e+00 0.0
-1.230429e+00 0.000000e+00 0.0
-1.182216e+00 0.000000e+00 0.0
-1.133092e+00 0.000000e+00 0.0
-1.089546e+00 0.000000e+00 0.0
-1.056469e+00 0.000000e+00 0.0
-1.036000e+00 0.000000e+00 0.0
-1.027910e+00 0.000000e+00 0.0
-1.030101e+00 0.000000e+00 0.0
-1.039490e+00 0.000000e+00 0.0
-1.053125e+00 0.000000e+00 0.0
-1.068672e+00 0.000000e+00 0.0
-1.084454e+00 0.000000e+00 0.0
-1.099326e+00 0.000000e+00 0.0
-1.112589e+00 0.000000e+00 0.0
-1.123872e+00 0.000000e+00 0.0
-1.133035e+00 0.000000e+00 0.0
-1.140101e+00 0.000000e+00 0.0
-1.145211e+00 0.000000e+00 0.0
-1.148584e+00 0.000000e+00 0.0
-1.150470e+00 0.000000e+00 0.0
-1.151091e+00 0.000000e+00 0.0
-1.150615e+00 0.000000e+00 0.0
-1.149217e+00 0.000000e+00 0.0
-1.147154e+00 0.000000e+00 0.0
-1.144864e+00 0.000000e+00 0.0
-1.144864e+00 0.000000e+00 0.0
0.000000e+00 0.000000e+00 0.0
1.000000e+00 -2.703148e-02 0.0
1.026769e+00 -2.684560e-02 0.0
1.056674e+00 -2.994563e-02 0.0
1.092842e+00 -3.620528e-02 0.0
1.138313e+00 -4.550543e-02 0.0
1.195720e+00 -5.743553e-02 0.0
1.265276e+00 -6.958117e-02 0.0
1.348175e+00 -8.291787e-02 0.0
1.428962e+00 -8.080235e-02 0.0
1.497382e+00 -6.842967e-02 0.0
1.551253e+00 -5.387592e-02 0.0
1.591903e+00 -4.064904e-02 0.0
1.620969e+00 -2.905557e-02 0.0
1.639474e+00 -1.848993e-02 0.0
1.648138e+00 -8.657594e-03 0.0
1.648035e+00 1.073364e-04 0.0
1.640474e+00 7.564747e-03 0.0
1.626659e+00 1.381696e-02 0.0
1.607599e+00 1.905965e-02 0.0
1.584022e+00 2.357547e-02 0.0
1.556353e+00 2.766427e-02 0.0
1.524770e+00 3.157557e-02 0.0
1.489299e+00 3.546057e-02 0.0
1.449915e+00 3.936942e-02 0.0
1.406615e+00 4.328243e-02 0.0
1.359423e+00 4.717132e-02 0.0
1.308377e+00 5.102280e-02 0.0
1.253644e+00 5.470915e-02 0.0
1.195988e+00 5.763003e-02 0.0
1.137540e+00 5.842368e-02 0.0
1.082378e+00 5.513648e-02 0.0
1.037068e+00 4.528731e-02 0.0
1.010432e+00 2.661598e-02 0.0
1.011756e+00 -1.342189e-03 0.0
1.047592e+00 -3.585011e-02 0.0
1.119555e+00 -7.197241e-02 0.0
1.222587e+00 -1.030385e-01 0.0
1.345138e+00 -1.225543e-01 0.0
1.469549e+00 -1.244134e-01 0.0
1.575857e+00 -1.063107e-01 0.0
1.646439e+00 -7.058651e-02 0.0
1.673080e+00 -2.664602e-02 0.0
1.661234e+00 1.183882e-02 0.0
1.621274e+00 3.995212e-02 0.0
1.561697e+00 5.956851e-02 0.0
1.488694e+00 7.299285e-02 0.0
1.406361e+00 8.232266e-02 0.0
1.317504e+00 8.884575e-02 0.0
1.224618e+00 9.287467e-02 0.0
1.130937e+00 9.366825e-02 0.0
1.040683e+00 9.024132e-02 0.0
9.589301e-01 8.174074e-02 0.0
8.908159e-01 6.810177e-02 0.0
8.404897e-01 5.031394e-02 0.0
8.102417e-01 3.023624e-02 0.0
8.000848e-01 1.014573e-02 0.0
8.078372e-01 -7.762827e-03 0.0
8.306162e-01 -2.278842e-02 0.0
8.655630e-01 -3.495502e-02 0.0
9.098657e-01 -4.430968e-02 0.0
9.607700e-01 -5.091022e-02 0.0
1.015551e+00 -5.478656e-02 0.0
1.071602e+00 -5.605473e-02 0.0
1.126494e+00 -5.489692e-02 0.0
1.178073e+00 -5.158398e-02 0.0
1.224517e+00 -4.645004e-02 0.0
1.264318e+00 -3.980779e-02 0.0
1.296337e+00 -3.202671e-02 0.0
1.319885e+00 -2.355773e-02 0.0
1.334784e+00 -1.490800e-02 0.0
1.341268e+00 -6.494481e-03 0.0
1.339399e+00 1.857552e-03 0.0
1.328795e+00 1.059209e-02 0.0
1.308939e+00 1.984430e-02 0.0
1.279421e+00 2.950619e-02 0.0
1.240573e+00 3.883599e-02 0.0
1.194531e+00 4.603000e-02 0.0
1.145999e+00 4.852116e-02 0.0
1.101289e+00 4.469796e-02 0.0
1.065802e+00 3.547644e-02 0.0
1.042334e+00 2.345689e-02 0.0
1.031251e+00 1.107174e-02 0.0
1.030935e+00 3.053541e-04 0.0
1.038513e+00 -7.588585e-03 0.0
1.050991e+00 -1.248765e-02 0.0
1.065896e+00 -1.491562e-02 0.0
1.081422e+00 -1.553633e-02 0.0
1.096311e+00 -1.490056e-02 0.0
1.109774e+00 -1.347369e-02 0.0
1.121372e+00 -1.160898e-02 0.0
1.130918e+00 -9.558236e-03 0.0
1.138405e+00 -7.498792e-03 0.0
1.143950e+00 -5.556341e-03 0.0
1.147754e+00 -3.816710e-03 0.0
1.150064e+00 -2.322387e-03 0.0
1.151115e+00 -1.064132e-03 0.0
1.151095e+00 7.650191e-06 0.0
1.150168e+00 9.134925e-04 0.0
1.148565e+00 1.590518e-03 0.0
1.146681e+00 1.869855e-03 0.0
1.144864e+00 1.804277e-03 0.0
0.000000e+00 2.042969e-03 0.0
1.000000e+00 -5.441113e-02 0.0
1.027138e+00 -5.402331e-02 0.0
1.057448e+00 -6.026314e-02 0.0
1.094175e+00 -7.293685e-02 0.0
1.140658e+00 -9.199270e-02 0.0
1.200188e+00 -1.169682e-01 0.0
1.273124e+00 -1.425179e-01 0.0
1.365618e+00 -1.754133e-01 0.0
1.451567e+00 -1.667497e-01 0.0
1.520649e+00 -1.375109e-01 0.0
1.573685e+00 -1.069084e-01 0.0
1.613847e+00 -8.080300e-02 0.0
1.643317e+00 -5.851822e-02 0.0
1.663016e+00 -3.819122e-02 0.0
1.673309e+00 -1.895599e-02 0.0
1.674969e+00 -1.552711e-03 0.0
1.669279e+00 1.325140e-02 0.0
1.657469e+00 2.562553e-02 0.0
1.640571e+00 3.595508e-02 0.0
1.619335e+00 4.480952e-02 0.0
1.594191e+00 5.280409e-02 0.0
1.565305e+00 6.045690e-02 0.0
1.532674e+00 6.808595e-02 0.0
1.496241e+00 7.579619e-02 0.0
1.455973e+00 8.354346e-02 0.0
1.411912e+00 9.122632e-02 0.0
1.364209e+00 9.871970e-02 0.0
1.313201e+00 1.057115e-01 0.0
1.259555e+00 1.112705e-01 0.0
1.204713e+00 1.132613e-01 0.0
1.151763e+00 1.080828e-01 0.0
1.105766e+00 9.128210e-02 0.0
1.073598e+00 5.878250e-02 0.0
1.062472e+00 9.783102e-03 0.0
1.075803e+00 -4.918006e-02 0.0
1.112866e+00 -1.090342e-01 0.0
1.173552e+00 -1.637225e-01 0.0
1.258025e+00 -2.070278e-01 0.0
1.359791e+00 -2.261804e-01 0.0
1.464374e+00 -2.108974e-01 0.0
1.554283e+00 -1.604989e-01 0.0
1.612952e+00 -8.531889e-02 0.0
1.632266e+00 -7.479892e-03 0.0
1.619597e+00 5.261793e-02 0.0
1.583465e+00 9.569599e-02 0.0
1.530332e+00 1.261230e-01 0.0
1.465198e+00 1.474521e-01 0.0
1.391949e+00 1.620912e-01 0.0
1.313782e+00 1.710377e-01 0.0
1.233666e+00 1.737814e-01 0.0
1.155135e+00 1.687687e-01 0.0
1.082128e+00 1.547453e-01 0.0
1.018503e+00 1.317240e-01 0.0
9.675506e-01 1.012633e-01 0.0
9.316881e-01 6.609659e-02 0.0
9.121185e-01 2.971342e-02 0.0
9.085608e-01 -4.206600e-03 0.0
9.188984e-01 -3.312705e-02 0.0
9.405111e-01 -5.656842e-02 0.0
9.708306e-01 -7.462972e-02 0.0
1.007491e+00 -8.757065e-02 0.0
1.048169e+00 -9.546544e-02 0.0
1.090653e+00 -9.854015e-02 0.0
1.132973e+00 -9.721890e-02 0.0
1.173327e+00 -9.194006e-02 0.0
1.210038e+00 -8.316438e-02 0.0
1.241682e+00 -7.145447e-02 0.0
1.267167e+00 -5.751514e-02 0.0
1.285772e+00 -4.216601e-02 0.0
1.297062e+00 -2.620113e-02 0.0
1.300557e+00 -9.993524e-03 0.0
1.295435e+00 6.976650e-03 0.0
1.281247e+00 2.477679e-02 0.0
1.258028e+00 4.306006e-02 0.0
1.226755e+00 6.077625e-02 0.0
1.189971e+00 7.561744e-02 0.0
1.152047e+00 8.395094e-02 0.0
1.118420e+00 8.214557e-02 0.0
1.093279e+00 6.983665e-02 0.0
1.078612e+00 5.014115e-02 0.0
1.074382e+00 2.768452e-02 0.0
1.078717e+00 6.734394e-03 0.0
1.088780e+00 -9.759887e-03 0.0
1.102077e+00 -2.088785e-02 0.0
1.116712e+00 -2.712468e-02 0.0
1.131306e+00 -2.951167e-02 0.0
1.144982e+00 -2.921511e-02 0.0
1.157299e+00 -2.721991e-02 0.0
1.168024e+00 -2.420194e-02 0.0
1.177059e+00 -2.064704e-02 0.0
1.184411e+00 -1.691291e-02 0.0
1.190167e+00 -1.325759e-02 0.0
1.194461e+00 -9.853006e-03 0.0
1.197428e+00 -6.787213e-03 0.0
1.199168e+00 -4.065312e-03 0.0
1.199732e+00 -1.631615e-03 0.0
1.199188e+00 5.490213e-04 0.0
1.197699e+00 2.398759e-03 0.0
1.195500e+00 3.786733e-03 0.0
1.192702e+00 4.664602e-03 0.0
1.189977e+00 4.525884e-03 0.0
0.000000e+00 5.006918e-03 0.0
1.000000e+00 -7.844799e-02 0.0
1.023808e+00 -7.786803e-02 0.0
1.050861e+00 -8.732113e-02 0.0
1.084665e+00 -1.067454e-01 0.0
1.129297e+00 -1.366282e-01 0.0
1.189598e+00 -1.772705e-01 0.0
1.267149e+00 -2.200706e-01 0.0
1.379020e+00 -2.872837e-01 0.0
1.470075e+00 -2.578038e-01 0.0
1.534503e+00 -2.019360e-01 0.0
1.580939e+00 -1.533389e-01 0.0
1.616031e+00 -1.158867e-01 0.0
1.642690e+00 -8.517656e-02 0.0
1.661491e+00 -5.699994e-02 0.0
1.671874e+00 -2.933943e-02 0.0
1.673783e+00 -3.462915e-03 0.0
1.668429e+00 1.860342e-02 0.0
1.657064e+00 3.698887e-02 0.0
1.640809e+00 5.220906e-02 0.0
1.620482e+00 6.513224e-02 0.0
1.596550e+00 7.673268e-02 0.0
1.569157e+00 8.784438e-02 0.0
1.538244e+00 9.899363e-02 0.0
1.503672e+00 1.103617e-01 0.0
1.465346e+00 1.218636e-01 0.0
1.423297e+00 1.332706e-01 0.0
1.377735e+00 1.442762e-01 0.0
1.329074e+00 1.543674e-01 0.0
1.278003e+00 1.623373e-01 0.0
1.225846e+00 1.654139e-01 0.0
1.175155e+00 1.587715e-01 0.0
1.129492e+00 1.369437e-01 0.0
1.091825e+00 9.644887e-02 0.0
1.062994e+00 3.861357e-02 0.0
1.043634e+00 -2.981829e-02 0.0
1.034727e+00 -1.001256e-01 0.0
1.040325e+00 -1.693205e-01 0.0
1.071151e+00 -2.378550e-01 0.0
1.136596e+00 -2.916296e-01 0.0
1.228088e+00 -3.023925e-01 0.0
1.328517e+00 -2.609329e-01 0.0
1.417757e+00 -1.745630e-01 0.0
1.477478e+00 -6.720387e-02 0.0
1.500772e+00 2.931942e-02 0.0
1.496292e+00 1.001723e-01 0.0
1.470768e+00 1.516428e-01 0.0
1.429533e+00 1.886841e-01 0.0
1.377039e+00 2.145818e-01 0.0
1.317045e+00 2.310274e-01 0.0
1.252735e+00 2.380881e-01 0.0
1.187467e+00 2.340341e-01 0.0
1.124998e+00 2.172116e-01 0.0
1.068827e+00 1.878921e-01 0.0
1.021659e+00 1.484291e-01 0.0
9.855577e-01 1.021959e-01 0.0
9.617995e-01 5.347001e-02 0.0
9.508119e-01 6.779929e-03 0.0
9.515932e-01 -3.390908e-02 0.0
9.621656e-01 -6.714137e-02 0.0
9.804643e-01 -9.292907e-02 0.0
1.004729e+00 -1.118363e-01 0.0
1.033353e+00 -1.240906e-01 0.0
1.064572e+00 -1.297603e-01 0.0
1.096476e+00 -1.291258e-01 0.0
1.127252e+00 -1.227181e-01 0.0
1.155259e+00 -1.111747e-01 0.0
1.179121e+00 -9.531913e-02 0.0
1.197762e+00 -7.615971e-02 0.0
1.210390e+00 -5.479779e-02 0.0
1.216323e+00 -3.213686e-02 0.0
1.214581e+00 -8.255015e-03 0.0
1.204330e+00 1.722466e-02 0.0
1.185689e+00 4.341409e-02 0.0
1.159791e+00 6.895501e-02 0.0
1.129256e+00 9.130853e-02 0.0
1.098446e+00 1.064251e-01 0.0
1.072737e+00 1.096570e-01 0.0
1.055724e+00 9.915650e-02 0.0
1.047906e+00 7.765227e-02 0.0
1.047924e+00 5.012099e-02 0.0
1.053598e+00 2.200827e-02 0.0
1.062578e+00 -2.247376e-03 0.0
1.073263e+00 -2.044645e-02 0.0
1.084765e+00 -3.239269e-02 0.0
1.096479e+00 -3.884120e-02 0.0
1.107931e+00 -4.096515e-02 0.0
1.118742e+00 -4.002917e-02 0.0
1.128561e+00 -3.704070e-02 0.0
1.137118e+00 -3.276135e-02 0.0
1.144255e+00 -2.778734e-02 0.0
1.149920e+00 -2.258086e-02 0.0
1.154141e+00 -1.748042e-02 0.0
1.156983e+00 -1.269872e-02 0.0
1.158510e+00 -8.317239e-03 0.0
1.158738e+00 -4.295932e-03 0.0
1.157642e+00 -5.381408e-04 0.0
1.155315e+00 2.872702e-03 0.0
1.151942e+00 5.768593e-03 0.0
1.147807e+00 7.918960e-03 0.0
1.143299e+00 9.168902e-03 0.0
1.139901e+00 7.921658e-03 0.0
0.000000e+00 8.625550e-03 0.0
1.000000e+00 -9.737475e-02 0.0
1.018716e+00 -9.661688e-02 0.0
1.040572e+00 -1.091820e-01 0.0
1.069288e+00 -1.354643e-01 0.0
1.110011e+00 -1.773536e-01 0.0
1.170143e+00 -2.374039e-01 0.0
1.255446e+00 -3.053739e-01 0.0
1.398868e+00 -4.307049e-01 0.0
1.485447e+00 -3.443820e-01 0.0
1.532610e+00 -2.490946e-01 0.0
1.563727e+00 -1.844487e-01 0.0
1.588105e+00 -1.402603e-01 0.0
1.608920e+00 -1.059985e-01 0.0
1.626219e+00 -7.430326e-02 0.0
1.637997e+00 -4.111696e-02 0.0
1.641988e+00 -7.455855e-03 0.0
1.638603e+00 2.198763e-02 0.0
1.629115e+00 4.647523e-02 0.0
1.614850e+00 6.647122e-02 0.0
1.596761e+00 8.321682e-02 0.0
1.575371e+00 9.811781e-02 0.0
1.550792e+00 1.124186e-01 0.0
1.522861e+00 1.269194e-01 0.0
1.491309e+00 1.419093e-01 0.0
1.455912e+00 1.572555e-01 0.0
1.416627e+00 1.725500e-01 0.0
1.373689e+00 1.872093e-01 0.0
1.327640e+00 2.004129e-01 0.0
1.279245e+00 2.107282e-01 0.0
1.229475e+00 2.151820e-01 0.0
1.180096e+00 2.081479e-01 0.0
1.133195e+00 1.838446e-01 0.0
1.088130e+00 1.415136e-01 0.0
1.039617e+00 8.712697e-02 0.0
9.841117e-01 2.568860e-02 0.0
9.287091e-01 -4.472223e-02 0.0
8.884539e-01 -1.290664e-01 0.0
8.789302e-01 -2.283350e-01 0.0
9.088150e-01 -3.215184e-01 0.0
9.777219e-01 -3.713040e-01 0.0
1.069973e+00 -3.531882e-01 0.0
1.167948e+00 -2.725412e-01 0.0
1.253455e+00 -1.527147e-01 0.0
1.310336e+00 -2.756603e-02 0.0
1.337906e+00 7.259780e-02 0.0
1.342368e+00 1.471773e-01 0.0
1.328637e+00 2.024113e-01 0.0
1.300901e+00 2.423143e-01 0.0
1.262902e+00 2.690237e-01 0.0
1.217991e+00 2.829952e-01 0.0
1.169158e+00 2.828644e-01 0.0
1.119733e+00 2.666340e-01 0.0
1.073012e+00 2.346107e-01 0.0
1.032063e+00 1.893766e-01 0.0
9.990752e-01 1.351819e-01 0.0
9.752035e-01 7.734051e-02 0.0
9.607819e-01 2.120067e-02 0.0
9.556034e-01 -2.873111e-02 0.0
9.586863e-01 -7.022479e-02 0.0
9.690696e-01 -1.033131e-01 0.0
9.854848e-01 -1.282526e-01 0.0
1.006365e+00 -1.449719e-01 0.0
1.029920e+00 -1.533181e-01 0.0
1.054252e+00 -1.534598e-01 0.0
1.077554e+00 -1.460230e-01 0.0
1.098255e+00 -1.318789e-01 0.0
1.115073e+00 -1.121411e-01 0.0
1.126990e+00 -8.807922e-02 0.0
1.133127e+00 -6.093851e-02 0.0
1.132491e+00 -3.150383e-02 0.0
1.123751e+00 4.810703e-04 0.0
1.107020e+00 3.395338e-02 0.0
1.083610e+00 6.682074e-02 0.0
1.056248e+00 9.631377e-02 0.0
1.029246e+00 1.183079e-01 0.0
1.007802e+00 1.278676e-01 0.0
9.955908e-01 1.218652e-01 0.0
9.923129e-01 1.024322e-01 0.0
9.957554e-01 7.420778e-02 0.0
1.003153e+00 4.272148e-02 0.0
1.012238e+00 1.292076e-02 0.0
1.021751e+00 -1.176184e-02 0.0
1.031506e+00 -3.020375e-02 0.0
1.041570e+00 -4.245847e-02 0.0
1.051890e+00 -4.916279e-02 0.0
1.062214e+00 -5.129187e-02 0.0
1.072147e+00 -4.996428e-02 0.0
1.081265e+00 -4.616060e-02 0.0
1.089217e+00 -4.071613e-02 0.0
1.095766e+00 -3.433877e-02 0.0
1.100782e+00 -2.759922e-02 0.0
1.104210e+00 -2.091130e-02 0.0
1.106019e+00 -1.451043e-02 0.0
1.106143e+00 -8.444469e-03 0.0
1.104460e+00 -2.615524e-03 0.0
1.100973e+00 2.946278e-03 0.0
1.095875e+00 7.967439e-03 0.0
1.089485e+00 1.215549e-02 0.0
1.082350e+00 1.505138e-02 0.0
1.075372e+00 1.614365e-02 0.0
1.071204e+00 1.208724e-02 0.0
0.000000e+00 1.294268e-02 0.0
1.000000e+00 -1.094013e-01 0.0
1.011839e+00 -1.084856e-01 0.0
1.026234e+00 -1.235793e-01 0.0
1.046665e+00 -1.558980e-01 0.0
1.079157e+00 -2.098476e-01 0.0
1.134283e+00 -2.925305e-01 0.0
1.226825e+00 -3.979160e-01 0.0
1.407699e+00 -6.115786e-01 0.0
1.461685e+00 -3.983644e-01 0.0
1.469800e+00 -2.572034e-01 0.0
1.471350e+00 -1.859939e-01 0.0
1.475377e+00 -1.442920e-01 0.0
1.484314e+00 -1.149432e-01 0.0
1.498158e+00 -8.814794e-02 0.0
1.513841e+00 -5.680214e-02 0.0
1.525510e+00 -1.912555e-02 0.0
1.529133e+00 1.836290e-02 0.0
1.526123e+00 4.948245e-02 0.0
1.518218e+00 7.437314e-02 0.0
1.506627e+00 9.480307e-02 0.0
1.492038e+00 1.127027e-01 0.0
1.474521e+00 1.299304e-01 0.0
1.453739e+00 1.476966e-01 0.0
1.429190e+00 1.664534e-01 0.0
1.400421e+00 1.860200e-01 0.0
1.367200e+00 2.057671e-01 0.0
1.329650e+00 2.247554e-01 0.0
1.288298e+00 2.417618e-01 0.0
1.243899e+00 2.551239e-01 0.0
1.196891e+00 2.621887e-01 0.0
1.147273e+00 2.577643e-01 0.0
1.095350e+00 2.357679e-01 0.0
1.039029e+00 1.978353e-01 0.0
9.690767e-01 1.570803e-01 0.0
8.791278e-01 1.156385e-01 0.0
7.946515e-01 3.975345e-02 0.0
7.532477e-01 -8.766601e-02 0.0
7.513429e-01 -2.264345e-01 0.0
7.724234e-01 -3.426035e-01 0.0
8.157583e-01 -4.146434e-01 0.0
8.813205e-01 -4.187541e-01 0.0
9.612177e-01 -3.524423e-01 0.0
1.043289e+00 -2.347904e-01 0.0
1.113466e+00 -9.774702e-02 0.0
1.160004e+00 2.605625e-02 0.0
1.185457e+00 1.217203e-01 0.0
1.193166e+00 1.946983e-01 0.0
1.186410e+00 2.490665e-01 0.0
1.168387e+00 2.870432e-01 0.0
1.142183e+00 3.091968e-01 0.0
1.110348e+00 3.146963e-01 0.0
1.075538e+00 3.014419e-01 0.0
1.040659e+00 2.694875e-01 0.0
1.008382e+00 2.216526e-01 0.0
9.806450e-01 1.629173e-01 0.0
9.586407e-01 9.934392e-02 0.0
9.432092e-01 3.663157e-02 0.0
9.352820e-01 -2.080437e-02 0.0
9.351182e-01 -7.006171e-02 0.0
9.420742e-01 -1.102700e-01 0.0
9.547960e-01 -1.409758e-01 0.0
9.715416e-01 -1.617194e-01 0.0
9.904230e-01 -1.722021e-01 0.0
1.009547e+00 -1.725866e-01 0.0
1.027131e+00 -1.636106e-01 0.0
1.041696e+00 -1.464465e-01 0.0
1.052078e+00 -1.225266e-01 0.0
1.057322e+00 -9.332623e-02 0.0
1.056465e+00 -6.008474e-02 0.0
1.048302e+00 -2.334465e-02 0.0
1.032369e+00 1.641133e-02 0.0
1.010248e+00 5.607120e-02 0.0
9.847183e-01 9.234792e-02 0.0
9.599477e-01 1.210817e-01 0.0
9.408049e-01 1.374483e-01 0.0
9.309403e-01 1.377298e-01 0.0
9.298923e-01 1.229111e-01 0.0
9.350430e-01 9.727949e-02 0.0
9.433067e-01 6.594219e-02 0.0
9.522896e-01 3.373680e-02 0.0
9.608376e-01 4.370941e-03 0.0
9.690887e-01 -2.001469e-02 0.0
9.776562e-01 -3.877318e-02 0.0
9.869300e-01 -5.173416e-02 0.0
9.969161e-01 -5.915078e-02 0.0
1.007272e+00 -6.164958e-02 0.0
1.017438e+00 -6.013243e-02 0.0
1.026837e+00 -5.556216e-02 0.0
1.034985e+00 -4.886614e-02 0.0
1.041528e+00 -4.088355e-02 0.0
1.046229e+00 -3.230323e-02 0.0
1.048923e+00 -2.360810e-02 0.0
1.049450e+00 -1.503953e-02 0.0
1.047606e+00 -6.603289e-03 0.0
1.043265e+00 1.722771e-03 0.0
1.036683e+00 9.526011e-03 0.0
1.028278e+00 1.636964e-02 0.0
1.018740e+00 2.169025e-02 0.0
1.009141e+00 2.464734e-02 0.0
1.001049e+00 2.423325e-02 0.0
9.967133e-01 1.642015e-02 0.0
0.000000e+00 1.729769e-02 0.0
1.000000e+00 -1.129991e-01 0.0
1.003442e+00 -1.119526e-01 0.0
1.008020e+00 -1.281599e-01 0.0
1.015848e+00 -1.637280e-01 0.0
1.032115e+00 -2.261157e-01 0.0
1.068741e+00 -3.291569e-01 0.0
1.152751e+00 -4.819257e-01 0.0
1.361819e+00 -8.206446e-01 0.0
1.330834e+00 -3.673757e-01 0.0
1.266536e+00 -1.929017e-01 0.0
1.221096e+00 -1.405560e-01 0.0
1.191485e+00 -1.146906e-01 0.0
1.176792e+00 -1.002548e-01 0.0
1.179700e+00 -9.105731e-02 0.0
1.198638e+00 -7.574089e-02 0.0
1.227148e+00 -4.763698e-02 0.0
1.252751e+00 -7.241639e-03 0.0
1.268202e+00 3.402745e-02 0.0
1.277244e+00 6.532670e-02 0.0
1.281957e+00 9.008598e-02 0.0
1.283605e+00 1.110499e-01 0.0
1.282262e+00 1.312698e-01 0.0
1.277321e+00 1.526329e-01 0.0
1.267920e+00 1.758503e-01 0.0
1.253245e+00 2.006908e-01 0.0
1.232751e+00 2.262571e-01 0.0
1.206335e+00 2.511688e-01 0.0
1.174407e+00 2.736873e-01 0.0
1.137683e+00 2.918460e-01 0.0
1.096089e+00 3.037820e-01 0.0
1.043963e+00 3.098898e-01 0.0
9.643926e-01 3.153387e-01 0.0
8.391483e-01 3.230809e-01 0.0
7.001189e-01 2.961109e-01 0.0
6.238520e-01 1.919054e-01 0.0
6.288066e-01 3.479616e-02 0.0
6.657166e-01 -1.245804e-01 0.0
6.997654e-01 -2.604879e-01 0.0
7.242307e-01 -3.670735e-01 0.0
7.471495e-01 -4.375660e-01 0.0
7.818977e-01 -4.535064e-01 0.0
8.320118e-01 -4.025604e-01 0.0
8.928791e-01 -2.956619e-01 0.0
9.547020e-01 -1.595744e-01 0.0
1.005211e+00 -2.445645e-02 0.0
1.039401e+00 8.752610e-02 0.0
1.058444e+00 1.756517e-01 0.0
1.064421e+00 2.430856e-01 0.0
1.059745e+00 2.917163e-01 0.0
1.046959e+00 3.219796e-01 0.0
1.028442e+00 3.332111e-01 0.0
1.006047e+00 3.238353e-01 0.0
9.818641e-01 2.936684e-01 0.0
9.578292e-01 2.456861e-01 0.0
9.356381e-01 1.851074e-01 0.0
9.169990e-01 1.179823e-01 0.0
9.037578e-01 4.987232e-02 0.0
8.976108e-01 -1.465796e-02 0.0
8.992239e-01 -7.167553e-02 0.0
9.075424e-01 -1.185897e-01 0.0
9.206367e-01 -1.540719e-01 0.0
9.364415e-01 -1.775266e-01 0.0
9.530268e-01 -1.887901e-01 0.0
9.686212e-01 -1.881840e-01 0.0
9.816082e-01 -1.766007e-01 0.0
9.906866e-01 -1.555281e-01 0.0
9.948466e-01 -1.266900e-01 0.0
9.932186e-01 -9.170145e-02 0.0
9.848893e-01 -5.175879e-02 0.0
9.691128e-01 -7.571318e-03 0.0
9.475423e-01 3.797895e-02 0.0
9.230807e-01 8.052983e-02 0.0
8.996402e-01 1.157857e-01 0.0
8.816178e-01 1.391016e-01 0.0
8.722910e-01 1.467727e-01 0.0
8.715290e-01 1.384897e-01 0.0
8.765112e-01 1.179270e-01 0.0
8.841548e-01 8.963401e-02 0.0
8.920676e-01 5.802767e-02 0.0
8.991714e-01 2.663139e-02 0.0
9.056892e-01 -2.148487e-03 0.0
9.126603e-01 -2.698744e-02 0.0
9.208661e-01 -4.698070e-02 0.0
9.305382e-01 -6.140800e-02 0.0
9.414040e-01 -7.001830e-02 0.0
9.528426e-01 -7.308992e-02 0.0
9.640619e-01 -7.135365e-02 0.0
9.742966e-01 -6.579886e-02 0.0
9.829138e-01 -5.748542e-02 0.0
9.894335e-01 -4.740550e-02 0.0
9.934980e-01 -3.637001e-02 0.0
9.948179e-01 -2.493031e-02 0.0
9.931322e-01 -1.335627e-02 0.0
9.882527e-01 -1.726303e-03 0.0
9.805196e-01 9.453252e-03 0.0
9.705718e-01 1.947127e-02 0.0
9.593410e-01 2.759779e-02 0.0
9.480958e-01 3.293278e-02 0.0
9.383976e-01 3.434285e-02 0.0
9.315963e-01 3.103192e-02 0.0
9.278979e-01 2.011592e-02 0.0
0.000000e+00 2.091202e-02 0.0
1.000000e+00 -1.074098e-01 0.0
9.942924e-01 -1.062664e-01 0.0
9.873643e-01 -1.212332e-01 0.0
9.782046e-01 -1.545692e-01 0.0
9.670750e-01 -2.149867e-01 0.0
9.585687e-01 -3.206504e-01 0.0
9.781374e-01 -5.014939e-01 0.0
1.126322e+00 -9.688281e-01 0.0
9.476870e-01 -1.887335e-01 0.0
7.763600e-01 -2.157354e-02 0.0
6.843857e-01 -4.858916e-02 0.0
6.186283e-01 -4.894013e-02 0.0
5.702891e-01 -5.191596e-02 0.0
5.606595e-01 -8.142907e-02 0.0
5.882909e-01 -1.033720e-01 0.0
6.406796e-01 -1.000278e-01 0.0
7.061812e-01 -7.274650e-02 0.0
7.695654e-01 -2.936072e-02 0.0
8.180499e-01 1.683814e-02 0.0
8.567821e-01 5.134980e-02 0.0
8.903929e-01 7.743486e-02 0.0
9.192248e-01 1.024338e-01 0.0
9.421930e-01 1.296607e-01 0.0
9.578045e-01 1.602349e-01 0.0
9.645137e-01 1.939780e-01 0.0
9.607224e-01 2.300456e-01 0.0
9.446211e-01 2.672677e-01 0.0
9.137659e-01 3.045408e-01 0.0
8.643171e-01 3.412935e-01 0.0
7.902812e-01 3.778176e-01 0.0
6.853794e-01 4.147921e-01 0.0
5.562244e-01 4.444948e-01 0.0
4.586593e-01 4.206474e-01 0.0
4.430590e-01 3.117119e-01 0.0
4.980029e-01 1.369599e-01 0.0
5.792368e-01 -4.644184e-02 0.0
6.487390e-01 -1.940874e-01 0.0
6.946321e-01 -3.063856e-01 0.0
7.171070e-01 -3.895525e-01 0.0
7.261291e-01 -4.465922e-01 0.0
7.380764e-01 -4.654578e-01 0.0
7.625062e-01 -4.269947e-01 0.0
7.998011e-01 -3.329613e-01 0.0
8.445551e-01 -2.043327e-01 0.0
8.878659e-01 -6.777136e-02 0.0
9.211999e-01 5.418821e-02 0.0
9.430893e-01 1.537586e-01 0.0
9.542508e-01 2.319207e-01 0.0
9.562649e-01 2.896992e-01 0.0
9.510866e-01 3.271554e-01 0.0
9.406622e-01 3.436332e-01 0.0
9.262685e-01 3.382271e-01 0.0
9.090705e-01 3.108650e-01 0.0
8.904990e-01 2.642564e-01 0.0
8.727090e-01 2.028966e-01 0.0
8.586536e-01 1.320372e-01 0.0
8.511998e-01 5.732578e-02 0.0
8.518713e-01 -1.533020e-02 0.0
8.601226e-01 -7.992774e-02 0.0
8.736401e-01 -1.321088e-01 0.0
8.898022e-01 -1.702361e-01 0.0
9.064484e-01 -1.941754e-01 0.0
9.219046e-01 -2.042492e-01 0.0
9.347343e-01 -2.010168e-01 0.0
9.436581e-01 -1.855277e-01 0.0
9.476265e-01 -1.594999e-01 0.0
9.458006e-01 -1.248674e-01 0.0
9.374823e-01 -8.338641e-02 0.0
9.222163e-01 -3.649605e-02 0.0
9.010614e-01 1.358061e-02 0.0
8.773505e-01 6.168686e-02 0.0
8.546904e-01 1.031872e-01 0.0
8.369151e-01 1.335585e-01 0.0
8.268374e-01 1.491770e-01 0.0
8.246887e-01 1.489192e-01 0.0
8.278238e-01 1.353526e-01 0.0
8.333304e-01 1.124186e-01 0.0
8.389910e-01 8.397171e-02 0.0
8.438324e-01 5.318471e-02 0.0
8.481502e-01 2.231215e-02 0.0
8.530843e-01 -7.084130e-03 0.0
8.598149e-01 -3.371958e-02 0.0
8.688040e-01 -5.597128e-02 0.0
8.798434e-01 -7.244898e-02 0.0
8.922598e-01 -8.243616e-02 0.0
9.051362e-01 -8.596804e-02 0.0
9.174795e-01 -8.369865e-02 0.0
9.283765e-01 -7.669768e-02 0.0
9.370749e-01 -6.618584e-02 0.0
9.429796e-01 -5.331220e-02 0.0
9.456229e-01 -3.901541e-02 0.0
9.446562e-01 -2.396585e-02 0.0
9.399175e-01 -8.619924e-03 0.0
9.317768e-01 6.412085e-03 0.0
9.211684e-01 2.005915e-02 0.0
9.092711e-01 3.136611e-02 0.0
8.975230e-01 3.934336e-02 0.0
8.874530e-01 4.300025e-02 0.0
8.802668e-01 4.152660e-02 0.0
8.760664e-01 3.522976e-02 0.0
8.733563e-01 2.282356e-02 0.0
0.000000e+00 2.352144e-02 0.0
1.000000e+00 -9.326822e-02 0.0
9.857828e-01 -9.206654e-02 0.0
9.676638e-01 -1.031148e-01 0.0
9.404184e-01 -1.273241e-01 0.0
8.952931e-01 -1.698613e-01 0.0
8.150794e-01 -2.404361e-01 0.0
6.738578e-01 -3.602716e-01 0.0
1.887447e-01 -4.837090e-01 0.0
-9.486493e-01 4.867111e-01 0.0
0.000000e+00 -3.299760e-02 0.0
-1.012272e-01 3.105959e-02 0.0
-1.334034e-01 -1.676528e-02 0.0
-9.033333e-02 -9.498610e-02 0.0
-2.201769e-02 -1.497455e-01 0.0
3.705602e-02 -1.624470e-01 0.0
1.013586e-01 -1.643335e-01 0.0
1.752312e-01 -1.466232e-01 0.0
2.562794e-01 -1.104126e-01 0.0
3.368706e-01 -6.375728e-02 0.0
4.067122e-01 -1.849570e-02 0.0
4.648272e-01 1.931592e-02 0.0
5.145156e-01 5.274158e-02 0.0
5.548142e-01 8.935839e-02 0.0
5.840007e-01 1.310450e-01 0.0
6.000399e-01 1.779359e-01 0.0
6.003934e-01 2.296898e-01 0.0
5.821572e-01 2.855020e-01 0.0
5.423372e-01 3.443597e-01 0.0
4.786876e-01 4.049427e-01 0.0
3.931593e-01 4.633462e-01 0.0
3.022129e-01 5.057395e-01 0.0
2.545682e-01 4.921410e-01 0.0
2.794817e-01 3.957351e-01 0.0
3.653217e-01 2.258715e-01 0.0
4.787966e-01 2.348186e-02 0.0
5.820732e-01 -1.497233e-01 0.0
6.635506e-01 -2.755691e-01 0.0
7.162014e-01 -3.590407e-01 0.0
7.386227e-01 -4.119780e-01 0.0
7.378918e-01 -4.458655e-01 0.0
7.310333e-01 -4.586037e-01 0.0
7.343008e-01 -4.302668e-01 0.0
7.509002e-01 -3.495654e-01 0.0
7.775528e-01 -2.309898e-01 0.0
8.080167e-01 -9.823941e-02 0.0
8.345055e-01 2.769554e-02 0.0
8.534461e-01 1.348142e-01 0.0
8.643331e-01 2.210305e-01 0.0
8.679009e-01 2.861286e-01 0.0
8.653944e-01 3.296594e-01 0.0
8.580645e-01 3.509611e-01 0.0
8.466462e-01 3.496438e-01 0.0
8.320580e-01 3.254519e-01 0.0
8.164512e-01 2.798624e-01 0.0
8.034342e-01 2.159131e-01 0.0
7.968828e-01 1.385882e-01 0.0
7.991953e-01 5.501274e-02 0.0
8.102892e-01 -2.642483e-02 0.0
8.276371e-01 -9.727688e-02 0.0
8.478169e-01 -1.522905e-01 0.0
8.678691e-01 -1.902907e-01 0.0
8.857828e-01 -2.120917e-01 0.0
9.003056e-01 -2.187749e-01 0.0
9.104941e-01 -2.112086e-01 0.0
9.155566e-01 -1.905934e-01 0.0
9.147823e-01 -1.587289e-01 0.0
9.075872e-01 -1.176757e-01 0.0
8.937104e-01 -6.951289e-02 0.0
8.738571e-01 -1.664584e-02 0.0
8.511969e-01 3.623774e-02 0.0
8.292139e-01 8.366705e-02 0.0
8.112344e-01 1.211641e-01 0.0
7.996571e-01 1.451332e-01 0.0
7.948764e-01 1.539555e-01 0.0
7.949022e-01 1.488913e-01 0.0
7.971065e-01 1.331465e-01 0.0
7.995379e-01 1.099857e-01 0.0
8.013669e-01 8.214120e-02 0.0
8.029183e-01 5.163191e-02 0.0
8.052734e-01 1.995569e-02 0.0
8.097534e-01 -1.156546e-02 0.0
8.171561e-01 -4.112370e-02 0.0
8.274548e-01 -6.627133e-02 0.0
8.400079e-01 -8.500335e-02 0.0
8.538203e-01 -9.625004e-02 0.0
8.677570e-01 -9.990623e-02 0.0
8.806849e-01 -9.662817e-02 0.0
8.916065e-01 -8.762099e-02 0.0
8.997010e-01 -7.428207e-02 0.0
9.043137e-01 -5.792684e-02 0.0
9.049728e-01 -3.967655e-02 0.0
9.014914e-01 -2.048649e-02 0.0
8.942116e-01 -1.342349e-03 0.0
8.842485e-01 1.637297e-02 0.0
8.729325e-01 3.137287e-02 0.0
8.617512e-01 4.254501e-02 0.0
8.521440e-01 4.894816e-02 0.0
8.451434e-01 4.999855e-02 0.0
8.408242e-01 4.584335e-02 0.0
8.385467e-01 3.750490e-02 0.0
8.366083e-01 2.475962e-02 0.0
0.000000e+00 2.539894e-02 0.0
1.000000e+00 -7.284383e-02 0.0
9.795433e-01 -7.162310e-02 0.0
9.534720e-01 -7.704350e-02 0.0
9.140099e-01 -8.786148e-02 0.0
8.472166e-01 -1.030671e-01 0.0
7.240526e-01 -1.172710e-01 0.0
4.706246e-01 -1.068423e-01 0.0
-6.291973e-03 -6.787479e-03 0.0
2.829526e-06 0.000000e+00 0.0
0.000000e+00 -0.000000e+00 0.0
0.000000e+00 -8.838478e-02 0.0
-1.016421e-01 8.487564e-02 0.0
-1.228995e-01 -7.373060e-02 0.0
-1.345576e-01 -1.380883e-01 0.0
-1.531356e-01 -1.438718e-01 0.0
-1.577939e-01 -1.596788e-01 0.0
-1.352154e-01 -1.692055e-01 0.0
-8.515581e-02 -1.604761e-01 0.0
-1.721633e-02 -1.317006e-01 0.0