# vtk DataFile Version 3.0
Vector Field
ASCII
DATASET RECTILINEAR_GRID
DIMENSIONS 102 22 1
X_COORDINATES 102 double
0.000000 0.100000 0.200000 0.300000 0.400000 0.500000 0.600000 0.700000 0.800000 0.900000 1.000000 1.100000 1.200000 1.300000 1.400000 1.500000 1.600000 1.700000 1.800000 1.900000 2.000000 2.100000 2.200000 2.300000 2.400000 2.500000 2.600000 2.700000 2.800000 2.900000 3.000000 3.100000 3.200000 3.300000 3.400000 3.500000 3.600000 3.700000 3.800000 3.900000 4.000000 4.100000 4.200000 4.300000 4.400000 4.500000 4.600000 4.700000 4.800000 4.900000 5.000000 5.100000 5.200000 5.300000 5.400000 5.500000 5.600000 5.700000 5.800000 5.900000 6.000000 6.100000 6.200000 6.300000 6.400000 6.500000 6.600000 6.700000 6.800000 6.900000 7.000000 7.100000 7.200000 7.300000 7.400000 7.500000 7.600000 7.700000 7.800000 7.900000 8.000000 8.100000 8.200000 8.300000 8.400000 8.500000 8.600000 8.700000 8.800000 8.900000 9.000000 9.100000 9.200000 9.300000 9.400000 9.500000 9.600000 9.700000 9.800000 9.900000 10.000000 10.100000 
Y_COORDINATES 22 double
0.000000 0.100000 0.200000 0.300000 0.400000 0.500000 0.600000 0.700000 0.800000 0.900000 1.000000 1.100000 1.200000 1.300000 1.400000 1.500000 1.600000 1.700000 1.800000 1.900000 2.000000 2.100000 
Z_COORDINATES 1 double
0.0
POINT_DATA 2244
VECTORS Velocity double
0.000000e+00 0.000000e+00 0.0
-1.022234e+00 0.000000e+00 0.0
-1.045312e+00 0.000000e+00 0.0
-1.069445e+00 0.000000e+00 0.0
-1.094353e+00 0.000000e+00 0.0
-1.118883e+00 0.000000e+00 0.0
-1.140717e+00 0.000000e+00 0.0
-1.156483e+00 0.000000e+00 0.0
-1.162712e+00 0.000000e+00 0.0
-1.157658e+00 0.000000e+00 0.0
-1.142496e+00 0.000000e+00 0.0
-1.120541e+00 0.000000e+00 0.0
-1.095696e+00 0.000000e+00 0.0
-1.071233e+00 0.000000e+00 0.0
-1.049303e+00 0.000000e+00 0.0
-1.030967e+00 0.000000e+00 0.0
-1.016468e+00 0.000000e+00 0.0
-1.005545e+00 0.000000e+00 0.0
-9.976868e-01 0.000000e+00 0.0
-9.923035e-01 0.000000e+00 0.0
-9.888298e-01 0.000000e+00 0.0
-9.867745e-01 0.000000e+00 0.0
-9.857371e-01 0.000000e+00 0.0
-9.854050e-01 0.000000e+00 0.0
-9.855426e-01 0.000000e+00 0.0
-9.859775e-01 0.000000e+00 0.0
-9.865865e-01 0.000000e+00 0.0
-9.872841e-01 0.000000e+00 0.0
-9.880123e-01 0.000000e+00 0.0
-9.887333e-01 0.000000e+00 0.0
-9.894235e-01 0.000000e+00 0.0
-9.900695e-01 0.000000e+00 0.0
-9.906645e-01 0.000000e+00 0.0
-9.912062e-01 0.000000e+00 0.0
-9.916956e-01 0.000000e+00 0.0
-9.921350e-01 0.000000e+00 0.0
-9.925281e-01 0.000000e+00 0.0
-9.928790e-01 0.000000e+00 0.0
-9.931919e-01 0.000000e+00 0.0
-9.934710e-01 0.000000e+00 0.0
-9.937202e-01 0.000000e+00 0.0
-9.939433e-01 0.000000e+00 0.0
-9.941434e-01 0.000000e+00 0.0
-9.943238e-01 0.000000e+00 0.0
-9.944870e-01 0.000000e+00 0.0
-9.946355e-01 0.000000e+00 0.0
-9.947714e-01 0.000000e+00 0.0
-9.948964e-01 0.000000e+00 0.0
-9.950122e-01 0.000000e+00 0.0
-9.951202e-01 0.000000e+00 0.0
-9.952215e-01 0.000000e+00 0.0
-9.953173e-01 0.000000e+00 0.0
-9.954084e-01 0.000000e+00 0.0
-9.954955e-01 0.000000e+00 0.0
-9.955795e-01 0.000000e+00 0.0
-9.956607e-01 0.000000e+00 0.0
-9.957398e-01 0.000000e+00 0.0
-9.958170e-01 0.000000e+00 0.0
-9.958929e-01 0.000000e+00 0.0
-9.959677e-01 0.000000e+00 0.0
-9.960416e-01 0.000000e+00 0.0
-9.961149e-01 0.000000e+00 0.0
-9.961877e-01 0.000000e+00 0.0
-9.962602e-01 0.000000e+00 0.0
-9.963326e-01 0.000000e+00 0.0
-9.964049e-01 0.000000e+00 0.0
-9.964772e-01 0.000000e+00 0.0
-9.965497e-01 0.000000e+00 0.0
-9.966224e-01 0.000000e+00 0.0
-9.966953e-01 0.000000e+00 0.0
-9.967684e-01 0.000000e+00 0.0
-9.968419e-01 0.000000e+00 0.0
-9.969157e-01 0.000000e+00 0.0
-9.969898e-01 0.000000e+00 0.0
-9.970643e-01 0.000000e+00 0.0
-9.971392e-01 0.000000e+00 0.0
-9.972144e-01 0.000000e+00 0.0
-9.972901e-01 0.000000e+00 0.0
-9.973661e-01 0.000000e+00 0.0
-9.974425e-01 0.000000e+00 0.0
-9.975192e-01 0.000000e+00 0.0
-9.975963e-01 0.000000e+00 0.0
-9.976739e-01 0.000000e+00 0.0
-9.977517e-01 0.000000e+00 0.0
-9.978300e-01 0.000000e+00 0.0
-9.979087e-01 0.000000e+00 0.0
-9.979879e-01 0.000000e+00 0.0
-9.980675e-01 0.000000e+00 0.0
-9.981477e-01 0.000000e+00 0.0
-9.982287e-01 0.000000e+00 0.0
-9.983105e-01 0.000000e+00 0.0
-9.983935e-01 0.000000e+00 0.0
-9.984782e-01 0.000000e+00 0.0
-9.985653e-01 0.000000e+00 0.0
-9.986559e-01 0.000000e+00 0.0
-9.987524e-01 0.000000e+00 0.0
-9.988590e-01 0.000000e+00 0.0
-9.989849e-01 0.000000e+00 0.0
-9.991528e-01 0.000000e+00 0.0
-9.994253e-01 0.000000e+00 0.0
-9.994253e-01 0.000000e+00 0.0
0.000000e+00 0.000000e+00 0.0
1.000000e+00 -2.208263e-02 0.0
1.024299e+00 -2.599161e-02 0.0
1.050682e+00 -2.735456e-02 0.0
1.078848e+00 -2.913751e-02 0.0
1.108603e+00 -3.072493e-02 0.0
1.138670e+00 -3.103569e-02 0.0
1.166268e+00 -2.856459e-02 0.0
1.187250e+00 -2.194712e-02 0.0
1.197477e+00 -1.119019e-02 0.0
1.195296e+00 1.220331e-03 0.0
1.182180e+00 1.215738e-02 0.0
1.161398e+00 1.982630e-02 0.0
1.136726e+00 2.371828e-02 0.0
1.111467e+00 2.430713e-02 0.0
1.087981e+00 2.253745e-02 0.0
1.067624e+00 1.941091e-02 0.0
1.050922e+00 1.575932e-02 0.0
1.037822e+00 1.215946e-02 0.0
1.027942e+00 8.942659e-03 0.0
1.020756e+00 6.252117e-03 0.0
1.015716e+00 4.108822e-03 0.0
1.012323e+00 2.466197e-03 0.0
1.010151e+00 1.248141e-03 0.0
1.008858e+00 3.722498e-04 0.0
1.008180e+00 -2.381632e-04 0.0
1.007915e+00 -6.484444e-04 0.0
1.007918e+00 -9.115981e-04 0.0
1.008083e+00 -1.069030e-03 0.0
1.008334e+00 -1.152193e-03 0.0
1.008622e+00 -1.184466e-03 0.0
1.008913e+00 -1.182912e-03 0.0
1.009185e+00 -1.159781e-03 0.0
1.009426e+00 -1.123716e-03 0.0
1.009628e+00 -1.080705e-03 0.0
1.009789e+00 -1.034808e-03 0.0
1.009908e+00 -9.887033e-04 0.0
1.009988e+00 -9.440872e-04 0.0
1.010030e+00 -9.019724e-04 0.0
1.010038e+00 -8.629007e-04 0.0
1.010015e+00 -8.270968e-04 0.0
1.009964e+00 -7.945768e-04 0.0
1.009889e+00 -7.652257e-04 0.0
1.009793e+00 -7.388501e-04 0.0
1.009678e+00 -7.152154e-04 0.0
1.009546e+00 -6.940701e-04 0.0
1.009401e+00 -6.751599e-04 0.0
1.009244e+00 -6.582414e-04 0.0
1.009077e+00 -6.430866e-04 0.0
1.008902e+00 -6.294857e-04 0.0
1.008719e+00 -6.172484e-04 0.0
1.008530e+00 -6.062044e-04 0.0
1.008336e+00 -5.962023e-04 0.0
1.008138e+00 -5.871086e-04 0.0
1.007937e+00 -5.788065e-04 0.0
1.007733e+00 -5.711938e-04 0.0
1.007527e+00 -5.641819e-04 0.0
1.007320e+00 -5.576940e-04 0.0
1.007111e+00 -5.516639e-04 0.0
1.006901e+00 -5.460347e-04 0.0
1.006691e+00 -5.407576e-04 0.0
1.006481e+00 -5.357909e-04 0.0
1.006271e+00 -5.310987e-04 0.0
1.006060e+00 -5.266509e-04 0.0
1.005850e+00 -5.224217e-04 0.0
1.005640e+00 -5.183894e-04 0.0
1.005431e+00 -5.145357e-04 0.0
1.005223e+00 -5.108451e-04 0.0
1.005015e+00 -5.073049e-04 0.0
1.004808e+00 -5.039042e-04 0.0
1.004601e+00 -5.006344e-04 0.0
1.004395e+00 -4.974882e-04 0.0
1.004191e+00 -4.944597e-04 0.0
1.003987e+00 -4.915443e-04 0.0
1.003783e+00 -4.887385e-04 0.0
1.003581e+00 -4.860396e-04 0.0
1.003379e+00 -4.834456e-04 0.0
1.003178e+00 -4.809555e-04 0.0
1.002978e+00 -4.785691e-04 0.0
1.002779e+00 -4.762867e-04 0.0
1.002581e+00 -4.741096e-04 0.0
1.002383e+00 -4.720399e-04 0.0
1.002186e+00 -4.700812e-04 0.0
1.001990e+00 -4.682382e-04 0.0
1.001794e+00 -4.665177e-04 0.0
1.001600e+00 -4.649291e-04 0.0
1.001405e+00 -4.634856e-04 0.0
1.001212e+00 -4.622055e-04 0.0
1.001020e+00 -4.611144e-04 0.0
1.000828e+00 -4.602490e-04 0.0
1.000637e+00 -4.596624e-04 0.0
1.000448e+00 -4.594333e-04 0.0
1.000260e+00 -4.596815e-04 0.0
1.000075e+00 -4.605967e-04 0.0
9.998920e-01 -4.624929e-04 0.0
9.997136e-01 -4.659229e-04 0.0
9.995421e-01 -4.719377e-04 0.0
9.993819e-01 -4.827369e-04 0.0
9.992430e-01 -5.034927e-04 0.0
9.991490e-01 -5.480764e-04 0.0
9.991662e-01 -6.590847e-04 0.0
9.994253e-01 -9.009854e-04 0.0
0.000000e+00 -3.063917e-04 0.0
1.000000e+00 -4.432199e-02 0.0
1.024321e+00 -5.128553e-02 0.0
1.050448e+00 -5.373462e-02 0.0
1.078772e+00 -5.771386e-02 0.0
1.109711e+00 -6.191563e-02 0.0
1.142424e+00 -6.400093e-02 0.0
1.174036e+00 -6.042759e-02 0.0
1.199136e+00 -4.729735e-02 0.0
1.211221e+00 -2.352442e-02 0.0
1.207977e+00 4.215167e-03 0.0
1.191882e+00 2.800312e-02 0.0
1.167384e+00 4.407677e-02 0.0
1.139298e+00 5.155704e-02 0.0
1.111511e+00 5.184825e-02 0.0
1.086516e+00 4.728676e-02 0.0
1.065528e+00 4.015364e-02 0.0
1.048815e+00 3.222849e-02 0.0
1.036067e+00 2.466344e-02 0.0
1.026703e+00 1.806382e-02 0.0
1.020066e+00 1.264765e-02 0.0
1.015535e+00 8.399452e-03 0.0
1.012575e+00 5.185731e-03 0.0
1.010755e+00 2.829526e-03 0.0
1.009737e+00 1.152579e-03 0.0
1.009266e+00 -4.176121e-06 0.0
1.009155e+00 -7.731483e-04 0.0
1.009268e+00 -1.259725e-03 0.0
1.009511e+00 -1.545078e-03 0.0
1.009816e+00 -1.690226e-03 0.0
1.010141e+00 -1.740157e-03 0.0
1.010455e+00 -1.727474e-03 0.0
1.010742e+00 -1.675422e-03 0.0
1.010991e+00 -1.600305e-03 0.0
1.011197e+00 -1.513351e-03 0.0
1.011359e+00 -1.422114e-03 0.0
1.011477e+00 -1.331527e-03 0.0
1.011555e+00 -1.244676e-03 0.0
1.011595e+00 -1.163362e-03 0.0
1.011600e+00 -1.088505e-03 0.0
1.011574e+00 -1.020437e-03 0.0
1.011521e+00 -9.591086e-04 0.0
1.011444e+00 -9.042294e-04 0.0
1.011345e+00 -8.553713e-04 0.0
1.011228e+00 -8.120352e-04 0.0
1.011095e+00 -7.736967e-04 0.0
1.010949e+00 -7.398354e-04 0.0
1.010791e+00 -7.099540e-04 0.0
1.010623e+00 -6.835886e-04 0.0
1.010446e+00 -6.603145e-04 0.0
1.010263e+00 -6.397474e-04 0.0
1.010074e+00 -6.215436e-04 0.0
1.009879e+00 -6.053980e-04 0.0
1.009681e+00 -5.910416e-04 0.0
1.009480e+00 -5.782383e-04 0.0
1.009276e+00 -5.667823e-04 0.0
1.009070e+00 -5.564941e-04 0.0
1.008862e+00 -5.472183e-04 0.0
1.008654e+00 -5.388205e-04 0.0
1.008444e+00 -5.311846e-04 0.0
1.008235e+00 -5.242107e-04 0.0
1.008024e+00 -5.178130e-04 0.0
1.007814e+00 -5.119179e-04 0.0
1.007604e+00 -5.064622e-04 0.0
1.007394e+00 -5.013921e-04 0.0
1.007185e+00 -4.966617e-04 0.0
1.006976e+00 -4.922317e-04 0.0
1.006768e+00 -4.880690e-04 0.0
1.006560e+00 -4.841452e-04 0.0
1.006353e+00 -4.804366e-04 0.0
1.006147e+00 -4.769231e-04 0.0
1.005942e+00 -4.735877e-04 0.0
1.005737e+00 -4.704164e-04 0.0
1.005534e+00 -4.673975e-04 0.0
1.005331e+00 -4.645216e-04 0.0
1.005128e+00 -4.617810e-04 0.0
1.004927e+00 -4.591698e-04 0.0
1.004727e+00 -4.566836e-04 0.0
1.004527e+00 -4.543197e-04 0.0
1.004328e+00 -4.520767e-04 0.0
1.004130e+00 -4.499552e-04 0.0
1.003932e+00 -4.479574e-04 0.0
1.003735e+00 -4.460881e-04 0.0
1.003539e+00 -4.443547e-04 0.0
1.003344e+00 -4.427686e-04 0.0
1.003149e+00 -4.413462e-04 0.0
1.002955e+00 -4.401108e-04 0.0
1.002762e+00 -4.390953e-04 0.0
1.002570e+00 -4.383468e-04 0.0
1.002378e+00 -4.379319e-04 0.0
1.002187e+00 -4.379471e-04 0.0
1.001998e+00 -4.385340e-04 0.0
1.001809e+00 -4.399043e-04 0.0
1.001623e+00 -4.423847e-04 0.0
1.001439e+00 -4.464950e-04 0.0
1.001258e+00 -4.530972e-04 0.0
1.001082e+00 -4.636857e-04 0.0
1.000913e+00 -4.809643e-04 0.0
1.000752e+00 -5.099681e-04 0.0
1.000596e+00 -5.598869e-04 0.0
1.000414e+00 -6.445544e-04 0.0
1.000123e+00 -7.780041e-04 0.0
0.000000e+00 -1.134944e-04 0.0
1.000000e+00 -6.498643e-02 0.0
1.022046e+00 -7.430435e-02 0.0
1.046574e+00 -7.851522e-02 0.0
1.074550e+00 -8.594241e-02 0.0
1.107380e+00 -9.499737e-02 0.0
1.145412e+00 -1.022852e-01 0.0
1.186195e+00 -1.014608e-01 0.0
1.221746e+00 -8.309967e-02 0.0
1.238221e+00 -4.024881e-02 0.0
1.232130e+00 1.005764e-02 0.0
1.209036e+00 5.084820e-02 0.0
1.176043e+00 7.682246e-02 0.0
1.140467e+00 8.688611e-02 0.0
1.107433e+00 8.463569e-02 0.0
1.079564e+00 7.491047e-02 0.0
1.057598e+00 6.187501e-02 0.0
1.041147e+00 4.843478e-02 0.0
1.029327e+00 3.624051e-02 0.0
1.021142e+00 2.600556e-02 0.0
1.015687e+00 1.786148e-02 0.0
1.012211e+00 1.163458e-02 0.0
1.010131e+00 7.025543e-03 0.0
1.009011e+00 3.711355e-03 0.0
1.008530e+00 1.395607e-03 0.0
1.008461e+00 -1.716427e-04 0.0
1.008643e+00 -1.190844e-03 0.0
1.008965e+00 -1.817057e-03 0.0
1.009354e+00 -2.167194e-03 0.0
1.009759e+00 -2.327705e-03 0.0
1.010149e+00 -2.361456e-03 0.0
1.010505e+00 -2.313475e-03 0.0
1.010816e+00 -2.215526e-03 0.0
1.011077e+00 -2.089653e-03 0.0
1.011288e+00 -1.950862e-03 0.0
1.011450e+00 -1.809114e-03 0.0
1.011565e+00 -1.670798e-03 0.0
1.011638e+00 -1.539804e-03 0.0
1.011671e+00 -1.418298e-03 0.0
1.011669e+00 -1.307279e-03 0.0
1.011637e+00 -1.206972e-03 0.0
1.011577e+00 -1.117111e-03 0.0
1.011494e+00 -1.037128e-03 0.0
1.011390e+00 -9.662866e-04 0.0
1.011268e+00 -9.037775e-04 0.0
1.011130e+00 -8.487724e-04 0.0
1.010980e+00 -8.004647e-04 0.0
1.010818e+00 -7.580920e-04 0.0
1.010647e+00 -7.209491e-04 0.0
1.010467e+00 -6.883939e-04 0.0
1.010282e+00 -6.598484e-04 0.0
1.010090e+00 -6.347971e-04 0.0
1.009894e+00 -6.127836e-04 0.0
1.009694e+00 -5.934066e-04 0.0
1.009492e+00 -5.763141e-04 0.0
1.009287e+00 -5.611992e-04 0.0
1.009080e+00 -5.477952e-04 0.0
1.008871e+00 -5.358707e-04 0.0
1.008662e+00 -5.252254e-04 0.0
1.008452e+00 -5.156866e-04 0.0
1.008241e+00 -5.071055e-04 0.0
1.008031e+00 -4.993539e-04 0.0
1.007820e+00 -4.923220e-04 0.0
1.007609e+00 -4.859153e-04 0.0
1.007399e+00 -4.800531e-04 0.0
1.007190e+00 -4.746664e-04 0.0
1.006981e+00 -4.696960e-04 0.0
1.006772e+00 -4.650917e-04 0.0
1.006564e+00 -4.608106e-04 0.0
1.006357e+00 -4.568163e-04 0.0
1.006151e+00 -4.530779e-04 0.0
1.005945e+00 -4.495694e-04 0.0
1.005741e+00 -4.462688e-04 0.0
1.005537e+00 -4.431578e-04 0.0
1.005334e+00 -4.402211e-04 0.0
1.005131e+00 -4.374464e-04 0.0
1.004930e+00 -4.348239e-04 0.0
1.004729e+00 -4.323459e-04 0.0
1.004529e+00 -4.300071e-04 0.0
1.004330e+00 -4.278046e-04 0.0
1.004132e+00 -4.257377e-04 0.0
1.003934e+00 -4.238085e-04 0.0
1.003737e+00 -4.220224e-04 0.0
1.003541e+00 -4.203887e-04 0.0
1.003346e+00 -4.189220e-04 0.0
1.003151e+00 -4.176439e-04 0.0
1.002957e+00 -4.165851e-04 0.0
1.002763e+00 -4.157896e-04 0.0
1.002570e+00 -4.153193e-04 0.0
1.002378e+00 -4.152619e-04 0.0
1.002187e+00 -4.157423e-04 0.0
1.001997e+00 -4.169405e-04 0.0
1.001807e+00 -4.191182e-04 0.0
1.001619e+00 -4.226634e-04 0.0
1.001433e+00 -4.281603e-04 0.0
1.001248e+00 -4.365048e-04 0.0
1.001066e+00 -4.490859e-04 0.0
1.000885e+00 -4.680442e-04 0.0
1.000704e+00 -4.965187e-04 0.0
1.000515e+00 -5.383863e-04 0.0
1.000298e+00 -5.957279e-04 0.0
1.000019e+00 -6.658624e-04 0.0
0.000000e+00 -2.516911e-05 0.0
1.000000e+00 -8.279800e-02 0.0
1.018151e+00 -9.342782e-02 0.0
1.039392e+00 -1.000091e-01 0.0
1.065577e+00 -1.123798e-01 0.0
1.099838e+00 -1.295107e-01 0.0
1.145375e+00 -1.480741e-01 0.0
1.202815e+00 -1.591519e-01 0.0
1.262071e+00 -1.426059e-01 0.0
1.286662e+00 -6.508888e-02 0.0
1.273793e+00 2.267771e-02 0.0
1.237271e+00 8.712217e-02 0.0
1.188298e+00 1.255480e-01 0.0
1.139619e+00 1.353180e-01 0.0
1.098332e+00 1.256768e-01 0.0
1.066669e+00 1.063278e-01 0.0
1.044044e+00 8.425466e-02 0.0
1.028729e+00 6.350596e-02 0.0
1.018839e+00 4.588738e-02 0.0
1.012760e+00 3.184252e-02 0.0
1.009255e+00 2.112482e-02 0.0
1.007435e+00 1.321301e-02 0.0
1.006688e+00 7.533414e-03 0.0
1.006598e+00 3.562667e-03 0.0
1.006891e+00 8.642592e-04 0.0
1.007390e+00 -9.073890e-04 0.0
1.007981e+00 -2.016906e-03 0.0
1.008591e+00 -2.661835e-03 0.0
1.009177e+00 -2.987173e-03 0.0
1.009715e+00 -3.097798e-03 0.0
1.010191e+00 -3.068574e-03 0.0
1.010599e+00 -2.952238e-03 0.0
1.010940e+00 -2.785418e-03 0.0
1.011216e+00 -2.593127e-03 0.0
1.011431e+00 -2.392078e-03 0.0
1.011590e+00 -2.193112e-03 0.0
1.011698e+00 -2.002961e-03 0.0
1.011761e+00 -1.825514e-03 0.0
1.011783e+00 -1.662725e-03 0.0
1.011771e+00 -1.515261e-03 0.0
1.011728e+00 -1.382952e-03 0.0
1.011658e+00 -1.265111e-03 0.0
1.011566e+00 -1.160752e-03 0.0
1.011453e+00 -1.068742e-03 0.0
1.011323e+00 -9.878947e-04 0.0
1.011179e+00 -9.170395e-04 0.0
1.011023e+00 -8.550587e-04 0.0
1.010856e+00 -8.009113e-04 0.0
1.010680e+00 -7.536445e-04 0.0
1.010496e+00 -7.123971e-04 0.0
1.010307e+00 -6.763989e-04 0.0
1.010113e+00 -6.449660e-04 0.0
1.009914e+00 -6.174954e-04 0.0
1.009712e+00 -5.934576e-04 0.0
1.009507e+00 -5.723902e-04 0.0
1.009300e+00 -5.538903e-04 0.0
1.009092e+00 -5.376080e-04 0.0
1.008882e+00 -5.232405e-04 0.0
1.008672e+00 -5.105257e-04 0.0
1.008460e+00 -4.992376e-04 0.0
1.008249e+00 -4.891815e-04 0.0
1.008038e+00 -4.801901e-04 0.0
1.007826e+00 -4.721194e-04 0.0
1.007615e+00 -4.648459e-04 0.0
1.007405e+00 -4.582639e-04 0.0
1.007195e+00 -4.522828e-04 0.0
1.006985e+00 -4.468251e-04 0.0
1.006776e+00 -4.418246e-04 0.0
1.006568e+00 -4.372249e-04 0.0
1.006361e+00 -4.329780e-04 0.0
1.006154e+00 -4.290430e-04 0.0
1.005949e+00 -4.253853e-04 0.0
1.005744e+00 -4.219757e-04 0.0
1.005540e+00 -4.187895e-04 0.0
1.005336e+00 -4.158062e-04 0.0
1.005134e+00 -4.130090e-04 0.0
1.004932e+00 -4.103842e-04 0.0
1.004732e+00 -4.079211e-04 0.0
1.004532e+00 -4.056121e-04 0.0
1.004332e+00 -4.034520e-04 0.0
1.004134e+00 -4.014389e-04 0.0
1.003936e+00 -3.995743e-04 0.0
1.003739e+00 -3.978634e-04 0.0
1.003543e+00 -3.963162e-04 0.0
1.003347e+00 -3.949490e-04 0.0
1.003152e+00 -3.937859e-04 0.0
1.002957e+00 -3.928621e-04 0.0
1.002764e+00 -3.922269e-04 0.0
1.002570e+00 -3.919500e-04 0.0
1.002378e+00 -3.921291e-04 0.0
1.002186e+00 -3.929006e-04 0.0
1.001994e+00 -3.944562e-04 0.0
1.001804e+00 -3.970656e-04 0.0
1.001614e+00 -4.011099e-04 0.0
1.001425e+00 -4.071269e-04 0.0
1.001236e+00 -4.158702e-04 0.0
1.001048e+00 -4.283702e-04 0.0
1.000858e+00 -4.459486e-04 0.0
1.000663e+00 -4.700423e-04 0.0
1.000459e+00 -5.014799e-04 0.0
1.000234e+00 -5.385822e-04 0.0
9.999767e-01 -5.764993e-04 0.0
0.000000e+00 2.127469e-05 0.0
1.000000e+00 -9.588268e-02 0.0
1.012088e+00 -1.064878e-01 0.0
1.027486e+00 -1.156604e-01 0.0
1.048771e+00 -1.339177e-01 0.0
1.081236e+00 -1.622273e-01 0.0
1.133376e+00 -2.004664e-01 0.0
1.216625e+00 -2.426514e-01 0.0
1.334011e+00 -2.602421e-01 0.0
1.369221e+00 -1.005486e-01 0.0
1.340641e+00 5.100902e-02 0.0
1.280421e+00 1.470945e-01 0.0
1.201870e+00 2.038520e-01 0.0
1.131815e+00 2.051259e-01 0.0
1.079506e+00 1.777400e-01 0.0
1.044510e+00 1.410779e-01 0.0
1.022960e+00 1.055607e-01 0.0
1.010700e+00 7.552147e-02 0.0
1.004396e+00 5.194800e-02 0.0
1.001696e+00 3.430049e-02 0.0
1.001061e+00 2.151790e-02 0.0
1.001537e+00 1.249654e-02 0.0
1.002552e+00 6.278031e-03 0.0
1.003779e+00 2.097543e-03 0.0
1.005033e+00 -6.279531e-04 0.0
1.006220e+00 -2.331237e-03 0.0
1.007295e+00 -3.326687e-03 0.0
1.008238e+00 -3.840019e-03 0.0
1.009049e+00 -4.031672e-03 0.0
1.009734e+00 -4.014591e-03 0.0
1.010301e+00 -3.867500e-03 0.0
1.010764e+00 -3.644640e-03 0.0
1.011132e+00 -3.382849e-03 0.0
1.011418e+00 -3.106664e-03 0.0
1.011631e+00 -2.831987e-03 0.0
1.011782e+00 -2.568713e-03 0.0
1.011877e+00 -2.322598e-03 0.0
1.011926e+00 -2.096585e-03 0.0
1.011933e+00 -1.891750e-03 0.0
1.011905e+00 -1.707952e-03 0.0
1.011848e+00 -1.544295e-03 0.0
1.011765e+00 -1.399446e-03 0.0
1.011659e+00 -1.271847e-03 0.0
1.011535e+00 -1.159860e-03 0.0
1.011395e+00 -1.061857e-03 0.0
1.011242e+00 -9.762836e-04 0.0
1.011078e+00 -9.016858e-04 0.0
1.010904e+00 -8.367321e-04 0.0
1.010722e+00 -7.802172e-04 0.0
1.010533e+00 -7.310622e-04 0.0
1.010339e+00 -6.883081e-04 0.0
1.010140e+00 -6.511089e-04 0.0
1.009938e+00 -6.187213e-04 0.0
1.009733e+00 -5.904955e-04 0.0
1.009526e+00 -5.658651e-04 0.0
1.009317e+00 -5.443381e-04 0.0
1.009106e+00 -5.254880e-04 0.0
1.008895e+00 -5.089461e-04 0.0
1.008683e+00 -4.943937e-04 0.0
1.008471e+00 -4.815564e-04 0.0
1.008258e+00 -4.701979e-04 0.0
1.008046e+00 -4.601149e-04 0.0
1.007834e+00 -4.511329e-04 0.0
1.007622e+00 -4.431021e-04 0.0
1.007411e+00 -4.358943e-04 0.0
1.007200e+00 -4.293994e-04 0.0
1.006990e+00 -4.235233e-04 0.0
1.006781e+00 -4.181858e-04 0.0
1.006573e+00 -4.133182e-04 0.0
1.006365e+00 -4.088618e-04 0.0
1.006158e+00 -4.047670e-04 0.0
1.005952e+00 -4.009914e-04 0.0
1.005747e+00 -3.974992e-04 0.0
1.005543e+00 -3.942601e-04 0.0
1.005339e+00 -3.912488e-04 0.0
1.005137e+00 -3.884443e-04 0.0
1.004935e+00 -3.858295e-04 0.0
1.004734e+00 -3.833906e-04 0.0
1.004534e+00 -3.811176e-04 0.0
1.004334e+00 -3.790033e-04 0.0
1.004136e+00 -3.770441e-04 0.0
1.003938e+00 -3.752401e-04 0.0
1.003741e+00 -3.735957e-04 0.0
1.003544e+00 -3.721202e-04 0.0
1.003348e+00 -3.708298e-04 0.0
1.003153e+00 -3.697486e-04 0.0
1.002958e+00 -3.689120e-04 0.0
1.002764e+00 -3.683700e-04 0.0
1.002570e+00 -3.681922e-04 0.0
1.002377e+00 -3.684752e-04 0.0
1.002184e+00 -3.693515e-04 0.0
1.001992e+00 -3.710021e-04 0.0
1.001800e+00 -3.736725e-04 0.0
1.001608e+00 -3.776920e-04 0.0
1.001416e+00 -3.834938e-04 0.0
1.001224e+00 -3.916274e-04 0.0
1.001030e+00 -4.027428e-04 0.0
1.000834e+00 -4.174968e-04 0.0
1.000633e+00 -4.362876e-04 0.0
1.000422e+00 -4.586771e-04 0.0
1.000198e+00 -4.824210e-04 0.0
9.999574e-01 -5.038894e-04 0.0
0.000000e+00 4.844606e-05 0.0
1.000000e+00 -1.020116e-01 0.0
1.003672e+00 -1.111325e-01 0.0
1.009988e+00 -1.222294e-01 0.0
1.021214e+00 -1.453964e-01 0.0
1.043584e+00 -1.848493e-01 0.0
1.091001e+00 -2.481350e-01 0.0
1.196018e+00 -3.479200e-01 0.0
1.480609e+00 -5.450834e-01 0.0
1.502751e+00 -1.229396e-01 0.0
1.444308e+00 1.092040e-01 0.0
1.347028e+00 2.441273e-01 0.0
1.209173e+00 3.414602e-01 0.0
1.105974e+00 3.080781e-01 0.0
1.042762e+00 2.407057e-01 0.0
1.008423e+00 1.751717e-01 0.0
9.922317e-01 1.215076e-01 0.0
9.864650e-01 8.104421e-02 0.0
9.861776e-01 5.199209e-02 0.0
9.884531e-01 3.178263e-02 0.0
9.916866e-01 1.804282e-02 0.0
9.950568e-01 8.885768e-03 0.0
9.981834e-01 2.911668e-03 0.0
1.000920e+00 -8.773603e-04 0.0
1.003238e+00 -3.183631e-03 0.0
1.005162e+00 -4.492837e-03 0.0
1.006740e+00 -5.139834e-03 0.0
1.008020e+00 -5.354768e-03 0.0
1.009050e+00 -5.295194e-03 0.0
1.009872e+00 -5.068400e-03 0.0
1.010520e+00 -4.746881e-03 0.0
1.011024e+00 -4.379039e-03 0.0
1.011409e+00 -3.996616e-03 0.0
1.011695e+00 -3.619859e-03 0.0
1.011897e+00 -3.261134e-03 0.0
1.012031e+00 -2.927444e-03 0.0
1.012106e+00 -2.622187e-03 0.0
1.012133e+00 -2.346390e-03 0.0
1.012120e+00 -2.099561e-03 0.0
1.012072e+00 -1.880277e-03 0.0
1.011995e+00 -1.686586e-03 0.0
1.011894e+00 -1.516284e-03 0.0
1.011773e+00 -1.367091e-03 0.0
1.011635e+00 -1.236768e-03 0.0
1.011482e+00 -1.123185e-03 0.0
1.011318e+00 -1.024365e-03 0.0
1.011144e+00 -9.385026e-04 0.0
1.010961e+00 -8.639672e-04 0.0
1.010772e+00 -7.993022e-04 0.0
1.010577e+00 -7.432155e-04 0.0
1.010377e+00 -6.945680e-04 0.0
1.010173e+00 -6.523601e-04 0.0
1.009967e+00 -6.157186e-04 0.0
1.009758e+00 -5.838827e-04 0.0
1.009548e+00 -5.561919e-04 0.0
1.009336e+00 -5.320738e-04 0.0
1.009123e+00 -5.110333e-04 0.0
1.008910e+00 -4.926429e-04 0.0
1.008696e+00 -4.765343e-04 0.0
1.008482e+00 -4.623902e-04 0.0
1.008268e+00 -4.499378e-04 0.0
1.008055e+00 -4.389427e-04 0.0
1.007842e+00 -4.292036e-04 0.0
1.007629e+00 -4.205479e-04 0.0
1.007417e+00 -4.128277e-04 0.0
1.007206e+00 -4.059164e-04 0.0
1.006996e+00 -3.997055e-04 0.0
1.006786e+00 -3.941023e-04 0.0
1.006577e+00 -3.890278e-04 0.0
1.006369e+00 -3.844142e-04 0.0
1.006162e+00 -3.802041e-04 0.0
1.005956e+00 -3.763485e-04 0.0
1.005750e+00 -3.728058e-04 0.0
1.005546e+00 -3.695409e-04 0.0
1.005342e+00 -3.665242e-04 0.0
1.005139e+00 -3.637312e-04 0.0
1.004937e+00 -3.611414e-04 0.0
1.004736e+00 -3.587386e-04 0.0
1.004536e+00 -3.565099e-04 0.0
1.004336e+00 -3.544463e-04 0.0
1.004138e+00 -3.525422e-04 0.0
1.003940e+00 -3.507958e-04 0.0
1.003742e+00 -3.492097e-04 0.0
1.003545e+00 -3.477915e-04 0.0
1.003349e+00 -3.465550e-04 0.0
1.003154e+00 -3.455221e-04 0.0
1.002959e+00 -3.447248e-04 0.0
1.002764e+00 -3.442084e-04 0.0
1.002570e+00 -3.440362e-04 0.0
1.002376e+00 -3.442942e-04 0.0
1.002183e+00 -3.450989e-04 0.0
1.001989e+00 -3.466047e-04 0.0
1.001796e+00 -3.490140e-04 0.0
1.001602e+00 -3.525840e-04 0.0
1.001408e+00 -3.576294e-04 0.0
1.001213e+00 -3.645082e-04 0.0
1.001016e+00 -3.735754e-04 0.0
1.000816e+00 -3.850708e-04 0.0
1.000610e+00 -3.989038e-04 0.0
1.000398e+00 -4.143101e-04 0.0
1.000177e+00 -4.294569e-04 0.0
9.999475e-01 -4.420843e-04 0.0
0.000000e+00 6.567824e-05 0.0
1.000000e+00 -9.928375e-02 0.0
9.935402e-01 -1.056450e-01 0.0
9.878767e-01 -1.168190e-01 0.0
9.830466e-01 -1.408191e-01 0.0
9.819296e-01 -1.839848e-01 0.0
9.931690e-01 -2.596265e-01 0.0
1.037362e+00 -3.923647e-01 0.0
1.491902e+00 -9.998744e-01 0.0
1.669359e+00 -2.999326e-01 0.0
1.740160e+00 3.886424e-02 0.0
1.466268e+00 5.177727e-01 0.0
1.183002e+00 6.244796e-01 0.0
1.037999e+00 4.528343e-01 0.0
9.759611e-01 3.024982e-01 0.0
9.535383e-01 1.973490e-01 0.0
9.506645e-01 1.241366e-01 0.0
9.564743e-01 7.499035e-02 0.0
9.652223e-01 4.300089e-02 0.0
9.741530e-01 2.260954e-02 0.0
9.821253e-01 9.828992e-03 0.0
9.888009e-01 1.969474e-03 0.0
9.941991e-01 -2.726195e-03 0.0
9.984820e-01 -5.398947e-03 0.0
1.001842e+00 -6.781221e-03 0.0
1.004460e+00 -7.347402e-03 0.0
1.006490e+00 -7.405955e-03 0.0
1.008059e+00 -7.158119e-03 0.0
1.009266e+00 -6.735327e-03 0.0
1.010188e+00 -6.223108e-03 0.0
1.010887e+00 -5.676561e-03 0.0
1.011408e+00 -5.130499e-03 0.0
1.011789e+00 -4.606177e-03 0.0
1.012057e+00 -4.115800e-03 0.0
1.012235e+00 -3.665573e-03 0.0
1.012340e+00 -3.257773e-03 0.0
1.012386e+00 -2.892166e-03 0.0
1.012384e+00 -2.566971e-03 0.0
1.012342e+00 -2.279514e-03 0.0
1.012269e+00 -2.026670e-03 0.0
1.012168e+00 -1.805149e-03 0.0
1.012046e+00 -1.611688e-03 0.0
1.011906e+00 -1.443162e-03 0.0
1.011750e+00 -1.296656e-03 0.0
1.011583e+00 -1.169496e-03 0.0
1.011405e+00 -1.059264e-03 0.0
1.011220e+00 -9.637932e-04 0.0
1.011027e+00 -8.811576e-04 0.0
1.010829e+00 -8.096574e-04 0.0
1.010626e+00 -7.477991e-04 0.0
1.010420e+00 -6.942763e-04 0.0
1.010211e+00 -6.479500e-04 0.0
1.009999e+00 -6.078303e-04 0.0
1.009786e+00 -5.730585e-04 0.0
1.009572e+00 -5.428918e-04 0.0
1.009357e+00 -5.166882e-04 0.0
1.009142e+00 -4.938939e-04 0.0
1.008926e+00 -4.740320e-04 0.0
1.008710e+00 -4.566918e-04 0.0
1.008495e+00 -4.415204e-04 0.0
1.008280e+00 -4.282144e-04 0.0
1.008065e+00 -4.165136e-04 0.0
1.007851e+00 -4.061947e-04 0.0
1.007637e+00 -3.970663e-04 0.0
1.007424e+00 -3.889643e-04 0.0
1.007212e+00 -3.817484e-04 0.0
1.007001e+00 -3.752984e-04 0.0
1.006791e+00 -3.695116e-04 0.0
1.006582e+00 -3.643003e-04 0.0
1.006373e+00 -3.595894e-04 0.0
1.006166e+00 -3.553152e-04 0.0
1.005959e+00 -3.514231e-04 0.0
1.005754e+00 -3.478670e-04 0.0
1.005549e+00 -3.446076e-04 0.0
1.005345e+00 -3.416119e-04 0.0
1.005142e+00 -3.388522e-04 0.0
1.004940e+00 -3.363053e-04 0.0
1.004739e+00 -3.339525e-04 0.0
1.004538e+00 -3.317787e-04 0.0
1.004338e+00 -3.297727e-04 0.0
1.004139e+00 -3.279266e-04 0.0
1.003941e+00 -3.262365e-04 0.0
1.003744e+00 -3.247024e-04 0.0
1.003547e+00 -3.233288e-04 0.0
1.003350e+00 -3.221259e-04 0.0
1.003155e+00 -3.211108e-04 0.0
1.002959e+00 -3.203090e-04 0.0
1.002764e+00 -3.197574e-04 0.0
1.002570e+00 -3.195069e-04 0.0
1.002375e+00 -3.196267e-04 0.0
1.002181e+00 -3.202085e-04 0.0
1.001987e+00 -3.213717e-04 0.0
1.001793e+00 -3.232669e-04 0.0
1.001598e+00 -3.260769e-04 0.0
1.001402e+00 -3.300094e-04 0.0
1.001204e+00 -3.352752e-04 0.0
1.001005e+00 -3.420393e-04 0.0
1.000802e+00 -3.503311e-04 0.0
1.000595e+00 -3.599056e-04 0.0
1.000383e+00 -3.700702e-04 0.0
1.000165e+00 -3.795595e-04 0.0
9.999420e-01 -3.870668e-04 0.0
0.000000e+00 7.736589e-05 0.0
1.000000e+00 -8.719204e-02 0.0
9.833968e-01 -9.001420e-02 0.0
9.650727e-01 -9.874808e-02 0.0
9.415044e-01 -1.175036e-01 0.0
9.086907e-01 -1.514237e-01 0.0
8.607953e-01 -2.119836e-01 0.0
7.948652e-01 -3.266868e-01 0.0
3.013598e-01 -5.059074e-01 0.0
-1.953973e+00 6.238525e-01 0.0
0.000000e+00 -5.460332e-01 0.0
7.089167e-01 -1.532368e-01 0.0
9.138812e-01 4.192688e-01 0.0
8.845545e-01 4.819147e-01 0.0
8.687712e-01 3.180355e-01 0.0
8.787103e-01 1.871643e-01 0.0
9.000862e-01 1.025159e-01 0.0
9.233044e-01 5.152811e-02 0.0
9.439477e-01 2.211431e-02 0.0
9.607572e-01 5.557627e-03 0.0
9.738543e-01 -3.509652e-03 0.0
9.838330e-01 -8.249855e-03 0.0
9.913539e-01 -1.048673e-02 0.0
9.969922e-01 -1.127598e-02 0.0
1.001210e+00 -1.123681e-02 0.0
1.004363e+00 -1.073657e-02 0.0
1.006717e+00 -9.995756e-03 0.0
1.008472e+00 -9.147473e-03 0.0
1.009775e+00 -8.271878e-03 0.0
1.010736e+00 -7.416469e-03 0.0
1.011436e+00 -6.608320e-03 0.0
1.011938e+00 -5.861622e-03 0.0
1.012285e+00 -5.182439e-03 0.0
1.012513e+00 -4.571751e-03 0.0
1.012649e+00 -4.027438e-03 0.0
1.012711e+00 -3.545579e-03 0.0
1.012716e+00 -3.121302e-03 0.0
1.012676e+00 -2.749336e-03 0.0
1.012599e+00 -2.424369e-03 0.0
1.012494e+00 -2.141268e-03 0.0
1.012365e+00 -1.895208e-03 0.0
1.012217e+00 -1.681744e-03 0.0
1.012055e+00 -1.496838e-03 0.0
1.011880e+00 -1.336861e-03 0.0
1.011695e+00 -1.198582e-03 0.0
1.011503e+00 -1.079140e-03 0.0
1.011304e+00 -9.760183e-04 0.0
1.011100e+00 -8.870125e-04 0.0
1.010892e+00 -8.101975e-04 0.0
1.010680e+00 -7.438984e-04 0.0
1.010467e+00 -6.866609e-04 0.0
1.010251e+00 -6.372254e-04 0.0
1.010035e+00 -5.945030e-04 0.0
1.009817e+00 -5.575533e-04 0.0
1.009599e+00 -5.255657e-04 0.0
1.009380e+00 -4.978420e-04 0.0
1.009162e+00 -4.737814e-04 0.0
1.008944e+00 -4.528675e-04 0.0
1.008726e+00 -4.346567e-04 0.0
1.008508e+00 -4.187682e-04 0.0
1.008291e+00 -4.048753e-04 0.0
1.008075e+00 -3.926977e-04 0.0
1.007860e+00 -3.819953e-04 0.0
1.007645e+00 -3.725625e-04 0.0
1.007432e+00 -3.642230e-04 0.0
1.007219e+00 -3.568262e-04 0.0
1.007007e+00 -3.502430e-04 0.0
1.006796e+00 -3.443633e-04 0.0
1.006587e+00 -3.390927e-04 0.0
1.006378e+00 -3.343509e-04 0.0
1.006170e+00 -3.300690e-04 0.0
1.005963e+00 -3.261888e-04 0.0
1.005757e+00 -3.226603e-04 0.0
1.005552e+00 -3.194412e-04 0.0
1.005348e+00 -3.164958e-04 0.0
1.005144e+00 -3.137938e-04 0.0
1.004942e+00 -3.113101e-04 0.0
1.004741e+00 -3.090235e-04 0.0
1.004540e+00 -3.069172e-04 0.0
1.004340e+00 -3.049776e-04 0.0
1.004141e+00 -3.031948e-04 0.0
1.003943e+00 -3.015622e-04 0.0
1.003745e+00 -3.000765e-04 0.0
1.003548e+00 -2.987385e-04 0.0
1.003351e+00 -2.975535e-04 0.0
1.003155e+00 -2.965318e-04 0.0
1.002960e+00 -2.956904e-04 0.0
1.002765e+00 -2.950542e-04 0.0
1.002570e+00 -2.946583e-04 0.0
1.002375e+00 -2.945503e-04 0.0
1.002180e+00 -2.947926e-04 0.0
1.001985e+00 -2.954651e-04 0.0
1.001790e+00 -2.966659e-04 0.0
1.001594e+00 -2.985093e-04 0.0
1.001396e+00 -3.011170e-04 0.0
1.001198e+00 -3.045987e-04 0.0
1.000996e+00 -3.090157e-04 0.0
1.000792e+00 -3.143231e-04 0.0
1.000585e+00 -3.202927e-04 0.0
1.000373e+00 -3.264379e-04 0.0
1.000158e+00 -3.319892e-04 0.0
9.999388e-01 -3.362403e-04 0.0
0.000000e+00 8.585368e-05 0.0
1.000000e+00 -6.745361e-02 0.0
9.755262e-01 -6.651280e-02 0.0
9.473449e-01 -7.082001e-02 0.0
9.090302e-01 -7.944186e-02 0.0
8.503900e-01 -9.303624e-02 0.0
7.495283e-01 -1.113744e-01 0.0
5.524464e-01 -1.298575e-01 0.0
-6.937495e-02 1.163769e-01 0.0
6.616676e-05 0.000000e+00 0.0
0.000000e+00 -0.000000e+00 0.0