# vtk DataFile Version 3.0
Vector Field
ASCII
DATASET RECTILINEAR_GRID
DIMENSIONS 102 22 1
X_COORDINATES 102 double
0.000000 0.100000 0.200000 0.300000 0.400000 0.500000 0.600000 0.700000 0.800000 0.900000 1.000000 1.100000 1.200000 1.300000 1.400000 1.500000 1.600000 1.700000 1.800000 1.900000 2.000000 2.100000 2.200000 2.300000 2.400000 2.500000 2.600000 2.700000 2.800000 2.900000 3.000000 3.100000 3.200000 3.300000 3.400000 3.500000 3.600000 3.700000 3.800000 3.900000 4.000000 4.100000 4.200000 4.300000 4.400000 4.500000 4.600000 4.700000 4.800000 4.900000 5.000000 5.100000 5.200000 5.300000 5.400000 5.500000 5.600000 5.700000 5.800000 5.900000 6.000000 6.100000 6.200000 6.300000 6.400000 6.500000 6.600000 6.700000 6.800000 6.900000 7.000000 7.100000 7.200000 7.300000 7.400000 7.500000 7.600000 7.700000 7.800000 7.900000 8.000000 8.100000 8.200000 8.300000 8.400000 8.500000 8.600000 8.700000 8.800000 8.900000 9.000000 9.100000 9.200000 9.300000 9.400000 9.500000 9.600000 9.700000 9.800000 9.900000 10.000000 10.100000 
Y_COORDINATES 22 double
0.000000 0.100000 0.200000 0.300000 0.400000 0.500000 0.600000 0.700000 0.800000 0.900000 1.000000 1.100000 1.200000 1.300000 1.400000 1.500000 1.600000 1.700000 1.800000 1.900000 2.000000 2.100000 
Z_COORDINATES 1 double
0.0
POINT_DATA 2244
VECTORS Velocity double
0.000000e+00 0.000000e+00 0.0
-1.029832e+00 0.000000e+00 0.0
-1.062682e+00 0.000000e+00 0.0
-1.101798e+00 0.000000e+00 0.0
-1.150065e+00 0.000000e+00 0.0
-1.209754e+00 0.000000e+00 0.0
-1.280451e+00 0.000000e+00 0.0
-1.362112e+00 0.000000e+00 0.0
-1.437393e+00 0.000000e+00 0.0
-1.495115e+00 0.000000e+00 0.0
-1.533402e+00 0.000000e+00 0.0
-1.554813e+00 0.000000e+00 0.0
-1.563030e+00 0.000000e+00 0.0
-1.561442e+00 0.000000e+00 0.0
-1.552526e+00 0.000000e+00 0.0
-1.537979e+00 0.000000e+00 0.0
-1.518992e+00 0.000000e+00 0.0
-1.496441e+00 0.000000e+00 0.0
-1.470974e+00 0.000000e+00 0.0
-1.443038e+00 0.000000e+00 0.0
-1.412900e+00 0.000000e+00 0.0
-1.380818e+00 0.000000e+00 0.0
-1.347530e+00 0.000000e+00 0.0
-1.314968e+00 0.000000e+00 0.0
-1.286961e+00 0.000000e+00 0.0
-1.269336e+00 0.000000e+00 0.0
-1.268669e+00 0.000000e+00 0.0
-1.289673e+00 0.000000e+00 0.0
-1.332645e+00 0.000000e+00 0.0
-1.391621e+00 0.000000e+00 0.0
-1.455561e+00 0.000000e+00 0.0
-1.512762e+00 0.000000e+00 0.0
-1.554538e+00 0.000000e+00 0.0
-1.576895e+00 0.000000e+00 0.0
-1.580645e+00 0.000000e+00 0.0
-1.568988e+00 0.000000e+00 0.0
-1.544546e+00 0.000000e+00 0.0
-1.508979e+00 0.000000e+00 0.0
-1.463249e+00 0.000000e+00 0.0
-1.408062e+00 0.000000e+00 0.0
-1.344238e+00 0.000000e+00 0.0
-1.272853e+00 0.000000e+00 0.0
-1.195408e+00 0.000000e+00 0.0
-1.114286e+00 0.000000e+00 0.0
-1.033038e+00 0.000000e+00 0.0
-9.561351e-01 0.000000e+00 0.0
-8.886814e-01 0.000000e+00 0.0
-8.356381e-01 0.000000e+00 0.0
-8.007922e-01 0.000000e+00 0.0
-7.859133e-01 0.000000e+00 0.0
-7.904426e-01 0.000000e+00 0.0
-8.125637e-01 0.000000e+00 0.0
-8.503064e-01 0.000000e+00 0.0
-9.014315e-01 0.000000e+00 0.0
-9.633003e-01 0.000000e+00 0.0
-1.032735e+00 0.000000e+00 0.0
-1.106064e+00 0.000000e+00 0.0
-1.179386e+00 0.000000e+00 0.0
-1.248997e+00 0.000000e+00 0.0
-1.311458e+00 0.000000e+00 0.0
-1.363780e+00 0.000000e+00 0.0
-1.403675e+00 0.000000e+00 0.0
-1.429818e+00 0.000000e+00 0.0
-1.441916e+00 0.000000e+00 0.0
-1.439874e+00 0.000000e+00 0.0
-1.422777e+00 0.000000e+00 0.0
-1.389456e+00 0.000000e+00 0.0
-1.339076e+00 0.000000e+00 0.0
-1.272683e+00 0.000000e+00 0.0
-1.195518e+00 0.000000e+00 0.0
-1.117737e+00 0.000000e+00 0.0
-1.050437e+00 0.000000e+00 0.0
-1.000815e+00 0.000000e+00 0.0
-9.715312e-01 0.000000e+00 0.0
-9.614121e-01 0.000000e+00 0.0
-9.666862e-01 0.000000e+00 0.0
-9.824696e-01 0.000000e+00 0.0
-1.004400e+00 0.000000e+00 0.0
-1.029167e+00 0.000000e+00 0.0
-1.054439e+00 0.000000e+00 0.0
-1.078608e+00 0.000000e+00 0.0
-1.100618e+00 0.000000e+00 0.0
-1.119802e+00 0.000000e+00 0.0
-1.135768e+00 0.000000e+00 0.0
-1.148325e+00 0.000000e+00 0.0
-1.157450e+00 0.000000e+00 0.0
-1.163263e+00 0.000000e+00 0.0
-1.166001e+00 0.000000e+00 0.0
-1.165883e+00 0.000000e+00 0.0
-1.162987e+00 0.000000e+00 0.0
-1.157366e+00 0.000000e+00 0.0
-1.149094e+00 0.000000e+00 0.0
-1.138279e+00 0.000000e+00 0.0
-1.125108e+00 0.000000e+00 0.0
-1.109922e+00 0.000000e+00 0.0
-1.093309e+00 0.000000e+00 0.0
-1.076155e+00 0.000000e+00 0.0
-1.059574e+00 0.000000e+00 0.0
-1.044818e+00 0.000000e+00 0.0
-1.033169e+00 0.000000e+00 0.0
-1.033169e+00 0.000000e+00 0.0
0.000000e+00 0.000000e+00 0.0
1.000000e+00 -2.951920e-02 0.0
1.029846e+00 -2.953578e-02 0.0
1.062716e+00 -3.269117e-02 0.0
1.101864e+00 -3.896957e-02 0.0
1.150185e+00 -4.814252e-02 0.0
1.209968e+00 -5.960466e-02 0.0
1.280818e+00 -7.067164e-02 0.0
1.362741e+00 -8.174468e-02 0.0
1.438402e+00 -7.548268e-02 0.0
1.496606e+00 -5.802547e-02 0.0
1.535430e+00 -3.864475e-02 0.0
1.557370e+00 -2.176183e-02 0.0
1.566052e+00 -8.503332e-03 0.0
1.564841e+00 1.389244e-03 0.0
1.556215e+00 8.804859e-03 0.0
1.541866e+00 1.452722e-02 0.0
1.522980e+00 1.906459e-02 0.0
1.500423e+00 2.273531e-02 0.0
1.474843e+00 2.575877e-02 0.0
1.446693e+00 2.832821e-02 0.0
1.416242e+00 3.062989e-02 0.0
1.383691e+00 3.272889e-02 0.0
1.349589e+00 3.428022e-02 0.0
1.315517e+00 3.425058e-02 0.0
1.284828e+00 3.086824e-02 0.0
1.262992e+00 2.201414e-02 0.0
1.256784e+00 6.387053e-03 0.0
1.271921e+00 -1.495933e-02 0.0
1.310377e+00 -3.827729e-02 0.0
1.367973e+00 -5.741713e-02 0.0
1.434391e+00 -6.623932e-02 0.0
1.497085e+00 -6.251515e-02 0.0
1.545773e+00 -4.851033e-02 0.0
1.574740e+00 -2.878778e-02 0.0
1.583558e+00 -8.639177e-03 0.0
1.575413e+00 8.323558e-03 0.0
1.553475e+00 2.211583e-02 0.0
1.519880e+00 3.377378e-02 0.0
1.475871e+00 4.418764e-02 0.0
1.422249e+00 5.380099e-02 0.0
1.359810e+00 6.261773e-02 0.0
1.289572e+00 7.041650e-02 0.0
1.212915e+00 7.683526e-02 0.0
1.132003e+00 8.109041e-02 0.0
1.050193e+00 8.198867e-02 0.0
9.717936e-01 7.857835e-02 0.0
9.018410e-01 7.013121e-02 0.0
8.453986e-01 5.662111e-02 0.0
8.065458e-01 3.903147e-02 0.0
7.874736e-01 1.925083e-02 0.0
7.880535e-01 -4.012466e-04 0.0
8.065271e-01 -1.829488e-02 0.0
8.409355e-01 -3.422972e-02 0.0
8.890770e-01 -4.796281e-02 0.0
9.484032e-01 -5.914751e-02 0.0
1.015865e+00 -6.728319e-02 0.0
1.087933e+00 -7.188958e-02 0.0
1.160781e+00 -7.266931e-02 0.0
1.230730e+00 -6.976980e-02 0.0
1.294355e+00 -6.344654e-02 0.0
1.348628e+00 -5.409415e-02 0.0
1.391146e+00 -4.233898e-02 0.0
1.420383e+00 -2.905876e-02 0.0
1.435841e+00 -1.527853e-02 0.0
1.437546e+00 -1.526733e-03 0.0
1.424769e+00 1.295537e-02 0.0
1.396384e+00 2.856373e-02 0.0
1.351375e+00 4.518822e-02 0.0
1.290039e+00 6.151474e-02 0.0
1.216177e+00 7.404117e-02 0.0
1.138589e+00 7.776607e-02 0.0
1.068529e+00 7.023942e-02 0.0
1.014390e+00 5.431778e-02 0.0
9.799858e-01 3.458270e-02 0.0
9.651107e-01 1.505393e-02 0.0
9.666374e-01 -1.347946e-03 0.0
9.798479e-01 -1.303162e-02 0.0
1.000195e+00 -2.016830e-02 0.0
1.024110e+00 -2.373618e-02 0.0
1.049046e+00 -2.475739e-02 0.0
1.073236e+00 -2.401080e-02 0.0
1.095508e+00 -2.209292e-02 0.0
1.115117e+00 -1.943017e-02 0.0
1.131617e+00 -1.632117e-02 0.0
1.144780e+00 -1.298428e-02 0.0
1.154549e+00 -9.590760e-03 0.0
1.161017e+00 -6.288735e-03 0.0
1.164398e+00 -3.202576e-03 0.0
1.164936e+00 -3.587054e-04 0.0
1.162731e+00 2.383431e-03 0.0
1.157840e+00 5.070020e-03 0.0
1.150332e+00 7.686852e-03 0.0
1.140309e+00 1.020214e-02 0.0
1.127937e+00 1.255077e-02 0.0
1.113514e+00 1.460129e-02 0.0
1.097562e+00 1.613105e-02 0.0
1.080894e+00 1.684715e-02 0.0
1.064582e+00 1.649055e-02 0.0
1.049883e+00 1.487788e-02 0.0
1.038125e+00 1.193712e-02 0.0
1.033169e+00 5.135141e-03 0.0
0.000000e+00 4.964498e-03 0.0
1.000000e+00 -5.962371e-02 0.0
1.030297e+00 -5.965472e-02 0.0
1.063642e+00 -6.598955e-02 0.0
1.103425e+00 -7.870545e-02 0.0
1.152872e+00 -9.754338e-02 0.0
1.214991e+00 -1.216767e-01 0.0
1.289557e+00 -1.451915e-01 0.0
1.381779e+00 -1.739204e-01 0.0
1.463203e+00 -1.568596e-01 0.0
1.522499e+00 -1.172754e-01 0.0
1.560770e+00 -7.686847e-02 0.0
1.582211e+00 -4.315650e-02 0.0
1.591002e+00 -1.724740e-02 0.0
1.590588e+00 1.849488e-03 0.0
1.583283e+00 1.615670e-02 0.0
1.570612e+00 2.724492e-02 0.0
1.553644e+00 3.607920e-02 0.0
1.533174e+00 4.325132e-02 0.0
1.509817e+00 4.916207e-02 0.0
1.484042e+00 5.415018e-02 0.0
1.456184e+00 5.853401e-02 0.0
1.426494e+00 6.246559e-02 0.0
1.395312e+00 6.550878e-02 0.0
1.363589e+00 6.602066e-02 0.0
1.333620e+00 6.088374e-02 0.0
1.309491e+00 4.619003e-02 0.0
1.296863e+00 1.906066e-02 0.0
1.301381e+00 -1.943052e-02 0.0
1.326783e+00 -6.363211e-02 0.0
1.373013e+00 -1.036011e-01 0.0
1.433957e+00 -1.271366e-01 0.0
1.498820e+00 -1.273316e-01 0.0
1.556568e+00 -1.062115e-01 0.0
1.598092e+00 -7.026569e-02 0.0
1.618413e+00 -2.891316e-02 0.0
1.618673e+00 8.110058e-03 0.0
1.603298e+00 3.753793e-02 0.0
1.575435e+00 6.168273e-02 0.0
1.536999e+00 8.267079e-02 0.0
1.489165e+00 1.016809e-01 0.0
1.432972e+00 1.188582e-01 0.0
1.369732e+00 1.337026e-01 0.0
1.301070e+00 1.455440e-01 0.0
1.228910e+00 1.532965e-01 0.0
1.155555e+00 1.553910e-01 0.0
1.084207e+00 1.499724e-01 0.0
1.018600e+00 1.357851e-01 0.0
9.625876e-01 1.126800e-01 0.0
9.196624e-01 8.200332e-02 0.0
8.924288e-01 4.653102e-02 0.0
8.821284e-01 9.945717e-03 0.0
8.880642e-01 -2.418401e-02 0.0
9.083293e-01 -5.444820e-02 0.0
9.407527e-01 -8.033966e-02 0.0
9.830734e-01 -1.014215e-01 0.0
1.032748e+00 -1.169116e-01 0.0
1.087062e+00 -1.261566e-01 0.0
1.143070e+00 -1.286308e-01 0.0
1.197732e+00 -1.243853e-01 0.0
1.248071e+00 -1.137385e-01 0.0
1.291397e+00 -9.737321e-02 0.0
1.325532e+00 -7.642741e-02 0.0
1.348934e+00 -5.241462e-02 0.0
1.360510e+00 -2.680814e-02 0.0
1.358965e+00 6.537362e-05 0.0
1.343308e+00 2.865920e-02 0.0
1.313474e+00 5.844389e-02 0.0
1.270846e+00 8.786350e-02 0.0
1.219219e+00 1.131878e-01 0.0
1.165039e+00 1.282681e-01 0.0
1.115827e+00 1.270241e-01 0.0
1.077012e+00 1.091016e-01 0.0
1.051399e+00 7.997777e-02 0.0
1.039094e+00 4.693407e-02 0.0
1.038128e+00 1.606660e-02 0.0
1.045573e+00 -8.746210e-03 0.0
1.058742e+00 -2.615478e-02 0.0
1.075361e+00 -3.674039e-02 0.0
1.093583e+00 -4.191145e-02 0.0
1.111994e+00 -4.312113e-02 0.0
1.129674e+00 -4.164440e-02 0.0
1.145960e+00 -3.833278e-02 0.0
1.160354e+00 -3.377709e-02 0.0
1.172510e+00 -2.843031e-02 0.0
1.182229e+00 -2.265659e-02 0.0
1.189439e+00 -1.675429e-02 0.0
1.194151e+00 -1.095453e-02 0.0
1.196371e+00 -5.375395e-03 0.0
1.195984e+00 7.474198e-05 0.0
1.192902e+00 5.512032e-03 0.0
1.187108e+00 1.091026e-02 0.0
1.178637e+00 1.620516e-02 0.0
1.167613e+00 2.127220e-02 0.0
1.154321e+00 2.588985e-02 0.0
1.139261e+00 2.970756e-02 0.0
1.123192e+00 3.224715e-02 0.0
1.107142e+00 3.294396e-02 0.0
1.092392e+00 3.128725e-02 0.0
1.080205e+00 2.711123e-02 0.0
1.071584e+00 2.060431e-02 0.0
1.067421e+00 9.345074e-03 0.0
0.000000e+00 8.882124e-03 0.0
1.000000e+00 -8.633065e-02 0.0
1.026896e+00 -8.637221e-02 0.0
1.056953e+00 -9.599963e-02 0.0
1.093865e+00 -1.155712e-01 0.0
1.141660e+00 -1.452923e-01 0.0
1.205016e+00 -1.849858e-01 0.0
1.284978e+00 -2.251071e-01 0.0
1.398610e+00 -2.875059e-01 0.0
1.486966e+00 -2.451691e-01 0.0
1.543011e+00 -1.732732e-01 0.0
1.575793e+00 -1.096038e-01 0.0
1.592575e+00 -5.989264e-02 0.0
1.598129e+00 -2.275476e-02 0.0
1.595861e+00 4.164715e-03 0.0
1.587664e+00 2.439942e-02 0.0
1.574710e+00 4.024538e-02 0.0
1.557847e+00 5.298895e-02 0.0
1.537744e+00 6.340151e-02 0.0
1.514953e+00 7.199900e-02 0.0
1.489944e+00 7.920645e-02 0.0
1.463103e+00 8.542156e-02 0.0
1.434746e+00 9.086888e-02 0.0
1.405170e+00 9.513105e-02 0.0
1.374834e+00 9.640394e-02 0.0
1.344682e+00 9.108204e-02 0.0
1.316255e+00 7.466336e-02 0.0
1.291847e+00 4.351477e-02 0.0
1.275709e+00 -3.245266e-03 0.0
1.273776e+00 -6.165244e-02 0.0
1.291783e+00 -1.215615e-01 0.0
1.332008e+00 -1.673157e-01 0.0
1.389598e+00 -1.848750e-01 0.0
1.454804e+00 -1.713708e-01 0.0
1.515758e+00 -1.311725e-01 0.0
1.559671e+00 -7.277965e-02 0.0
1.578287e+00 -1.045945e-02 0.0
1.575419e+00 4.045229e-02 0.0
1.557022e+00 8.012597e-02 0.0
1.526768e+00 1.129722e-01 0.0
1.486829e+00 1.416662e-01 0.0
1.438657e+00 1.670771e-01 0.0
1.383541e+00 1.888648e-01 0.0
1.323003e+00 2.061289e-01 0.0
1.258762e+00 2.175834e-01 0.0
1.192860e+00 2.213396e-01 0.0
1.128035e+00 2.148446e-01 0.0
1.067423e+00 1.964432e-01 0.0
1.014193e+00 1.659568e-01 0.0
9.711743e-01 1.250686e-01 0.0
9.405633e-01 7.718860e-02 0.0
9.237354e-01 2.682024e-02 0.0
9.208009e-01 -2.120289e-02 0.0
9.301955e-01 -6.379618e-02 0.0
9.499872e-01 -1.000848e-01 0.0
9.783527e-01 -1.297404e-01 0.0
1.013610e+00 -1.521225e-01 0.0
1.053607e+00 -1.661066e-01 0.0
1.095776e+00 -1.707532e-01 0.0
1.137332e+00 -1.658951e-01 0.0
1.175591e+00 -1.519509e-01 0.0
1.208160e+00 -1.298951e-01 0.0
1.233071e+00 -1.012922e-01 0.0
1.248791e+00 -6.808803e-02 0.0
1.253937e+00 -3.190686e-02 0.0
1.246952e+00 7.097009e-03 0.0
1.227760e+00 4.789730e-02 0.0
1.197819e+00 8.843156e-02 0.0
1.160565e+00 1.251642e-01 0.0
1.121570e+00 1.522291e-01 0.0
1.087330e+00 1.625551e-01 0.0
1.062012e+00 1.523885e-01 0.0
1.046069e+00 1.250915e-01 0.0
1.038237e+00 8.785643e-02 0.0
1.036787e+00 4.843054e-02 0.0
1.040098e+00 1.280269e-02 0.0
1.046824e+00 -1.542592e-02 0.0
1.056143e+00 -3.542705e-02 0.0
1.067461e+00 -4.801165e-02 0.0
1.080103e+00 -5.450664e-02 0.0
1.093310e+00 -5.628157e-02 0.0
1.106327e+00 -5.461535e-02 0.0
1.118492e+00 -5.045022e-02 0.0
1.129266e+00 -4.450451e-02 0.0
1.138257e+00 -3.737521e-02 0.0
1.145215e+00 -2.956799e-02 0.0
1.150004e+00 -2.149691e-02 0.0
1.152545e+00 -1.344837e-02 0.0
1.152698e+00 -5.481341e-03 0.0
1.150206e+00 2.613090e-03 0.0
1.144972e+00 1.079241e-02 0.0
1.136983e+00 1.894577e-02 0.0
1.126337e+00 2.689801e-02 0.0
1.113313e+00 3.434269e-02 0.0
1.098468e+00 4.078150e-02 0.0
1.082714e+00 4.550862e-02 0.0
1.067327e+00 4.768041e-02 0.0
1.053778e+00 4.654019e-02 0.0
1.043115e+00 4.199707e-02 0.0
1.035776e+00 3.449643e-02 0.0
1.031615e+00 2.481231e-02 0.0
1.028993e+00 1.201308e-02 0.0
0.000000e+00 1.127908e-02 0.0
1.000000e+00 -1.078272e-01 0.0
1.021680e+00 -1.078739e-01 0.0
1.046473e+00 -1.207456e-01 0.0
1.078352e+00 -1.474037e-01 0.0
1.122536e+00 -1.894299e-01 0.0
1.186489e+00 -2.488926e-01 0.0
1.275734e+00 -3.143053e-01 0.0
1.425039e+00 -4.367643e-01 0.0
1.512526e+00 -3.326099e-01 0.0
1.554711e+00 -2.154113e-01 0.0
1.575686e+00 -1.305324e-01 0.0
1.585216e+00 -6.937620e-02 0.0
1.586743e+00 -2.423442e-02 0.0
1.582601e+00 8.352348e-03 0.0
1.573767e+00 3.328053e-02 0.0
1.560861e+00 5.319788e-02 0.0
1.544455e+00 6.944186e-02 0.0
1.525059e+00 8.284333e-02 0.0
1.503140e+00 9.396522e-02 0.0
1.479127e+00 1.032660e-01 0.0
1.453418e+00 1.111764e-01 0.0
1.426367e+00 1.179671e-01 0.0
1.398200e+00 1.233440e-01 0.0
1.368834e+00 1.258175e-01 0.0
1.337818e+00 1.221443e-01 0.0
1.304205e+00 1.083224e-01 0.0
1.266438e+00 8.132890e-02 0.0
1.223544e+00 3.969520e-02 0.0
1.179347e+00 -1.740869e-02 0.0
1.144469e+00 -8.663697e-02 0.0
1.131575e+00 -1.543756e-01 0.0
1.153087e+00 -2.063407e-01 0.0
1.209364e+00 -2.276013e-01 0.0
1.288547e+00 -2.103082e-01 0.0
1.371414e+00 -1.555999e-01 0.0
1.435498e+00 -7.449700e-02 0.0
1.466015e+00 9.981924e-03 0.0
1.471131e+00 7.505595e-02 0.0
1.458649e+00 1.255013e-01 0.0
1.433205e+00 1.671569e-01 0.0
1.397593e+00 2.027355e-01 0.0
1.353834e+00 2.326705e-01 0.0
1.303756e+00 2.562532e-01 0.0
1.249156e+00 2.722304e-01 0.0
1.191855e+00 2.786873e-01 0.0
1.134163e+00 2.725832e-01 0.0
1.079068e+00 2.515843e-01 0.0
1.029630e+00 2.154423e-01 0.0
9.884458e-01 1.662990e-01 0.0
9.573049e-01 1.083761e-01 0.0
9.371341e-01 4.703770e-02 0.0
9.282334e-01 -1.225554e-02 0.0
9.298485e-01 -6.536467e-02 0.0
9.409397e-01 -1.111294e-01 0.0
9.601952e-01 -1.489493e-01 0.0
9.858165e-01 -1.776971e-01 0.0
1.015631e+00 -1.958742e-01 0.0
1.047221e+00 -2.022970e-01 0.0
1.078071e+00 -1.966979e-01 0.0
1.105823e+00 -1.796568e-01 0.0
1.128443e+00 -1.524682e-01 0.0
1.144211e+00 -1.170140e-01 0.0
1.151598e+00 -7.542792e-02 0.0
1.149048e+00 -2.931104e-02 0.0
1.135730e+00 2.046246e-02 0.0
1.113066e+00 7.060721e-02 0.0
1.084192e+00 1.173525e-01 0.0
1.053992e+00 1.554109e-01 0.0
1.028233e+00 1.780349e-01 0.0
1.011282e+00 1.795530e-01 0.0
1.003052e+00 1.606645e-01 0.0
1.001136e+00 1.270539e-01 0.0
1.002840e+00 8.619949e-02 0.0
1.006318e+00 4.499960e-02 0.0
1.010793e+00 8.374293e-03 0.0
1.016366e+00 -2.095286e-02 0.0
1.023467e+00 -4.248099e-02 0.0
1.032246e+00 -5.674440e-02 0.0
1.042438e+00 -6.465153e-02 0.0
1.053443e+00 -6.724064e-02 0.0
1.064503e+00 -6.562820e-02 0.0
1.074895e+00 -6.079572e-02 0.0
1.084014e+00 -5.357701e-02 0.0
1.091404e+00 -4.471830e-02 0.0
1.096752e+00 -3.486943e-02 0.0
1.099843e+00 -2.454119e-02 0.0
1.100457e+00 -1.401527e-02 0.0
1.098224e+00 -3.202099e-03 0.0
1.092878e+00 8.006190e-03 0.0
1.084390e+00 1.932681e-02 0.0
1.072907e+00 3.047516e-02 0.0
1.058829e+00 4.102260e-02 0.0
1.042919e+00 5.029939e-02 0.0
1.026374e+00 5.737286e-02 0.0
1.010772e+00 6.115746e-02 0.0
9.977933e-01 6.070592e-02 0.0
9.883715e-01 5.600868e-02 0.0
9.825407e-01 4.787448e-02 0.0
9.796535e-01 3.743029e-02 0.0
9.785996e-01 2.591285e-02 0.0
9.771837e-01 1.347564e-02 0.0
0.000000e+00 1.254670e-02 0.0
1.000000e+00 -1.222405e-01 0.0
1.014591e+00 -1.222864e-01 0.0
1.031764e+00 -1.378721e-01 0.0
1.055339e+00 -1.709322e-01 0.0
1.091579e+00 -2.256228e-01 0.0
1.151448e+00 -3.087151e-01 0.0
1.250286e+00 -4.130971e-01 0.0
1.442671e+00 -6.291025e-01 0.0
1.501858e+00 -3.917511e-01 0.0
1.512277e+00 -2.257828e-01 0.0
1.513671e+00 -1.318801e-01 0.0
1.513807e+00 -6.946588e-02 0.0
1.512248e+00 -2.262912e-02 0.0
1.507856e+00 1.279099e-02 0.0
1.500276e+00 4.090766e-02 0.0
1.489373e+00 6.414740e-02 0.0
1.475352e+00 8.350955e-02 0.0
1.458486e+00 9.975526e-02 0.0
1.439084e+00 1.134144e-01 0.0
1.417469e+00 1.249271e-01 0.0
1.393938e+00 1.347546e-01 0.0
1.368690e+00 1.432613e-01 0.0
1.341727e+00 1.503538e-01 0.0
1.312439e+00 1.551520e-01 0.0
1.278837e+00 1.557926e-01 0.0
1.237759e+00 1.494470e-01 0.0
1.185111e+00 1.340235e-01 0.0
1.115912e+00 1.089412e-01 0.0
1.023834e+00 7.471588e-02 0.0
9.122887e-01 2.495458e-02 0.0
8.131018e-01 -5.514215e-02 0.0
7.702631e-01 -1.634554e-01 0.0
8.056005e-01 -2.628921e-01 0.0
8.986198e-01 -3.032809e-01 0.0
1.018978e+00 -2.759119e-01 0.0
1.137830e+00 -1.933020e-01 0.0
1.230113e+00 -8.225441e-02 0.0
1.281701e+00 2.351402e-02 0.0
1.304640e+00 1.026093e-01 0.0
1.307181e+00 1.646627e-01 0.0
1.294332e+00 2.156303e-01 0.0
1.269585e+00 2.574643e-01 0.0
1.235744e+00 2.901414e-01 0.0
1.195250e+00 3.127710e-01 0.0
1.150288e+00 3.236953e-01 0.0
1.103054e+00 3.198645e-01 0.0
1.056361e+00 2.983231e-01 0.0
1.013031e+00 2.588190e-01 0.0
9.753617e-01 2.040151e-01 0.0
9.449867e-01 1.387977e-01 0.0
9.231324e-01 6.893865e-02 0.0
9.110220e-01 -9.854664e-05 0.0
9.092030e-01 -6.349905e-02 0.0
9.167352e-01 -1.186149e-01 0.0
9.317253e-01 -1.638928e-01 0.0
9.519475e-01 -1.978726e-01 0.0
9.751355e-01 -2.190156e-01 0.0
9.990260e-01 -2.261409e-01 0.0
1.021360e+00 -2.189857e-01 0.0
1.040118e+00 -1.983682e-01 0.0
1.053657e+00 -1.659603e-01 0.0
1.060590e+00 -1.239007e-01 0.0
1.059596e+00 -7.438674e-02 0.0
1.049492e+00 -1.916045e-02 0.0
1.031117e+00 3.888348e-02 0.0
1.007301e+00 9.447018e-02 0.0
9.822862e-01 1.424140e-01 0.0
9.611772e-01 1.765665e-01 0.0
9.482113e-01 1.910474e-01 0.0
9.440695e-01 1.837415e-01 0.0
9.460787e-01 1.587020e-01 0.0
9.509569e-01 1.222223e-01 0.0
9.562069e-01 8.099609e-02 0.0
9.607679e-01 4.048525e-02 0.0
9.648654e-01 4.323451e-03 0.0
9.695231e-01 -2.556389e-02 0.0
9.756745e-01 -4.858574e-02 0.0
9.836682e-01 -6.469146e-02 0.0
9.932738e-01 -7.421049e-02 0.0
1.003852e+00 -7.777195e-02 0.0
1.014546e+00 -7.627559e-02 0.0
1.024513e+00 -7.071606e-02 0.0
1.033042e+00 -6.205994e-02 0.0
1.039594e+00 -5.122362e-02 0.0
1.043774e+00 -3.900225e-02 0.0
1.045247e+00 -2.596807e-02 0.0
1.043605e+00 -1.232627e-02 0.0
1.038341e+00 2.108594e-03 0.0
1.029440e+00 1.695426e-02 0.0
1.017141e+00 3.167222e-02 0.0
1.002027e+00 4.563568e-02 0.0
9.851276e-01 5.796855e-02 0.0
9.679483e-01 6.752538e-02 0.0
9.523161e-01 7.305169e-02 0.0
9.399846e-01 7.353569e-02 0.0
9.317236e-01 6.901357e-02 0.0
9.271881e-01 6.059081e-02 0.0
9.254653e-01 4.964389e-02 0.0
9.253527e-01 3.758957e-02 0.0
9.256043e-01 2.570795e-02 0.0
9.248153e-01 1.431121e-02 0.0
0.000000e+00 1.326265e-02 0.0
1.000000e+00 -1.279219e-01 0.0
1.005854e+00 -1.279617e-01 0.0
1.012901e+00 -1.448724e-01 0.0
1.023649e+00 -1.816343e-01 0.0
1.043670e+00 -2.455967e-01 0.0
1.085561e+00 -3.505601e-01 0.0
1.177761e+00 -5.052498e-01 0.0
1.402215e+00 -8.535107e-01 0.0
1.381803e+00 -3.712918e-01 0.0
1.330538e+00 -1.744712e-01 0.0
1.301802e+00 -1.030977e-01 0.0
1.291399e+00 -5.901629e-02 0.0
1.291045e+00 -2.222931e-02 0.0
1.291495e+00 1.238802e-02 0.0
1.290587e+00 4.186226e-02 0.0
1.286912e+00 6.786848e-02 0.0
1.280251e+00 9.021723e-02 0.0
1.270472e+00 1.095815e-01 0.0
1.257561e+00 1.263714e-01 0.0
1.241628e+00 1.409074e-01 0.0
1.222743e+00 1.536862e-01 0.0
1.200684e+00 1.653661e-01 0.0
1.174637e+00 1.764474e-01 0.0
1.142769e+00 1.870666e-01 0.0
1.100822e+00 1.977863e-01 0.0
1.039214e+00 2.111021e-01 0.0
9.429832e-01 2.303005e-01 0.0
7.983347e-01 2.536362e-01 0.0
6.167139e-01 2.563832e-01 0.0
4.665964e-01 1.751187e-01 0.0
4.050518e-01 6.449048e-03 0.0
4.119523e-01 -1.703094e-01 0.0
4.617785e-01 -3.126717e-01 0.0
5.581850e-01 -3.996408e-01 0.0
6.856124e-01 -4.032927e-01 0.0
8.218634e-01 -3.295063e-01 0.0
9.457968e-01 -2.061413e-01 0.0
1.039695e+00 -7.033777e-02 0.0
1.097300e+00 4.505150e-02 0.0
1.129417e+00 1.325914e-01 0.0
1.142075e+00 2.030192e-01 0.0
1.139393e+00 2.601928e-01 0.0
1.124688e+00 3.048935e-01 0.0
1.100885e+00 3.366199e-01 0.0
1.070660e+00 3.539673e-01 0.0
1.036157e+00 3.544143e-01 0.0
9.997573e-01 3.347693e-01 0.0
9.637717e-01 2.948511e-01 0.0
9.303915e-01 2.374420e-01 0.0
9.021786e-01 1.670572e-01 0.0
8.821089e-01 8.905503e-02 0.0
8.725743e-01 9.482645e-03 0.0
8.741009e-01 -6.497901e-02 0.0
8.844616e-01 -1.289291e-01 0.0
9.004467e-01 -1.798313e-01 0.0
9.192820e-01 -2.166613e-01 0.0
9.388264e-01 -2.385134e-01 0.0
9.572259e-01 -2.444938e-01 0.0
9.726645e-01 -2.343776e-01 0.0
9.835680e-01 -2.092250e-01 0.0
9.887304e-01 -1.710760e-01 0.0
9.871977e-01 -1.223214e-01 0.0
9.781903e-01 -6.533269e-02 0.0
9.617421e-01 -2.665584e-03 0.0
9.405785e-01 6.009369e-02 0.0
9.183497e-01 1.167456e-01 0.0
8.993914e-01 1.614189e-01 0.0
8.875614e-01 1.884432e-01 0.0
8.843006e-01 1.943549e-01 0.0
8.873598e-01 1.807288e-01 0.0
8.934119e-01 1.526965e-01 0.0
8.996055e-01 1.160754e-01 0.0
9.044610e-01 7.618727e-02 0.0
9.080075e-01 3.698536e-02 0.0
9.113470e-01 1.030643e-03 0.0
9.159405e-01 -3.011078e-02 0.0
9.226938e-01 -5.529243e-02 0.0
9.317085e-01 -7.365949e-02 0.0
9.424579e-01 -8.491321e-02 0.0
9.540645e-01 -8.933197e-02 0.0
9.655053e-01 -8.766968e-02 0.0
9.758035e-01 -8.096764e-02 0.0
9.841555e-01 -7.036524e-02 0.0
9.899410e-01 -5.696255e-02 0.0
9.926651e-01 -4.167971e-02 0.0
9.918493e-01 -2.510562e-02 0.0
9.869436e-01 -7.373917e-03 0.0
9.778318e-01 1.126711e-02 0.0
9.649755e-01 2.985719e-02 0.0
9.492093e-01 4.748507e-02 0.0
9.318411e-01 6.305057e-02 0.0
9.146144e-01 7.524188e-02 0.0
8.994496e-01 8.273683e-02 0.0
8.879608e-01 8.458718e-02 0.0
8.806960e-01 8.084715e-02 0.0
8.769907e-01 7.276550e-02 0.0
8.758039e-01 6.182424e-02 0.0
8.759980e-01 4.949644e-02 0.0
8.765653e-01 3.706901e-02 0.0
8.767473e-01 2.557259e-02 0.0
8.761554e-01 1.494972e-02 0.0
0.000000e+00 1.381166e-02 0.0
1.000000e+00 -1.239718e-01 0.0
9.962187e-01 -1.240019e-01 0.0
9.912453e-01 -1.398525e-01 0.0
9.844449e-01 -1.747874e-01 0.0
9.764554e-01 -2.375606e-01 0.0
9.725179e-01 -3.465761e-01 0.0
9.993193e-01 -5.320046e-01 0.0
1.159713e+00 -1.013858e+00 0.0
9.926717e-01 -2.043359e-01 0.0
8.418934e-01 -2.377824e-02 0.0
7.778852e-01 -3.904293e-02 0.0
7.575871e-01 -3.867163e-02 0.0
7.670108e-01 -3.160644e-02 0.0
7.927404e-01 -1.329504e-02 0.0
8.158503e-01 1.879898e-02 0.0
8.321424e-01 5.162290e-02 0.0
8.428614e-01 7.954477e-02 0.0
8.469825e-01 1.055070e-01 0.0
8.431573e-01 1.302431e-01 0.0
8.300368e-01 1.540745e-01 0.0
8.059044e-01 1.778651e-01 0.0
7.681468e-01 2.031703e-01 0.0
7.128809e-01 2.317598e-01 0.0
6.351350e-01 2.648591e-01 0.0
5.307147e-01 3.022531e-01 0.0
4.016944e-01 3.401691e-01 0.0
2.666310e-01 3.654105e-01 0.0
1.694646e-01 3.508492e-01 0.0
1.509318e-01 2.749626e-01 0.0
2.025994e-01 1.234976e-01 0.0
2.748395e-01 -6.574446e-02 0.0
3.335216e-01 -2.289448e-01 0.0
3.809109e-01 -3.600144e-01 0.0
4.351069e-01 -4.537902e-01 0.0
5.183029e-01 -4.864421e-01 0.0
6.243866e-01 -4.355434e-01 0.0
7.365025e-01 -3.182105e-01 0.0
8.374129e-01 -1.712016e-01 0.0
9.119624e-01 -2.945137e-02 0.0
9.603928e-01 8.420757e-02 0.0
9.886491e-01 1.748096e-01 0.0
1.000730e+00 2.481580e-01 0.0
9.998356e-01 3.058350e-01 0.0
9.888344e-01 3.476676e-01 0.0
9.703603e-01 3.724880e-01 0.0
9.461654e-01 3.786559e-01 0.0
9.175046e-01 3.634767e-01 0.0
8.862951e-01 3.261073e-01 0.0
8.562154e-01 2.675683e-01 0.0
8.328487e-01 1.904704e-01 0.0
8.212180e-01 1.007324e-01 0.0
8.228555e-01 7.891730e-03 0.0
8.351793e-01 -7.725620e-02 0.0
8.535714e-01 -1.472746e-01 0.0
8.738853e-01 -2.000985e-01 0.0
8.934207e-01 -2.361500e-01 0.0
9.106835e-01 -2.557296e-01 0.0
9.246232e-01 -2.583869e-01 0.0
9.341090e-01 -2.438167e-01 0.0
9.381097e-01 -2.131791e-01 0.0
9.358594e-01 -1.687792e-01 0.0
9.269255e-01 -1.133408e-01 0.0
9.114400e-01 -4.980055e-02 0.0
8.912836e-01 1.753745e-02 0.0
8.701336e-01 8.129036e-02 0.0
8.516231e-01 1.353027e-01 0.0
8.390945e-01 1.739942e-01 0.0
8.342226e-01 1.933617e-01 0.0
8.358174e-01 1.928068e-01 0.0
8.406808e-01 1.759121e-01 0.0
8.459831e-01 1.474409e-01 0.0
8.500225e-01 1.120825e-01 0.0
8.526107e-01 7.364578e-02 0.0
8.547841e-01 3.485858e-02 0.0
8.581247e-01 -2.263324e-03 0.0
8.639928e-01 -3.593222e-02 0.0
8.727933e-01 -6.404634e-02 0.0
8.840773e-01 -8.489677e-02 0.0
8.968912e-01 -9.768045e-02 0.0
9.100904e-01 -1.024845e-01 0.0
9.225139e-01 -1.000466e-01 0.0
9.331117e-01 -9.151876e-02 0.0
9.410266e-01 -7.823348e-02 0.0
9.455659e-01 -6.145521e-02 0.0
9.461351e-01 -4.220232e-02 0.0
9.422049e-01 -2.112871e-02 0.0
9.335299e-01 1.347698e-03 0.0
9.208365e-01 2.400715e-02 0.0
9.052309e-01 4.550952e-02 0.0
8.882404e-01 6.452217e-02 0.0
8.717142e-01 7.962343e-02 0.0
8.574945e-01 8.950823e-02 0.0
8.469181e-01 9.335986e-02 0.0
8.402999e-01 9.125206e-02 0.0
8.368093e-01 8.438444e-02 0.0
8.354099e-01 7.421154e-02 0.0
8.351382e-01 6.214262e-02 0.0
8.352628e-01 4.941844e-02 0.0
8.353287e-01 3.704983e-02 0.0
8.351108e-01 2.583707e-02 0.0
8.346009e-01 1.550634e-02 0.0
0.000000e+00 1.426582e-02 0.0
1.000000e+00 -1.109042e-01 0.0
9.871004e-01 -1.109238e-01 0.0
9.702384e-01 -1.229440e-01 0.0
9.444524e-01 -1.489548e-01 0.0
9.011802e-01 -1.942419e-01 0.0
8.236417e-01 -2.689910e-01 0.0
6.869368e-01 -3.952532e-01 0.0
2.040720e-01 -5.310785e-01 0.0
-9.943418e-01 5.310177e-01 0.0
0.000000e+00 -7.322227e-02 0.0
-1.360405e-01 7.339785e-02 0.0
-1.003953e-01 -7.427027e-02 0.0
-4.472808e-03 -1.274824e-01 0.0
1.135855e-01 -1.313068e-01 0.0
2.097652e-01 -7.733410e-02 0.0
2.784083e-01 -1.697364e-02 0.0
3.221240e-01 3.587556e-02 0.0
3.454829e-01 8.219471e-02 0.0
3.502307e-01 1.255419e-01 0.0
3.373765e-01 1.669752e-01 0.0
3.079586e-01 2.073296e-01 0.0
2.630931e-01 2.480824e-01 0.0
2.036986e-01 2.912009e-01 0.0
1.316502e-01 3.369540e-01 0.0
5.448975e-02 3.794602e-01 0.0
-1.000314e-02 4.047085e-01 0.0
-3.993375e-02 3.953877e-01 0.0
-2.180904e-02 3.327710e-01 0.0
6.322031e-02 1.899798e-01 0.0
1.928986e-01 -6.134034e-03 0.0
3.105086e-01 -1.833079e-01 0.0
3.984637e-01 -3.168534e-01 0.0
4.465702e-01 -4.080743e-01 0.0
4.636269e-01 -4.708003e-01 0.0
4.857715e-01 -5.085401e-01 0.0
5.397886e-01 -4.895139e-01 0.0
6.166715e-01 -3.950468e-01 0.0
6.994341e-01 -2.539176e-01 0.0
7.724487e-01 -1.024194e-01 0.0
8.246107e-01 3.209215e-02 0.0
8.583827e-01 1.410842e-01 0.0
8.767834e-01 2.298038e-01 0.0
8.824853e-01 3.001797e-01 0.0
8.778275e-01 3.523720e-01 0.0
8.646603e-01 3.857019e-01 0.0
8.441199e-01 3.992429e-01 0.0
8.173361e-01 3.903071e-01 0.0
7.886439e-01 3.548461e-01 0.0
7.656013e-01 2.906575e-01 0.0
7.554315e-01 2.006868e-01 0.0
7.608652e-01 9.534523e-02 0.0
7.794422e-01 -1.063863e-02 0.0
8.052477e-01 -1.030151e-01 0.0
8.327906e-01 -1.747708e-01 0.0
8.580542e-01 -2.253155e-01 0.0
8.787092e-01 -2.567584e-01 0.0
8.939559e-01 -2.709296e-01 0.0
9.036810e-01 -2.680654e-01 0.0
9.076916e-01 -2.477807e-01 0.0
9.056214e-01 -2.110623e-01 0.0
8.971951e-01 -1.603063e-01 0.0
8.826155e-01 -9.871460e-02 0.0
8.631761e-01 -3.031452e-02 0.0
8.422813e-01 3.847895e-02 0.0
8.232727e-01 1.003456e-01 0.0
8.089897e-01 1.496323e-01 0.0
8.011429e-01 1.818875e-01 0.0
7.993575e-01 1.951938e-01 0.0
8.011351e-01 1.910757e-01 0.0
8.038057e-01 1.732882e-01 0.0
8.056433e-01 1.456499e-01 0.0
8.063038e-01 1.114686e-01 0.0
8.066930e-01 7.330325e-02 0.0
8.083601e-01 3.323815e-02 0.0
8.128419e-01 -6.698465e-03 0.0
8.209374e-01 -4.398113e-02 0.0
8.323773e-01 -7.543953e-02 0.0
8.461742e-01 -9.864701e-02 0.0
8.610220e-01 -1.124816e-01 0.0
8.755783e-01 -1.169942e-01 0.0
8.885916e-01 -1.130132e-01 0.0
8.990009e-01 -1.018814e-01 0.0
9.059413e-01 -8.512724e-02 0.0
9.086952e-01 -6.416246e-02 0.0
9.066908e-01 -4.015124e-02 0.0
8.996869e-01 -1.407820e-02 0.0
8.883762e-01 1.270506e-02 0.0
8.741284e-01 3.830159e-02 0.0
8.585692e-01 6.111537e-02 0.0
8.435092e-01 7.962886e-02 0.0
8.306028e-01 9.257650e-02 0.0
8.209023e-01 9.925539e-02 0.0
8.145338e-01 9.977501e-02 0.0
8.106966e-01 9.513593e-02 0.0
8.084580e-01 8.666969e-02 0.0
8.070795e-01 7.563671e-02 0.0
8.061106e-01 6.315818e-02 0.0
8.053763e-01 5.019931e-02 0.0
8.048551e-01 3.761769e-02 0.0
8.045444e-01 2.619450e-02 0.0
8.041793e-01 1.591805e-02 0.0
0.000000e+00 1.454609e-02 0.0
1.000000e+00 -9.093466e-02 0.0
9.802001e-01 -9.094539e-02 0.0
9.546177e-01 -9.731509e-02 0.0
9.155826e-01 -1.098731e-01 0.0
8.490212e-01 -1.276339e-01 0.0
7.257198e-01 -1.456431e-01 0.0
4.697779e-01 -1.392647e-01 0.0
-9.094785e-03 -5.229112e-02 0.0
1.328496e-04 0.000000e+00 0.0
0.000000e+00 -0.000000e+00 0.0
0.000000e+00 -1.200214e-01 0.0
-1.949074e-01 1.206837e-01 0.0
-1.818550e-01 -1.404882e-01 0.0
-1.252288e-01 -1.878864e-01 0.0
-8.346526e-02 -1.190511e-01 0.0
-4.357320e-02 -5.681914e-02 0.0
-1.494372e-02 7.292651e-03 0.0
3.889527e-04 6.690860e-02 0.0
2.993500e-03 1.229839e-01 0.0
-5.547073e-03 1.755624e-01 0.0