# vtk DataFile Version 3.0
Vector Field
ASCII
DATASET RECTILINEAR_GRID
DIMENSIONS 102 22 1
X_COORDINATES 102 double
0.000000 0.100000 0.200000 0.300000 0.400000 0.500000 0.600000 0.700000 0.800000 0.900000 1.000000 1.100000 1.200000 1.300000 1.400000 1.500000 1.600000 1.700000 1.800000 1.900000 2.000000 2.100000 2.200000 2.300000 2.400000 2.500000 2.600000 2.700000 2.800000 2.900000 3.000000 3.100000 3.200000 3.300000 3.400000 3.500000 3.600000 3.700000 3.800000 3.900000 4.000000 4.100000 4.200000 4.300000 4.400000 4.500000 4.600000 4.700000 4.800000 4.900000 5.000000 5.100000 5.200000 5.300000 5.400000 5.500000 5.600000 5.700000 5.800000 5.900000 6.000000 6.100000 6.200000 6.300000 6.400000 6.500000 6.600000 6.700000 6.800000 6.900000 7.000000 7.100000 7.200000 7.300000 7.400000 7.500000 7.600000 7.700000 7.800000 7.900000 8.000000 8.100000 8.200000 8.300000 8.400000 8.500000 8.600000 8.700000 8.800000 8.900000 9.000000 9.100000 9.200000 9.300000 9.400000 9.500000 9.600000 9.700000 9.800000 9.900000 10.000000 10.100000 
Y_COORDINATES 22 double
0.000000 0.100000 0.200000 0.300000 0.400000 0.500000 0.600000 0.700000 0.800000 0.900000 1.000000 1.100000 1.200000 1.300000 1.400000 1.500000 1.600000 1.700000 1.800000 1.900000 2.000000 2.100000 
Z_COORDINATES 1 double
0.0
POINT_DATA 2244
VECTORS Velocity double
0.000000e+00 0.000000e+00 0.0
-1.029512e+00 0.000000e+00 0.0
-1.062012e+00 0.000000e+00 0.0
-1.100660e+00 0.000000e+00 0.0
-1.148240e+00 0.000000e+00 0.0
-1.206876e+00 0.000000e+00 0.0
-1.275999e+00 0.000000e+00 0.0
-1.355161e+00 0.000000e+00 0.0
-1.426985e+00 0.000000e+00 0.0
-1.480470e+00 0.000000e+00 0.0
-1.514117e+00 0.000000e+00 0.0
-1.530980e+00 0.000000e+00 0.0
-1.535132e+00 0.000000e+00 0.0
-1.530085e+00 0.000000e+00 0.0
-1.518352e+00 0.000000e+00 0.0
-1.501699e+00 0.000000e+00 0.0
-1.481397e+00 0.000000e+00 0.0
-1.458370e+00 0.000000e+00 0.0
-1.433294e+00 0.000000e+00 0.0
-1.406794e+00 0.000000e+00 0.0
-1.379916e+00 0.000000e+00 0.0
-1.354824e+00 0.000000e+00 0.0
-1.335482e+00 0.000000e+00 0.0
-1.327451e+00 0.000000e+00 0.0
-1.336022e+00 0.000000e+00 0.0
-1.363416e+00 0.000000e+00 0.0
-1.406604e+00 0.000000e+00 0.0
-1.457532e+00 0.000000e+00 0.0
-1.506366e+00 0.000000e+00 0.0
-1.545178e+00 0.000000e+00 0.0
-1.569629e+00 0.000000e+00 0.0
-1.579087e+00 0.000000e+00 0.0
-1.575306e+00 0.000000e+00 0.0
-1.559996e+00 0.000000e+00 0.0
-1.534124e+00 0.000000e+00 0.0
-1.498171e+00 0.000000e+00 0.0
-1.452464e+00 0.000000e+00 0.0
-1.397471e+00 0.000000e+00 0.0
-1.333927e+00 0.000000e+00 0.0
-1.262818e+00 0.000000e+00 0.0
-1.185527e+00 0.000000e+00 0.0
-1.104334e+00 0.000000e+00 0.0
-1.022810e+00 0.000000e+00 0.0
-9.456007e-01 0.000000e+00 0.0
-8.780814e-01 0.000000e+00 0.0
-8.253799e-01 0.000000e+00 0.0
-7.911431e-01 0.000000e+00 0.0
-7.766676e-01 0.000000e+00 0.0
-7.808188e-01 0.000000e+00 0.0
-8.014206e-01 0.000000e+00 0.0
-8.367797e-01 0.000000e+00 0.0
-8.856369e-01 0.000000e+00 0.0
-9.468942e-01 0.000000e+00 0.0
-1.018947e+00 0.000000e+00 0.0
-1.099398e+00 0.000000e+00 0.0
-1.184623e+00 0.000000e+00 0.0
-1.270210e+00 0.000000e+00 0.0
-1.351782e+00 0.000000e+00 0.0
-1.425117e+00 0.000000e+00 0.0
-1.486444e+00 0.000000e+00 0.0
-1.532874e+00 0.000000e+00 0.0
-1.562882e+00 0.000000e+00 0.0
-1.576685e+00 0.000000e+00 0.0
-1.575939e+00 0.000000e+00 0.0
-1.561711e+00 0.000000e+00 0.0
-1.533934e+00 0.000000e+00 0.0
-1.492345e+00 0.000000e+00 0.0
-1.437245e+00 0.000000e+00 0.0
-1.370459e+00 0.000000e+00 0.0
-1.296075e+00 0.000000e+00 0.0
-1.219971e+00 0.000000e+00 0.0
-1.147801e+00 0.000000e+00 0.0
-1.083567e+00 0.000000e+00 0.0
-1.029382e+00 0.000000e+00 0.0
-9.857072e-01 0.000000e+00 0.0
-9.518470e-01 0.000000e+00 0.0
-9.264351e-01 0.000000e+00 0.0
-9.078705e-01 0.000000e+00 0.0
-8.946149e-01 0.000000e+00 0.0
-8.853432e-01 0.000000e+00 0.0
-8.789885e-01 0.000000e+00 0.0
-8.747277e-01 0.000000e+00 0.0
-8.719435e-01 0.000000e+00 0.0
-8.701816e-01 0.000000e+00 0.0
-8.691121e-01 0.000000e+00 0.0
-8.684993e-01 0.000000e+00 0.0
-8.681763e-01 0.000000e+00 0.0
-8.680273e-01 0.000000e+00 0.0
-8.679734e-01 0.000000e+00 0.0
-8.679620e-01 0.000000e+00 0.0
-8.679593e-01 0.000000e+00 0.0
-8.679424e-01 0.000000e+00 0.0
-8.678977e-01 0.000000e+00 0.0
-8.678188e-01 0.000000e+00 0.0
-8.677062e-01 0.000000e+00 0.0
-8.675688e-01 0.000000e+00 0.0
-8.674309e-01 0.000000e+00 0.0
-8.673369e-01 0.000000e+00 0.0
-8.673670e-01 0.000000e+00 0.0
-8.676910e-01 0.000000e+00 0.0
-8.676910e-01 0.000000e+00 0.0
0.000000e+00 0.000000e+00 0.0
1.000000e+00 -2.924582e-02 0.0
1.029613e+00 -2.933921e-02 0.0
1.062218e+00 -3.244846e-02 0.0
1.100987e+00 -3.861177e-02 0.0
1.148716e+00 -4.757175e-02 0.0
1.207544e+00 -5.867014e-02 0.0
1.276909e+00 -6.920854e-02 0.0
1.356403e+00 -7.933598e-02 0.0
1.428617e+00 -7.205744e-02 0.0
1.482513e+00 -5.373799e-02 0.0
1.516548e+00 -3.387846e-02 0.0
1.533740e+00 -1.703430e-02 0.0
1.538138e+00 -4.240721e-03 0.0
1.533245e+00 5.049993e-03 0.0
1.521564e+00 1.183829e-02 0.0
1.504848e+00 1.687346e-02 0.0
1.484358e+00 2.064744e-02 0.0
1.461013e+00 2.350157e-02 0.0
1.435476e+00 2.569449e-02 0.0
1.408303e+00 2.733001e-02 0.0
1.380349e+00 2.811173e-02 0.0
1.353428e+00 2.707837e-02 0.0
1.331074e+00 2.251105e-02 0.0
1.318667e+00 1.256424e-02 0.0
1.322047e+00 -3.222176e-03 0.0
1.344753e+00 -2.254902e-02 0.0
1.385487e+00 -4.057716e-02 0.0
1.437291e+00 -5.164624e-02 0.0
1.489995e+00 -5.254663e-02 0.0
1.534368e+00 -4.421607e-02 0.0
1.564581e+00 -3.005539e-02 0.0
1.578850e+00 -1.411118e-02 0.0
1.578597e+00 4.103149e-04 0.0
1.565961e+00 1.279339e-02 0.0
1.542298e+00 2.381957e-02 0.0
1.508334e+00 3.412148e-02 0.0
1.464485e+00 4.400653e-02 0.0
1.411200e+00 5.344237e-02 0.0
1.349166e+00 6.219132e-02 0.0
1.279317e+00 7.000683e-02 0.0
1.202929e+00 7.654551e-02 0.0
1.122058e+00 8.102821e-02 0.0
1.040046e+00 8.216912e-02 0.0
9.613408e-01 7.886290e-02 0.0
8.912227e-01 7.027548e-02 0.0
8.349391e-01 5.644104e-02 0.0
7.964842e-01 3.861241e-02 0.0
7.776301e-01 1.901147e-02 0.0
7.776894e-01 9.825477e-05 0.0
7.944779e-01 -1.663110e-02 0.0
8.261920e-01 -3.155658e-02 0.0
8.714998e-01 -4.515038e-02 0.0
9.293290e-01 -5.767166e-02 0.0
9.982721e-01 -6.878556e-02 0.0
1.076201e+00 -7.777116e-02 0.0
1.159871e+00 -8.351234e-02 0.0
1.245054e+00 -8.502609e-02 0.0
1.327432e+00 -8.222062e-02 0.0
1.402815e+00 -7.522475e-02 0.0
1.467354e+00 -6.438201e-02 0.0
1.517936e+00 -5.042447e-02 0.0
1.552634e+00 -3.454008e-02 0.0
1.571130e+00 -1.833852e-02 0.0
1.574729e+00 -3.441483e-03 0.0
1.564877e+00 1.000961e-02 0.0
1.541684e+00 2.335088e-02 0.0
1.504834e+00 3.700704e-02 0.0
1.454306e+00 5.068572e-02 0.0
1.391273e+00 6.319037e-02 0.0
1.319018e+00 7.241247e-02 0.0
1.242974e+00 7.620250e-02 0.0
1.169118e+00 7.401318e-02 0.0
1.102062e+00 6.721362e-02 0.0
1.044550e+00 5.766914e-02 0.0
9.975441e-01 4.716394e-02 0.0
9.606799e-01 3.702188e-02 0.0
9.327588e-01 2.807867e-02 0.0
9.122138e-01 2.070267e-02 0.0
8.974589e-01 1.491252e-02 0.0
8.870869e-01 1.052972e-02 0.0
8.799436e-01 7.300945e-03 0.0
8.751290e-01 4.972274e-03 0.0
8.719633e-01 3.323312e-03 0.0
8.699443e-01 2.176702e-03 0.0
8.687063e-01 1.395628e-03 0.0
8.679870e-01 8.770547e-04 0.0
8.676001e-01 5.445084e-04 0.0
8.674160e-01 3.418448e-04 0.0
8.673453e-01 2.282851e-04 0.0
8.673287e-01 1.743545e-04 0.0
8.673273e-01 1.591102e-04 0.0
8.673152e-01 1.697229e-04 0.0
8.672767e-01 1.962406e-04 0.0
8.672039e-01 2.304598e-04 0.0
8.670968e-01 2.648341e-04 0.0
8.669642e-01 2.902131e-04 0.0
8.668309e-01 2.910567e-04 0.0
8.667417e-01 2.468232e-04 0.0
8.667775e-01 1.219673e-04 0.0
8.671084e-01 -1.732130e-04 0.0
8.676910e-01 -4.248964e-04 0.0
0.000000e+00 -4.297102e-04 0.0
1.000000e+00 -5.904419e-02 0.0
1.030054e+00 -5.923579e-02 0.0
1.063121e+00 -6.547510e-02 0.0
1.102516e+00 -7.796480e-02 0.0
1.151377e+00 -9.639178e-02 0.0
1.212573e+00 -1.198253e-01 0.0
1.285734e+00 -1.423291e-01 0.0
1.375567e+00 -1.691276e-01 0.0
1.453608e+00 -1.500578e-01 0.0
1.508592e+00 -1.086807e-01 0.0
1.541979e+00 -6.722444e-02 0.0
1.558565e+00 -3.357917e-02 0.0
1.563044e+00 -8.678627e-03 0.0
1.558937e+00 9.197532e-03 0.0
1.548555e+00 2.226210e-02 0.0
1.533478e+00 3.199087e-02 0.0
1.514867e+00 3.929952e-02 0.0
1.493615e+00 4.479468e-02 0.0
1.470411e+00 4.893972e-02 0.0
1.445780e+00 5.200197e-02 0.0
1.420276e+00 5.365666e-02 0.0
1.395046e+00 5.234917e-02 0.0
1.372536e+00 4.506201e-02 0.0
1.356954e+00 2.818720e-02 0.0
1.353643e+00 1.299660e-04 0.0
1.367113e+00 -3.597729e-02 0.0
1.398944e+00 -7.236705e-02 0.0
1.445744e+00 -9.840568e-02 0.0
1.499048e+00 -1.058095e-01 0.0
1.549263e+00 -9.439018e-02 0.0
1.588455e+00 -6.920574e-02 0.0
1.611790e+00 -3.740594e-02 0.0
1.618554e+00 -6.312572e-03 0.0
1.611369e+00 2.002018e-02 0.0
1.592492e+00 4.273685e-02 0.0
1.563231e+00 6.342406e-02 0.0
1.524312e+00 8.296679e-02 0.0
1.476328e+00 1.014667e-01 0.0
1.420131e+00 1.184297e-01 0.0
1.356893e+00 1.332861e-01 0.0
1.288149e+00 1.453305e-01 0.0
1.215764e+00 1.534541e-01 0.0
1.142009e+00 1.559654e-01 0.0
1.070087e+00 1.508263e-01 0.0
1.003773e+00 1.366302e-01 0.0
9.468769e-01 1.133782e-01 0.0
9.025791e-01 8.295127e-02 0.0
8.728350e-01 4.879664e-02 0.0
8.581329e-01 1.484148e-02 0.0
8.574113e-01 -1.586845e-02 0.0
8.689999e-01 -4.310410e-02 0.0
8.918281e-01 -6.793751e-02 0.0
9.252947e-01 -9.109711e-02 0.0
9.691435e-01 -1.125933e-01 0.0
1.022395e+00 -1.309814e-01 0.0
1.083027e+00 -1.441033e-01 0.0
1.147949e+00 -1.499070e-01 0.0
1.213398e+00 -1.476289e-01 0.0
1.275697e+00 -1.374830e-01 0.0
1.331407e+00 -1.200500e-01 0.0
1.377633e+00 -9.660953e-02 0.0
1.412322e+00 -6.918794e-02 0.0
1.434363e+00 -4.033872e-02 0.0
1.443416e+00 -1.245298e-02 0.0
1.440061e+00 1.340530e-02 0.0
1.425214e+00 3.823910e-02 0.0
1.400151e+00 6.211107e-02 0.0
1.366897e+00 8.398035e-02 0.0
1.328279e+00 1.018497e-01 0.0
1.287394e+00 1.133392e-01 0.0
1.246903e+00 1.167342e-01 0.0
1.208902e+00 1.120554e-01 0.0
1.174788e+00 1.013692e-01 0.0
1.145059e+00 8.743927e-02 0.0
1.119531e+00 7.273277e-02 0.0
1.097914e+00 5.867952e-02 0.0
1.079877e+00 4.615681e-02 0.0
1.065043e+00 3.557809e-02 0.0
1.053009e+00 2.698786e-02 0.0
1.043363e+00 2.021706e-02 0.0
1.035701e+00 1.500381e-02 0.0
1.029647e+00 1.106773e-02 0.0
1.024863e+00 8.148093e-03 0.0
1.021061e+00 6.019229e-03 0.0
1.018004e+00 4.493818e-03 0.0
1.015502e+00 3.420596e-03 0.0
1.013408e+00 2.679970e-03 0.0
1.011611e+00 2.179251e-03 0.0
1.010033e+00 1.848179e-03 0.0
1.008613e+00 1.635087e-03 0.0
1.007311e+00 1.502703e-03 0.0
1.006099e+00 1.422600e-03 0.0
1.004961e+00 1.375444e-03 0.0
1.003886e+00 1.346844e-03 0.0
1.002868e+00 1.323228e-03 0.0
1.001911e+00 1.288315e-03 0.0
1.001023e+00 1.220913e-03 0.0
1.000228e+00 1.082975e-03 0.0
9.995729e-01 8.178434e-04 0.0
9.990924e-01 3.484173e-04 0.0
9.990642e-01 -3.556074e-04 0.0
0.000000e+00 -3.694573e-04 0.0
1.000000e+00 -8.548802e-02 0.0
1.026692e+00 -8.577101e-02 0.0
1.056522e+00 -9.526364e-02 0.0
1.093117e+00 -1.145186e-01 0.0
1.140432e+00 -1.436655e-01 0.0
1.203029e+00 -1.823816e-01 0.0
1.281807e+00 -2.210665e-01 0.0
1.393378e+00 -2.806574e-01 0.0
1.478795e+00 -2.354338e-01 0.0
1.530717e+00 -1.605611e-01 0.0
1.558506e+00 -9.497238e-02 0.0
1.570230e+00 -4.526252e-02 0.0
1.571453e+00 -9.860608e-03 0.0
1.565496e+00 1.519516e-02 0.0
1.554190e+00 3.360986e-02 0.0
1.538758e+00 4.746324e-02 0.0
1.520154e+00 5.794500e-02 0.0
1.499188e+00 6.580192e-02 0.0
1.476556e+00 7.161231e-02 0.0
1.452807e+00 7.579197e-02 0.0
1.428343e+00 7.816202e-02 0.0
1.403585e+00 7.714772e-02 0.0
1.379288e+00 6.940016e-02 0.0
1.356911e+00 5.060488e-02 0.0
1.339479e+00 1.760372e-02 0.0
1.332296e+00 -2.875346e-02 0.0
1.341163e+00 -8.119338e-02 0.0
1.369771e+00 -1.269726e-01 0.0
1.415217e+00 -1.512142e-01 0.0
1.468683e+00 -1.478155e-01 0.0
1.520461e+00 -1.209423e-01 0.0
1.560805e+00 -7.770854e-02 0.0
1.582448e+00 -2.791462e-02 0.0
1.585402e+00 1.710721e-02 0.0
1.574210e+00 5.396977e-02 0.0
1.551744e+00 8.593102e-02 0.0
1.519558e+00 1.151942e-01 0.0
1.478584e+00 1.424811e-01 0.0
1.429650e+00 1.674050e-01 0.0
1.373861e+00 1.891158e-01 0.0
1.312665e+00 2.065677e-01 0.0
1.247753e+00 2.184073e-01 0.0
1.181181e+00 2.225790e-01 0.0
1.115677e+00 2.163707e-01 0.0
1.054314e+00 1.980344e-01 0.0
9.999222e-01 1.678112e-01 0.0
9.545033e-01 1.284112e-01 0.0
9.190198e-01 8.432126e-02 0.0
8.937959e-01 4.010638e-02 0.0
8.790817e-01 -1.113137e-03 0.0
8.742655e-01 -3.824678e-02 0.0
8.790344e-01 -7.266530e-02 0.0
8.937347e-01 -1.057563e-01 0.0
9.181967e-01 -1.370142e-01 0.0
9.515995e-01 -1.643430e-01 0.0
9.924434e-01 -1.849061e-01 0.0
1.038559e+00 -1.959817e-01 0.0
1.086912e+00 -1.959401e-01 0.0
1.134389e+00 -1.849194e-01 0.0
1.178151e+00 -1.637705e-01 0.0
1.215803e+00 -1.342209e-01 0.0
1.245515e+00 -9.885857e-02 0.0
1.266019e+00 -6.080155e-02 0.0
1.276613e+00 -2.300631e-02 0.0
1.277642e+00 1.241801e-02 0.0
1.270597e+00 4.532456e-02 0.0
1.257554e+00 7.519527e-02 0.0
1.241007e+00 1.005692e-01 0.0
1.223442e+00 1.194552e-01 0.0
1.206698e+00 1.301248e-01 0.0
1.191554e+00 1.319195e-01 0.0
1.177743e+00 1.259073e-01 0.0
1.164726e+00 1.144273e-01 0.0
1.152122e+00 1.000844e-01 0.0
1.139874e+00 8.502156e-02 0.0
1.127961e+00 7.063420e-02 0.0
1.116416e+00 5.774212e-02 0.0
1.105332e+00 4.670342e-02 0.0
1.094807e+00 3.755403e-02 0.0
1.084919e+00 3.014606e-02 0.0
1.075715e+00 2.424925e-02 0.0
1.067211e+00 1.961310e-02 0.0
1.059400e+00 1.599975e-02 0.0
1.052262e+00 1.319863e-02 0.0
1.045766e+00 1.103095e-02 0.0
1.039878e+00 9.349368e-03 0.0
1.034564e+00 8.035536e-03 0.0
1.029787e+00 6.996969e-03 0.0
1.025513e+00 6.163507e-03 0.0
1.021706e+00 5.483615e-03 0.0
1.018329e+00 4.920265e-03 0.0
1.015346e+00 4.446902e-03 0.0
1.012718e+00 4.044776e-03 0.0
1.010407e+00 3.698932e-03 0.0
1.008377e+00 3.394137e-03 0.0
1.006596e+00 3.110500e-03 0.0
1.005040e+00 2.818002e-03 0.0
1.003698e+00 2.466696e-03 0.0
1.002582e+00 1.974922e-03 0.0
1.001711e+00 1.260308e-03 0.0
1.001579e+00 -1.826939e-04 0.0
0.000000e+00 -2.145978e-04 0.0
1.000000e+00 -1.067823e-01 0.0
1.021533e+00 -1.071465e-01 0.0
1.046169e+00 -1.198588e-01 0.0
1.077834e+00 -1.461431e-01 0.0
1.121702e+00 -1.874920e-01 0.0
1.185178e+00 -2.458163e-01 0.0
1.273662e+00 -3.095102e-01 0.0
1.421972e+00 -4.289261e-01 0.0
1.507817e+00 -3.212374e-01 0.0
1.546625e+00 -1.993288e-01 0.0
1.562741e+00 -1.110466e-01 0.0
1.566858e+00 -4.933907e-02 0.0
1.563911e+00 -6.872067e-03 0.0
1.555838e+00 2.330886e-02 0.0
1.543577e+00 4.591164e-02 0.0
1.527828e+00 6.325323e-02 0.0
1.509246e+00 7.656785e-02 0.0
1.488504e+00 8.658498e-02 0.0
1.466267e+00 9.389039e-02 0.0
1.443080e+00 9.902023e-02 0.0
1.419168e+00 1.021154e-01 0.0
1.394234e+00 1.021224e-01 0.0
1.367403e+00 9.627255e-02 0.0
1.337177e+00 8.087221e-02 0.0
1.302139e+00 5.268232e-02 0.0
1.263829e+00 9.597889e-03 0.0
1.230528e+00 -4.785186e-02 0.0
1.214913e+00 -1.113165e-01 0.0
1.226261e+00 -1.625211e-01 0.0
1.265512e+00 -1.870253e-01 0.0
1.325380e+00 -1.807695e-01 0.0
1.392740e+00 -1.450274e-01 0.0
1.450506e+00 -8.563937e-02 0.0
1.483146e+00 -1.549133e-02 0.0
1.491963e+00 4.519308e-02 0.0
1.484565e+00 9.337073e-02 0.0
1.465065e+00 1.347353e-01 0.0
1.435552e+00 1.720350e-01 0.0
1.397329e+00 2.056683e-01 0.0
1.351676e+00 2.348107e-01 0.0
1.300076e+00 2.582082e-01 0.0
1.244171e+00 2.743535e-01 0.0
1.185738e+00 2.810535e-01 0.0
1.127146e+00 2.750030e-01 0.0
1.071277e+00 2.539446e-01 0.0
1.020592e+00 2.185381e-01 0.0
9.763795e-01 1.726643e-01 0.0
9.387654e-01 1.219765e-01 0.0
9.076054e-01 7.130741e-02 0.0
8.835364e-01 2.299692e-02 0.0
8.678362e-01 -2.250542e-02 0.0
8.610774e-01 -6.586543e-02 0.0
8.633388e-01 -1.079767e-01 0.0
8.742615e-01 -1.478958e-01 0.0
8.930637e-01 -1.831042e-01 0.0
9.184812e-01 -2.102825e-01 0.0
9.487841e-01 -2.262435e-01 0.0
9.817164e-01 -2.288314e-01 0.0
1.014838e+00 -2.179999e-01 0.0
1.045999e+00 -1.948900e-01 0.0
1.073459e+00 -1.616402e-01 0.0
1.095865e+00 -1.212229e-01 0.0
1.112208e+00 -7.710397e-02 0.0
1.121980e+00 -3.273665e-02 0.0
1.125573e+00 8.866042e-03 0.0
1.124827e+00 4.611076e-02 0.0
1.121848e+00 7.821626e-02 0.0
1.118670e+00 1.037882e-01 0.0
1.116744e+00 1.214219e-01 0.0
1.116527e+00 1.303832e-01 0.0
1.117404e+00 1.310838e-01 0.0
1.118197e+00 1.251546e-01 0.0
1.117935e+00 1.147309e-01 0.0
1.116103e+00 1.019572e-01 0.0
1.112601e+00 8.856473e-02 0.0
1.107549e+00 7.572715e-02 0.0
1.101207e+00 6.412591e-02 0.0
1.093895e+00 5.405589e-02 0.0
1.085940e+00 4.555013e-02 0.0
1.077636e+00 3.849118e-02 0.0
1.069235e+00 3.269186e-02 0.0
1.060943e+00 2.794591e-02 0.0
1.052928e+00 2.405635e-02 0.0
1.045318e+00 2.084916e-02 0.0
1.038212e+00 1.817806e-02 0.0
1.031678e+00 1.592458e-02 0.0
1.025759e+00 1.399620e-02 0.0
1.020473e+00 1.232360e-02 0.0
1.015821e+00 1.085704e-02 0.0
1.011783e+00 9.562314e-03 0.0
1.008328e+00 8.416826e-03 0.0
1.005410e+00 7.405987e-03 0.0
1.002976e+00 6.519705e-03 0.0
1.000968e+00 5.748469e-03 0.0
9.993235e-01 5.079497e-03 0.0
9.979827e-01 4.492410e-03 0.0
9.968888e-01 3.953070e-03 0.0
9.959938e-01 3.402855e-03 0.0
9.952722e-01 2.737630e-03 0.0
9.947306e-01 1.843027e-03 0.0
9.947777e-01 -1.886082e-04 0.0
0.000000e+00 -2.385681e-04 0.0
1.000000e+00 -1.210662e-01 0.0
1.014509e+00 -1.214981e-01 0.0
1.031611e+00 -1.369198e-01 0.0
1.055105e+00 -1.695967e-01 0.0
1.091258e+00 -2.236039e-01 0.0
1.151085e+00 -3.056020e-01 0.0
1.250003e+00 -4.083867e-01 0.0
1.443460e+00 -6.223426e-01 0.0
1.503119e+00 -3.808552e-01 0.0
1.512362e+00 -2.085306e-01 0.0
1.510262e+00 -1.089061e-01 0.0
1.505306e+00 -4.434140e-02 0.0
1.498727e+00 -2.526970e-04 0.0
1.489760e+00 3.231751e-02 0.0
1.477883e+00 5.782990e-02 0.0
1.463058e+00 7.811895e-02 0.0
1.445511e+00 9.415535e-02 0.0
1.425682e+00 1.064555e-01 0.0
1.404112e+00 1.155011e-01 0.0
1.381229e+00 1.219445e-01 0.0
1.357015e+00 1.263707e-01 0.0
1.330422e+00 1.287563e-01 0.0
1.299109e+00 1.276263e-01 0.0
1.259535e+00 1.204874e-01 0.0
1.207106e+00 1.051524e-01 0.0
1.136598e+00 8.014714e-02 0.0
1.046761e+00 4.202600e-02 0.0
9.513828e-01 -1.589728e-02 0.0
8.851688e-01 -9.626603e-02 0.0
8.791368e-01 -1.809523e-01 0.0
9.355776e-01 -2.371693e-01 0.0
1.031522e+00 -2.409307e-01 0.0
1.140730e+00 -1.948065e-01 0.0
1.236505e+00 -1.112248e-01 0.0
1.296806e+00 -1.506704e-02 0.0
1.325517e+00 6.470015e-02 0.0
1.333575e+00 1.267185e-01 0.0
1.326481e+00 1.791705e-01 0.0
1.307341e+00 2.248490e-01 0.0
1.278399e+00 2.637937e-01 0.0
1.241662e+00 2.949871e-01 0.0
1.199084e+00 3.169720e-01 0.0
1.152603e+00 3.275754e-01 0.0
1.104354e+00 3.232934e-01 0.0
1.056819e+00 3.015205e-01 0.0
1.011842e+00 2.635569e-01 0.0
9.701626e-01 2.143844e-01 0.0
9.320163e-01 1.601639e-01 0.0
8.981349e-01 1.052299e-01 0.0
8.700209e-01 5.115198e-02 0.0
8.495107e-01 -1.954098e-03 0.0
8.372660e-01 -5.357969e-02 0.0
8.326845e-01 -1.033541e-01 0.0
8.348879e-01 -1.500581e-01 0.0
8.430917e-01 -1.912668e-01 0.0
8.564745e-01 -2.236242e-01 0.0
8.739240e-01 -2.436519e-01 0.0
8.939306e-01 -2.487968e-01 0.0
9.146360e-01 -2.386642e-01 0.0
9.344973e-01 -2.147102e-01 0.0
9.524004e-01 -1.795023e-01 0.0
9.675865e-01 -1.363680e-01 0.0
9.795890e-01 -8.906537e-02 0.0
9.883211e-01 -4.142766e-02 0.0
9.943423e-01 2.886011e-03 0.0
9.991087e-01 4.138540e-02 0.0
1.004183e+00 7.318277e-02 0.0
1.010706e+00 9.730623e-02 0.0
1.019046e+00 1.131230e-01 0.0
1.028680e+00 1.207904e-01 0.0
1.038394e+00 1.214114e-01 0.0
1.046958e+00 1.166319e-01 0.0
1.053494e+00 1.082355e-01 0.0
1.057576e+00 9.791671e-02 0.0
1.059151e+00 8.703043e-02 0.0
1.058415e+00 7.650439e-02 0.0
1.055707e+00 6.687571e-02 0.0
1.051427e+00 5.837676e-02 0.0
1.045984e+00 5.103390e-02 0.0
1.039762e+00 4.475434e-02 0.0
1.033105e+00 3.939017e-02 0.0
1.026312e+00 3.478005e-02 0.0
1.019636e+00 3.077381e-02 0.0
1.013281e+00 2.724531e-02 0.0
1.007404e+00 2.409613e-02 0.0
1.002116e+00 2.125359e-02 0.0
9.974861e-01 1.866703e-02 0.0
9.935465e-01 1.630433e-02 0.0
9.902970e-01 1.414772e-02 0.0
9.877119e-01 1.218854e-02 0.0
9.857460e-01 1.042384e-02 0.0
9.843387e-01 8.854379e-03 0.0
9.834181e-01 7.481525e-03 0.0
9.829044e-01 6.303219e-03 0.0
9.827148e-01 5.310245e-03 0.0
9.827658e-01 4.482609e-03 0.0
9.829740e-01 3.785951e-03 0.0
9.832579e-01 3.160146e-03 0.0
9.835441e-01 2.492517e-03 0.0
9.837759e-01 1.652429e-03 0.0
9.841790e-01 -5.506286e-04 0.0
0.000000e+00 -6.121060e-04 0.0
1.000000e+00 -1.266926e-01 0.0
1.005835e+00 -1.271759e-01 0.0
1.012897e+00 -1.439408e-01 0.0
1.023707e+00 -1.803656e-01 0.0
1.043904e+00 -2.437599e-01 0.0
1.086266e+00 -3.479232e-01 0.0
1.179630e+00 -5.017093e-01 0.0
1.407192e+00 -8.498640e-01 0.0
1.391286e+00 -3.649075e-01 0.0
1.343806e+00 -1.610103e-01 0.0
1.315799e+00 -8.085807e-02 0.0
1.302982e+00 -3.148314e-02 0.0
1.296379e+00 6.391032e-03 0.0
1.290813e+00 3.792446e-02 0.0
1.283403e+00 6.528098e-02 0.0
1.273148e+00 8.841550e-02 0.0
1.259604e+00 1.077404e-01 0.0
1.242783e+00 1.233179e-01 0.0
1.222983e+00 1.353417e-01 0.0
1.200341e+00 1.446272e-01 0.0
1.174125e+00 1.526284e-01 0.0
1.142083e+00 1.608385e-01 0.0
1.099319e+00 1.704313e-01 0.0
1.037302e+00 1.825462e-01 0.0
9.445033e-01 1.979917e-01 0.0
8.114883e-01 2.132032e-01 0.0
6.476909e-01 2.058645e-01 0.0
4.953125e-01 1.365222e-01 0.0
4.129083e-01 -1.382081e-02 0.0
4.159426e-01 -1.839456e-01 0.0
4.893318e-01 -3.105174e-01 0.0
6.124647e-01 -3.640225e-01 0.0
7.562847e-01 -3.385855e-01 0.0
8.962259e-01 -2.511249e-01 0.0
1.012347e+00 -1.311467e-01 0.0
1.088876e+00 -1.178784e-02 0.0
1.133809e+00 8.182634e-02 0.0
1.156903e+00 1.561178e-01 0.0
1.163163e+00 2.186295e-01 0.0
1.155998e+00 2.710002e-01 0.0
1.138207e+00 3.128190e-01 0.0
1.112366e+00 3.428539e-01 0.0
1.080913e+00 3.590694e-01 0.0
1.045782e+00 3.584657e-01 0.0
1.008725e+00 3.386181e-01 0.0
9.707757e-01 3.015474e-01 0.0
9.326286e-01 2.525726e-01 0.0
8.959120e-01 1.969215e-01 0.0
8.635487e-01 1.376343e-01 0.0
8.383160e-01 7.642575e-02 0.0
8.212506e-01 1.515234e-02 0.0
8.115346e-01 -4.382257e-02 0.0
8.069509e-01 -9.872930e-02 0.0
8.057290e-01 -1.487951e-01 0.0
8.071972e-01 -1.926940e-01 0.0
8.113541e-01 -2.277400e-01 0.0
8.181223e-01 -2.503791e-01 0.0
8.269619e-01 -2.575953e-01 0.0
8.367944e-01 -2.484556e-01 0.0
8.466693e-01 -2.245440e-01 0.0
8.560206e-01 -1.888125e-01 0.0
8.646479e-01 -1.449542e-01 0.0
8.726273e-01 -9.700366e-02 0.0
8.802572e-01 -4.901644e-02 0.0
8.879669e-01 -4.782628e-03 0.0
8.965246e-01 3.286881e-02 0.0
9.066738e-01 6.307468e-02 0.0
9.186724e-01 8.534882e-02 0.0
9.321262e-01 9.971028e-02 0.0
9.460755e-01 1.068822e-01 0.0
9.592864e-01 1.082417e-01 0.0
9.707310e-01 1.052283e-01 0.0
9.797467e-01 9.926093e-02 0.0
9.860495e-01 9.165503e-02 0.0
9.896707e-01 8.345040e-02 0.0
9.908615e-01 7.535466e-02 0.0
9.900057e-01 6.777260e-02 0.0
9.875482e-01 6.087547e-02 0.0
9.839439e-01 5.467933e-02 0.0
9.796244e-01 4.911491e-02 0.0
9.749760e-01 4.407968e-02 0.0
9.703275e-01 3.946970e-02 0.0
9.659450e-01 3.519744e-02 0.0
9.620298e-01 3.120167e-02 0.0
9.587189e-01 2.744816e-02 0.0
9.560917e-01 2.392192e-02 0.0
9.541806e-01 2.061929e-02 0.0
9.529808e-01 1.754524e-02 0.0
9.524574e-01 1.471226e-02 0.0
9.525546e-01 1.213249e-02 0.0
9.532043e-01 9.815246e-03 0.0
9.543295e-01 7.770305e-03 0.0
9.558447e-01 6.007510e-03 0.0
9.576584e-01 4.530679e-03 0.0
9.596775e-01 3.332243e-03 0.0
9.618138e-01 2.387478e-03 0.0
9.639756e-01 1.665197e-03 0.0
9.660585e-01 1.118436e-03 0.0
9.679320e-01 6.601062e-04 0.0
9.694360e-01 1.896107e-04 0.0
9.703600e-01 -1.433489e-03 0.0
0.000000e+00 -1.498141e-03 0.0
1.000000e+00 -1.227512e-01 0.0
9.962495e-01 -1.232682e-01 0.0
9.913586e-01 -1.390090e-01 0.0
9.847300e-01 -1.736959e-01 0.0
9.771135e-01 -2.361024e-01 0.0
9.739734e-01 -3.447421e-01 0.0
1.002487e+00 -5.301816e-01 0.0
1.166231e+00 -1.013567e+00 0.0
1.007837e+00 -2.065889e-01 0.0
8.690713e-01 -2.231977e-02 0.0
8.135513e-01 -2.529699e-02 0.0
8.001656e-01 -1.805646e-02 0.0
8.050231e-01 1.574589e-03 0.0
8.151070e-01 2.788155e-02 0.0
8.226241e-01 5.780496e-02 0.0
8.251794e-01 8.590123e-02 0.0
8.196530e-01 1.133078e-01 0.0
8.036360e-01 1.393758e-01 0.0
7.753101e-01 1.637088e-01 0.0
7.329937e-01 1.869847e-01 0.0
6.745707e-01 2.110924e-01 0.0
5.969120e-01 2.385383e-01 0.0
4.964630e-01 2.709212e-01 0.0
3.729799e-01 3.060704e-01 0.0
2.414983e-01 3.295143e-01 0.0
1.417988e-01 3.129437e-01 0.0
1.017674e-01 2.459370e-01 0.0
1.276794e-01 1.106512e-01 0.0
1.881219e-01 -7.422230e-02 0.0
2.467371e-01 -2.425197e-01 0.0
3.092608e-01 -3.730001e-01 0.0
3.986101e-01 -4.533307e-01 0.0
5.162595e-01 -4.561938e-01 0.0
6.462946e-01 -3.811190e-01 0.0
7.698849e-01 -2.546960e-01 0.0
8.711527e-01 -1.130145e-01 0.0
9.392437e-01 1.377640e-02 0.0
9.826695e-01 1.127329e-01 0.0
1.007315e+00 1.940253e-01 0.0
1.016942e+00 2.614141e-01 0.0
1.014569e+00 3.152330e-01 0.0
1.002971e+00 3.544930e-01 0.0
9.846713e-01 3.774102e-01 0.0
9.609710e-01 3.822071e-01 0.0
9.322220e-01 3.674081e-01 0.0
8.989557e-01 3.348548e-01 0.0
8.636339e-01 2.879355e-01 0.0
8.313712e-01 2.292253e-01 0.0
8.075022e-01 1.615444e-01 0.0
7.941868e-01 8.978220e-02 0.0
7.896174e-01 1.976279e-02 0.0
7.898744e-01 -4.403849e-02 0.0
7.909668e-01 -9.978052e-02 0.0
7.905066e-01 -1.482938e-01 0.0
7.881146e-01 -1.902608e-01 0.0
7.849084e-01 -2.244927e-01 0.0
7.822544e-01 -2.476839e-01 0.0
7.809752e-01 -2.562750e-01 0.0
7.810172e-01 -2.484565e-01 0.0
7.820589e-01 -2.255445e-01 0.0
7.839657e-01 -1.906782e-01 0.0
7.868759e-01 -1.478233e-01 0.0
7.911252e-01 -1.012119e-01 0.0
7.970944e-01 -5.494451e-02 0.0
8.049644e-01 -1.261147e-02 0.0
8.147654e-01 2.310884e-02 0.0
8.265201e-01 5.136115e-02 0.0
8.398616e-01 7.204846e-02 0.0
8.540076e-01 8.560537e-02 0.0
8.679317e-01 9.299916e-02 0.0
8.806431e-01 9.557146e-02 0.0
8.913360e-01 9.457644e-02 0.0
8.995948e-01 9.104328e-02 0.0
9.053283e-01 8.596267e-02 0.0
9.087115e-01 8.010837e-02 0.0
9.101036e-01 7.400368e-02 0.0
9.099645e-01 6.795278e-02 0.0
9.087817e-01 6.209943e-02 0.0
9.070153e-01 5.648679e-02 0.0
9.050631e-01 5.110827e-02 0.0
9.032397e-01 4.594423e-02 0.0
9.017754e-01 4.097511e-02 0.0
9.008296e-01 3.618439e-02 0.0
9.005029e-01 3.156946e-02 0.0
9.008425e-01 2.714968e-02 0.0
9.018519e-01 2.295363e-02 0.0
9.035083e-01 1.900408e-02 0.0
9.057755e-01 1.531920e-02 0.0
9.085991e-01 1.192976e-02 0.0
9.119139e-01 8.858814e-03 0.0
9.156580e-01 6.112288e-03 0.0
9.197735e-01 3.695934e-03 0.0
9.241950e-01 1.627102e-03 0.0
9.288517e-01 -8.484212e-05 0.0
9.336627e-01 -1.437566e-03 0.0
9.385180e-01 -2.426736e-03 0.0
9.432840e-01 -3.059681e-03 0.0
9.477983e-01 -3.354719e-03 0.0
9.518477e-01 -3.348151e-03 0.0
9.551790e-01 -3.100563e-03 0.0
9.567358e-01 -2.949179e-03 0.0
0.000000e+00 -3.000709e-03 0.0
1.000000e+00 -1.097350e-01 0.0
9.871571e-01 -1.102681e-01 0.0
9.704082e-01 -1.222190e-01 0.0
9.448304e-01 -1.480771e-01 0.0
9.019601e-01 -1.931911e-01 0.0
8.251406e-01 -2.678816e-01 0.0
6.898894e-01 -3.948893e-01 0.0
2.063565e-01 -5.301094e-01 0.0
-1.008881e+00 5.287850e-01 0.0
0.000000e+00 -6.958426e-02 0.0
-1.181714e-01 7.071186e-02 0.0
-5.567703e-02 -8.050979e-02 0.0
5.292984e-02 -1.069913e-01 0.0
1.612570e-01 -8.040458e-02 0.0
2.368231e-01 -1.772013e-02 0.0
2.811254e-01 4.164001e-02 0.0
2.990737e-01 9.540049e-02 0.0
2.931045e-01 1.453860e-01 0.0
2.651205e-01 1.917339e-01 0.0
2.179537e-01 2.341925e-01 0.0
1.558094e-01 2.732777e-01 0.0
8.380704e-02 3.105817e-01 0.0
9.920580e-03 3.448487e-01 0.0
-5.064140e-02 3.666734e-01 0.0
-7.878811e-02 3.577021e-01 0.0
-7.435873e-02 3.085554e-01 0.0
-1.945169e-02 1.910709e-01 0.0
9.331815e-02 -2.077563e-03 0.0
2.023946e-01 -1.832577e-01 0.0
2.848245e-01 -3.249086e-01 0.0
3.352599e-01 -4.233944e-01 0.0
3.710953e-01 -4.891251e-01 0.0
4.291280e-01 -5.141855e-01 0.0
5.152037e-01 -4.671536e-01 0.0
6.143147e-01 -3.537660e-01 0.0
7.088758e-01 -2.075346e-01 0.0
7.844266e-01 -6.173336e-02 0.0
8.360951e-01 6.110549e-02 0.0
8.692369e-01 1.609245e-01 0.0
8.874284e-01 2.432638e-01 0.0
8.935145e-01 3.091879e-01 0.0
8.899104e-01 3.581382e-01 0.0
8.783690e-01 3.889927e-01 0.0
8.594221e-01 4.011951e-01 0.0
8.330048e-01 3.938665e-01 0.0
8.021386e-01 3.657621e-01 0.0
7.734550e-01 3.166602e-01 0.0
7.541419e-01 2.485795e-01 0.0
7.476141e-01 1.681133e-01 0.0
7.524974e-01 8.493991e-02 0.0
7.644952e-01 7.806121e-03 0.0
7.779792e-01 -5.748143e-02 0.0
7.880982e-01 -1.098585e-01 0.0
7.918149e-01 -1.519694e-01 0.0
7.885005e-01 -1.869053e-01 0.0
7.796492e-01 -2.156003e-01 0.0
7.682072e-01 -2.362009e-01 0.0
7.568803e-01 -2.449070e-01 0.0
7.470938e-01 -2.386290e-01 0.0
7.393637e-01 -2.177734e-01 0.0
7.339770e-01 -1.852503e-01 0.0
7.312234e-01 -1.450286e-01 0.0
7.313656e-01 -1.013130e-01 0.0
7.345165e-01 -5.805426e-02 0.0
7.404755e-01 -1.852933e-02 0.0
7.486855e-01 1.493991e-02 0.0
7.586473e-01 4.144043e-02 0.0
7.696606e-01 6.107630e-02 0.0
7.808484e-01 7.445870e-02 0.0
7.913496e-01 8.253905e-02 0.0
8.005292e-01 8.643295e-02 0.0
8.079633e-01 8.718351e-02 0.0
8.135573e-01 8.549035e-02 0.0
8.174961e-01 8.206507e-02 0.0
8.201435e-01 7.750203e-02 0.0
8.219413e-01 7.224698e-02 0.0
8.233244e-01 6.661088e-02 0.0
8.246632e-01 6.080174e-02 0.0
8.262413e-01 5.494981e-02 0.0
8.282585e-01 4.913222e-02 0.0
8.308322e-01 4.341164e-02 0.0
8.340126e-01 3.783583e-02 0.0
8.378222e-01 3.241587e-02 0.0
8.422809e-01 2.715191e-02 0.0
8.473868e-01 2.208491e-02 0.0
8.531052e-01 1.727635e-02 0.0
8.593890e-01 1.276146e-02 0.0
8.662143e-01 8.535010e-03 0.0
8.735299e-01 4.655291e-03 0.0
8.812469e-01 1.182939e-03 0.0
8.892373e-01 -1.836984e-03 0.0
8.973445e-01 -4.370125e-03 0.0
9.054253e-01 -6.412535e-03 0.0
9.133528e-01 -7.971208e-03 0.0
9.210108e-01 -9.054421e-03 0.0
9.282948e-01 -9.669642e-03 0.0
9.351012e-01 -9.824869e-03 0.0
9.413050e-01 -9.517403e-03 0.0
9.467200e-01 -8.721998e-03 0.0
9.511107e-01 -7.450106e-03 0.0
9.529718e-01 -4.769138e-03 0.0
0.000000e+00 -4.790607e-03 0.0
1.000000e+00 -8.983556e-02 0.0
9.802585e-01 -9.036936e-02 0.0
9.547797e-01 -9.669921e-02 0.0
9.159086e-01 -1.091649e-01 0.0
8.496012e-01 -1.268427e-01 0.0
7.265447e-01 -1.447841e-01 0.0
4.704209e-01 -1.387245e-01 0.0
-9.936434e-03 -4.982733e-02 0.0
1.130484e-04 0.000000e+00 0.0
0.000000e+00 -0.000000e+00 0.0
0.000000e+00 -1.083929e-01 0.0
-1.913875e-01 1.109187e-01 0.0
-1.583611e-01 -1.399766e-01 0.0
-9.895768e-02 -1.397670e-01 0.0
-6.235831e-02 -5.427848e-02 0.0
-3.999681e-02 1.931954e-02 0.0
-3.197745e-02 8.742217e-02 0.0
-3.726906e-02 1.507186e-01 0.0
-5.356794e-02 2.080738e-01 0.0
-7.712508e-02 2.577906e-01 0.0
-1.029749e-01 2.991686e-01 0.0
-1.250076e-01 3.326554e-01 0.0