# vtk DataFile Version 3.0
Vector Field
ASCII
DATASET RECTILINEAR_GRID
DIMENSIONS 102 22 1
X_COORDINATES 102 double
0.000000 0.100000 0.200000 0.300000 0.400000 0.500000 0.600000 0.700000 0.800000 0.900000 1.000000 1.100000 1.200000 1.300000 1.400000 1.500000 1.600000 1.700000 1.800000 1.900000 2.000000 2.100000 2.200000 2.300000 2.400000 2.500000 2.600000 2.700000 2.800000 2.900000 3.000000 3.100000 3.200000 3.300000 3.400000 3.500000 3.600000 3.700000 3.800000 3.900000 4.000000 4.100000 4.200000 4.300000 4.400000 4.500000 4.600000 4.700000 4.800000 4.900000 5.000000 5.100000 5.200000 5.300000 5.400000 5.500000 5.600000 5.700000 5.800000 5.900000 6.000000 6.100000 6.200000 6.300000 6.400000 6.500000 6.600000 6.700000 6.800000 6.900000 7.000000 7.100000 7.200000 7.300000 7.400000 7.500000 7.600000 7.700000 7.800000 7.900000 8.000000 8.100000 8.200000 8.300000 8.400000 8.500000 8.600000 8.700000 8.800000 8.900000 9.000000 9.100000 9.200000 9.300000 9.400000 9.500000 9.600000 9.700000 9.800000 9.900000 10.000000 10.100000 
Y_COORDINATES 22 double
0.000000 0.100000 0.200000 0.300000 0.400000 0.500000 0.600000 0.700000 0.800000 0.900000 1.000000 1.100000 1.200000 1.300000 1.400000 1.500000 1.600000 1.700000 1.800000 1.900000 2.000000 2.100000 
Z_COORDINATES 1 double
0.0
POINT_DATA 2244
VECTORS Velocity double
0.000000e+00 0.000000e+00 0.0
-1.023590e+00 0.000000e+00 0.0
-1.050162e+00 0.000000e+00 0.0
-1.082408e+00 0.000000e+00 0.0
-1.122979e+00 0.000000e+00 0.0
-1.173980e+00 0.000000e+00 0.0
-1.235163e+00 0.000000e+00 0.0
-1.306234e+00 0.000000e+00 0.0
-1.372372e+00 0.000000e+00 0.0
-1.424505e+00 0.000000e+00 0.0
-1.461985e+00 0.000000e+00 0.0
-1.488150e+00 0.000000e+00 0.0
-1.507215e+00 0.000000e+00 0.0
-1.523032e+00 0.000000e+00 0.0
-1.538845e+00 0.000000e+00 0.0
-1.557121e+00 0.000000e+00 0.0
-1.578982e+00 0.000000e+00 0.0
-1.603332e+00 0.000000e+00 0.0
-1.626810e+00 0.000000e+00 0.0
-1.645224e+00 0.000000e+00 0.0
-1.655568e+00 0.000000e+00 0.0
-1.657199e+00 0.000000e+00 0.0
-1.651067e+00 0.000000e+00 0.0
-1.638374e+00 0.000000e+00 0.0
-1.620085e+00 0.000000e+00 0.0
-1.596711e+00 0.000000e+00 0.0
-1.568292e+00 0.000000e+00 0.0
-1.534521e+00 0.000000e+00 0.0
-1.494947e+00 0.000000e+00 0.0
-1.449191e+00 0.000000e+00 0.0
-1.397101e+00 0.000000e+00 0.0
-1.338822e+00 0.000000e+00 0.0
-1.274762e+00 0.000000e+00 0.0
-1.205548e+00 0.000000e+00 0.0
-1.132234e+00 0.000000e+00 0.0
-1.056946e+00 0.000000e+00 0.0
-9.833554e-01 0.000000e+00 0.0
-9.169551e-01 0.000000e+00 0.0
-8.646699e-01 0.000000e+00 0.0
-8.332940e-01 0.000000e+00 0.0
-8.272208e-01 0.000000e+00 0.0
-8.470858e-01 0.000000e+00 0.0
-8.913649e-01 0.000000e+00 0.0
-9.577698e-01 0.000000e+00 0.0
-1.043574e+00 0.000000e+00 0.0
-1.145050e+00 0.000000e+00 0.0
-1.256096e+00 0.000000e+00 0.0
-1.368142e+00 0.000000e+00 0.0
-1.472116e+00 0.000000e+00 0.0
-1.559161e+00 0.000000e+00 0.0
-1.621989e+00 0.000000e+00 0.0
-1.656773e+00 0.000000e+00 0.0
-1.664682e+00 0.000000e+00 0.0
-1.650693e+00 0.000000e+00 0.0
-1.618448e+00 0.000000e+00 0.0
-1.570610e+00 0.000000e+00 0.0
-1.509880e+00 0.000000e+00 0.0
-1.439636e+00 0.000000e+00 0.0
-1.364163e+00 0.000000e+00 0.0
-1.288169e+00 0.000000e+00 0.0
-1.215855e+00 0.000000e+00 0.0
-1.150354e+00 0.000000e+00 0.0
-1.093468e+00 0.000000e+00 0.0
-1.045788e+00 0.000000e+00 0.0
-1.007031e+00 0.000000e+00 0.0
-9.763459e-01 0.000000e+00 0.0
-9.525909e-01 0.000000e+00 0.0
-9.345528e-01 0.000000e+00 0.0
-9.210848e-01 0.000000e+00 0.0
-9.111791e-01 0.000000e+00 0.0
-9.039911e-01 0.000000e+00 0.0
-8.988381e-01 0.000000e+00 0.0
-8.951817e-01 0.000000e+00 0.0
-8.926072e-01 0.000000e+00 0.0
-8.908008e-01 0.000000e+00 0.0
-8.895300e-01 0.000000e+00 0.0
-8.886260e-01 0.000000e+00 0.0
-8.879687e-01 0.000000e+00 0.0
-8.874752e-01 0.000000e+00 0.0
-8.870901e-01 0.000000e+00 0.0
-8.867780e-01 0.000000e+00 0.0
-8.865185e-01 0.000000e+00 0.0
-8.863021e-01 0.000000e+00 0.0
-8.861240e-01 0.000000e+00 0.0
-8.859809e-01 0.000000e+00 0.0
-8.858700e-01 0.000000e+00 0.0
-8.857885e-01 0.000000e+00 0.0
-8.857326e-01 0.000000e+00 0.0
-8.856980e-01 0.000000e+00 0.0
-8.856789e-01 0.000000e+00 0.0
-8.856693e-01 0.000000e+00 0.0
-8.856625e-01 0.000000e+00 0.0
-8.856523e-01 0.000000e+00 0.0
-8.856329e-01 0.000000e+00 0.0
-8.856005e-01 0.000000e+00 0.0
-8.855548e-01 0.000000e+00 0.0
-8.855030e-01 0.000000e+00 0.0
-8.854661e-01 0.000000e+00 0.0
-8.854905e-01 0.000000e+00 0.0
-8.856957e-01 0.000000e+00 0.0
-8.856957e-01 0.000000e+00 0.0
0.000000e+00 0.000000e+00 0.0
1.000000e+00 -2.392885e-02 0.0
1.023732e+00 -2.405714e-02 0.0
1.050442e+00 -2.689779e-02 0.0
1.082828e+00 -3.257298e-02 0.0
1.123534e+00 -4.089255e-02 0.0
1.174646e+00 -5.129928e-02 0.0
1.235892e+00 -6.143344e-02 0.0
1.306923e+00 -7.121749e-02 0.0
1.372827e+00 -6.609148e-02 0.0
1.424483e+00 -5.184361e-02 0.0
1.461228e+00 -3.693173e-02 0.0
1.486403e+00 -2.536208e-02 0.0
1.504231e+00 -1.801482e-02 0.0
1.518582e+00 -1.453879e-02 0.0
1.532761e+00 -1.436564e-02 0.0
1.549411e+00 -1.683809e-02 0.0
1.570028e+00 -2.080396e-02 0.0
1.593991e+00 -2.415038e-02 0.0
1.618211e+00 -2.440653e-02 0.0
1.638344e+00 -2.032108e-02 0.0
1.650881e+00 -1.272418e-02 0.0
1.654634e+00 -3.940015e-03 0.0
1.650383e+00 4.064244e-03 0.0
1.639345e+00 1.084989e-02 0.0
1.622556e+00 1.660241e-02 0.0
1.600597e+00 2.177144e-02 0.0
1.573566e+00 2.684379e-02 0.0
1.541182e+00 3.219579e-02 0.0
1.502989e+00 3.800610e-02 0.0
1.458573e+00 4.422843e-02 0.0
1.407734e+00 5.065190e-02 0.0
1.350567e+00 5.697956e-02 0.0
1.287451e+00 6.292848e-02 0.0
1.218983e+00 6.828031e-02 0.0
1.146118e+00 7.267707e-02 0.0
1.070751e+00 7.518003e-02 0.0
9.962483e-01 7.431496e-02 0.0
9.277348e-01 6.832591e-02 0.0
8.718861e-01 5.566109e-02 0.0
8.355926e-01 3.610598e-02 0.0
8.237951e-01 1.160982e-02 0.0
8.377404e-01 -1.413297e-02 0.0
8.761890e-01 -3.863624e-02 0.0
9.369475e-01 -6.094622e-02 0.0
1.017552e+00 -8.079172e-02 0.0
1.114686e+00 -9.732230e-02 0.0
1.223163e+00 -1.086641e-01 0.0
1.335045e+00 -1.120706e-01 0.0
1.441492e+00 -1.066346e-01 0.0
1.533681e+00 -9.237660e-02 0.0
1.603858e+00 -7.036452e-02 0.0
1.647071e+00 -4.340150e-02 0.0
1.662899e+00 -1.601575e-02 0.0
1.655501e+00 7.209864e-03 0.0
1.629062e+00 2.625118e-02 0.0
1.586250e+00 4.262420e-02 0.0
1.529548e+00 5.651470e-02 0.0
1.461989e+00 6.737105e-02 0.0
1.387569e+00 7.423192e-02 0.0
1.311031e+00 7.635016e-02 0.0
1.236910e+00 7.393236e-02 0.0
1.168795e+00 6.792727e-02 0.0
1.108951e+00 5.965552e-02 0.0
1.058326e+00 5.043730e-02 0.0
1.016862e+00 4.127563e-02 0.0
9.838322e-01 3.284207e-02 0.0
9.581345e-01 2.550954e-02 0.0
9.385413e-01 1.940507e-02 0.0
9.238621e-01 1.449112e-02 0.0
9.130339e-01 1.064004e-02 0.0
9.051576e-01 7.688080e-03 0.0
8.995009e-01 5.468600e-03 0.0
8.954833e-01 3.829375e-03 0.0
8.926555e-01 2.639603e-03 0.0
8.906761e-01 1.791159e-03 0.0
8.892909e-01 1.197029e-03 0.0
8.883140e-01 7.886572e-04 0.0
8.876127e-01 5.130350e-04 0.0
8.870945e-01 3.299239e-04 0.0
8.866969e-01 2.093315e-04 0.0
8.863794e-01 1.291988e-04 0.0
8.861179e-01 7.318828e-05 0.0
8.859003e-01 2.935927e-05 0.0
8.857208e-01 -8.846768e-06 0.0
8.855754e-01 -4.295301e-05 0.0
8.854612e-01 -7.405456e-05 0.0
8.853751e-01 -1.022944e-04 0.0
8.853139e-01 -1.271011e-04 0.0
8.852731e-01 -1.475476e-04 0.0
8.852474e-01 -1.626727e-04 0.0
8.852308e-01 -1.717261e-04 0.0
8.852169e-01 -1.744544e-04 0.0
8.851994e-01 -1.708925e-04 0.0
8.851727e-01 -1.616573e-04 0.0
8.851330e-01 -1.486402e-04 0.0
8.850803e-01 -1.356469e-04 0.0
8.850221e-01 -1.302274e-04 0.0
8.849800e-01 -1.463065e-04 0.0
8.850014e-01 -2.097493e-04 0.0
8.852068e-01 -3.937177e-04 0.0
8.856957e-01 -6.773188e-04 0.0
0.000000e+00 -6.826358e-04 0.0
1.000000e+00 -4.803213e-02 0.0
1.024052e+00 -4.829634e-02 0.0
1.051117e+00 -5.401190e-02 0.0
1.084038e+00 -6.554285e-02 0.0
1.125802e+00 -8.270493e-02 0.0
1.179195e+00 -1.047408e-01 0.0
1.244218e+00 -1.265058e-01 0.0
1.324939e+00 -1.519873e-01 0.0
1.396442e+00 -1.376434e-01 0.0
1.449203e+00 -1.046527e-01 0.0
1.485194e+00 -7.297204e-02 0.0
1.509344e+00 -4.956047e-02 0.0
1.526355e+00 -3.507465e-02 0.0
1.539995e+00 -2.822798e-02 0.0
1.553279e+00 -2.769833e-02 0.0
1.568841e+00 -3.244913e-02 0.0
1.588640e+00 -4.065167e-02 0.0
1.612734e+00 -4.829377e-02 0.0
1.638289e+00 -5.001033e-02 0.0
1.660771e+00 -4.285136e-02 0.0
1.676096e+00 -2.809842e-02 0.0
1.682463e+00 -1.035590e-02 0.0
1.680652e+00 5.826334e-03 0.0
1.672147e+00 1.930637e-02 0.0
1.658133e+00 3.056729e-02 0.0
1.639246e+00 4.060988e-02 0.0
1.615567e+00 5.047358e-02 0.0
1.586777e+00 6.093667e-02 0.0
1.552368e+00 7.236653e-02 0.0
1.511907e+00 8.464012e-02 0.0
1.465211e+00 9.729906e-02 0.0
1.412419e+00 1.097232e-01 0.0
1.354012e+00 1.212864e-01 0.0
1.290788e+00 1.314553e-01 0.0
1.223843e+00 1.395727e-01 0.0
1.154620e+00 1.443544e-01 0.0
1.085482e+00 1.434039e-01 0.0
1.020262e+00 1.334972e-01 0.0
9.640860e-01 1.117882e-01 0.0
9.224869e-01 7.765620e-02 0.0
8.996829e-01 3.436481e-02 0.0
8.967153e-01 -1.121429e-02 0.0
9.113458e-01 -5.331576e-02 0.0
9.413327e-01 -9.098205e-02 0.0
9.863728e-01 -1.258808e-01 0.0
1.046649e+00 -1.576474e-01 0.0
1.120663e+00 -1.827271e-01 0.0
1.204104e+00 -1.955607e-01 0.0
1.289919e+00 -1.924986e-01 0.0
1.370654e+00 -1.731601e-01 0.0
1.439172e+00 -1.389318e-01 0.0
1.489885e+00 -9.416407e-02 0.0
1.519699e+00 -4.587843e-02 0.0
1.528671e+00 -1.811287e-03 0.0
1.520892e+00 3.398107e-02 0.0
1.500076e+00 6.339172e-02 0.0
1.469393e+00 8.714819e-02 0.0
1.431666e+00 1.050490e-01 0.0
1.389221e+00 1.166283e-01 0.0
1.343996e+00 1.215261e-01 0.0
1.298281e+00 1.195979e-01 0.0
1.254378e+00 1.117819e-01 0.0
1.213986e+00 9.999753e-02 0.0
1.178013e+00 8.636203e-02 0.0
1.146846e+00 7.239287e-02 0.0
1.120505e+00 5.913439e-02 0.0
1.098694e+00 4.727179e-02 0.0
1.080925e+00 3.712482e-02 0.0
1.066624e+00 2.874271e-02 0.0
1.055208e+00 2.200732e-02 0.0
1.046131e+00 1.671608e-02 0.0
1.038912e+00 1.263825e-02 0.0
1.033144e+00 9.548241e-03 0.0
1.028492e+00 7.242240e-03 0.0
1.024690e+00 5.544759e-03 0.0
1.021528e+00 4.309494e-03 0.0
1.018850e+00 3.417533e-03 0.0
1.016539e+00 2.774415e-03 0.0
1.014513e+00 2.306815e-03 0.0
1.012715e+00 1.959159e-03 0.0
1.011104e+00 1.690299e-03 0.0
1.009658e+00 1.470459e-03 0.0
1.008359e+00 1.279393e-03 0.0
1.007195e+00 1.105509e-03 0.0
1.006160e+00 9.434259e-04 0.0
1.005246e+00 7.909581e-04 0.0
1.004446e+00 6.479454e-04 0.0
1.003755e+00 5.153770e-04 0.0
1.003163e+00 3.948950e-04 0.0
1.002663e+00 2.883256e-04 0.0
1.002245e+00 1.972753e-04 0.0
1.001898e+00 1.231264e-04 0.0
1.001612e+00 6.627287e-05 0.0
1.001375e+00 2.559161e-05 0.0
1.001179e+00 -1.886177e-06 0.0
1.001017e+00 -2.215745e-05 0.0
1.000883e+00 -4.580181e-05 0.0
1.000779e+00 -9.161390e-05 0.0
1.000713e+00 -1.925049e-04 0.0
1.000669e+00 -3.989165e-04 0.0
1.000759e+00 -8.159542e-04 0.0
0.000000e+00 -8.245701e-04 0.0
1.000000e+00 -6.904691e-02 0.0
1.020959e+00 -6.944290e-02 0.0
1.045035e+00 -7.813587e-02 0.0
1.075363e+00 -9.592008e-02 0.0
1.115713e+00 -1.231035e-01 0.0
1.170493e+00 -1.595693e-01 0.0
1.241010e+00 -1.970721e-01 0.0
1.341873e+00 -2.528996e-01 0.0
1.420314e+00 -2.161325e-01 0.0
1.469897e+00 -1.542847e-01 0.0
1.499733e+00 -1.028566e-01 0.0
1.517754e+00 -6.763109e-02 0.0
1.529248e+00 -4.661701e-02 0.0
1.537547e+00 -3.657581e-02 0.0
1.545003e+00 -3.520322e-02 0.0
1.553940e+00 -4.143478e-02 0.0
1.567086e+00 -5.384627e-02 0.0
1.586390e+00 -6.764726e-02 0.0
1.610310e+00 -7.397898e-02 0.0
1.633994e+00 -6.658430e-02 0.0
1.652200e+00 -4.635326e-02 0.0
1.661524e+00 -1.972907e-02 0.0
1.662045e+00 5.257115e-03 0.0
1.655837e+00 2.546476e-02 0.0
1.644430e+00 4.192539e-02 0.0
1.628609e+00 5.638227e-02 0.0
1.608431e+00 7.060288e-02 0.0
1.583499e+00 8.581954e-02 0.0
1.553214e+00 1.026026e-01 0.0
1.517020e+00 1.207851e-01 0.0
1.474617e+00 1.396536e-01 0.0
1.426105e+00 1.581866e-01 0.0
1.372002e+00 1.753404e-01 0.0
1.313170e+00 1.902380e-01 0.0
1.250722e+00 2.019722e-01 0.0
1.186114e+00 2.089137e-01 0.0
1.121552e+00 2.079168e-01 0.0
1.060343e+00 1.946567e-01 0.0
1.006338e+00 1.657439e-01 0.0
9.626921e-01 1.212536e-01 0.0
9.308616e-01 6.614637e-02 0.0
9.110106e-01 8.587784e-03 0.0
9.023019e-01 -4.465603e-02 0.0
9.055402e-01 -9.426931e-02 0.0
9.221362e-01 -1.425258e-01 0.0
9.527598e-01 -1.883200e-01 0.0
9.969147e-01 -2.269309e-01 0.0
1.052748e+00 -2.514429e-01 0.0
1.115521e+00 -2.553205e-01 0.0
1.179422e+00 -2.371107e-01 0.0
1.238747e+00 -1.983053e-01 0.0
1.288507e+00 -1.439737e-01 0.0
1.325000e+00 -8.242002e-02 0.0
1.346297e+00 -2.315778e-02 0.0
1.354106e+00 2.612303e-02 0.0
1.351901e+00 6.554827e-02 0.0
1.342372e+00 9.662816e-02 0.0
1.327588e+00 1.197843e-01 0.0
1.309090e+00 1.350770e-01 0.0
1.287986e+00 1.425807e-01 0.0
1.265041e+00 1.424936e-01 0.0
1.241187e+00 1.355877e-01 0.0
1.217393e+00 1.237420e-01 0.0
1.194593e+00 1.091130e-01 0.0
1.173399e+00 9.353783e-02 0.0
1.154078e+00 7.840617e-02 0.0
1.136679e+00 6.462196e-02 0.0
1.121113e+00 5.264150e-02 0.0
1.107222e+00 4.258500e-02 0.0
1.094821e+00 3.435915e-02 0.0
1.083730e+00 2.775795e-02 0.0
1.073786e+00 2.253255e-02 0.0
1.064852e+00 1.843336e-02 0.0
1.056813e+00 1.523207e-02 0.0
1.049578e+00 1.273105e-02 0.0
1.043073e+00 1.076550e-02 0.0
1.037239e+00 9.202097e-03 0.0
1.032028e+00 7.936014e-03 0.0
1.027399e+00 6.887176e-03 0.0
1.023313e+00 5.996200e-03 0.0
1.019733e+00 5.220444e-03 0.0
1.016624e+00 4.530492e-03 0.0
1.013947e+00 3.907322e-03 0.0
1.011664e+00 3.339807e-03 0.0
1.009736e+00 2.822053e-03 0.0
1.008127e+00 2.351247e-03 0.0
1.006799e+00 1.926007e-03 0.0
1.005720e+00 1.545306e-03 0.0
1.004857e+00 1.208715e-03 0.0
1.004180e+00 9.161407e-04 0.0
1.003662e+00 6.669941e-04 0.0
1.003275e+00 4.602670e-04 0.0
1.002998e+00 2.944064e-04 0.0
1.002808e+00 1.664980e-04 0.0
1.002685e+00 7.157299e-05 0.0
1.002612e+00 1.660331e-06 0.0
1.002574e+00 -5.662763e-05 0.0
1.002559e+00 -1.258230e-04 0.0
1.002561e+00 -2.436013e-04 0.0
1.002567e+00 -4.538475e-04 0.0
1.002674e+00 -9.720319e-04 0.0
0.000000e+00 -9.843363e-04 0.0
1.000000e+00 -8.532306e-02 0.0
1.016214e+00 -8.584421e-02 0.0
1.035485e+00 -9.745525e-02 0.0
1.061213e+00 -1.216974e-01 0.0
1.098316e+00 -1.602548e-01 0.0
1.153931e+00 -2.152338e-01 0.0
1.233602e+00 -2.767917e-01 0.0
1.368989e+00 -3.883351e-01 0.0
1.447964e+00 -2.951567e-01 0.0
1.484015e+00 -1.903841e-01 0.0
1.500118e+00 -1.190083e-01 0.0
1.506933e+00 -7.449510e-02 0.0
1.508636e+00 -4.836906e-02 0.0
1.507310e+00 -3.529908e-02 0.0
1.504064e+00 -3.200550e-02 0.0
1.500041e+00 -3.746067e-02 0.0
1.498236e+00 -5.209057e-02 0.0
1.503794e+00 -7.325339e-02 0.0
1.519366e+00 -8.959994e-02 0.0
1.541021e+00 -8.828793e-02 0.0
1.562725e+00 -6.810682e-02 0.0
1.578742e+00 -3.579432e-02 0.0
1.585609e+00 -1.659273e-03 0.0
1.585316e+00 2.570863e-02 0.0
1.580117e+00 4.707609e-02 0.0
1.571120e+00 6.533040e-02 0.0
1.558245e+00 8.342881e-02 0.0
1.540900e+00 1.031160e-01 0.0
1.518206e+00 1.252474e-01 0.0
1.489371e+00 1.495707e-01 0.0
1.453922e+00 1.750543e-01 0.0
1.411855e+00 2.002046e-01 0.0
1.363685e+00 2.234610e-01 0.0
1.310373e+00 2.435015e-01 0.0
1.253154e+00 2.591418e-01 0.0
1.193450e+00 2.685690e-01 0.0
1.133349e+00 2.679687e-01 0.0
1.075952e+00 2.520051e-01 0.0
1.024137e+00 2.175097e-01 0.0
9.787039e-01 1.666382e-01 0.0
9.383872e-01 1.064141e-01 0.0
9.033427e-01 4.358330e-02 0.0
8.776145e-01 -1.897683e-02 0.0
8.641337e-01 -8.083743e-02 0.0
8.640669e-01 -1.425080e-01 0.0
8.768848e-01 -2.011869e-01 0.0
9.010142e-01 -2.511093e-01 0.0
9.346124e-01 -2.850901e-01 0.0
9.753919e-01 -2.961490e-01 0.0
1.019750e+00 -2.815173e-01 0.0
1.064215e+00 -2.428197e-01 0.0
1.105534e+00 -1.853417e-01 0.0
1.140781e+00 -1.177157e-01 0.0
1.167653e+00 -5.007893e-02 0.0
1.185081e+00 8.645853e-03 0.0
1.195425e+00 5.515490e-02 0.0
1.200496e+00 9.150849e-02 0.0
1.201617e+00 1.186136e-01 0.0
1.199749e+00 1.368964e-01 0.0
1.195526e+00 1.467548e-01 0.0
1.189131e+00 1.488393e-01 0.0
1.180765e+00 1.439047e-01 0.0
1.170836e+00 1.336214e-01 0.0
1.159846e+00 1.200545e-01 0.0
1.148220e+00 1.051143e-01 0.0
1.136286e+00 9.029134e-02 0.0
1.124291e+00 7.656838e-02 0.0
1.112421e+00 6.446191e-02 0.0
1.100821e+00 5.413571e-02 0.0
1.089605e+00 4.552646e-02 0.0
1.078865e+00 3.844836e-02 0.0
1.068682e+00 3.266662e-02 0.0
1.059124e+00 2.794283e-02 0.0
1.050247e+00 2.405947e-02 0.0
1.042098e+00 2.083098e-02 0.0
1.034708e+00 1.810634e-02 0.0
1.028094e+00 1.576729e-02 0.0
1.022256e+00 1.372475e-02 0.0
1.017180e+00 1.191425e-02 0.0
1.012836e+00 1.029075e-02 0.0
1.009183e+00 8.824036e-03 0.0
1.006170e+00 7.495201e-03 0.0
1.003735e+00 6.292909e-03 0.0
1.001816e+00 5.209818e-03 0.0
1.000348e+00 4.240218e-03 0.0
9.992706e-01 3.379989e-03 0.0
9.985224e-01 2.625113e-03 0.0
9.980494e-01 1.969125e-03 0.0
9.978031e-01 1.405901e-03 0.0
9.977393e-01 9.307894e-04 0.0
9.978195e-01 5.377268e-04 0.0
9.980110e-01 2.195592e-04 0.0
9.982861e-01 -2.983286e-05 0.0
9.986194e-01 -2.159014e-04 0.0
9.989865e-01 -3.446352e-04 0.0
9.993639e-01 -4.249692e-04 0.0
9.997296e-01 -4.713956e-04 0.0
1.000062e+00 -5.077483e-04 0.0
1.000344e+00 -5.741420e-04 0.0
1.000560e+00 -7.188260e-04 0.0
1.000769e+00 -1.230289e-03 0.0
0.000000e+00 -1.243046e-03 0.0
1.000000e+00 -9.517656e-02 0.0
1.009781e+00 -9.581247e-02 0.0
1.022100e+00 -1.098227e-01 0.0
1.040204e+00 -1.398501e-01 0.0
1.070025e+00 -1.901253e-01 0.0
1.122216e+00 -2.674736e-01 0.0
1.211783e+00 -3.664071e-01 0.0
1.391240e+00 -5.678409e-01 0.0
1.446126e+00 -3.500912e-01 0.0
1.451866e+00 -1.961736e-01 0.0
1.444971e+00 -1.121617e-01 0.0
1.434735e+00 -6.430785e-02 0.0
1.422279e+00 -3.596186e-02 0.0
1.407329e+00 -2.039786e-02 0.0
1.389158e+00 -1.388368e-02 0.0
1.366310e+00 -1.466197e-02 0.0
1.339259e+00 -2.508831e-02 0.0
1.315624e+00 -4.966708e-02 0.0
1.306707e+00 -8.073206e-02 0.0
1.314880e+00 -9.650893e-02 0.0
1.334781e+00 -8.805741e-02 0.0
1.360227e+00 -6.128906e-02 0.0
1.383685e+00 -2.516633e-02 0.0
1.398943e+00 1.040227e-02 0.0
1.409163e+00 3.680673e-02 0.0
1.416422e+00 5.802257e-02 0.0
1.420140e+00 7.966206e-02 0.0
1.419450e+00 1.037571e-01 0.0
1.412959e+00 1.316894e-01 0.0
1.399458e+00 1.630230e-01 0.0
1.378157e+00 1.963069e-01 0.0
1.348860e+00 2.294523e-01 0.0
1.312041e+00 2.602315e-01 0.0
1.268759e+00 2.867345e-01 0.0
1.220463e+00 3.073888e-01 0.0
1.168776e+00 3.202065e-01 0.0
1.115584e+00 3.211122e-01 0.0
1.063258e+00 3.042822e-01 0.0
1.013142e+00 2.675764e-01 0.0
9.644838e-01 2.152474e-01 0.0
9.165522e-01 1.542967e-01 0.0
8.721183e-01 8.796824e-02 0.0
8.374550e-01 1.563753e-02 0.0
8.171022e-01 -6.053363e-02 0.0
8.101491e-01 -1.356039e-01 0.0
8.135798e-01 -2.046666e-01 0.0
8.249538e-01 -2.625322e-01 0.0
8.428149e-01 -3.030002e-01 0.0
8.662561e-01 -3.196392e-01 0.0
8.936050e-01 -3.089152e-01 0.0
9.232514e-01 -2.725150e-01 0.0
9.537403e-01 -2.158796e-01 0.0
9.834536e-01 -1.474781e-01 0.0
1.010460e+00 -7.713384e-02 0.0
1.032680e+00 -1.362361e-02 0.0
1.050183e+00 3.760310e-02 0.0
1.064003e+00 7.763900e-02 0.0
1.074902e+00 1.076659e-01 0.0
1.083434e+00 1.283151e-01 0.0
1.089930e+00 1.402102e-01 0.0
1.094438e+00 1.442824e-01 0.0
1.096709e+00 1.415842e-01 0.0
1.096723e+00 1.335579e-01 0.0
1.094608e+00 1.221209e-01 0.0
1.090586e+00 1.090877e-01 0.0
1.084942e+00 9.588577e-02 0.0
1.077999e+00 8.346258e-02 0.0
1.070086e+00 7.232521e-02 0.0
1.061527e+00 6.264645e-02 0.0
1.052621e+00 5.438262e-02 0.0
1.043647e+00 4.737329e-02 0.0
1.034852e+00 4.141294e-02 0.0
1.026450e+00 3.629590e-02 0.0
1.018619e+00 3.184130e-02 0.0
1.011497e+00 2.790409e-02 0.0
1.005178e+00 2.437574e-02 0.0
9.997173e-01 2.117904e-02 0.0
9.951307e-01 1.826217e-02 0.0
9.914027e-01 1.559321e-02 0.0
9.884912e-01 1.315308e-02 0.0
9.863357e-01 1.093040e-02 0.0
9.848615e-01 8.920281e-03 0.0
9.839839e-01 7.121370e-03 0.0
9.836142e-01 5.530408e-03 0.0
9.836672e-01 4.138078e-03 0.0
9.840622e-01 2.935861e-03 0.0
9.847211e-01 1.917151e-03 0.0
9.855770e-01 1.064007e-03 0.0
9.865777e-01 3.561483e-04 0.0
9.876840e-01 -2.246661e-04 0.0
9.888639e-01 -6.913707e-04 0.0
9.900868e-01 -1.052393e-03 0.0
9.913226e-01 -1.314867e-03 0.0
9.925432e-01 -1.485611e-03 0.0
9.937215e-01 -1.572054e-03 0.0
9.948311e-01 -1.583742e-03 0.0
9.958454e-01 -1.534810e-03 0.0
9.967358e-01 -1.447271e-03 0.0
9.974712e-01 -1.358692e-03 0.0
9.980222e-01 -1.318981e-03 0.0
9.983784e-01 -1.635609e-03 0.0
0.000000e+00 -1.643089e-03 0.0
1.000000e+00 -9.715740e-02 0.0
1.001893e+00 -9.789250e-02 0.0
1.004996e+00 -1.129747e-01 0.0
1.011300e+00 -1.462030e-01 0.0
1.026112e+00 -2.049857e-01 0.0
1.061877e+00 -3.032880e-01 0.0
1.146714e+00 -4.512928e-01 0.0
1.361800e+00 -7.829753e-01 0.0
1.346908e+00 -3.352479e-01 0.0
1.297146e+00 -1.464611e-01 0.0
1.258232e+00 -7.329643e-02 0.0
1.228747e+00 -3.487122e-02 0.0
1.202499e+00 -9.763091e-03 0.0
1.173802e+00 8.250205e-03 0.0
1.140097e+00 1.977264e-02 0.0
1.099471e+00 2.591483e-02 0.0
1.045747e+00 2.858690e-02 0.0
9.789109e-01 1.712044e-02 0.0
9.183417e-01 -2.021173e-02 0.0
8.895081e-01 -6.772415e-02 0.0
8.926162e-01 -9.121436e-02 0.0
9.198982e-01 -8.861999e-02 0.0
9.650942e-01 -7.041116e-02 0.0
1.019702e+00 -4.425438e-02 0.0
1.071778e+00 -1.531834e-02 0.0
1.115901e+00 1.385109e-02 0.0
1.153001e+00 4.251244e-02 0.0
1.183981e+00 7.272822e-02 0.0
1.206954e+00 1.086676e-01 0.0
1.220450e+00 1.494787e-01 0.0
1.223469e+00 1.932390e-01 0.0
1.215711e+00 2.371608e-01 0.0
1.197713e+00 2.781810e-01 0.0
1.170754e+00 3.136451e-01 0.0
1.136683e+00 3.414108e-01 0.0
1.097667e+00 3.591736e-01 0.0
1.055299e+00 3.634308e-01 0.0
1.009823e+00 3.497094e-01 0.0
9.596355e-01 3.177149e-01 0.0
9.039062e-01 2.709278e-01 0.0
8.484173e-01 2.097366e-01 0.0
8.042573e-01 1.320793e-01 0.0
7.778653e-01 4.198058e-02 0.0
7.671184e-01 -4.983569e-02 0.0
7.651395e-01 -1.336740e-01 0.0
7.668785e-01 -2.064546e-01 0.0
7.707442e-01 -2.664469e-01 0.0
7.771634e-01 -3.094684e-01 0.0
7.869768e-01 -3.295015e-01 0.0
8.002933e-01 -3.222807e-01 0.0
8.168631e-01 -2.891338e-01 0.0
8.364868e-01 -2.355523e-01 0.0
8.586043e-01 -1.696446e-01 0.0
8.819051e-01 -1.004837e-01 0.0
9.043663e-01 -3.613379e-02 0.0
9.242200e-01 1.770039e-02 0.0
9.417744e-01 6.003553e-02 0.0
9.573464e-01 9.204493e-02 0.0
9.712032e-01 1.144092e-01 0.0
9.834478e-01 1.279165e-01 0.0
9.939740e-01 1.337072e-01 0.0
1.002345e+00 1.331639e-01 0.0
1.008231e+00 1.276228e-01 0.0
1.011515e+00 1.187880e-01 0.0
1.012279e+00 1.082746e-01 0.0
1.010771e+00 9.734432e-02 0.0
1.007356e+00 8.682858e-02 0.0
1.002463e+00 7.716938e-02 0.0
9.965439e-01 6.851661e-02 0.0
9.900411e-01 6.083627e-02 0.0
9.833629e-01 5.400243e-02 0.0
9.768639e-01 4.786288e-02 0.0
9.708337e-01 4.227701e-02 0.0
9.654922e-01 3.713368e-02 0.0
9.609881e-01 3.235902e-02 0.0
9.574024e-01 2.791234e-02 0.0
9.547586e-01 2.377373e-02 0.0
9.530365e-01 1.993518e-02 0.0
9.521810e-01 1.639964e-02 0.0
9.521125e-01 1.317248e-02 0.0
9.527403e-01 1.025343e-02 0.0
9.539672e-01 7.644299e-03 0.0
9.556870e-01 5.352382e-03 0.0
9.577869e-01 3.381391e-03 0.0
9.601688e-01 1.707108e-03 0.0
9.627563e-01 2.991583e-04 0.0
9.655001e-01 -8.757103e-04 0.0
9.683530e-01 -1.838107e-03 0.0
9.712649e-01 -2.604799e-03 0.0
9.741835e-01 -3.192453e-03 0.0
9.770600e-01 -3.616991e-03 0.0
9.798517e-01 -3.893213e-03 0.0
9.825223e-01 -4.034628e-03 0.0
9.850414e-01 -4.053852e-03 0.0
9.873832e-01 -3.962996e-03 0.0
9.895236e-01 -3.773332e-03 0.0
9.914371e-01 -3.497401e-03 0.0
9.930932e-01 -3.152553e-03 0.0
9.944519e-01 -2.766526e-03 0.0
9.954657e-01 -2.381857e-03 0.0
9.960004e-01 -2.219490e-03 0.0
0.000000e+00 -2.213319e-03 0.0
1.000000e+00 -9.054155e-02 0.0
9.932746e-01 -9.135424e-02 0.0
9.855012e-01 -1.052500e-01 0.0
9.756574e-01 -1.364080e-01 0.0
9.642963e-01 -1.936734e-01 0.0
9.567350e-01 -2.957754e-01 0.0
9.799038e-01 -4.745104e-01 0.0
1.137553e+00 -9.406729e-01 0.0
9.907416e-01 -1.883474e-01 0.0
8.601971e-01 -1.582709e-02 0.0
7.947577e-01 -7.905888e-03 0.0
7.517563e-01 8.081299e-03 0.0
7.110299e-01 3.091447e-02 0.0
6.617456e-01 5.748568e-02 0.0
5.970015e-01 8.446791e-02 0.0
5.167979e-01 1.060696e-01 0.0
4.357598e-01 1.095761e-01 0.0
3.717048e-01 8.112665e-02 0.0
3.226161e-01 2.882811e-02 0.0
2.899127e-01 -3.506962e-02 0.0
2.880117e-01 -8.936225e-02 0.0
3.197645e-01 -1.204217e-01 0.0
3.827880e-01 -1.334835e-01 0.0
4.732218e-01 -1.347371e-01 0.0
5.830685e-01 -1.252139e-01 0.0
6.974382e-01 -1.005675e-01 0.0
7.999251e-01 -6.002331e-02 0.0
8.784985e-01 -5.894133e-03 0.0
9.372906e-01 4.982663e-02 0.0
9.815980e-01 1.051224e-01 0.0
1.011804e+00 1.629838e-01 0.0
1.027869e+00 2.210471e-01 0.0
1.030514e+00 2.754869e-01 0.0
1.021223e+00 3.228872e-01 0.0
1.002009e+00 3.605755e-01 0.0
9.748433e-01 3.862908e-01 0.0
9.394957e-01 3.987294e-01 0.0
8.920128e-01 3.971433e-01 0.0
8.330653e-01 3.766136e-01 0.0
7.742267e-01 3.297174e-01 0.0
7.329065e-01 2.510078e-01 0.0
7.169167e-01 1.480202e-01 0.0
7.200086e-01 3.883974e-02 0.0
7.305329e-01 -6.040899e-02 0.0
7.397537e-01 -1.429438e-01 0.0
7.438187e-01 -2.105686e-01 0.0
7.428600e-01 -2.655372e-01 0.0
7.396962e-01 -3.063536e-01 0.0
7.375139e-01 -3.273683e-01 0.0
7.383869e-01 -3.232027e-01 0.0
7.431819e-01 -2.939778e-01 0.0
7.523634e-01 -2.447828e-01 0.0
7.658797e-01 -1.832100e-01 0.0
7.828273e-01 -1.174803e-01 0.0
8.015246e-01 -5.488015e-02 0.0
8.198335e-01 -6.575317e-04 0.0
8.371240e-01 4.269594e-02 0.0
8.533821e-01 7.573779e-02 0.0
8.685942e-01 9.914817e-02 0.0
8.826048e-01 1.138568e-01 0.0
8.950958e-01 1.211672e-01 0.0
9.055316e-01 1.226790e-01 0.0
9.134321e-01 1.196733e-01 0.0
9.186017e-01 1.135692e-01 0.0
9.211270e-01 1.057002e-01 0.0
9.213317e-01 9.709060e-02 0.0
9.197021e-01 8.840908e-02 0.0
9.168040e-01 8.001840e-02 0.0
9.132062e-01 7.206527e-02 0.0
9.094209e-01 6.457253e-02 0.0
9.058663e-01 5.750794e-02 0.0
9.028505e-01 5.082959e-02 0.0
9.005760e-01 4.450239e-02 0.0
8.991624e-01 3.849816e-02 0.0
8.986636e-01 3.280875e-02 0.0
8.990760e-01 2.745086e-02 0.0
9.003559e-01 2.244466e-02 0.0
9.024431e-01 1.779888e-02 0.0
9.052593e-01 1.353429e-02 0.0
9.087075e-01 9.675221e-03 0.0
9.126973e-01 6.214457e-03 0.0
9.171521e-01 3.140439e-03 0.0
9.219978e-01 4.575115e-04 0.0
9.271762e-01 -1.846172e-03 0.0
9.326087e-01 -3.774430e-03 0.0
9.381994e-01 -5.340756e-03 0.0
9.438415e-01 -6.566861e-03 0.0
9.494334e-01 -7.479201e-03 0.0
9.548879e-01 -8.108396e-03 0.0
9.601330e-01 -8.486742e-03 0.0
9.651134e-01 -8.646488e-03 0.0
9.697889e-01 -8.617874e-03 0.0
9.741323e-01 -8.427161e-03 0.0
9.781252e-01 -8.095875e-03 0.0
9.817541e-01 -7.641080e-03 0.0
9.850082e-01 -7.076540e-03 0.0
9.878745e-01 -6.412877e-03 0.0
9.903320e-01 -5.659184e-03 0.0
9.923409e-01 -4.824575e-03 0.0
9.938433e-01 -3.933394e-03 0.0
9.945401e-01 -2.965369e-03 0.0
0.000000e+00 -2.936647e-03 0.0
1.000000e+00 -7.593920e-02 0.0
9.852613e-01 -7.680266e-02 0.0
9.668662e-01 -8.690370e-02 0.0
9.396356e-01 -1.092262e-01 0.0
8.951016e-01 -1.491882e-01 0.0
8.163204e-01 -2.170430e-01 0.0
6.781193e-01 -3.363582e-01 0.0
1.886240e-01 -4.510881e-01 0.0
-9.886699e-01 4.489964e-01 0.0
0.000000e+00 -2.523573e-02 0.0
-5.058988e-02 2.666974e-02 0.0
-5.791701e-03 -3.676572e-02 0.0
3.965803e-02 -1.458410e-02 0.0
6.684225e-02 3.025262e-02 0.0
6.865468e-02 8.260664e-02 0.0
5.574058e-02 1.189348e-01 0.0
3.307862e-02 1.321893e-01 0.0
-3.215894e-03 1.173723e-01 0.0
-4.916489e-02 7.472825e-02 0.0
-9.880687e-02 1.452350e-02 0.0
-1.336338e-01 -5.458421e-02 0.0
-1.301988e-01 -1.239055e-01 0.0
-7.681442e-02 -1.869167e-01 0.0
2.509653e-02 -2.366969e-01 0.0
1.596815e-01 -2.598478e-01 0.0
3.084712e-01 -2.494060e-01 0.0
4.559007e-01 -2.075017e-01 0.0
5.857103e-01 -1.357526e-01 0.0
6.840024e-01 -4.851436e-02 0.0
7.525720e-01 3.650390e-02 0.0
8.014501e-01 1.140568e-01 0.0
8.328615e-01 1.895868e-01 0.0
8.479647e-01 2.603348e-01 0.0
8.479156e-01 3.228874e-01 0.0
8.335704e-01 3.748717e-01 0.0
8.048286e-01 4.149837e-01 0.0
7.612767e-01 4.422324e-01 0.0
7.071924e-01 4.511787e-01 0.0
6.574680e-01 4.262891e-01 0.0
6.299872e-01 3.571493e-01 0.0
6.311409e-01 2.498051e-01 0.0
6.536051e-01 1.255070e-01 0.0
6.856990e-01 6.696895e-03 0.0
7.160791e-01 -9.083808e-02 0.0
7.374730e-01 -1.643868e-01 0.0
7.464620e-01 -2.196065e-01 0.0
7.431476e-01 -2.622717e-01 0.0
7.313631e-01 -2.946181e-01 0.0
7.171750e-01 -3.132292e-01 0.0
7.054006e-01 -3.114774e-01 0.0
6.982899e-01 -2.869161e-01 0.0
6.967302e-01 -2.432722e-01 0.0
7.008142e-01 -1.873430e-01 0.0
7.097540e-01 -1.264691e-01 0.0
7.220534e-01 -6.722851e-02 0.0
7.358724e-01 -1.452562e-02 0.0
7.498890e-01 2.863034e-02 0.0
7.637125e-01 6.186522e-02 0.0
7.770025e-01 8.580918e-02 0.0
7.893136e-01 1.014966e-01 0.0
8.001481e-01 1.102836e-01 0.0
8.090806e-01 1.136975e-01 0.0
8.157019e-01 1.130029e-01 0.0
8.200099e-01 1.092121e-01 0.0
8.223168e-01 1.033442e-01 0.0
8.231497e-01 9.620871e-02 0.0
8.231197e-01 8.838994e-02 0.0
8.228081e-01 8.028099e-02 0.0
8.226936e-01 7.213069e-02 0.0
8.231205e-01 6.409652e-02 0.0
8.243076e-01 5.627169e-02 0.0
8.263646e-01 4.872352e-02 0.0
8.293160e-01 4.150193e-02 0.0
8.331589e-01 3.460616e-02 0.0
8.378874e-01 2.803114e-02 0.0
8.434623e-01 2.182682e-02 0.0
8.498100e-01 1.604780e-02 0.0
8.568808e-01 1.067899e-02 0.0
8.646232e-01 5.742837e-03 0.0
8.729205e-01 1.328719e-03 0.0
8.816178e-01 -2.531931e-03 0.0
8.905328e-01 -5.823657e-03 0.0
8.995041e-01 -8.562950e-03 0.0
9.083847e-01 -1.077584e-02 0.0
9.170550e-01 -1.249386e-02 0.0
9.254223e-01 -1.375724e-02 0.0
9.334168e-01 -1.461049e-02 0.0
9.409887e-01 -1.510022e-02 0.0
9.481053e-01 -1.527419e-02 0.0
9.547464e-01 -1.517695e-02 0.0
9.609017e-01 -1.485095e-02 0.0
9.665685e-01 -1.433378e-02 0.0
9.717494e-01 -1.365724e-02 0.0
9.764512e-01 -1.284680e-02 0.0
9.806822e-01 -1.192116e-02 0.0
9.844487e-01 -1.089220e-02 0.0
9.877512e-01 -9.764473e-03 0.0
9.905774e-01 -8.534533e-03 0.0
9.928901e-01 -7.186422e-03 0.0
9.946285e-01 -5.720999e-03 0.0
9.953750e-01 -3.760964e-03 0.0
0.000000e+00 -3.706177e-03 0.0
1.000000e+00 -5.554406e-02 0.0
9.794392e-01 -5.642900e-02 0.0
9.535255e-01 -6.103876e-02 0.0
9.145044e-01 -7.025394e-02 0.0
8.485665e-01 -8.329910e-02 0.0
7.262951e-01 -9.482042e-02 0.0
4.745814e-01 -8.469338e-02 0.0
-6.432772e-03 3.001557e-02 0.0
-1.440211e-04 0.000000e+00 0.0
0.000000e+00 -0.000000e+00 0.0
0.000000e+00 4.743408e-02 0.0
8.788872e-03 -4.560343e-02 0.0
-4.275485e-02 3.691079e-02 0.0
-8.411795e-02 7.156688e-02 0.0
-1.245534e-01 1.229933e-01 0.0
-1.539361e-01 1.482686e-01 0.0
-1.762324e-01 1.544367e-01 0.0
-2.009589e-01 1.420500e-01 0.0
-2.326905e-01 1.064110e-01 0.0
-2.665815e-01 4.836563e-02 0.0