# vtk DataFile Version 3.0
Vector Field
ASCII
DATASET RECTILINEAR_GRID
DIMENSIONS 102 22 1
X_COORDINATES 102 double
0.000000 0.100000 0.200000 0.300000 0.400000 0.500000 0.600000 0.700000 0.800000 0.900000 1.000000 1.100000 1.200000 1.300000 1.400000 1.500000 1.600000 1.700000 1.800000 1.900000 2.000000 2.100000 2.200000 2.300000 2.400000 2.500000 2.600000 2.700000 2.800000 2.900000 3.000000 3.100000 3.200000 3.300000 3.400000 3.500000 3.600000 3.700000 3.800000 3.900000 4.000000 4.100000 4.200000 4.300000 4.400000 4.500000 4.600000 4.700000 4.800000 4.900000 5.000000 5.100000 5.200000 5.300000 5.400000 5.500000 5.600000 5.700000 5.800000 5.900000 6.000000 6.100000 6.200000 6.300000 6.400000 6.500000 6.600000 6.700000 6.800000 6.900000 7.000000 7.100000 7.200000 7.300000 7.400000 7.500000 7.600000 7.700000 7.800000 7.900000 8.000000 8.100000 8.200000 8.300000 8.400000 8.500000 8.600000 8.700000 8.800000 8.900000 9.000000 9.100000 9.200000 9.300000 9.400000 9.500000 9.600000 9.700000 9.800000 9.900000 10.000000 10.100000 
Y_COORDINATES 22 double
0.000000 0.100000 0.200000 0.300000 0.400000 0.500000 0.600000 0.700000 0.800000 0.900000 1.000000 1.100000 1.200000 1.300000 1.400000 1.500000 1.600000 1.700000 1.800000 1.900000 2.000000 2.100000 
Z_COORDINATES 1 double
0.0
POINT_DATA 2244
VECTORS Velocity double
0.000000e+00 0.000000e+00 0.0
-1.024562e+00 0.000000e+00 0.0
-1.052279e+00 0.000000e+00 0.0
-1.086104e+00 0.000000e+00 0.0
-1.129055e+00 0.000000e+00 0.0
-1.183817e+00 0.000000e+00 0.0
-1.250764e+00 0.000000e+00 0.0
-1.331403e+00 0.000000e+00 0.0
-1.411366e+00 0.000000e+00 0.0
-1.481144e+00 0.000000e+00 0.0
-1.538819e+00 0.000000e+00 0.0
-1.585544e+00 0.000000e+00 0.0
-1.622373e+00 0.000000e+00 0.0
-1.649299e+00 0.000000e+00 0.0
-1.665603e+00 0.000000e+00 0.0
-1.670983e+00 0.000000e+00 0.0
-1.666238e+00 0.000000e+00 0.0
-1.652593e+00 0.000000e+00 0.0
-1.631370e+00 0.000000e+00 0.0
-1.603759e+00 0.000000e+00 0.0
-1.570674e+00 0.000000e+00 0.0
-1.532749e+00 0.000000e+00 0.0
-1.490438e+00 0.000000e+00 0.0
-1.444177e+00 0.000000e+00 0.0
-1.394513e+00 0.000000e+00 0.0
-1.342174e+00 0.000000e+00 0.0
-1.288164e+00 0.000000e+00 0.0
-1.233879e+00 0.000000e+00 0.0
-1.181108e+00 0.000000e+00 0.0
-1.131922e+00 0.000000e+00 0.0
-1.088318e+00 0.000000e+00 0.0
-1.051750e+00 0.000000e+00 0.0
-1.022777e+00 0.000000e+00 0.0
-1.001010e+00 0.000000e+00 0.0
-9.853591e-01 0.000000e+00 0.0
-9.744361e-01 0.000000e+00 0.0
-9.668957e-01 0.000000e+00 0.0
-9.616365e-01 0.000000e+00 0.0
-9.578562e-01 0.000000e+00 0.0
-9.550189e-01 0.000000e+00 0.0
-9.527898e-01 0.000000e+00 0.0
-9.509697e-01 0.000000e+00 0.0
-9.494450e-01 0.000000e+00 0.0
-9.481526e-01 0.000000e+00 0.0
-9.470581e-01 0.000000e+00 0.0
-9.461430e-01 0.000000e+00 0.0
-9.453966e-01 0.000000e+00 0.0
-9.448124e-01 0.000000e+00 0.0
-9.443851e-01 0.000000e+00 0.0
-9.441095e-01 0.000000e+00 0.0
-9.439763e-01 0.000000e+00 0.0
-9.439717e-01 0.000000e+00 0.0
-9.440804e-01 0.000000e+00 0.0
-9.442873e-01 0.000000e+00 0.0
-9.445776e-01 0.000000e+00 0.0
-9.449371e-01 0.000000e+00 0.0
-9.453525e-01 0.000000e+00 0.0
-9.458115e-01 0.000000e+00 0.0
-9.463027e-01 0.000000e+00 0.0
-9.468158e-01 0.000000e+00 0.0
-9.473417e-01 0.000000e+00 0.0
-9.478723e-01 0.000000e+00 0.0
-9.484002e-01 0.000000e+00 0.0
-9.489195e-01 0.000000e+00 0.0
-9.494250e-01 0.000000e+00 0.0
-9.499127e-01 0.000000e+00 0.0
-9.503794e-01 0.000000e+00 0.0
-9.508228e-01 0.000000e+00 0.0
-9.512413e-01 0.000000e+00 0.0
-9.516338e-01 0.000000e+00 0.0
-9.519998e-01 0.000000e+00 0.0
-9.523392e-01 0.000000e+00 0.0
-9.526523e-01 0.000000e+00 0.0
-9.529397e-01 0.000000e+00 0.0
-9.532020e-01 0.000000e+00 0.0
-9.534404e-01 0.000000e+00 0.0
-9.536559e-01 0.000000e+00 0.0
-9.538497e-01 0.000000e+00 0.0
-9.540230e-01 0.000000e+00 0.0
-9.541771e-01 0.000000e+00 0.0
-9.543133e-01 0.000000e+00 0.0
-9.544329e-01 0.000000e+00 0.0
-9.545369e-01 0.000000e+00 0.0
-9.546266e-01 0.000000e+00 0.0
-9.547030e-01 0.000000e+00 0.0
-9.547671e-01 0.000000e+00 0.0
-9.548198e-01 0.000000e+00 0.0
-9.548622e-01 0.000000e+00 0.0
-9.548951e-01 0.000000e+00 0.0
-9.549194e-01 0.000000e+00 0.0
-9.549360e-01 0.000000e+00 0.0
-9.549458e-01 0.000000e+00 0.0
-9.549502e-01 0.000000e+00 0.0
-9.549503e-01 0.000000e+00 0.0
-9.549483e-01 0.000000e+00 0.0
-9.549475e-01 0.000000e+00 0.0
-9.549536e-01 0.000000e+00 0.0
-9.549789e-01 0.000000e+00 0.0
-9.550520e-01 0.000000e+00 0.0
-9.552883e-01 0.000000e+00 0.0
-9.552883e-01 0.000000e+00 0.0
0.000000e+00 0.000000e+00 0.0
1.000000e+00 -2.490162e-02 0.0
1.024326e+00 -2.468405e-02 0.0
1.051801e+00 -2.768112e-02 0.0
1.085357e+00 -3.376223e-02 0.0
1.128000e+00 -4.284854e-02 0.0
1.182396e+00 -5.460218e-02 0.0
1.248921e+00 -6.673101e-02 0.0
1.329042e+00 -8.032651e-02 0.0
1.408487e+00 -7.965083e-02 0.0
1.477857e+00 -6.957633e-02 0.0
1.535342e+00 -5.769085e-02 0.0
1.582207e+00 -4.707081e-02 0.0
1.619600e+00 -3.759912e-02 0.0
1.647538e+00 -2.814383e-02 0.0
1.665195e+00 -1.786340e-02 0.0
1.672027e+00 -7.037938e-03 0.0
1.668640e+00 3.181186e-03 0.0
1.656205e+00 1.222889e-02 0.0
1.636042e+00 1.995616e-02 0.0
1.609379e+00 2.645711e-02 0.0
1.577180e+00 3.199372e-02 0.0
1.540112e+00 3.686195e-02 0.0
1.498637e+00 4.126844e-02 0.0
1.453164e+00 4.526686e-02 0.0
1.404190e+00 4.876774e-02 0.0
1.352389e+00 5.159527e-02 0.0
1.298692e+00 5.349084e-02 0.0
1.244416e+00 5.406933e-02 0.0
1.191280e+00 5.292989e-02 0.0
1.141316e+00 4.975812e-02 0.0
1.096557e+00 4.455303e-02 0.0
1.058581e+00 3.776929e-02 0.0
1.028129e+00 3.024616e-02 0.0
1.004986e+00 2.293719e-02 0.0
9.881831e-01 1.659642e-02 0.0
9.763758e-01 1.160114e-02 0.0
9.682022e-01 7.967324e-03 0.0
9.625124e-01 5.483543e-03 0.0
9.584483e-01 3.857810e-03 0.0
9.554257e-01 2.816398e-03 0.0
9.530730e-01 2.146401e-03 0.0
9.511664e-01 1.700268e-03 0.0
9.495764e-01 1.383737e-03 0.0
9.482301e-01 1.140010e-03 0.0
9.470875e-01 9.362362e-04 0.0
9.461270e-01 7.541640e-04 0.0
9.453365e-01 5.841691e-04 0.0
9.447085e-01 4.215446e-04 0.0
9.442380e-01 2.641842e-04 0.0
9.439199e-01 1.117137e-04 0.0
9.437466e-01 -3.313199e-05 0.0
9.437050e-01 -1.648022e-04 0.0
9.437801e-01 -2.815863e-04 0.0
9.439570e-01 -3.833166e-04 0.0
9.442208e-01 -4.702971e-04 0.0
9.445574e-01 -5.430888e-04 0.0
9.449534e-01 -6.024407e-04 0.0
9.453962e-01 -6.492460e-04 0.0
9.458741e-01 -6.845022e-04 0.0
9.463769e-01 -7.092738e-04 0.0
9.468950e-01 -7.246499e-04 0.0
9.474202e-01 -7.316821e-04 0.0
9.479449e-01 -7.312659e-04 0.0
9.484627e-01 -7.243998e-04 0.0
9.489683e-01 -7.121931e-04 0.0
9.494574e-01 -6.956715e-04 0.0
9.499266e-01 -6.757585e-04 0.0
9.503732e-01 -6.532760e-04 0.0
9.507956e-01 -6.289476e-04 0.0
9.511923e-01 -6.034021e-04 0.0
9.515629e-01 -5.771782e-04 0.0
9.519070e-01 -5.507307e-04 0.0
9.522247e-01 -5.244371e-04 0.0
9.525167e-01 -4.986054e-04 0.0
9.527835e-01 -4.734833e-04 0.0
9.530261e-01 -4.492651e-04 0.0
9.532455e-01 -4.260996e-04 0.0
9.534429e-01 -4.040931e-04 0.0
9.536195e-01 -3.833134e-04 0.0
9.537765e-01 -3.637917e-04 0.0
9.539153e-01 -3.455273e-04 0.0
9.540371e-01 -3.284942e-04 0.0
9.541430e-01 -3.126489e-04 0.0
9.542342e-01 -2.979389e-04 0.0
9.543118e-01 -2.843088e-04 0.0
9.543767e-01 -2.717057e-04 0.0
9.544301e-01 -2.600822e-04 0.0
9.544727e-01 -2.493989e-04 0.0
9.545056e-01 -2.396283e-04 0.0
9.545296e-01 -2.307607e-04 0.0
9.545456e-01 -2.228147e-04 0.0
9.545547e-01 -2.158560e-04 0.0
9.545579e-01 -2.100295e-04 0.0
9.545568e-01 -2.056251e-04 0.0
9.545532e-01 -2.032596e-04 0.0
9.545506e-01 -2.041517e-04 0.0
9.545546e-01 -2.108198e-04 0.0
9.545776e-01 -2.297910e-04 0.0
9.546478e-01 -2.769761e-04 0.0
9.548801e-01 -4.390910e-04 0.0
9.552883e-01 -6.149936e-04 0.0
0.000000e+00 -6.100604e-04 0.0
1.000000e+00 -4.995024e-02 0.0
1.024616e+00 -4.950572e-02 0.0
1.052423e+00 -5.554220e-02 0.0
1.086473e+00 -6.786617e-02 0.0
1.130073e+00 -8.650168e-02 0.0
1.186536e+00 -1.111192e-01 0.0
1.256406e+00 -1.366548e-01 0.0
1.345854e+00 -1.698284e-01 0.0
1.430284e+00 -1.641345e-01 0.0
1.500107e+00 -1.394530e-01 0.0
1.556403e+00 -1.140408e-01 0.0
1.602295e+00 -9.301670e-02 0.0
1.639644e+00 -7.500158e-02 0.0
1.668583e+00 -5.713629e-02 0.0
1.687984e+00 -3.731876e-02 0.0
1.696777e+00 -1.588460e-02 0.0
1.695329e+00 4.575945e-03 0.0
1.684870e+00 2.263355e-02 0.0
1.666781e+00 3.799134e-02 0.0
1.642349e+00 5.083599e-02 0.0
1.612574e+00 6.171508e-02 0.0
1.578137e+00 7.124447e-02 0.0
1.539504e+00 7.984836e-02 0.0
1.497072e+00 8.764487e-02 0.0
1.451327e+00 9.445881e-02 0.0
1.402917e+00 9.995165e-02 0.0
1.352660e+00 1.036941e-01 0.0
1.301593e+00 1.050824e-01 0.0
1.251210e+00 1.032588e-01 0.0
1.203400e+00 9.751491e-02 0.0
1.160119e+00 8.777971e-02 0.0
1.122948e+00 7.488710e-02 0.0
1.092694e+00 6.044616e-02 0.0
1.069258e+00 4.631913e-02 0.0
1.051800e+00 3.400131e-02 0.0
1.039089e+00 2.425825e-02 0.0
1.029860e+00 1.714203e-02 0.0
1.023041e+00 1.224897e-02 0.0
1.017834e+00 9.010442e-03 0.0
1.013706e+00 6.891316e-03 0.0
1.010321e+00 5.476930e-03 0.0
1.007485e+00 4.482461e-03 0.0
1.005086e+00 3.729556e-03 0.0
1.003057e+00 3.114728e-03 0.0
1.001359e+00 2.580734e-03 0.0
9.999616e-01 2.097470e-03 0.0
9.988419e-01 1.650084e-03 0.0
9.979773e-01 1.232261e-03 0.0
9.973454e-01 8.422293e-04 0.0
9.969224e-01 4.809105e-04 0.0
9.966841e-01 1.513100e-04 0.0
9.966091e-01 -1.436692e-04 0.0
9.966773e-01 -4.036847e-04 0.0
9.968697e-01 -6.294958e-04 0.0
9.971677e-01 -8.222396e-04 0.0
9.975541e-01 -9.833252e-04 0.0
9.980122e-01 -1.114423e-03 0.0
9.985265e-01 -1.217453e-03 0.0
9.990827e-01 -1.294562e-03 0.0
9.996677e-01 -1.348081e-03 0.0
1.000270e+00 -1.380481e-03 0.0
1.000878e+00 -1.394345e-03 0.0
1.001486e+00 -1.392381e-03 0.0
1.002084e+00 -1.377054e-03 0.0
1.002669e+00 -1.350541e-03 0.0
1.003234e+00 -1.314881e-03 0.0
1.003776e+00 -1.271969e-03 0.0
1.004293e+00 -1.223531e-03 0.0
1.004781e+00 -1.171106e-03 0.0
1.005240e+00 -1.116050e-03 0.0
1.005668e+00 -1.059530e-03 0.0
1.006066e+00 -1.002536e-03 0.0
1.006434e+00 -9.458883e-04 0.0
1.006771e+00 -8.902596e-04 0.0
1.007080e+00 -8.361849e-04 0.0
1.007361e+00 -7.840792e-04 0.0
1.007615e+00 -7.342493e-04 0.0
1.007844e+00 -6.869060e-04 0.0
1.008049e+00 -6.421762e-04 0.0
1.008232e+00 -6.001165e-04 0.0
1.008393e+00 -5.607286e-04 0.0
1.008534e+00 -5.239734e-04 0.0
1.008658e+00 -4.897828e-04 0.0
1.008764e+00 -4.580697e-04 0.0
1.008854e+00 -4.287351e-04 0.0
1.008930e+00 -4.016739e-04 0.0
1.008993e+00 -3.767818e-04 0.0
1.009044e+00 -3.539618e-04 0.0
1.009083e+00 -3.331343e-04 0.0
1.009113e+00 -3.142511e-04 0.0
1.009133e+00 -2.973158e-04 0.0
1.009146e+00 -2.824167e-04 0.0
1.009152e+00 -2.697824e-04 0.0
1.009152e+00 -2.598794e-04 0.0
1.009148e+00 -2.535520e-04 0.0
1.009143e+00 -2.524695e-04 0.0
1.009138e+00 -2.600200e-04 0.0
1.009137e+00 -2.830373e-04 0.0
1.009141e+00 -3.344581e-04 0.0
1.009094e+00 -4.463032e-04 0.0
1.009010e+00 -5.845015e-04 0.0
0.000000e+00 -5.792278e-04 0.0
1.000000e+00 -7.176645e-02 0.0
1.021396e+00 -7.110816e-02 0.0
1.046052e+00 -8.025107e-02 0.0
1.077271e+00 -9.913925e-02 0.0
1.119085e+00 -1.283692e-01 0.0
1.176327e+00 -1.684155e-01 0.0
1.250780e+00 -2.111614e-01 0.0
1.358907e+00 -2.780091e-01 0.0
1.447972e+00 -2.532531e-01 0.0
1.512534e+00 -2.040683e-01 0.0
1.561236e+00 -1.627971e-01 0.0
1.600739e+00 -1.325729e-01 0.0
1.634050e+00 -1.083666e-01 0.0
1.661460e+00 -8.460003e-02 0.0
1.681289e+00 -5.720134e-02 0.0
1.691221e+00 -2.587029e-02 0.0
1.690742e+00 5.000860e-03 0.0
1.681171e+00 3.215082e-02 0.0
1.663990e+00 5.511910e-02 0.0
1.640613e+00 7.415848e-02 0.0
1.612136e+00 9.013850e-02 0.0
1.579262e+00 1.040651e-01 0.0
1.542411e+00 1.166450e-01 0.0
1.501915e+00 1.280875e-01 0.0
1.458168e+00 1.381519e-01 0.0
1.411713e+00 1.463526e-01 0.0
1.363250e+00 1.521034e-01 0.0
1.313693e+00 1.545862e-01 0.0
1.264410e+00 1.524878e-01 0.0
1.217258e+00 1.446135e-01 0.0
1.174190e+00 1.307937e-01 0.0
1.136760e+00 1.122634e-01 0.0
1.105735e+00 9.141748e-02 0.0
1.081003e+00 7.099677e-02 0.0
1.061789e+00 5.316176e-02 0.0
1.047012e+00 3.898180e-02 0.0
1.035605e+00 2.849528e-02 0.0
1.026690e+00 2.110988e-02 0.0
1.019620e+00 1.602633e-02 0.0
1.013946e+00 1.251157e-02 0.0
1.009362e+00 1.000763e-02 0.0
1.005654e+00 8.136212e-03 0.0
1.002670e+00 6.659768e-03 0.0
1.000294e+00 5.436352e-03 0.0
9.984369e-01 4.384450e-03 0.0
9.970228e-01 3.457769e-03 0.0
9.959896e-01 2.629408e-03 0.0
9.952834e-01 1.884633e-03 0.0
9.948561e-01 1.215649e-03 0.0
9.946653e-01 6.179178e-04 0.0
9.946734e-01 8.934046e-05 0.0
9.948499e-01 -3.740092e-04 0.0
9.951681e-01 -7.757491e-04 0.0
9.956037e-01 -1.118981e-03 0.0
9.961344e-01 -1.406837e-03 0.0
9.967398e-01 -1.642627e-03 0.0
9.974015e-01 -1.829914e-03 0.0
9.981027e-01 -1.972527e-03 0.0
9.988288e-01 -2.074524e-03 0.0
9.995669e-01 -2.140120e-03 0.0
1.000306e+00 -2.173608e-03 0.0
1.001037e+00 -2.179267e-03 0.0
1.001752e+00 -2.161260e-03 0.0
1.002445e+00 -2.123474e-03 0.0
1.003110e+00 -2.069505e-03 0.0
1.003744e+00 -2.002651e-03 0.0
1.004344e+00 -1.925902e-03 0.0
1.004908e+00 -1.841918e-03 0.0
1.005436e+00 -1.753026e-03 0.0
1.005927e+00 -1.661233e-03 0.0
1.006382e+00 -1.568245e-03 0.0
1.006801e+00 -1.475480e-03 0.0
1.007186e+00 -1.384097e-03 0.0
1.007536e+00 -1.295024e-03 0.0
1.007855e+00 -1.208982e-03 0.0
1.008144e+00 -1.126510e-03 0.0
1.008404e+00 -1.047990e-03 0.0
1.008636e+00 -9.736649e-04 0.0
1.008844e+00 -9.036641e-04 0.0
1.009028e+00 -8.380233e-04 0.0
1.009190e+00 -7.767063e-04 0.0
1.009332e+00 -7.196230e-04 0.0
1.009455e+00 -6.666438e-04 0.0
1.009560e+00 -6.176114e-04 0.0
1.009650e+00 -5.723505e-04 0.0
1.009725e+00 -5.306767e-04 0.0
1.009787e+00 -4.924060e-04 0.0
1.009836e+00 -4.573652e-04 0.0
1.009875e+00 -4.254053e-04 0.0
1.009903e+00 -3.964199e-04 0.0
1.009922e+00 -3.703705e-04 0.0
1.009933e+00 -3.473268e-04 0.0
1.009937e+00 -3.275305e-04 0.0
1.009934e+00 -3.114984e-04 0.0
1.009927e+00 -3.001949e-04 0.0
1.009916e+00 -2.953950e-04 0.0
1.009902e+00 -3.002691e-04 0.0
1.009886e+00 -3.201971e-04 0.0
1.009860e+00 -3.633681e-04 0.0
1.009799e+00 -4.391436e-04 0.0
1.009700e+00 -5.389479e-04 0.0
0.000000e+00 -5.333637e-04 0.0
1.000000e+00 -8.864086e-02 0.0
1.016475e+00 -8.778865e-02 0.0
1.036097e+00 -9.992700e-02 0.0
1.062368e+00 -1.254640e-01 0.0
1.100363e+00 -1.664182e-01 0.0
1.157419e+00 -2.255252e-01 0.0
1.239400e+00 -2.931961e-01 0.0
1.377842e+00 -4.165053e-01 0.0
1.461757e+00 -3.372217e-01 0.0
1.507916e+00 -2.502809e-01 0.0
1.538878e+00 -1.938133e-01 0.0
1.564205e+00 -1.579528e-01 0.0
1.587885e+00 -1.321006e-01 0.0
1.610824e+00 -1.075928e-01 0.0
1.631107e+00 -7.753810e-02 0.0
1.644581e+00 -3.939820e-02 0.0
1.647674e+00 1.854413e-03 0.0
1.641297e+00 3.847372e-02 0.0
1.627135e+00 6.922773e-02 0.0
1.606833e+00 9.440662e-02 0.0
1.581604e+00 1.153140e-01 0.0
1.552150e+00 1.334651e-01 0.0
1.518800e+00 1.499412e-01 0.0
1.481744e+00 1.650900e-01 0.0
1.441238e+00 1.786036e-01 0.0
1.397718e+00 1.898191e-01 0.0
1.351797e+00 1.979705e-01 0.0
1.304246e+00 2.020829e-01 0.0
1.256274e+00 2.004059e-01 0.0
1.209775e+00 1.910593e-01 0.0
1.166827e+00 1.736881e-01 0.0
1.129103e+00 1.499332e-01 0.0
1.097466e+00 1.230010e-01 0.0
1.071896e+00 9.651234e-02 0.0
1.051731e+00 7.327351e-02 0.0
1.036016e+00 5.464318e-02 0.0
1.023804e+00 4.065364e-02 0.0
1.014307e+00 3.055285e-02 0.0
1.006928e+00 2.335107e-02 0.0
1.001228e+00 1.815761e-02 0.0
9.968794e-01 1.430282e-02 0.0
9.936270e-01 1.133475e-02 0.0
9.912673e-01 8.965664e-03 0.0
9.896355e-01 7.014244e-03 0.0
9.885963e-01 5.369890e-03 0.0
9.880358e-01 3.964397e-03 0.0
9.878614e-01 2.750021e-03 0.0
9.879960e-01 1.696172e-03 0.0
9.883735e-01 7.842896e-04 0.0
9.889416e-01 -4.060677e-06 0.0
9.896615e-01 -6.843468e-04 0.0
9.905002e-01 -1.266568e-03 0.0
9.914286e-01 -1.758026e-03 0.0
9.924209e-01 -2.165162e-03 0.0
9.934544e-01 -2.494217e-03 0.0
9.945094e-01 -2.751468e-03 0.0
9.955689e-01 -2.943311e-03 0.0
9.966188e-01 -3.076272e-03 0.0
9.976473e-01 -3.156928e-03 0.0
9.986451e-01 -3.191799e-03 0.0
9.996049e-01 -3.187253e-03 0.0
1.000521e+00 -3.149375e-03 0.0
1.001390e+00 -3.083878e-03 0.0
1.002208e+00 -2.996044e-03 0.0
1.002976e+00 -2.890664e-03 0.0
1.003691e+00 -2.772028e-03 0.0
1.004355e+00 -2.643918e-03 0.0
1.004969e+00 -2.509614e-03 0.0
1.005534e+00 -2.371923e-03 0.0
1.006052e+00 -2.233212e-03 0.0
1.006525e+00 -2.095440e-03 0.0
1.006956e+00 -1.960193e-03 0.0
1.007347e+00 -1.828727e-03 0.0
1.007700e+00 -1.702010e-03 0.0
1.008018e+00 -1.580757e-03 0.0
1.008303e+00 -1.465467e-03 0.0
1.008557e+00 -1.356453e-03 0.0
1.008784e+00 -1.253871e-03 0.0
1.008984e+00 -1.157752e-03 0.0
1.009160e+00 -1.068025e-03 0.0
1.009314e+00 -9.845457e-04 0.0
1.009447e+00 -9.071101e-04 0.0
1.009562e+00 -8.354752e-04 0.0
1.009660e+00 -7.693698e-04 0.0
1.009742e+00 -7.085066e-04 0.0
1.009810e+00 -6.525926e-04 0.0
1.009865e+00 -6.013400e-04 0.0
1.009909e+00 -5.544786e-04 0.0
1.009941e+00 -5.117703e-04 0.0
1.009964e+00 -4.730286e-04 0.0
1.009977e+00 -4.381462e-04 0.0
1.009983e+00 -4.071356e-04 0.0
1.009982e+00 -3.801913e-04 0.0
1.009974e+00 -3.577843e-04 0.0
1.009961e+00 -3.408112e-04 0.0
1.009943e+00 -3.308342e-04 0.0
1.009919e+00 -3.303763e-04 0.0
1.009888e+00 -3.431207e-04 0.0
1.009844e+00 -3.735528e-04 0.0
1.009775e+00 -4.237970e-04 0.0
1.009674e+00 -4.917934e-04 0.0
0.000000e+00 -4.859151e-04 0.0
1.000000e+00 -9.885393e-02 0.0
1.009840e+00 -9.783479e-02 0.0
1.022241e+00 -1.123811e-01 0.0
1.040451e+00 -1.437279e-01 0.0
1.070386e+00 -1.964071e-01 0.0
1.122481e+00 -2.776735e-01 0.0
1.211367e+00 -3.821362e-01 0.0
1.386115e+00 -5.913072e-01 0.0
1.437285e+00 -3.884452e-01 0.0
1.442697e+00 -2.557464e-01 0.0
1.440103e+00 -1.912733e-01 0.0
1.438758e+00 -1.566616e-01 0.0
1.442503e+00 -1.358992e-01 0.0
1.453838e+00 -1.189818e-01 0.0
1.472357e+00 -9.611092e-02 0.0
1.493342e+00 -6.043635e-02 0.0
1.507533e+00 -1.239026e-02 0.0
1.511258e+00 3.469493e-02 0.0
1.506484e+00 7.394807e-02 0.0
1.495407e+00 1.054299e-01 0.0
1.479488e+00 1.311786e-01 0.0
1.459379e+00 1.535202e-01 0.0
1.435174e+00 1.740926e-01 0.0
1.406787e+00 1.934234e-01 0.0
1.374247e+00 2.110898e-01 0.0
1.337855e+00 2.261575e-01 0.0
1.298188e+00 2.375841e-01 0.0
1.255994e+00 2.442231e-01 0.0
1.212296e+00 2.440494e-01 0.0
1.169065e+00 2.342365e-01 0.0
1.128606e+00 2.140933e-01 0.0
1.092823e+00 1.856623e-01 0.0
1.062760e+00 1.530104e-01 0.0
1.038538e+00 1.206808e-01 0.0
1.019609e+00 9.214884e-02 0.0
1.005117e+00 6.908129e-02 0.0
9.941910e-01 5.152575e-02 0.0
9.860954e-01 3.859458e-02 0.0
9.802591e-01 2.913359e-02 0.0
9.762407e-01 2.212219e-02 0.0
9.736896e-01 1.680012e-02 0.0
9.723134e-01 1.265706e-02 0.0
9.718582e-01 9.367034e-03 0.0
9.721147e-01 6.703939e-03 0.0
9.729100e-01 4.520736e-03 0.0
9.740923e-01 2.728260e-03 0.0
9.755414e-01 1.247081e-03 0.0
9.771710e-01 1.279231e-05 0.0
9.789253e-01 -1.023876e-03 0.0
9.807607e-01 -1.893336e-03 0.0
9.826388e-01 -2.616332e-03 0.0
9.845266e-01 -3.208147e-03 0.0
9.863961e-01 -3.681467e-03 0.0
9.882249e-01 -4.047813e-03 0.0
9.899950e-01 -4.318099e-03 0.0
9.916924e-01 -4.502808e-03 0.0
9.933073e-01 -4.612035e-03 0.0
9.948327e-01 -4.655546e-03 0.0
9.962646e-01 -4.642715e-03 0.0
9.976012e-01 -4.582340e-03 0.0
9.988427e-01 -4.482624e-03 0.0
9.999906e-01 -4.351165e-03 0.0
1.001048e+00 -4.194862e-03 0.0
1.002018e+00 -4.019855e-03 0.0
1.002905e+00 -3.831542e-03 0.0
1.003713e+00 -3.634589e-03 0.0
1.004448e+00 -3.432969e-03 0.0
1.005115e+00 -3.230036e-03 0.0
1.005718e+00 -3.028560e-03 0.0
1.006261e+00 -2.830791e-03 0.0
1.006751e+00 -2.638507e-03 0.0
1.007189e+00 -2.453080e-03 0.0
1.007582e+00 -2.275528e-03 0.0
1.007933e+00 -2.106567e-03 0.0
1.008245e+00 -1.946656e-03 0.0
1.008522e+00 -1.796038e-03 0.0
1.008766e+00 -1.654778e-03 0.0
1.008981e+00 -1.522795e-03 0.0
1.009169e+00 -1.399897e-03 0.0
1.009333e+00 -1.285803e-03 0.0
1.009475e+00 -1.180170e-03 0.0
1.009596e+00 -1.082610e-03 0.0
1.009700e+00 -9.927065e-04 0.0
1.009786e+00 -9.100266e-04 0.0
1.009858e+00 -8.341319e-04 0.0
1.009916e+00 -7.645892e-04 0.0
1.009962e+00 -7.009809e-04 0.0
1.009996e+00 -6.429170e-04 0.0
1.010021e+00 -5.900485e-04 0.0
1.010036e+00 -5.420862e-04 0.0
1.010043e+00 -4.988262e-04 0.0
1.010042e+00 -4.601868e-04 0.0
1.010034e+00 -4.262617e-04 0.0
1.010019e+00 -3.973963e-04 0.0
1.009999e+00 -3.742943e-04 0.0
1.009972e+00 -3.581502e-04 0.0
1.009939e+00 -3.507501e-04 0.0
1.009896e+00 -3.543791e-04 0.0
1.009840e+00 -3.712476e-04 0.0
1.009763e+00 -4.011952e-04 0.0
1.009661e+00 -4.429400e-04 0.0
0.000000e+00 -4.368014e-04 0.0
1.000000e+00 -1.009557e-01 0.0
1.001763e+00 -9.980361e-02 0.0
1.004684e+00 -1.153556e-01 0.0
1.010641e+00 -1.497389e-01 0.0
1.024698e+00 -2.105176e-01 0.0
1.058604e+00 -3.116336e-01 0.0
1.139032e+00 -4.626180e-01 0.0
1.342004e+00 -7.943330e-01 0.0
1.309609e+00 -3.561042e-01 0.0
1.242229e+00 -1.884200e-01 0.0
1.189010e+00 -1.381077e-01 0.0
1.146788e+00 -1.144933e-01 0.0
1.114903e+00 -1.040686e-01 0.0
1.099558e+00 -1.036902e-01 0.0
1.106729e+00 -1.033353e-01 0.0
1.134866e+00 -8.862701e-02 0.0
1.174307e+00 -5.188588e-02 0.0
1.206322e+00 2.626978e-03 0.0
1.226274e+00 5.394207e-02 0.0
1.238675e+00 9.297506e-02 0.0
1.245571e+00 1.242284e-01 0.0
1.247521e+00 1.515169e-01 0.0
1.244170e+00 1.773901e-01 0.0
1.234976e+00 2.025633e-01 0.0
1.219684e+00 2.263276e-01 0.0
1.198525e+00 2.472628e-01 0.0
1.172192e+00 2.638633e-01 0.0
1.141715e+00 2.746466e-01 0.0
1.108194e+00 2.775171e-01 0.0
1.073734e+00 2.686423e-01 0.0
1.040942e+00 2.468317e-01 0.0
1.011964e+00 2.145861e-01 0.0
9.879946e-01 1.769262e-01 0.0
9.692615e-01 1.393602e-01 0.0
9.553372e-01 1.060193e-01 0.0
9.455059e-01 7.885874e-02 0.0
9.390323e-01 5.794553e-02 0.0
9.352881e-01 4.228502e-02 0.0
9.337685e-01 3.059940e-02 0.0
9.340393e-01 2.179753e-02 0.0
9.357157e-01 1.506989e-02 0.0
9.384485e-01 9.870427e-03 0.0
9.418848e-01 5.876899e-03 0.0
9.457332e-01 2.801753e-03 0.0
9.497887e-01 4.114110e-04 0.0
9.539376e-01 -1.474443e-03 0.0
9.580994e-01 -2.968618e-03 0.0
9.622074e-01 -4.149012e-03 0.0
9.662033e-01 -5.073681e-03 0.0
9.700422e-01 -5.786014e-03 0.0
9.736914e-01 -6.319468e-03 0.0
9.771296e-01 -6.700186e-03 0.0
9.803440e-01 -6.949653e-03 0.0
9.833287e-01 -7.086470e-03 0.0
9.860840e-01 -7.127230e-03 0.0
9.886142e-01 -7.086867e-03 0.0
9.909270e-01 -6.978669e-03 0.0
9.930322e-01 -6.814691e-03 0.0
9.949415e-01 -6.605862e-03 0.0
9.966673e-01 -6.362061e-03 0.0
9.982229e-01 -6.092062e-03 0.0
9.996214e-01 -5.803600e-03 0.0
1.000876e+00 -5.503372e-03 0.0
1.001999e+00 -5.197021e-03 0.0
1.003003e+00 -4.889294e-03 0.0
1.003899e+00 -4.584135e-03 0.0
1.004697e+00 -4.284742e-03 0.0
1.005406e+00 -3.993653e-03 0.0
1.006037e+00 -3.712828e-03 0.0
1.006596e+00 -3.443725e-03 0.0
1.007091e+00 -3.187374e-03 0.0
1.007528e+00 -2.944445e-03 0.0
1.007914e+00 -2.715303e-03 0.0
1.008254e+00 -2.500066e-03 0.0
1.008552e+00 -2.298648e-03 0.0
1.008813e+00 -2.110799e-03 0.0
1.009040e+00 -1.936137e-03 0.0
1.009237e+00 -1.774185e-03 0.0
1.009408e+00 -1.624391e-03 0.0
1.009554e+00 -1.486156e-03 0.0
1.009679e+00 -1.358851e-03 0.0
1.009785e+00 -1.241830e-03 0.0
1.009872e+00 -1.134446e-03 0.0
1.009944e+00 -1.036057e-03 0.0
1.010002e+00 -9.460391e-04 0.0
1.010048e+00 -8.637880e-04 0.0
1.010081e+00 -7.887329e-04 0.0
1.010105e+00 -7.203431e-04 0.0
1.010119e+00 -6.581394e-04 0.0
1.010125e+00 -6.017096e-04 0.0
1.010123e+00 -5.507291e-04 0.0
1.010114e+00 -5.049911e-04 0.0
1.010098e+00 -4.644470e-04 0.0
1.010076e+00 -4.292617e-04 0.0
1.010047e+00 -3.998790e-04 0.0
1.010012e+00 -3.770800e-04 0.0
1.009970e+00 -3.619801e-04 0.0
1.009917e+00 -3.558431e-04 0.0
1.009852e+00 -3.595768e-04 0.0
1.009769e+00 -3.723843e-04 0.0
1.009664e+00 -3.921203e-04 0.0
0.000000e+00 -3.857718e-04 0.0
1.000000e+00 -9.426330e-02 0.0
9.930083e-01 -9.301790e-02 0.0
9.848588e-01 -1.072599e-01 0.0
9.743321e-01 -1.392658e-01 0.0
9.615929e-01 -1.978321e-01 0.0
9.511064e-01 -3.012009e-01 0.0
9.681512e-01 -4.797165e-01 0.0
1.113208e+00 -9.394440e-01 0.0
9.368151e-01 -1.796124e-01 0.0
7.668743e-01 -1.838072e-02 0.0
6.687866e-01 -4.007371e-02 0.0
5.912035e-01 -3.696392e-02 0.0
5.149141e-01 -2.783292e-02 0.0
4.671970e-01 -5.602688e-02 0.0
4.715993e-01 -1.077913e-01 0.0
5.175582e-01 -1.346397e-01 0.0
5.886036e-01 -1.229850e-01 0.0
6.725662e-01 -8.138939e-02 0.0
7.489083e-01 -2.245379e-02 0.0
8.077714e-01 3.405829e-02 0.0
8.566621e-01 7.528396e-02 0.0
8.976123e-01 1.105128e-01 0.0
9.297811e-01 1.451675e-01 0.0
9.521164e-01 1.801742e-01 0.0
9.642558e-01 2.141345e-01 0.0
9.667119e-01 2.447529e-01 0.0
9.606997e-01 2.698218e-01 0.0
9.480193e-01 2.872732e-01 0.0
9.309462e-01 2.945364e-01 0.0
9.120000e-01 2.875347e-01 0.0
8.939627e-01 2.648152e-01 0.0
8.787916e-01 2.297033e-01 0.0
8.673947e-01 1.882693e-01 0.0
8.598998e-01 1.468013e-01 0.0
8.560446e-01 1.098208e-01 0.0
8.554016e-01 7.944793e-02 0.0
8.574891e-01 5.580416e-02 0.0
8.618183e-01 3.790206e-02 0.0
8.679387e-01 2.442519e-02 0.0
8.753417e-01 1.434066e-02 0.0
8.835209e-01 6.836874e-03 0.0
8.921255e-01 1.211996e-03 0.0
9.010010e-01 -3.052404e-03 0.0
9.100016e-01 -6.252703e-03 0.0
9.189508e-01 -8.591544e-03 0.0
9.276624e-01 -1.023988e-02 0.0
9.359827e-01 -1.134281e-02 0.0
9.438025e-01 -1.202266e-02 0.0
9.510547e-01 -1.237974e-02 0.0
9.577085e-01 -1.249368e-02 0.0
9.637614e-01 -1.242615e-02 0.0
9.692297e-01 -1.222233e-02 0.0
9.741418e-01 -1.191567e-02 0.0
9.785335e-01 -1.153202e-02 0.0
9.824441e-01 -1.109167e-02 0.0
9.859142e-01 -1.061083e-02 0.0
9.889845e-01 -1.010287e-02 0.0
9.916947e-01 -9.578735e-03 0.0
9.940824e-01 -9.047411e-03 0.0
9.961826e-01 -8.516223e-03 0.0
9.980276e-01 -7.990962e-03 0.0
9.996466e-01 -7.476427e-03 0.0
1.001066e+00 -6.976451e-03 0.0
1.002309e+00 -6.493984e-03 0.0
1.003397e+00 -6.031228e-03 0.0
1.004349e+00 -5.589751e-03 0.0
1.005181e+00 -5.170579e-03 0.0
1.005907e+00 -4.774283e-03 0.0
1.006542e+00 -4.401059e-03 0.0
1.007095e+00 -4.050793e-03 0.0
1.007577e+00 -3.723123e-03 0.0
1.007996e+00 -3.417490e-03 0.0
1.008360e+00 -3.133182e-03 0.0
1.008675e+00 -2.869373e-03 0.0
1.008948e+00 -2.625149e-03 0.0
1.009182e+00 -2.399538e-03 0.0
1.009384e+00 -2.191533e-03 0.0
1.009556e+00 -2.000108e-03 0.0
1.009702e+00 -1.824239e-03 0.0
1.009825e+00 -1.662912e-03 0.0
1.009927e+00 -1.515136e-03 0.0
1.010011e+00 -1.379950e-03 0.0
1.010079e+00 -1.256429e-03 0.0
1.010133e+00 -1.143688e-03 0.0
1.010174e+00 -1.040886e-03 0.0
1.010203e+00 -9.472292e-04 0.0
1.010223e+00 -8.619758e-04 0.0
1.010233e+00 -7.844397e-04 0.0
1.010235e+00 -7.139982e-04 0.0
1.010229e+00 -6.501014e-04 0.0
1.010217e+00 -5.922874e-04 0.0
1.010198e+00 -5.402022e-04 0.0
1.010173e+00 -4.936280e-04 0.0
1.010143e+00 -4.525178e-04 0.0
1.010106e+00 -4.170297e-04 0.0
1.010062e+00 -3.875431e-04 0.0
1.010011e+00 -3.646134e-04 0.0
1.009950e+00 -3.487927e-04 0.0
1.009877e+00 -3.402578e-04 0.0
1.009789e+00 -3.381563e-04 0.0
1.009682e+00 -3.390922e-04 0.0
0.000000e+00 -3.325984e-04 0.0
1.000000e+00 -7.946216e-02 0.0
9.849415e-01 -7.816532e-02 0.0
9.661058e-01 -8.847790e-02 0.0
9.381108e-01 -1.113246e-01 0.0
8.921658e-01 -1.519409e-01 0.0
8.108276e-01 -2.199164e-01 0.0
6.674751e-01 -3.364178e-01 0.0
1.799168e-01 -4.517872e-01 0.0
-9.361306e-01 4.548594e-01 0.0
0.000000e+00 -1.125374e-02 0.0
-6.819576e-02 9.535328e-03 0.0
-1.073765e-01 2.163045e-03 0.0
-6.874580e-02 -6.651733e-02 0.0
-1.218042e-02 -1.126460e-01 0.0
5.544033e-03 -1.255695e-01 0.0
3.023542e-02 -1.593848e-01 0.0
8.282684e-02 -1.756302e-01 0.0
1.685826e-01 -1.671989e-01 0.0
2.776716e-01 -1.315965e-01 0.0
3.882867e-01 -7.661058e-02 0.0
4.808217e-01 -1.730477e-02 0.0
5.541747e-01 3.710608e-02 0.0
6.140737e-01 8.521476e-02 0.0
6.602190e-01 1.339752e-01 0.0
6.926424e-01 1.816573e-01 0.0
7.125487e-01 2.247927e-01 0.0
7.219997e-01 2.603171e-01 0.0
7.239547e-01 2.852644e-01 0.0
7.223414e-01 2.960959e-01 0.0
7.205120e-01 2.893104e-01 0.0
7.202411e-01 2.650323e-01 0.0
7.221101e-01 2.277806e-01 0.0
7.260832e-01 1.842425e-01 0.0
7.320406e-01 1.407900e-01 0.0
7.399698e-01 1.018378e-01 0.0
7.497615e-01 6.960242e-02 0.0
7.611799e-01 4.433195e-02 0.0
7.739003e-01 2.512785e-02 0.0
7.878754e-01 1.039629e-02 0.0
8.030259e-01 -8.636597e-04 0.0
8.191777e-01 -9.368731e-03 0.0
8.359502e-01 -1.561428e-02 0.0
8.528459e-01 -2.000194e-02 0.0
8.693933e-01 -2.285393e-02 0.0
8.852100e-01 -2.446209e-02 0.0
9.000193e-01 -2.510302e-02 0.0
9.136486e-01 -2.502598e-02 0.0
9.260127e-01 -2.444063e-02 0.0
9.370953e-01 -2.351614e-02 0.0
9.469308e-01 -2.238307e-02 0.0
9.555883e-01 -2.113744e-02 0.0
9.631603e-01 -1.984823e-02 0.0
9.697508e-01 -1.856006e-02 0.0
9.754660e-01 -1.730106e-02 0.0
9.804087e-01 -1.608825e-02 0.0
9.846752e-01 -1.493113e-02 0.0
9.883528e-01 -1.383441e-02 0.0
9.915200e-01 -1.279977e-02 0.0
9.942457e-01 -1.182703e-02 0.0
9.965905e-01 -1.091490e-02 0.0
9.986072e-01 -1.006145e-02 0.0
1.000341e+00 -9.264431e-03 0.0
1.001832e+00 -8.521418e-03 0.0
1.003114e+00 -7.829889e-03 0.0
1.004217e+00 -7.187281e-03 0.0
1.005164e+00 -6.591030e-03 0.0
1.005978e+00 -6.038599e-03 0.0
1.006677e+00 -5.527491e-03 0.0
1.007278e+00 -5.055268e-03 0.0
1.007792e+00 -4.619561e-03 0.0
1.008234e+00 -4.218075e-03 0.0
1.008611e+00 -3.848598e-03 0.0
1.008933e+00 -3.509006e-03 0.0
1.009207e+00 -3.197264e-03 0.0
1.009439e+00 -2.911426e-03 0.0
1.009635e+00 -2.649640e-03 0.0
1.009800e+00 -2.410144e-03 0.0
1.009937e+00 -2.191270e-03 0.0
1.010050e+00 -1.991441e-03 0.0
1.010143e+00 -1.809172e-03 0.0
1.010217e+00 -1.643065e-03 0.0
1.010275e+00 -1.491811e-03 0.0
1.010318e+00 -1.354183e-03 0.0
1.010350e+00 -1.229034e-03 0.0
1.010370e+00 -1.115296e-03 0.0
1.010381e+00 -1.011975e-03 0.0
1.010383e+00 -9.181537e-04 0.0
1.010378e+00 -8.329854e-04 0.0
1.010366e+00 -7.556995e-04 0.0
1.010347e+00 -6.856033e-04 0.0
1.010323e+00 -6.220892e-04 0.0
1.010294e+00 -5.646458e-04 0.0
1.010259e+00 -5.128727e-04 0.0
1.010219e+00 -4.664983e-04 0.0
1.010173e+00 -4.253941e-04 0.0
1.010122e+00 -3.895707e-04 0.0
1.010062e+00 -3.591291e-04 0.0
1.009993e+00 -3.341279e-04 0.0
1.009914e+00 -3.143334e-04 0.0
1.009821e+00 -2.990560e-04 0.0
1.009711e+00 -2.836495e-04 0.0
0.000000e+00 -2.770871e-04 0.0
1.000000e+00 -5.882818e-02 0.0
9.791487e-01 -5.751998e-02 0.0
9.528675e-01 -6.225039e-02 0.0
9.132745e-01 -7.178537e-02 0.0
8.465377e-01 -8.525771e-02 0.0
7.235509e-01 -9.698341e-02 0.0
4.718058e-01 -8.472642e-02 0.0
-4.265582e-03 2.438270e-02 0.0
-1.444448e-04 0.000000e+00 0.0
0.000000e+00 -0.000000e+00 0.0
0.000000e+00 -5.339484e-02 0.0
-4.519632e-02 4.730562e-02 0.0
-8.590476e-02 -2.586264e-02 0.0
-1.384824e-01 -6.012210e-02 0.0