# vtk DataFile Version 3.0
Vector Field
ASCII
DATASET RECTILINEAR_GRID
DIMENSIONS 102 22 1
X_COORDINATES 102 double
0.000000 0.100000 0.200000 0.300000 0.400000 0.500000 0.600000 0.700000 0.800000 0.900000 1.000000 1.100000 1.200000 1.300000 1.400000 1.500000 1.600000 1.700000 1.800000 1.900000 2.000000 2.100000 2.200000 2.300000 2.400000 2.500000 2.600000 2.700000 2.800000 2.900000 3.000000 3.100000 3.200000 3.300000 3.400000 3.500000 3.600000 3.700000 3.800000 3.900000 4.000000 4.100000 4.200000 4.300000 4.400000 4.500000 4.600000 4.700000 4.800000 4.900000 5.000000 5.100000 5.200000 5.300000 5.400000 5.500000 5.600000 5.700000 5.800000 5.900000 6.000000 6.100000 6.200000 6.300000 6.400000 6.500000 6.600000 6.700000 6.800000 6.900000 7.000000 7.100000 7.200000 7.300000 7.400000 7.500000 7.600000 7.700000 7.800000 7.900000 8.000000 8.100000 8.200000 8.300000 8.400000 8.500000 8.600000 8.700000 8.800000 8.900000 9.000000 9.100000 9.200000 9.300000 9.400000 9.500000 9.600000 9.700000 9.800000 9.900000 10.000000 10.100000 
Y_COORDINATES 22 double
0.000000 0.100000 0.200000 0.300000 0.400000 0.500000 0.600000 0.700000 0.800000 0.900000 1.000000 1.100000 1.200000 1.300000 1.400000 1.500000 1.600000 1.700000 1.800000 1.900000 2.000000 2.100000 
Z_COORDINATES 1 double
0.0
POINT_DATA 2244
VECTORS Velocity double
0.000000e+00 0.000000e+00 0.0
-1.026024e+00 0.000000e+00 0.0
-1.055163e+00 0.000000e+00 0.0
-1.090506e+00 0.000000e+00 0.0
-1.135082e+00 0.000000e+00 0.0
-1.191525e+00 0.000000e+00 0.0
-1.260094e+00 0.000000e+00 0.0
-1.342043e+00 0.000000e+00 0.0
-1.422314e+00 0.000000e+00 0.0
-1.490964e+00 0.000000e+00 0.0
-1.545968e+00 0.000000e+00 0.0
-1.588692e+00 0.000000e+00 0.0
-1.620698e+00 0.000000e+00 0.0
-1.642762e+00 0.000000e+00 0.0
-1.655123e+00 0.000000e+00 0.0
-1.658267e+00 0.000000e+00 0.0
-1.653272e+00 0.000000e+00 0.0
-1.641312e+00 0.000000e+00 0.0
-1.623472e+00 0.000000e+00 0.0
-1.600608e+00 0.000000e+00 0.0
-1.573262e+00 0.000000e+00 0.0
-1.541673e+00 0.000000e+00 0.0
-1.505856e+00 0.000000e+00 0.0
-1.465728e+00 0.000000e+00 0.0
-1.421230e+00 0.000000e+00 0.0
-1.372393e+00 0.000000e+00 0.0
-1.319332e+00 0.000000e+00 0.0
-1.262234e+00 0.000000e+00 0.0
-1.201537e+00 0.000000e+00 0.0
-1.138518e+00 0.000000e+00 0.0
-1.076003e+00 0.000000e+00 0.0
-1.018961e+00 0.000000e+00 0.0
-9.748703e-01 0.000000e+00 0.0
-9.529181e-01 0.000000e+00 0.0
-9.612940e-01 0.000000e+00 0.0
-1.004306e+00 0.000000e+00 0.0
-1.081894e+00 0.000000e+00 0.0
-1.189525e+00 0.000000e+00 0.0
-1.318018e+00 0.000000e+00 0.0
-1.451447e+00 0.000000e+00 0.0
-1.570418e+00 0.000000e+00 0.0
-1.656165e+00 0.000000e+00 0.0
-1.697026e+00 0.000000e+00 0.0
-1.694708e+00 0.000000e+00 0.0
-1.659238e+00 0.000000e+00 0.0
-1.599318e+00 0.000000e+00 0.0
-1.522256e+00 0.000000e+00 0.0
-1.433763e+00 0.000000e+00 0.0
-1.337830e+00 0.000000e+00 0.0
-1.237924e+00 0.000000e+00 0.0
-1.137974e+00 0.000000e+00 0.0
-1.042608e+00 0.000000e+00 0.0
-9.569148e-01 0.000000e+00 0.0
-8.855597e-01 0.000000e+00 0.0
-8.317447e-01 0.000000e+00 0.0
-7.965764e-01 0.000000e+00 0.0
-7.791137e-01 0.000000e+00 0.0
-7.769670e-01 0.000000e+00 0.0
-7.871689e-01 0.000000e+00 0.0
-8.077228e-01 0.000000e+00 0.0
-8.374417e-01 0.000000e+00 0.0
-8.755092e-01 0.000000e+00 0.0
-9.211662e-01 0.000000e+00 0.0
-9.734314e-01 0.000000e+00 0.0
-1.030866e+00 0.000000e+00 0.0
-1.091634e+00 0.000000e+00 0.0
-1.153568e+00 0.000000e+00 0.0
-1.214513e+00 0.000000e+00 0.0
-1.272451e+00 0.000000e+00 0.0
-1.325500e+00 0.000000e+00 0.0
-1.371970e+00 0.000000e+00 0.0
-1.410450e+00 0.000000e+00 0.0
-1.439918e+00 0.000000e+00 0.0
-1.459878e+00 0.000000e+00 0.0
-1.470473e+00 0.000000e+00 0.0
-1.472352e+00 0.000000e+00 0.0
-1.465741e+00 0.000000e+00 0.0
-1.450079e+00 0.000000e+00 0.0
-1.424495e+00 0.000000e+00 0.0
-1.388108e+00 0.000000e+00 0.0
-1.340563e+00 0.000000e+00 0.0
-1.282877e+00 0.000000e+00 0.0
-1.218144e+00 0.000000e+00 0.0
-1.151249e+00 0.000000e+00 0.0
-1.087203e+00 0.000000e+00 0.0
-1.029756e+00 0.000000e+00 0.0
-9.810824e-01 0.000000e+00 0.0
-9.418872e-01 0.000000e+00 0.0
-9.117311e-01 0.000000e+00 0.0
-8.894462e-01 0.000000e+00 0.0
-8.735582e-01 0.000000e+00 0.0
-8.625992e-01 0.000000e+00 0.0
-8.552861e-01 0.000000e+00 0.0
-8.505887e-01 0.000000e+00 0.0
-8.477304e-01 0.000000e+00 0.0
-8.461566e-01 0.000000e+00 0.0
-8.454960e-01 0.000000e+00 0.0
-8.455197e-01 0.000000e+00 0.0
-8.460539e-01 0.000000e+00 0.0
-8.469836e-01 0.000000e+00 0.0
-8.469836e-01 0.000000e+00 0.0
0.000000e+00 0.000000e+00 0.0
1.000000e+00 -2.612217e-02 0.0
1.025806e+00 -2.592247e-02 0.0
1.054725e+00 -2.898531e-02 0.0
1.089831e+00 -3.517245e-02 0.0
1.134144e+00 -4.437994e-02 0.0
1.190295e+00 -5.621788e-02 0.0
1.258551e+00 -6.832257e-02 0.0
1.340162e+00 -8.167790e-02 0.0
1.420170e+00 -8.007447e-02 0.0
1.488721e+00 -6.861748e-02 0.0
1.543858e+00 -5.520360e-02 0.0
1.586996e+00 -4.320497e-02 0.0
1.619721e+00 -3.279177e-02 0.0
1.642784e+00 -2.312938e-02 0.0
1.656306e+00 -1.358882e-02 0.0
1.660586e+00 -4.346627e-03 0.0
1.656586e+00 3.932974e-03 0.0
1.645458e+00 1.106164e-02 0.0
1.628305e+00 1.708633e-02 0.0
1.606026e+00 2.221230e-02 0.0
1.579214e+00 2.674506e-02 0.0
1.548145e+00 3.100230e-02 0.0
1.512848e+00 3.523040e-02 0.0
1.473230e+00 3.955087e-02 0.0
1.429207e+00 4.395695e-02 0.0
1.380783e+00 4.835758e-02 0.0
1.328064e+00 5.265178e-02 0.0
1.271232e+00 5.676564e-02 0.0
1.210656e+00 6.050886e-02 0.0
1.147402e+00 6.318734e-02 0.0
1.083951e+00 6.338482e-02 0.0
1.024777e+00 5.910731e-02 0.0
9.768240e-01 4.788599e-02 0.0
9.489975e-01 2.775978e-02 0.0
9.498596e-01 -9.287673e-04 0.0
9.844873e-01 -3.469436e-02 0.0
1.053692e+00 -6.927173e-02 0.0
1.154203e+00 -1.005776e-01 0.0
1.278570e+00 -1.244335e-01 0.0
1.412932e+00 -1.344283e-01 0.0
1.538551e+00 -1.256854e-01 0.0
1.636076e+00 -9.759228e-02 0.0
1.690970e+00 -5.496027e-02 0.0
1.700660e+00 -9.756666e-03 0.0
1.674042e+00 2.655085e-02 0.0
1.620170e+00 5.380504e-02 0.0
1.546711e+00 7.339290e-02 0.0
1.460008e+00 8.663658e-02 0.0
1.364675e+00 9.526632e-02 0.0
1.264424e+00 1.001844e-01 0.0
1.163218e+00 1.011385e-01 0.0
1.065631e+00 9.752049e-02 0.0
9.767510e-01 8.881362e-02 0.0
9.014270e-01 7.525732e-02 0.0
8.432267e-01 5.813369e-02 0.0
8.036948e-01 3.946519e-02 0.0
7.822623e-01 2.136587e-02 0.0
7.767694e-01 5.426264e-03 0.0
7.842193e-01 -7.516612e-03 0.0
8.023259e-01 -1.817320e-02 0.0
8.297549e-01 -2.749568e-02 0.0
8.656337e-01 -3.594545e-02 0.0
9.092145e-01 -4.364747e-02 0.0
9.596094e-01 -5.046150e-02 0.0
1.015504e+00 -5.596139e-02 0.0
1.075184e+00 -5.974661e-02 0.0
1.136570e+00 -6.145271e-02 0.0
1.197508e+00 -6.100479e-02 0.0
1.255982e+00 -5.854044e-02 0.0
1.310102e+00 -5.418609e-02 0.0
1.358147e+00 -4.811244e-02 0.0
1.398647e+00 -4.056638e-02 0.0
1.430475e+00 -3.189492e-02 0.0
1.452981e+00 -2.257242e-02 0.0
1.466119e+00 -1.320409e-02 0.0
1.470428e+00 -4.376342e-03 0.0
1.466384e+00 3.977658e-03 0.0
1.453577e+00 1.274068e-02 0.0
1.431202e+00 2.230808e-02 0.0
1.398340e+00 3.279559e-02 0.0
1.354391e+00 4.388184e-02 0.0
1.299843e+00 5.448203e-02 0.0
1.237088e+00 6.268762e-02 0.0
1.170547e+00 6.647471e-02 0.0
1.105373e+00 6.510718e-02 0.0
1.045754e+00 5.955265e-02 0.0
9.943556e-01 5.133171e-02 0.0
9.523137e-01 4.197525e-02 0.0
9.195150e-01 3.273213e-02 0.0
8.949804e-01 2.446790e-02 0.0
8.773005e-01 1.761335e-02 0.0
8.649869e-01 1.224692e-02 0.0
8.566925e-01 8.227752e-03 0.0
8.513101e-01 5.315779e-03 0.0
8.479907e-01 3.252771e-03 0.0
8.461194e-01 1.804662e-03 0.0
8.452778e-01 7.750562e-04 0.0
8.452033e-01 7.828135e-06 0.0
8.456977e-01 -5.610260e-04 0.0
8.466202e-01 -9.891773e-04 0.0
8.469836e-01 -4.300231e-04 0.0
0.000000e+00 -4.359740e-04 0.0
1.000000e+00 -5.255445e-02 0.0
1.026157e+00 -5.214630e-02 0.0
1.055461e+00 -5.830695e-02 0.0
1.091108e+00 -7.083663e-02 0.0
1.136419e+00 -8.970841e-02 0.0
1.194678e+00 -1.144937e-01 0.0
1.266300e+00 -1.399622e-01 0.0
1.357364e+00 -1.727596e-01 0.0
1.442421e+00 -1.651491e-01 0.0
1.511516e+00 -1.377296e-01 0.0
1.565643e+00 -1.093477e-01 0.0
1.608060e+00 -8.563970e-02 0.0
1.640971e+00 -6.572008e-02 0.0
1.665146e+00 -4.732155e-02 0.0
1.680385e+00 -2.884574e-02 0.0
1.686565e+00 -1.054390e-02 0.0
1.684509e+00 5.971980e-03 0.0
1.675397e+00 2.015565e-02 0.0
1.660378e+00 3.208802e-02 0.0
1.640397e+00 4.217625e-02 0.0
1.616075e+00 5.105008e-02 0.0
1.587693e+00 5.936673e-02 0.0
1.555264e+00 6.764128e-02 0.0
1.518669e+00 7.612939e-02 0.0
1.477786e+00 8.482256e-02 0.0
1.432597e+00 9.352906e-02 0.0
1.383233e+00 1.019978e-01 0.0
1.330005e+00 1.099766e-01 0.0
1.273455e+00 1.170418e-01 0.0
1.214492e+00 1.221329e-01 0.0
1.154890e+00 1.229692e-01 0.0
1.098098e+00 1.158820e-01 0.0
1.049510e+00 9.645656e-02 0.0
1.016107e+00 6.114537e-02 0.0
1.004342e+00 1.081852e-02 0.0
1.015986e+00 -4.635607e-02 0.0
1.048831e+00 -1.021340e-01 0.0
1.103250e+00 -1.550138e-01 0.0
1.181464e+00 -2.026652e-01 0.0
1.281319e+00 -2.343003e-01 0.0
1.390694e+00 -2.350783e-01 0.0
1.493195e+00 -2.001102e-01 0.0
1.571906e+00 -1.336890e-01 0.0
1.614300e+00 -5.216797e-02 0.0
1.619397e+00 2.143671e-02 0.0
1.596241e+00 7.694389e-02 0.0
1.551789e+00 1.178270e-01 0.0
1.491411e+00 1.469969e-01 0.0
1.419724e+00 1.669360e-01 0.0
1.340782e+00 1.791098e-01 0.0
1.258333e+00 1.835693e-01 0.0
1.176582e+00 1.792551e-01 0.0
1.099680e+00 1.656980e-01 0.0
1.031198e+00 1.437220e-01 0.0
9.736601e-01 1.156538e-01 0.0
9.284731e-01 8.463486e-02 0.0
8.960074e-01 5.381416e-02 0.0
8.758429e-01 2.557341e-02 0.0
8.671425e-01 1.166326e-03 0.0
8.683483e-01 -1.939638e-02 0.0
8.782778e-01 -3.744252e-02 0.0
8.961787e-01 -5.386377e-02 0.0
9.214252e-01 -6.891130e-02 0.0
9.534809e-01 -8.253461e-02 0.0
9.916289e-01 -9.412674e-02 0.0
1.034667e+00 -1.028020e-01 0.0
1.080949e+00 -1.077527e-01 0.0
1.128520e+00 -1.085926e-01 0.0
1.175502e+00 -1.055398e-01 0.0
1.220147e+00 -9.884834e-02 0.0
1.260878e+00 -8.886051e-02 0.0
1.296349e+00 -7.605479e-02 0.0
1.325507e+00 -6.107050e-02 0.0
1.347627e+00 -4.470999e-02 0.0
1.362255e+00 -2.784984e-02 0.0
1.369002e+00 -1.114086e-02 0.0
1.367434e+00 5.528961e-03 0.0
1.357299e+00 2.285795e-02 0.0
1.338636e+00 4.095389e-02 0.0
1.312100e+00 5.931440e-02 0.0
1.279317e+00 7.664719e-02 0.0
1.242936e+00 9.084579e-02 0.0
1.206082e+00 9.952407e-02 0.0
1.171462e+00 1.010772e-01 0.0
1.140767e+00 9.578526e-02 0.0
1.114723e+00 8.557911e-02 0.0
1.093170e+00 7.286710e-02 0.0
1.075480e+00 5.964776e-02 0.0
1.061051e+00 4.714427e-02 0.0
1.049325e+00 3.617602e-02 0.0
1.039828e+00 2.709327e-02 0.0
1.032167e+00 1.989001e-02 0.0
1.026022e+00 1.435552e-02 0.0
1.021125e+00 1.019595e-02 0.0
1.017251e+00 7.108986e-03 0.0
1.014219e+00 4.819317e-03 0.0
1.011887e+00 3.089704e-03 0.0
1.010149e+00 1.728512e-03 0.0
1.008950e+00 6.206030e-04 0.0
1.008262e+00 -3.183541e-04 0.0
1.007795e+00 1.950460e-05 0.0
0.000000e+00 -2.796845e-06 0.0
1.000000e+00 -7.568796e-02 0.0
1.022869e+00 -7.508170e-02 0.0
1.048957e+00 -8.441240e-02 0.0
1.081717e+00 -1.036148e-01 0.0
1.125202e+00 -1.332103e-01 0.0
1.184232e+00 -1.735408e-01 0.0
1.260447e+00 -2.161946e-01 0.0
1.370550e+00 -2.828803e-01 0.0
1.460484e+00 -2.551002e-01 0.0
1.524652e+00 -2.019157e-01 0.0
1.571736e+00 -1.564483e-01 0.0
1.608474e+00 -1.223951e-01 0.0
1.637987e+00 -9.525104e-02 0.0
1.660940e+00 -7.029187e-02 0.0
1.676453e+00 -4.437627e-02 0.0
1.683354e+00 -1.746252e-02 0.0
1.681941e+00 7.368079e-03 0.0
1.673480e+00 2.859930e-02 0.0
1.659202e+00 4.634883e-02 0.0
1.640173e+00 6.118765e-02 0.0
1.617099e+00 7.410662e-02 0.0
1.590286e+00 8.616241e-02 0.0
1.559720e+00 9.818973e-02 0.0
1.525209e+00 1.106235e-01 0.0
1.486539e+00 1.234743e-01 0.0
1.443619e+00 1.364318e-01 0.0
1.396568e+00 1.490317e-01 0.0
1.345757e+00 1.607702e-01 0.0
1.291805e+00 1.709767e-01 0.0
1.235680e+00 1.782398e-01 0.0
1.179114e+00 1.795183e-01 0.0
1.125112e+00 1.698662e-01 0.0
1.077480e+00 1.440715e-01 0.0
1.039148e+00 9.945962e-02 0.0
1.010605e+00 3.934376e-02 0.0
9.915737e-01 -2.734164e-02 0.0
9.831664e-01 -9.374415e-02 0.0
9.897226e-01 -1.615874e-01 0.0
1.019285e+00 -2.322447e-01 0.0
1.078451e+00 -2.934842e-01 0.0
1.163145e+00 -3.197898e-01 0.0
1.259168e+00 -2.961507e-01 0.0
1.350242e+00 -2.247801e-01 0.0
1.420700e+00 -1.226437e-01 0.0
1.459267e+00 -1.714735e-02 0.0
1.468735e+00 6.745814e-02 0.0
1.455433e+00 1.311120e-01 0.0
1.424342e+00 1.780706e-01 0.0
1.379729e+00 2.115312e-01 0.0
1.325431e+00 2.333907e-01 0.0
1.264892e+00 2.440910e-01 0.0
1.201599e+00 2.425311e-01 0.0
1.139466e+00 2.278133e-01 0.0
1.081801e+00 2.013695e-01 0.0
1.030581e+00 1.668561e-01 0.0
9.868133e-01 1.283856e-01 0.0
9.509150e-01 8.969511e-02 0.0
9.230228e-01 5.344823e-02 0.0
9.033523e-01 2.081943e-02 0.0
8.919958e-01 -8.057287e-03 0.0
8.883298e-01 -3.379386e-02 0.0
8.918760e-01 -5.742741e-02 0.0
9.024699e-01 -7.952262e-02 0.0
9.198405e-01 -9.992260e-02 0.0
9.433713e-01 -1.176749e-01 0.0
9.720832e-01 -1.315313e-01 0.0
1.004669e+00 -1.403562e-01 0.0
1.039496e+00 -1.434372e-01 0.0
1.074772e+00 -1.408325e-01 0.0
1.108886e+00 -1.329799e-01 0.0
1.140444e+00 -1.204357e-01 0.0
1.168293e+00 -1.039210e-01 0.0
1.191520e+00 -8.431571e-02 0.0
1.209414e+00 -6.262150e-02 0.0
1.221357e+00 -3.981018e-02 0.0
1.226722e+00 -1.652282e-02 0.0
1.225052e+00 7.181230e-03 0.0
1.216725e+00 3.116832e-02 0.0
1.202838e+00 5.482361e-02 0.0
1.185258e+00 7.687693e-02 0.0
1.166494e+00 9.539329e-02 0.0
1.149147e+00 1.081757e-01 0.0
1.135073e+00 1.135803e-01 0.0
1.124718e+00 1.114150e-01 0.0
1.117160e+00 1.033260e-01 0.0
1.111203e+00 9.151815e-02 0.0
1.105890e+00 7.816348e-02 0.0
1.100608e+00 6.491199e-02 0.0
1.094941e+00 5.279360e-02 0.0
1.088750e+00 4.235007e-02 0.0
1.082102e+00 3.372407e-02 0.0
1.075173e+00 2.680111e-02 0.0
1.068171e+00 2.134071e-02 0.0
1.061284e+00 1.706545e-02 0.0
1.054668e+00 1.370753e-02 0.0
1.048444e+00 1.102570e-02 0.0
1.042710e+00 8.806519e-03 0.0
1.037557e+00 6.863711e-03 0.0
1.033120e+00 5.040605e-03 0.0
1.029534e+00 3.250603e-03 0.0
1.028150e+00 1.386145e-03 0.0
0.000000e+00 1.325987e-03 0.0
1.000000e+00 -9.377882e-02 0.0
1.017842e+00 -9.299048e-02 0.0
1.038798e+00 -1.053860e-01 0.0
1.066525e+00 -1.313594e-01 0.0
1.106136e+00 -1.728382e-01 0.0
1.164993e+00 -2.324157e-01 0.0
1.248885e+00 -3.001040e-01 0.0
1.390044e+00 -4.240560e-01 0.0
1.475276e+00 -3.403501e-01 0.0
1.521783e+00 -2.484404e-01 0.0
1.552578e+00 -1.872606e-01 0.0
1.577097e+00 -1.469311e-01 0.0
1.598989e+00 -1.171608e-01 0.0
1.618941e+00 -9.026087e-02 0.0
1.635342e+00 -6.079444e-02 0.0
1.645170e+00 -2.730804e-02 0.0
1.646493e+00 6.027736e-03 0.0
1.640543e+00 3.453185e-02 0.0
1.628699e+00 5.817559e-02 0.0
1.612235e+00 7.763442e-02 0.0
1.591998e+00 9.432541e-02 0.0
1.568343e+00 1.098004e-01 0.0
1.541195e+00 1.253198e-01 0.0
1.510234e+00 1.415674e-01 0.0
1.475088e+00 1.586036e-01 0.0
1.435517e+00 1.759845e-01 0.0
1.391566e+00 1.929662e-01 0.0
1.343644e+00 2.086745e-01 0.0
1.292529e+00 2.220739e-01 0.0
1.239261e+00 2.314913e-01 0.0
1.185325e+00 2.334362e-01 0.0
1.133194e+00 2.219800e-01 0.0
1.085025e+00 1.922230e-01 0.0
1.039531e+00 1.449367e-01 0.0
9.918148e-01 8.704222e-02 0.0
9.421411e-01 2.231464e-02 0.0
9.009131e-01 -5.253353e-02 0.0
8.802021e-01 -1.408938e-01 0.0
8.856928e-01 -2.377527e-01 0.0
9.166766e-01 -3.244855e-01 0.0
9.730569e-01 -3.761874e-01 0.0
1.047491e+00 -3.706027e-01 0.0
1.129215e+00 -3.065211e-01 0.0
1.205704e+00 -1.991496e-01 0.0
1.264418e+00 -7.587962e-02 0.0
1.297938e+00 3.392068e-02 0.0
1.310234e+00 1.187988e-01 0.0
1.304998e+00 1.832898e-01 0.0
1.285674e+00 2.308375e-01 0.0
1.255525e+00 2.635220e-01 0.0
1.217635e+00 2.819640e-01 0.0
1.174650e+00 2.854984e-01 0.0
1.129425e+00 2.730207e-01 0.0
1.084593e+00 2.461841e-01 0.0
1.042352e+00 2.090799e-01 0.0
1.004047e+00 1.666730e-01 0.0
9.702743e-01 1.234507e-01 0.0
9.413435e-01 8.236168e-02 0.0
9.175861e-01 4.455943e-02 0.0
8.995815e-01 9.929873e-03 0.0
8.877314e-01 -2.196106e-02 0.0
8.821448e-01 -5.185827e-02 0.0
8.828812e-01 -8.027637e-02 0.0
8.897371e-01 -1.067959e-01 0.0
9.022571e-01 -1.302122e-01 0.0
9.196690e-01 -1.489605e-01 0.0
9.408754e-01 -1.615801e-01 0.0
9.645195e-01 -1.670986e-01 0.0
9.890307e-01 -1.653611e-01 0.0
1.012967e+00 -1.569340e-01 0.0
1.035133e+00 -1.426183e-01 0.0
1.054582e+00 -1.233881e-01 0.0
1.070570e+00 -1.003208e-01 0.0
1.082452e+00 -7.452057e-02 0.0
1.089618e+00 -4.699383e-02 0.0
1.091611e+00 -1.853321e-02 0.0
1.088698e+00 1.007652e-02 0.0
1.082179e+00 3.767076e-02 0.0
1.073966e+00 6.301915e-02 0.0
1.066300e+00 8.452567e-02 0.0
1.061245e+00 1.004309e-01 0.0
1.060018e+00 1.093851e-01 0.0
1.062525e+00 1.110559e-01 0.0
1.067307e+00 1.066157e-01 0.0
1.072642e+00 9.797329e-02 0.0
1.077140e+00 8.700248e-02 0.0
1.079954e+00 7.533218e-02 0.0
1.080726e+00 6.412307e-02 0.0
1.079450e+00 5.405239e-02 0.0
1.076373e+00 4.540945e-02 0.0
1.071870e+00 3.820957e-02 0.0
1.066343e+00 3.231064e-02 0.0
1.060163e+00 2.750303e-02 0.0
1.053647e+00 2.356417e-02 0.0
1.047054e+00 2.028354e-02 0.0
1.040594e+00 1.746822e-02 0.0
1.034446e+00 1.493711e-02 0.0
1.028781e+00 1.251083e-02 0.0
1.023819e+00 9.985581e-03 0.0
1.019828e+00 7.223941e-03 0.0
1.018356e+00 2.841358e-03 0.0
0.000000e+00 2.739368e-03 0.0
1.000000e+00 -1.050652e-01 0.0
1.011060e+00 -1.041174e-01 0.0
1.024649e+00 -1.189922e-01 0.0
1.044180e+00 -1.509079e-01 0.0
1.075631e+00 -2.043061e-01 0.0
1.129519e+00 -2.863217e-01 0.0
1.220598e+00 -3.912001e-01 0.0
1.398850e+00 -6.023256e-01 0.0
1.451553e+00 -3.930698e-01 0.0
1.458519e+00 -2.554238e-01 0.0
1.458252e+00 -1.870112e-01 0.0
1.459742e+00 -1.484382e-01 0.0
1.465961e+00 -1.233979e-01 0.0
1.478240e+00 -1.025564e-01 0.0
1.495265e+00 -7.783719e-02 0.0
1.512583e+00 -4.464384e-02 0.0
1.523074e+00 -4.480514e-03 0.0
1.525377e+00 3.221137e-02 0.0
1.521142e+00 6.239347e-02 0.0
1.512218e+00 8.654119e-02 0.0
1.499749e+00 1.067770e-01 0.0
1.484181e+00 1.253512e-01 0.0
1.465337e+00 1.441460e-01 0.0
1.442673e+00 1.642141e-01 0.0
1.415537e+00 1.857216e-01 0.0
1.383423e+00 2.080813e-01 0.0
1.346170e+00 2.302025e-01 0.0
1.304105e+00 2.507222e-01 0.0
1.258070e+00 2.680908e-01 0.0
1.209194e+00 2.803501e-01 0.0
1.158454e+00 2.841591e-01 0.0
1.106782e+00 2.736342e-01 0.0
1.054260e+00 2.447280e-01 0.0
9.972468e-01 2.019322e-01 0.0
9.291357e-01 1.551359e-01 0.0
8.562161e-01 9.521681e-02 0.0
8.063167e-01 -2.651529e-03 0.0
7.940218e-01 -1.286163e-01 0.0
8.059274e-01 -2.496756e-01 0.0
8.291837e-01 -3.477592e-01 0.0
8.623846e-01 -4.094057e-01 0.0
9.087234e-01 -4.169588e-01 0.0
9.663682e-01 -3.641833e-01 0.0
1.029216e+00 -2.620148e-01 0.0
1.087836e+00 -1.345173e-01 0.0
1.131657e+00 -9.917659e-03 0.0
1.158533e+00 9.190565e-02 0.0
1.170248e+00 1.715578e-01 0.0
1.169093e+00 2.319747e-01 0.0
1.157554e+00 2.750438e-01 0.0
1.138162e+00 3.013387e-01 0.0
1.113117e+00 3.105261e-01 0.0
1.084151e+00 3.019686e-01 0.0
1.053130e+00 2.771885e-01 0.0
1.021663e+00 2.405290e-01 0.0
9.908945e-01 1.974242e-01 0.0
9.616587e-01 1.526692e-01 0.0
9.347357e-01 1.092673e-01 0.0
9.109513e-01 6.832641e-02 0.0
8.911449e-01 2.971885e-02 0.0
8.761679e-01 -7.001367e-03 0.0
8.662847e-01 -4.199253e-02 0.0
8.613932e-01 -7.540225e-02 0.0
8.612857e-01 -1.067058e-01 0.0
8.656858e-01 -1.346297e-01 0.0
8.741456e-01 -1.574377e-01 0.0
8.859362e-01 -1.733880e-01 0.0
9.000341e-01 -1.812140e-01 0.0
9.151479e-01 -1.804923e-01 0.0
9.300009e-01 -1.718044e-01 0.0
9.435556e-01 -1.561903e-01 0.0
9.550475e-01 -1.348974e-01 0.0
9.639265e-01 -1.092172e-01 0.0
9.697842e-01 -8.039572e-02 0.0
9.723937e-01 -4.962069e-02 0.0
9.719991e-01 -1.815600e-02 0.0
9.697468e-01 1.231149e-02 0.0
9.673329e-01 4.006728e-02 0.0
9.665624e-01 6.377228e-02 0.0
9.689311e-01 8.213956e-02 0.0
9.751409e-01 9.420367e-02 0.0
9.847876e-01 9.972103e-02 0.0
9.964400e-01 9.938610e-02 0.0
1.008286e+00 9.475282e-02 0.0
1.018885e+00 8.735608e-02 0.0
1.027279e+00 7.859101e-02 0.0
1.033025e+00 6.956898e-02 0.0
1.036098e+00 6.103291e-02 0.0
1.036751e+00 5.338217e-02 0.0
1.035389e+00 4.675417e-02 0.0
1.032466e+00 4.111535e-02 0.0
1.028418e+00 3.634037e-02 0.0
1.023636e+00 3.226831e-02 0.0
1.018447e+00 2.873556e-02 0.0
1.013123e+00 2.558977e-02 0.0
1.007885e+00 2.268942e-02 0.0
1.002912e+00 1.989235e-02 0.0
9.983703e-01 1.703542e-02 0.0
9.944541e-01 1.388435e-02 0.0
9.914272e-01 1.023348e-02 0.0
9.903995e-01 3.851718e-03 0.0
0.000000e+00 3.706556e-03 0.0
1.000000e+00 -1.080502e-01 0.0
1.002789e+00 -1.069728e-01 0.0
1.006695e+00 -1.229163e-01 0.0
1.013763e+00 -1.579928e-01 0.0
1.029132e+00 -2.196927e-01 0.0
1.064679e+00 -3.218863e-01 0.0
1.147392e+00 -4.739304e-01 0.0
1.354030e+00 -8.089816e-01 0.0
1.322458e+00 -3.615144e-01 0.0
1.257215e+00 -1.901987e-01 0.0
1.208860e+00 -1.386738e-01 0.0
1.173922e+00 -1.135167e-01 0.0
1.151052e+00 -1.005461e-01 0.0
1.144292e+00 -9.581318e-02 0.0
1.155960e+00 -8.952244e-02 0.0
1.182827e+00 -7.152829e-02 0.0
1.216717e+00 -3.838834e-02 0.0
1.242852e+00 6.058912e-03 0.0
1.259027e+00 4.620133e-02 0.0
1.269317e+00 7.623376e-02 0.0
1.275592e+00 1.004847e-01 0.0
1.278688e+00 1.222375e-01 0.0
1.278312e+00 1.445047e-01 0.0
1.273571e+00 1.689376e-01 0.0
1.263371e+00 1.959038e-01 0.0
1.246783e+00 2.246520e-01 0.0
1.223311e+00 2.536575e-01 0.0
1.193087e+00 2.809282e-01 0.0
1.156994e+00 3.041664e-01 0.0
1.116555e+00 3.207723e-01 0.0
1.072356e+00 3.283409e-01 0.0
1.018002e+00 3.279702e-01 0.0
9.371340e-01 3.255789e-01 0.0
8.256169e-01 3.134318e-01 0.0
7.239979e-01 2.567376e-01 0.0
6.835360e-01 1.356613e-01 0.0
6.996945e-01 -1.882738e-02 0.0
7.336920e-01 -1.626312e-01 0.0
7.636825e-01 -2.796835e-01 0.0
7.855529e-01 -3.696471e-01 0.0
8.043076e-01 -4.281778e-01 0.0
8.284625e-01 -4.411311e-01 0.0
8.622492e-01 -3.979873e-01 0.0
9.050753e-01 -3.048583e-01 0.0
9.518585e-01 -1.813179e-01 0.0
9.942351e-01 -5.231157e-02 0.0
1.025458e+00 6.066493e-02 0.0
1.045077e+00 1.519218e-01 0.0
1.054118e+00 2.229165e-01 0.0
1.054255e+00 2.748891e-01 0.0
1.047420e+00 3.081562e-01 0.0
1.035386e+00 3.225431e-01 0.0
1.019185e+00 3.181525e-01 0.0
9.997144e-01 2.966413e-01 0.0
9.778109e-01 2.624151e-01 0.0
9.543705e-01 2.208473e-01 0.0
9.305766e-01 1.764457e-01 0.0
9.078889e-01 1.319376e-01 0.0
8.877070e-01 8.849089e-02 0.0
8.709545e-01 4.645403e-02 0.0
8.580013e-01 5.934465e-03 0.0
8.487245e-01 -3.273313e-02 0.0
8.425691e-01 -6.926426e-02 0.0
8.390963e-01 -1.032503e-01 0.0
8.381619e-01 -1.337127e-01 0.0
8.397480e-01 -1.590412e-01 0.0
8.436835e-01 -1.773409e-01 0.0
8.494604e-01 -1.870083e-01 0.0
8.562187e-01 -1.872679e-01 0.0
8.629546e-01 -1.785577e-01 0.0
8.688208e-01 -1.620739e-01 0.0
8.732398e-01 -1.393338e-01 0.0
8.759279e-01 -1.119227e-01 0.0
8.769099e-01 -8.139504e-02 0.0
8.766065e-01 -4.933471e-02 0.0
8.759606e-01 -1.752748e-02 0.0
8.763335e-01 1.192122e-02 0.0
8.789857e-01 3.739769e-02 0.0
8.848372e-01 5.790338e-02 0.0
8.941796e-01 7.277983e-02 0.0
9.064935e-01 8.187239e-02 0.0
9.205330e-01 8.566410e-02 0.0
9.346872e-01 8.521451e-02 0.0
9.476470e-01 8.177569e-02 0.0
9.585063e-01 7.647942e-02 0.0
9.667853e-01 7.029464e-02 0.0
9.723909e-01 6.394591e-02 0.0
9.755157e-01 5.789078e-02 0.0
9.765240e-01 5.235647e-02 0.0
9.758567e-01 4.740412e-02 0.0
9.739607e-01 4.299393e-02 0.0
9.712472e-01 3.903655e-02 0.0
9.680705e-01 3.542758e-02 0.0
9.647214e-01 3.206728e-02 0.0
9.614254e-01 2.886844e-02 0.0
9.583456e-01 2.575183e-02 0.0
9.555917e-01 2.262883e-02 0.0
9.532371e-01 1.937270e-02 0.0
9.513500e-01 1.575400e-02 0.0
9.500446e-01 1.152150e-02 0.0
9.497862e-01 4.092754e-03 0.0
0.000000e+00 3.904467e-03 0.0
1.000000e+00 -1.020070e-01 0.0
9.937965e-01 -1.008360e-01 0.0
9.863710e-01 -1.155083e-01 0.0
9.766502e-01 -1.482893e-01 0.0
9.648581e-01 -2.079180e-01 0.0
9.555636e-01 -3.126091e-01 0.0
9.743155e-01 -4.926998e-01 0.0
1.121764e+00 -9.564477e-01 0.0
9.434840e-01 -1.832023e-01 0.0
7.734908e-01 -2.017358e-02 0.0
6.800327e-01 -4.523312e-02 0.0
6.104420e-01 -4.394346e-02 0.0
5.500827e-01 -4.020425e-02 0.0
5.200292e-01 -6.577702e-02 0.0
5.314758e-01 -1.009865e-01 0.0
5.747982e-01 -1.148681e-01 0.0
6.382809e-01 -1.018884e-01 0.0
7.110798e-01 -6.675740e-02 0.0
7.767567e-01 -1.949294e-02 0.0
8.275188e-01 2.545418e-02 0.0
8.698708e-01 5.811532e-02 0.0
9.073903e-01 8.470068e-02 0.0
9.397311e-01 1.121464e-01 0.0
9.654442e-01 1.432071e-01 0.0
9.827240e-01 1.786067e-01 0.0
9.899339e-01 2.174248e-01 0.0
9.857231e-01 2.578509e-01 0.0
9.688611e-01 2.977728e-01 0.0
9.377386e-01 3.352715e-01 0.0
8.893428e-01 3.691507e-01 0.0
8.178986e-01 3.997677e-01 0.0
7.176732e-01 4.281783e-01 0.0
6.042440e-01 4.389907e-01 0.0
5.305799e-01 3.870786e-01 0.0
5.304203e-01 2.568798e-01 0.0
5.859268e-01 8.013737e-02 0.0
6.551814e-01 -8.809940e-02 0.0
7.125729e-01 -2.200401e-01 0.0
7.503046e-01 -3.174326e-01 0.0
7.693900e-01 -3.887498e-01 0.0
7.775182e-01 -4.363234e-01 0.0
7.857388e-01 -4.493690e-01 0.0
8.011360e-01 -4.134020e-01 0.0
8.257223e-01 -3.294620e-01 0.0
8.575947e-01 -2.132076e-01 0.0
8.913699e-01 -8.610420e-02 0.0
9.198827e-01 3.213474e-02 0.0
9.406449e-01 1.311422e-01 0.0
9.535366e-01 2.100075e-01 0.0
9.594847e-01 2.689236e-01 0.0
9.598335e-01 3.077900e-01 0.0
9.558179e-01 3.265414e-01 0.0
9.478970e-01 3.260560e-01 0.0
9.361236e-01 3.083972e-01 0.0
9.207722e-01 2.777491e-01 0.0
9.028436e-01 2.387586e-01 0.0
8.842199e-01 1.950519e-01 0.0
8.671696e-01 1.489706e-01 0.0
8.534545e-01 1.021886e-01 0.0
8.436705e-01 5.622056e-02 0.0
8.372270e-01 1.236063e-02 0.0
8.329290e-01 -2.845248e-02 0.0
8.293959e-01 -6.574862e-02 0.0
8.257359e-01 -9.960767e-02 0.0
8.218517e-01 -1.298460e-01 0.0
8.182057e-01 -1.554125e-01 0.0
8.153671e-01 -1.745197e-01 0.0
8.136008e-01 -1.852594e-01 0.0
8.126965e-01 -1.863810e-01 0.0
8.121122e-01 -1.779907e-01 0.0
8.113167e-01 -1.612959e-01 0.0
8.099835e-01 -1.380180e-01 0.0
8.081092e-01 -1.100657e-01 0.0
8.060931e-01 -7.939635e-02 0.0
8.047374e-01 -4.799641e-02 0.0
8.050752e-01 -1.788270e-02 0.0
8.079513e-01 9.027738e-03 0.0
8.138131e-01 3.151854e-02 0.0
8.226592e-01 4.903992e-02 0.0
8.339574e-01 6.146419e-02 0.0
8.467121e-01 6.910033e-02 0.0
8.596945e-01 7.266436e-02 0.0
8.717551e-01 7.313646e-02 0.0
8.821335e-01 7.137995e-02 0.0
8.904160e-01 6.817950e-02 0.0
8.965049e-01 6.418836e-02 0.0
9.005552e-01 5.987826e-02 0.0
9.028863e-01 5.554234e-02 0.0
9.038960e-01 5.132933e-02 0.0
9.039921e-01 4.729069e-02 0.0
9.035424e-01 4.342621e-02 0.0
9.028492e-01 3.971238e-02 0.0
9.021424e-01 3.611694e-02 0.0
9.015861e-01 3.260627e-02 0.0
9.012840e-01 2.915316e-02 0.0
9.012828e-01 2.573567e-02 0.0
9.015749e-01 2.231928e-02 0.0
9.021045e-01 1.882577e-02 0.0
9.027699e-01 1.507119e-02 0.0
9.034440e-01 1.082998e-02 0.0
9.040907e-01 3.428715e-03 0.0
0.000000e+00 3.201263e-03 0.0
1.000000e+00 -8.759240e-02 0.0
9.854647e-01 -8.636737e-02 0.0
9.670523e-01 -9.711332e-02 0.0
9.394920e-01 -1.207464e-01 0.0
8.939980e-01 -1.624414e-01 0.0
8.131894e-01 -2.318179e-01 0.0
6.705234e-01 -3.500512e-01 0.0
1.833009e-01 -4.691932e-01 0.0
-9.438300e-01 4.721358e-01 0.0
0.000000e+00 -2.479155e-02 0.0
-8.840509e-02 2.293169e-02 0.0
-1.224843e-01 -9.881648e-03 0.0
-8.317360e-02 -7.953235e-02 0.0
-2.501394e-02 -1.239541e-01 0.0
1.323041e-02 -1.392482e-01 0.0
5.872586e-02 -1.603809e-01 0.0
1.203036e-01 -1.634835e-01 0.0
1.982566e-01 -1.447278e-01 0.0
2.858835e-01 -1.071373e-01 0.0
3.727661e-01 -6.144579e-02 0.0
4.490770e-01 -1.821295e-02 0.0
5.134083e-01 2.035197e-02 0.0
5.694109e-01 5.612642e-02 0.0
6.160509e-01 9.654965e-02 0.0
6.508153e-01 1.438248e-01 0.0
6.712521e-01 1.969707e-01 0.0
6.749011e-01 2.541845e-01 0.0
6.590745e-01 3.135821e-01 0.0
6.208022e-01 3.735264e-01 0.0
5.576046e-01 4.323308e-01 0.0
4.715854e-01 4.857695e-01 0.0
3.848489e-01 5.148974e-01 0.0
3.480132e-01 4.758090e-01 0.0
3.791038e-01 3.559706e-01 0.0
4.619458e-01 1.740204e-01 0.0
5.615429e-01 -1.947719e-02 0.0
6.494771e-01 -1.760510e-01 0.0
7.176081e-01 -2.881885e-01 0.0
7.614483e-01 -3.612902e-01 0.0
7.801186e-01 -4.074375e-01 0.0
7.797373e-01 -4.359595e-01 0.0
7.735343e-01 -4.431834e-01 0.0
7.730911e-01 -4.129762e-01 0.0
7.818658e-01 -3.382541e-01 0.0
7.990524e-01 -2.304116e-01 0.0
8.212133e-01 -1.082826e-01 0.0
8.428744e-01 1.045631e-02 0.0
8.603590e-01 1.136402e-01 0.0
8.727218e-01 1.976273e-01 0.0
8.802179e-01 2.614101e-01 0.0
8.835432e-01 3.044473e-01 0.0
8.832203e-01 3.268469e-01 0.0
8.791026e-01 3.301563e-01 0.0
8.707833e-01 3.166992e-01 0.0
8.586723e-01 2.898427e-01 0.0
8.445506e-01 2.528628e-01 0.0
8.312064e-01 2.083788e-01 0.0
8.212890e-01 1.588705e-01 0.0
8.162149e-01 1.072454e-01 0.0
8.157913e-01 5.662677e-02 0.0
8.185246e-01 9.609914e-03 0.0
8.221455e-01 -3.209082e-02 0.0
8.243476e-01 -6.796803e-02 0.0
8.234784e-01 -9.875589e-02 0.0
8.191328e-01 -1.255178e-01 0.0
8.119824e-01 -1.482794e-01 0.0
8.033098e-01 -1.658645e-01 0.0
7.943617e-01 -1.763287e-01 0.0
7.858743e-01 -1.779110e-01 0.0
7.780558e-01 -1.701897e-01 0.0
7.709081e-01 -1.541655e-01 0.0
7.644735e-01 -1.316008e-01 0.0
7.589643e-01 -1.045739e-01 0.0
7.548340e-01 -7.528345e-02 0.0
7.526860e-01 -4.586583e-02 0.0
7.530312e-01 -1.824520e-02 0.0
7.559813e-01 6.060176e-03 0.0
7.613716e-01 2.611095e-02 0.0
7.687317e-01 4.166235e-02 0.0
7.773247e-01 5.285389e-02 0.0
7.862961e-01 6.011155e-02 0.0
7.948728e-01 6.407029e-02 0.0
8.025248e-01 6.546706e-02 0.0
8.089750e-01 6.491239e-02 0.0
8.142058e-01 6.293131e-02 0.0
8.183753e-01 6.000141e-02 0.0
8.217425e-01 5.649370e-02 0.0
8.245948e-01 5.267264e-02 0.0
8.272005e-01 4.870632e-02 0.0
8.297848e-01 4.468896e-02 0.0
8.325131e-01 4.068059e-02 0.0
8.354860e-01 3.672205e-02 0.0
8.387512e-01 3.283435e-02 0.0
8.423276e-01 2.901252e-02 0.0
8.462149e-01 2.524850e-02 0.0
8.503801e-01 2.155307e-02 0.0
8.547373e-01 1.794464e-02 0.0
8.591306e-01 1.441513e-02 0.0
8.632913e-01 1.089309e-02 0.0
8.668555e-01 7.248414e-03 0.0
8.686559e-01 1.610962e-03 0.0
0.000000e+00 1.348082e-03 0.0
1.000000e+00 -6.708076e-02 0.0
9.794066e-01 -6.584066e-02 0.0
9.532511e-01 -7.097519e-02 0.0
9.137352e-01 -8.124795e-02 0.0
8.469660e-01 -9.568959e-02 0.0
7.238478e-01 -1.087171e-01 0.0
4.710635e-01 -9.728434e-02 0.0
-5.750883e-03 7.653131e-03 0.0
-4.161162e-05 0.000000e+00 0.0
0.000000e+00 -0.000000e+00 0.0
0.000000e+00 -7.076425e-02 0.0
-7.628190e-02 6.638286e-02 0.0
-1.046997e-01 -5.113200e-02 0.0
-1.290352e-01 -9.963592e-02 0.0
-1.586686e-01 -1.096322e-01 0.0
-1.796807e-01 -1.393863e-01 0.0
-1.724870e-01 -1.706946e-01 0.0
-1.331845e-01 -1.840477e-01 0.0
-6.620771e-02 -1.741314e-01 0.0
1.715211e-02 -1.448230e-01 0.0
1.022604e-01 -1.033387e-01 0.0