# vtk DataFile Version 3.0
Vector Field
ASCII
DATASET RECTILINEAR_GRID
DIMENSIONS 102 22 1
X_COORDINATES 102 double
0.000000 0.100000 0.200000 0.300000 0.400000 0.500000 0.600000 0.700000 0.800000 0.900000 1.000000 1.100000 1.200000 1.300000 1.400000 1.500000 1.600000 1.700000 1.800000 1.900000 2.000000 2.100000 2.200000 2.300000 2.400000 2.500000 2.600000 2.700000 2.800000 2.900000 3.000000 3.100000 3.200000 3.300000 3.400000 3.500000 3.600000 3.700000 3.800000 3.900000 4.000000 4.100000 4.200000 4.300000 4.400000 4.500000 4.600000 4.700000 4.800000 4.900000 5.000000 5.100000 5.200000 5.300000 5.400000 5.500000 5.600000 5.700000 5.800000 5.900000 6.000000 6.100000 6.200000 6.300000 6.400000 6.500000 6.600000 6.700000 6.800000 6.900000 7.000000 7.100000 7.200000 7.300000 7.400000 7.500000 7.600000 7.700000 7.800000 7.900000 8.000000 8.100000 8.200000 8.300000 8.400000 8.500000 8.600000 8.700000 8.800000 8.900000 9.000000 9.100000 9.200000 9.300000 9.400000 9.500000 9.600000 9.700000 9.800000 9.900000 10.000000 10.100000 
Y_COORDINATES 22 double
0.000000 0.100000 0.200000 0.300000 0.400000 0.500000 0.600000 0.700000 0.800000 0.900000 1.000000 1.100000 1.200000 1.300000 1.400000 1.500000 1.600000 1.700000 1.800000 1.900000 2.000000 2.100000 
Z_COORDINATES 1 double
0.0
POINT_DATA 2244
VECTORS Velocity double
0.000000e+00 0.000000e+00 0.0
-1.026541e+00 0.000000e+00 0.0
-1.056225e+00 0.000000e+00 0.0
-1.092164e+00 0.000000e+00 0.0
-1.137409e+00 0.000000e+00 0.0
-1.194619e+00 0.000000e+00 0.0
-1.264050e+00 0.000000e+00 0.0
-1.347015e+00 0.000000e+00 0.0
-1.428201e+00 0.000000e+00 0.0
-1.497410e+00 0.000000e+00 0.0
-1.552428e+00 0.000000e+00 0.0
-1.594478e+00 0.000000e+00 0.0
-1.625025e+00 0.000000e+00 0.0
-1.644875e+00 0.000000e+00 0.0
-1.654503e+00 0.000000e+00 0.0
-1.654791e+00 0.000000e+00 0.0
-1.646979e+00 0.000000e+00 0.0
-1.632257e+00 0.000000e+00 0.0
-1.611639e+00 0.000000e+00 0.0
-1.585866e+00 0.000000e+00 0.0
-1.555382e+00 0.000000e+00 0.0
-1.520384e+00 0.000000e+00 0.0
-1.480930e+00 0.000000e+00 0.0
-1.437065e+00 0.000000e+00 0.0
-1.388900e+00 0.000000e+00 0.0
-1.336623e+00 0.000000e+00 0.0
-1.280457e+00 0.000000e+00 0.0
-1.220726e+00 0.000000e+00 0.0
-1.158348e+00 0.000000e+00 0.0
-1.095731e+00 0.000000e+00 0.0
-1.037772e+00 0.000000e+00 0.0
-9.927508e-01 0.000000e+00 0.0
-9.715791e-01 0.000000e+00 0.0
-9.841986e-01 0.000000e+00 0.0
-1.035351e+00 0.000000e+00 0.0
-1.122646e+00 0.000000e+00 0.0
-1.236230e+00 0.000000e+00 0.0
-1.361064e+00 0.000000e+00 0.0
-1.480002e+00 0.000000e+00 0.0
-1.577123e+00 0.000000e+00 0.0
-1.640388e+00 0.000000e+00 0.0
-1.665714e+00 0.000000e+00 0.0
-1.659004e+00 0.000000e+00 0.0
-1.630030e+00 0.000000e+00 0.0
-1.586561e+00 0.000000e+00 0.0
-1.534373e+00 0.000000e+00 0.0
-1.477261e+00 0.000000e+00 0.0
-1.417548e+00 0.000000e+00 0.0
-1.356741e+00 0.000000e+00 0.0
-1.296087e+00 0.000000e+00 0.0
-1.236950e+00 0.000000e+00 0.0
-1.180871e+00 0.000000e+00 0.0
-1.129347e+00 0.000000e+00 0.0
-1.083575e+00 0.000000e+00 0.0
-1.044248e+00 0.000000e+00 0.0
-1.011505e+00 0.000000e+00 0.0
-9.850066e-01 0.000000e+00 0.0
-9.640832e-01 0.000000e+00 0.0
-9.479011e-01 0.000000e+00 0.0
-9.355951e-01 0.000000e+00 0.0
-9.263585e-01 0.000000e+00 0.0
-9.194899e-01 0.000000e+00 0.0
-9.144089e-01 0.000000e+00 0.0
-9.106521e-01 0.000000e+00 0.0
-9.078606e-01 0.000000e+00 0.0
-9.057627e-01 0.000000e+00 0.0
-9.041584e-01 0.000000e+00 0.0
-9.029033e-01 0.000000e+00 0.0
-9.018963e-01 0.000000e+00 0.0
-9.010687e-01 0.000000e+00 0.0
-9.003751e-01 0.000000e+00 0.0
-8.997870e-01 0.000000e+00 0.0
-8.992874e-01 0.000000e+00 0.0
-8.988669e-01 0.000000e+00 0.0
-8.985208e-01 0.000000e+00 0.0
-8.982474e-01 0.000000e+00 0.0
-8.980462e-01 0.000000e+00 0.0
-8.979182e-01 0.000000e+00 0.0
-8.978640e-01 0.000000e+00 0.0
-8.978793e-01 0.000000e+00 0.0
-8.979569e-01 0.000000e+00 0.0
-8.980889e-01 0.000000e+00 0.0
-8.982673e-01 0.000000e+00 0.0
-8.984848e-01 0.000000e+00 0.0
-8.987341e-01 0.000000e+00 0.0
-8.990090e-01 0.000000e+00 0.0
-8.993030e-01 0.000000e+00 0.0
-8.996102e-01 0.000000e+00 0.0
-8.999250e-01 0.000000e+00 0.0
-9.002420e-01 0.000000e+00 0.0
-9.005557e-01 0.000000e+00 0.0
-9.008606e-01 0.000000e+00 0.0
-9.011517e-01 0.000000e+00 0.0
-9.014245e-01 0.000000e+00 0.0
-9.016757e-01 0.000000e+00 0.0
-9.019040e-01 0.000000e+00 0.0
-9.021121e-01 0.000000e+00 0.0
-9.023121e-01 0.000000e+00 0.0
-9.025369e-01 0.000000e+00 0.0
-9.028961e-01 0.000000e+00 0.0
-9.028961e-01 0.000000e+00 0.0
0.000000e+00 0.000000e+00 0.0
1.000000e+00 -2.664978e-02 0.0
1.026306e+00 -2.643308e-02 0.0
1.055754e+00 -2.952028e-02 0.0
1.091438e+00 -3.575713e-02 0.0
1.136404e+00 -4.503923e-02 0.0
1.193311e+00 -5.697950e-02 0.0
1.262426e+00 -6.918745e-02 0.0
1.345070e+00 -8.271674e-02 0.0
1.426043e+00 -8.104591e-02 0.0
1.495241e+00 -6.927106e-02 0.0
1.550515e+00 -5.534679e-02 0.0
1.593120e+00 -4.267838e-02 0.0
1.624527e+00 -3.147981e-02 0.0
1.645479e+00 -2.102425e-02 0.0
1.656304e+00 -1.089830e-02 0.0
1.657702e+00 -1.470525e-03 0.0
1.650848e+00 6.780868e-03 0.0
1.636927e+00 1.384818e-02 0.0
1.616984e+00 1.987035e-02 0.0
1.591808e+00 2.510316e-02 0.0
1.561884e+00 2.985077e-02 0.0
1.527432e+00 3.437985e-02 0.0
1.488506e+00 3.885242e-02 0.0
1.445130e+00 4.330392e-02 0.0
1.397385e+00 4.767182e-02 0.0
1.345445e+00 5.186720e-02 0.0
1.289528e+00 5.584369e-02 0.0
1.229924e+00 5.953151e-02 0.0
1.167375e+00 6.247567e-02 0.0
1.103934e+00 6.336873e-02 0.0
1.043908e+00 5.995279e-02 0.0
9.948565e-01 4.897873e-02 0.0
9.672725e-01 2.751116e-02 0.0
9.715817e-01 -4.382059e-03 0.0
1.013722e+00 -4.221307e-02 0.0
1.092926e+00 -7.927693e-02 0.0
1.201228e+00 -1.083747e-01 0.0
1.325051e+00 -1.238959e-01 0.0
1.447707e+00 -1.227290e-01 0.0
1.552939e+00 -1.053047e-01 0.0
1.627286e+00 -7.442026e-02 0.0
1.663881e+00 -3.666778e-02 0.0
1.665751e+00 -1.942798e-03 0.0
1.642474e+00 2.320432e-02 0.0
1.602401e+00 4.000049e-02 0.0
1.551884e+00 5.044364e-02 0.0
1.495361e+00 5.644995e-02 0.0
1.435597e+00 5.969173e-02 0.0
1.374358e+00 6.116526e-02 0.0
1.312997e+00 6.128880e-02 0.0
1.252865e+00 6.005867e-02 0.0
1.195487e+00 5.730530e-02 0.0
1.142390e+00 5.302409e-02 0.0
1.094853e+00 4.746371e-02 0.0
1.053692e+00 4.108865e-02 0.0
1.019168e+00 3.445119e-02 0.0
9.910400e-01 2.805497e-02 0.0
9.687005e-01 2.226662e-02 0.0
9.513386e-01 1.728906e-02 0.0
9.380838e-01 1.318196e-02 0.0
9.281064e-01 9.904507e-03 0.0
9.206740e-01 7.359489e-03 0.0
9.151735e-01 5.427647e-03 0.0
9.111111e-01 3.989536e-03 0.0
9.081011e-01 2.937062e-03 0.0
9.058501e-01 2.178094e-03 0.0
9.041401e-01 1.637189e-03 0.0
9.028128e-01 1.254417e-03 0.0
9.017565e-01 9.834041e-04 0.0
9.008944e-01 7.891463e-04 0.0
9.001757e-01 6.458892e-04 0.0
8.995676e-01 5.351847e-04 0.0
8.990505e-01 4.442073e-04 0.0
8.986132e-01 3.643671e-04 0.0
8.982501e-01 2.901965e-04 0.0
8.979588e-01 2.184261e-04 0.0
8.977388e-01 1.471426e-04 0.0
8.975909e-01 7.502993e-05 0.0
8.975162e-01 1.742137e-06 0.0
8.975117e-01 -6.834256e-05 0.0
8.975706e-01 -1.317869e-04 0.0
8.976852e-01 -1.874757e-04 0.0
8.978475e-01 -2.352656e-04 0.0
8.980501e-01 -2.755018e-04 0.0
8.982859e-01 -3.086677e-04 0.0
8.985482e-01 -3.351856e-04 0.0
8.988307e-01 -3.553822e-04 0.0
8.991273e-01 -3.695201e-04 0.0
8.994323e-01 -3.778774e-04 0.0
8.997402e-01 -3.807849e-04 0.0
9.000455e-01 -3.781658e-04 0.0
9.003426e-01 -3.700347e-04 0.0
9.006264e-01 -3.567169e-04 0.0
9.008924e-01 -3.388385e-04 0.0
9.011370e-01 -3.175139e-04 0.0
9.013589e-01 -2.947825e-04 0.0
9.015606e-01 -2.746249e-04 0.0
9.017544e-01 -2.666695e-04 0.0
9.019731e-01 -2.915819e-04 0.0
9.023260e-01 -4.258392e-04 0.0
9.028961e-01 -6.429559e-04 0.0
0.000000e+00 -6.378760e-04 0.0
1.000000e+00 -5.358992e-02 0.0
1.026642e+00 -5.314754e-02 0.0
1.056460e+00 -5.935721e-02 0.0
1.092670e+00 -7.198657e-02 0.0
1.138620e+00 -9.100790e-02 0.0
1.197620e+00 -1.159994e-01 0.0
1.270082e+00 -1.416680e-01 0.0
1.362244e+00 -1.748978e-01 0.0
1.448304e+00 -1.671247e-01 0.0
1.518076e+00 -1.390622e-01 0.0
1.572407e+00 -1.096966e-01 0.0
1.614406e+00 -8.469667e-02 0.0
1.646135e+00 -6.322780e-02 0.0
1.668286e+00 -4.319434e-02 0.0
1.680811e+00 -2.344161e-02 0.0
1.684038e+00 -4.716650e-03 0.0
1.679100e+00 1.169951e-02 0.0
1.667200e+00 2.572966e-02 0.0
1.649419e+00 3.763142e-02 0.0
1.626583e+00 4.792023e-02 0.0
1.599194e+00 5.722143e-02 0.0
1.567463e+00 6.609110e-02 0.0
1.531427e+00 7.486954e-02 0.0
1.491077e+00 8.363514e-02 0.0
1.446472e+00 9.225773e-02 0.0
1.397795e+00 1.005254e-01 0.0
1.345361e+00 1.082585e-01 0.0
1.289633e+00 1.152402e-01 0.0
1.231308e+00 1.207818e-01 0.0
1.171756e+00 1.229017e-01 0.0
1.114176e+00 1.175144e-01 0.0
1.064492e+00 9.864364e-02 0.0
1.031349e+00 6.063520e-02 0.0
1.023168e+00 3.779278e-03 0.0
1.042275e+00 -6.133895e-02 0.0
1.086005e+00 -1.230259e-01 0.0
1.152695e+00 -1.750839e-01 0.0
1.239639e+00 -2.108580e-01 0.0
1.338027e+00 -2.211366e-01 0.0
1.435610e+00 -2.029071e-01 0.0
1.519710e+00 -1.585392e-01 0.0
1.579423e+00 -9.639894e-02 0.0
1.608644e+00 -3.118293e-02 0.0
1.610762e+00 2.106709e-02 0.0
1.594425e+00 5.631823e-02 0.0
1.565583e+00 7.926712e-02 0.0
1.528264e+00 9.374952e-02 0.0
1.485338e+00 1.025987e-01 0.0
1.438838e+00 1.076461e-01 0.0
1.390329e+00 1.097788e-01 0.0
1.341375e+00 1.089938e-01 0.0
1.293657e+00 1.050048e-01 0.0
1.248743e+00 9.791875e-02 0.0
1.207898e+00 8.828954e-02 0.0
1.171929e+00 7.703833e-02 0.0
1.141144e+00 6.521786e-02 0.0
1.115416e+00 5.376398e-02 0.0
1.094315e+00 4.334834e-02 0.0
1.077243e+00 3.434164e-02 0.0
1.063549e+00 2.685720e-02 0.0
1.052605e+00 2.083003e-02 0.0
1.043850e+00 1.609548e-02 0.0
1.036809e+00 1.244943e-02 0.0
1.031093e+00 9.686144e-03 0.0
1.026393e+00 7.618071e-03 0.0
1.022469e+00 6.083806e-03 0.0
1.019137e+00 4.949572e-03 0.0
1.016265e+00 4.107664e-03 0.0
1.013756e+00 3.473655e-03 0.0
1.011543e+00 2.983198e-03 0.0
1.009581e+00 2.588780e-03 0.0
1.007840e+00 2.256579e-03 0.0
1.006302e+00 1.963514e-03 0.0
1.004953e+00 1.694660e-03 0.0
1.003783e+00 1.441110e-03 0.0
1.002784e+00 1.198167e-03 0.0
1.001948e+00 9.637786e-04 0.0
1.001267e+00 7.376796e-04 0.0
1.000728e+00 5.216687e-04 0.0
1.000321e+00 3.195080e-04 0.0
1.000036e+00 1.337909e-04 0.0
9.998639e-01 -3.423362e-05 0.0
9.997937e-01 -1.840771e-04 0.0
9.998152e-01 -3.160095e-04 0.0
9.999181e-01 -4.305441e-04 0.0
1.000092e+00 -5.280584e-04 0.0
1.000326e+00 -6.088275e-04 0.0
1.000611e+00 -6.730802e-04 0.0
1.000935e+00 -7.210168e-04 0.0
1.001288e+00 -7.528934e-04 0.0
1.001661e+00 -7.695863e-04 0.0
1.002044e+00 -7.720620e-04 0.0
1.002429e+00 -7.613001e-04 0.0
1.002810e+00 -7.386380e-04 0.0
1.003179e+00 -7.061326e-04 0.0
1.003533e+00 -6.671913e-04 0.0
1.003867e+00 -6.277799e-04 0.0
1.004179e+00 -5.977588e-04 0.0
1.004464e+00 -5.958766e-04 0.0
1.004682e+00 -6.624906e-04 0.0
1.004837e+00 -8.166003e-04 0.0
0.000000e+00 -8.104180e-04 0.0
1.000000e+00 -7.720583e-02 0.0
1.023328e+00 -7.654843e-02 0.0
1.049906e+00 -8.595376e-02 0.0
1.083207e+00 -1.053073e-01 0.0
1.127310e+00 -1.351299e-01 0.0
1.187068e+00 -1.757757e-01 0.0
1.264110e+00 -2.187292e-01 0.0
1.375454e+00 -2.862608e-01 0.0
1.466430e+00 -2.581199e-01 0.0
1.531327e+00 -2.039783e-01 0.0
1.578786e+00 -1.571749e-01 0.0
1.615421e+00 -1.213505e-01 0.0
1.644141e+00 -9.196667e-02 0.0
1.665398e+00 -6.447059e-02 0.0
1.678262e+00 -3.632419e-02 0.0
1.682044e+00 -8.517727e-03 0.0
1.677678e+00 1.604655e-02 0.0
1.666399e+00 3.698913e-02 0.0
1.649397e+00 5.461474e-02 0.0
1.627591e+00 6.970779e-02 0.0
1.601535e+00 8.325834e-02 0.0
1.571439e+00 9.616812e-02 0.0
1.537282e+00 1.090069e-01 0.0
1.498974e+00 1.219239e-01 0.0
1.456500e+00 1.347136e-01 0.0
1.410017e+00 1.469887e-01 0.0
1.359899e+00 1.583573e-01 0.0
1.306704e+00 1.684167e-01 0.0
1.251202e+00 1.762646e-01 0.0
1.194735e+00 1.793495e-01 0.0
1.139955e+00 1.722754e-01 0.0
1.091033e+00 1.475468e-01 0.0
1.052362e+00 9.928750e-02 0.0
1.026131e+00 2.999107e-02 0.0
1.012653e+00 -4.788024e-02 0.0
1.012435e+00 -1.228268e-01 0.0
1.028833e+00 -1.915006e-01 0.0
1.068271e+00 -2.503151e-01 0.0
1.132804e+00 -2.856890e-01 0.0
1.213279e+00 -2.834011e-01 0.0
1.298138e+00 -2.434168e-01 0.0
1.375060e+00 -1.733396e-01 0.0
1.433060e+00 -8.920239e-02 0.0
1.465039e+00 -1.093083e-02 0.0
1.475602e+00 4.573647e-02 0.0
1.471228e+00 8.362211e-02 0.0
1.455998e+00 1.089602e-01 0.0
1.432748e+00 1.258301e-01 0.0
1.403684e+00 1.366909e-01 0.0
1.370655e+00 1.427886e-01 0.0
1.335224e+00 1.444057e-01 0.0
1.299042e+00 1.411681e-01 0.0
1.263766e+00 1.331752e-01 0.0
1.230730e+00 1.213065e-01 0.0
1.200780e+00 1.069693e-01 0.0
1.174277e+00 9.170215e-02 0.0
1.151191e+00 7.683094e-02 0.0
1.131240e+00 6.327972e-02 0.0
1.114023e+00 5.154022e-02 0.0
1.099112e+00 4.174887e-02 0.0
1.086118e+00 3.380501e-02 0.0
1.074713e+00 2.748193e-02 0.0
1.064635e+00 2.250818e-02 0.0
1.055685e+00 1.861698e-02 0.0
1.047713e+00 1.557071e-02 0.0
1.040609e+00 1.316972e-02 0.0
1.034286e+00 1.125260e-02 0.0
1.028682e+00 9.692891e-03 0.0
1.023742e+00 8.394501e-03 0.0
1.019420e+00 7.286625e-03 0.0
1.015671e+00 6.318901e-03 0.0
1.012451e+00 5.456887e-03 0.0
1.009718e+00 4.677770e-03 0.0
1.007427e+00 3.966718e-03 0.0
1.005535e+00 3.314312e-03 0.0
1.003999e+00 2.714865e-03 0.0
1.002779e+00 2.164609e-03 0.0
1.001837e+00 1.660842e-03 0.0
1.001137e+00 1.202596e-03 0.0
1.000648e+00 7.895979e-04 0.0
1.000342e+00 4.204683e-04 0.0
1.000195e+00 9.376546e-05 0.0
1.000186e+00 -1.935111e-04 0.0
1.000295e+00 -4.441048e-04 0.0
1.000505e+00 -6.599371e-04 0.0
1.000801e+00 -8.425520e-04 0.0
1.001166e+00 -9.932854e-04 0.0
1.001588e+00 -1.113371e-03 0.0
1.002051e+00 -1.204028e-03 0.0
1.002546e+00 -1.266574e-03 0.0
1.003060e+00 -1.302558e-03 0.0
1.003583e+00 -1.313596e-03 0.0
1.004104e+00 -1.301444e-03 0.0
1.004614e+00 -1.268195e-03 0.0
1.005106e+00 -1.216675e-03 0.0
1.005571e+00 -1.151027e-03 0.0
1.006002e+00 -1.077662e-03 0.0
1.006391e+00 -1.006497e-03 0.0
1.006729e+00 -9.530368e-04 0.0
1.006986e+00 -9.386071e-04 0.0
1.007140e+00 -9.890490e-04 0.0
0.000000e+00 -9.808901e-04 0.0
1.000000e+00 -9.573985e-02 0.0
1.018263e+00 -9.488393e-02 0.0
1.039671e+00 -1.073807e-01 0.0
1.067902e+00 -1.335582e-01 0.0
1.108098e+00 -1.753446e-01 0.0
1.167653e+00 -2.353497e-01 0.0
1.252351e+00 -3.034463e-01 0.0
1.394841e+00 -4.287700e-01 0.0
1.480988e+00 -3.442859e-01 0.0
1.528209e+00 -2.512180e-01 0.0
1.559673e+00 -1.886573e-01 0.0
1.584750e+00 -1.464470e-01 0.0
1.606834e+00 -1.140696e-01 0.0
1.626160e+00 -8.381574e-02 0.0
1.640619e+00 -5.080177e-02 0.0
1.647164e+00 -1.508204e-02 0.0
1.645339e+00 1.785243e-02 0.0
1.636435e+00 4.587393e-02 0.0
1.621820e+00 6.921115e-02 0.0
1.602600e+00 8.890873e-02 0.0
1.579424e+00 1.064154e-01 0.0
1.552482e+00 1.230912e-01 0.0
1.521653e+00 1.398165e-01 0.0
1.486704e+00 1.568539e-01 0.0
1.447479e+00 1.739200e-01 0.0
1.404051e+00 1.903977e-01 0.0
1.356816e+00 2.055729e-01 0.0
1.306497e+00 2.187170e-01 0.0
1.254030e+00 2.287126e-01 0.0
1.200584e+00 2.327769e-01 0.0
1.148122e+00 2.247184e-01 0.0
1.098716e+00 1.969333e-01 0.0
1.051715e+00 1.462699e-01 0.0
1.003409e+00 7.827807e-02 0.0
9.549369e-01 5.725659e-04 0.0
9.138441e-01 -8.175304e-02 0.0
8.895780e-01 -1.672535e-01 0.0
8.904821e-01 -2.512382e-01 0.0
9.210799e-01 -3.163058e-01 0.0
9.774486e-01 -3.397888e-01 0.0
1.049582e+00 -3.155687e-01 0.0
1.127044e+00 -2.508210e-01 0.0
1.199112e+00 -1.612895e-01 0.0
1.256030e+00 -6.786733e-02 0.0
1.291621e+00 1.012574e-02 0.0
1.311078e+00 6.414649e-02 0.0
1.318404e+00 1.016154e-01 0.0
1.316207e+00 1.280075e-01 0.0
1.306566e+00 1.463131e-01 0.0
1.291339e+00 1.579964e-01 0.0
1.272113e+00 1.636132e-01 0.0
1.250206e+00 1.630556e-01 0.0
1.227117e+00 1.562451e-01 0.0
1.204130e+00 1.442747e-01 0.0
1.182133e+00 1.289471e-01 0.0
1.161615e+00 1.122013e-01 0.0
1.142749e+00 9.567819e-02 0.0
1.125507e+00 8.050301e-02 0.0
1.109761e+00 6.726696e-02 0.0
1.095358e+00 5.613309e-02 0.0
1.082159e+00 4.698502e-02 0.0
1.070060e+00 3.956192e-02 0.0
1.058993e+00 3.355602e-02 0.0
1.048920e+00 2.867105e-02 0.0
1.039820e+00 2.465090e-02 0.0
1.031682e+00 2.128874e-02 0.0
1.024491e+00 1.842519e-02 0.0
1.018223e+00 1.594213e-02 0.0
1.012843e+00 1.375523e-02 0.0
1.008304e+00 1.180619e-02 0.0
1.004548e+00 1.005583e-02 0.0
1.001507e+00 8.478811e-03 0.0
9.991075e-01 7.058546e-03 0.0
9.972728e-01 5.782438e-03 0.0
9.959286e-01 4.639463e-03 0.0
9.950036e-01 3.620914e-03 0.0
9.944308e-01 2.718344e-03 0.0
9.941515e-01 1.921162e-03 0.0
9.941138e-01 1.221223e-03 0.0
9.942722e-01 6.121839e-04 0.0
9.945899e-01 8.381672e-05 0.0
9.950387e-01 -3.740956e-04 0.0
9.955949e-01 -7.687365e-04 0.0
9.962369e-01 -1.105111e-03 0.0
9.969452e-01 -1.387260e-03 0.0
9.977023e-01 -1.618684e-03 0.0
9.984926e-01 -1.802535e-03 0.0
9.993019e-01 -1.941721e-03 0.0
1.000118e+00 -2.039018e-03 0.0
1.000929e+00 -2.097137e-03 0.0
1.001727e+00 -2.118738e-03 0.0
1.002500e+00 -2.106428e-03 0.0
1.003243e+00 -2.062783e-03 0.0
1.003946e+00 -1.990597e-03 0.0
1.004604e+00 -1.893194e-03 0.0
1.005208e+00 -1.774899e-03 0.0
1.005754e+00 -1.641731e-03 0.0
1.006230e+00 -1.502274e-03 0.0
1.006627e+00 -1.368444e-03 0.0
1.006924e+00 -1.255190e-03 0.0
1.007099e+00 -1.182379e-03 0.0
0.000000e+00 -1.170867e-03 0.0
1.000000e+00 -1.074145e-01 0.0
1.011427e+00 -1.063836e-01 0.0
1.025413e+00 -1.213854e-01 0.0
1.045392e+00 -1.535561e-01 0.0
1.077366e+00 -2.073384e-01 0.0
1.131875e+00 -2.898771e-01 0.0
1.223657e+00 -3.952471e-01 0.0
1.403092e+00 -6.082249e-01 0.0
1.456295e+00 -3.975074e-01 0.0
1.463755e+00 -2.586972e-01 0.0
1.464455e+00 -1.893758e-01 0.0
1.467483e+00 -1.494941e-01 0.0
1.475695e+00 -1.223012e-01 0.0
1.489848e+00 -9.798736e-02 0.0
1.507537e+00 -6.851021e-02 0.0
1.522947e+00 -3.051069e-02 0.0
1.529549e+00 1.123085e-02 0.0
1.528382e+00 4.702262e-02 0.0
1.521212e+00 7.636154e-02 0.0
1.509496e+00 1.006057e-01 0.0
1.494077e+00 1.218161e-01 0.0
1.475127e+00 1.420220e-01 0.0
1.452352e+00 1.625722e-01 0.0
1.425263e+00 1.839242e-01 0.0
1.393445e+00 2.057194e-01 0.0
1.356772e+00 2.270510e-01 0.0
1.315559e+00 2.467677e-01 0.0
1.270604e+00 2.636529e-01 0.0
1.223022e+00 2.762750e-01 0.0
1.173735e+00 2.820454e-01 0.0
1.123103e+00 2.753308e-01 0.0
1.070402e+00 2.496151e-01 0.0
1.012141e+00 2.045118e-01 0.0
9.421673e-01 1.482333e-01 0.0
8.626690e-01 8.005181e-02 0.0
7.962946e-01 -1.539765e-02 0.0
7.607985e-01 -1.317764e-01 0.0
7.525690e-01 -2.430277e-01 0.0
7.649655e-01 -3.287213e-01 0.0
7.980694e-01 -3.729118e-01 0.0
8.480771e-01 -3.655954e-01 0.0
9.096845e-01 -3.124474e-01 0.0
9.759776e-01 -2.276016e-01 0.0
1.038740e+00 -1.306485e-01 0.0
1.089584e+00 -4.073736e-02 0.0
1.125071e+00 2.864019e-02 0.0
1.148836e+00 7.783137e-02 0.0
1.163047e+00 1.137779e-01 0.0
1.169490e+00 1.398503e-01 0.0
1.169856e+00 1.576119e-01 0.0
1.165698e+00 1.677526e-01 0.0
1.158067e+00 1.706676e-01 0.0
1.147910e+00 1.663830e-01 0.0
1.136162e+00 1.560030e-01 0.0
1.123547e+00 1.415433e-01 0.0
1.110558e+00 1.251716e-01 0.0
1.097511e+00 1.087062e-01 0.0
1.084610e+00 9.338509e-02 0.0
1.072000e+00 7.985766e-02 0.0
1.059806e+00 6.830823e-02 0.0
1.048150e+00 5.862217e-02 0.0
1.037158e+00 5.053494e-02 0.0
1.026955e+00 4.373939e-02 0.0
1.017658e+00 3.794950e-02 0.0
1.009359e+00 3.293076e-02 0.0
1.002121e+00 2.850795e-02 0.0
9.959688e-01 2.455816e-02 0.0
9.908926e-01 2.099930e-02 0.0
9.868490e-01 1.777982e-02 0.0
9.837683e-01 1.486797e-02 0.0
9.815622e-01 1.224287e-02 0.0
9.801307e-01 9.891299e-03 0.0
9.793657e-01 7.804542e-03 0.0
9.791578e-01 5.971262e-03 0.0
9.794059e-01 4.372406e-03 0.0
9.800159e-01 2.991922e-03 0.0
9.808990e-01 1.816147e-03 0.0
9.819834e-01 8.178370e-04 0.0
9.832156e-01 -3.007836e-05 0.0
9.845604e-01 -7.515944e-04 0.0
9.859876e-01 -1.362413e-03 0.0
9.874692e-01 -1.874675e-03 0.0
9.889796e-01 -2.298181e-03 0.0
9.904967e-01 -2.641265e-03 0.0
9.920018e-01 -2.911313e-03 0.0
9.934791e-01 -3.114979e-03 0.0
9.949158e-01 -3.258265e-03 0.0
9.963016e-01 -3.346549e-03 0.0
9.976283e-01 -3.384708e-03 0.0
9.988893e-01 -3.377225e-03 0.0
1.000080e+00 -3.328103e-03 0.0
1.001195e+00 -3.240891e-03 0.0
1.002232e+00 -3.118892e-03 0.0
1.003188e+00 -2.965317e-03 0.0
1.004059e+00 -2.783498e-03 0.0
1.004843e+00 -2.577227e-03 0.0
1.005533e+00 -2.351246e-03 0.0
1.006124e+00 -2.111872e-03 0.0
1.006603e+00 -1.867186e-03 0.0
1.006959e+00 -1.629435e-03 0.0
1.007156e+00 -1.399257e-03 0.0
0.000000e+00 -1.382620e-03 0.0
1.000000e+00 -1.107164e-01 0.0
1.003086e+00 -1.095420e-01 0.0
1.007315e+00 -1.256338e-01 0.0
1.014746e+00 -1.610063e-01 0.0
1.030535e+00 -2.231461e-01 0.0
1.066545e+00 -3.259064e-01 0.0
1.149702e+00 -4.784225e-01 0.0
1.357090e+00 -8.156326e-01 0.0
1.325120e+00 -3.655559e-01 0.0
1.259566e+00 -1.931628e-01 0.0
1.211949e+00 -1.417773e-01 0.0
1.179053e+00 -1.166178e-01 0.0
1.160076e+00 -1.033424e-01 0.0
1.159141e+00 -9.707148e-02 0.0
1.176808e+00 -8.619670e-02 0.0
1.207508e+00 -6.122966e-02 0.0
1.239679e+00 -2.095877e-02 0.0
1.260751e+00 2.593200e-02 0.0
1.273483e+00 6.361030e-02 0.0
1.280639e+00 9.343062e-02 0.0
1.283791e+00 1.186444e-01 0.0
1.283200e+00 1.425949e-01 0.0
1.278313e+00 1.674398e-01 0.0
1.268231e+00 1.939876e-01 0.0
1.252121e+00 2.218104e-01 0.0
1.229524e+00 2.496287e-01 0.0
1.200563e+00 2.757094e-01 0.0
1.166097e+00 2.981003e-01 0.0
1.127725e+00 3.146274e-01 0.0
1.086751e+00 3.230010e-01 0.0
1.038923e+00 3.231398e-01 0.0
9.700098e-01 3.185090e-01 0.0
8.689347e-01 3.055679e-01 0.0
7.585393e-01 2.586097e-01 0.0
6.851589e-01 1.534132e-01 0.0
6.600942e-01 9.648026e-03 0.0
6.599448e-01 -1.316461e-01 0.0
6.659679e-01 -2.490698e-01 0.0
6.742926e-01 -3.370651e-01 0.0
6.895966e-01 -3.882347e-01 0.0
7.167142e-01 -3.927320e-01 0.0
7.559781e-01 -3.517303e-01 0.0
8.049123e-01 -2.765548e-01 0.0
8.583172e-01 -1.840724e-01 0.0
9.093707e-01 -9.180990e-02 0.0
9.509179e-01 -1.292593e-02 0.0
9.823619e-01 4.636829e-02 0.0
1.005362e+00 9.075925e-02 0.0
1.021370e+00 1.238228e-01 0.0
1.031835e+00 1.471282e-01 0.0
1.038097e+00 1.614718e-01 0.0
1.041178e+00 1.675669e-01 0.0
1.041430e+00 1.661118e-01 0.0
1.039246e+00 1.581686e-01 0.0
1.034983e+00 1.457873e-01 0.0
1.028981e+00 1.311546e-01 0.0
1.021590e+00 1.160782e-01 0.0
1.013183e+00 1.017728e-01 0.0
1.004154e+00 8.886757e-02 0.0
9.949018e-01 7.754147e-02 0.0
9.858094e-01 6.769556e-02 0.0
9.772213e-01 5.910402e-02 0.0
9.694233e-01 5.151830e-02 0.0
9.626312e-01 4.472262e-02 0.0
9.569865e-01 3.855644e-02 0.0
9.525564e-01 3.291911e-02 0.0
9.493412e-01 2.775425e-02 0.0
9.472904e-01 2.303117e-02 0.0
9.463135e-01 1.873768e-02 0.0
9.462920e-01 1.487042e-02 0.0
9.470958e-01 1.142008e-02 0.0
9.485921e-01 8.376016e-03 0.0
9.506418e-01 5.735778e-03 0.0
9.531010e-01 3.493089e-03 0.0
9.558494e-01 1.604972e-03 0.0
9.587982e-01 2.409616e-05 0.0
9.618926e-01 -1.297250e-03 0.0
9.650799e-01 -2.388500e-03 0.0
9.683068e-01 -3.275966e-03 0.0
9.715205e-01 -3.984363e-03 0.0
9.746755e-01 -4.536379e-03 0.0
9.777347e-01 -4.952909e-03 0.0
9.806702e-01 -5.252691e-03 0.0
9.834621e-01 -5.452165e-03 0.0
9.860974e-01 -5.565650e-03 0.0
9.885689e-01 -5.605494e-03 0.0
9.908739e-01 -5.582267e-03 0.0
9.930130e-01 -5.504668e-03 0.0
9.949892e-01 -5.379902e-03 0.0
9.968068e-01 -5.213882e-03 0.0
9.984712e-01 -5.011477e-03 0.0
9.999880e-01 -4.776700e-03 0.0
1.001363e+00 -4.512825e-03 0.0
1.002601e+00 -4.222530e-03 0.0
1.003707e+00 -3.908117e-03 0.0
1.004682e+00 -3.571723e-03 0.0
1.005527e+00 -3.215594e-03 0.0
1.006239e+00 -2.842592e-03 0.0
1.006809e+00 -2.455979e-03 0.0
1.007226e+00 -2.065320e-03 0.0
1.007444e+00 -1.635986e-03 0.0
0.000000e+00 -1.612323e-03 0.0
1.000000e+00 -1.049039e-01 0.0
9.940098e-01 -1.036247e-01 0.0
9.868145e-01 -1.184576e-01 0.0
9.773466e-01 -1.515574e-01 0.0
9.658327e-01 -2.116512e-01 0.0
9.568125e-01 -3.169053e-01 0.0
9.756816e-01 -4.973106e-01 0.0
1.122885e+00 -9.628550e-01 0.0
9.434042e-01 -1.860402e-01 0.0
7.712159e-01 -2.093958e-02 0.0
6.771524e-01 -4.773281e-02 0.0
6.077355e-01 -4.721999e-02 0.0
5.509634e-01 -4.658932e-02 0.0
5.319119e-01 -7.803900e-02 0.0
5.555601e-01 -1.098639e-01 0.0
6.086458e-01 -1.143344e-01 0.0
6.793833e-01 -9.171531e-02 0.0
7.534806e-01 -4.818430e-02 0.0
8.129474e-01 4.124543e-03 0.0
8.590557e-01 4.730332e-02 0.0
8.984099e-01 7.927123e-02 0.0
9.319861e-01 1.089996e-01 0.0
9.589282e-01 1.404787e-01 0.0
9.776824e-01 1.752143e-01 0.0
9.867688e-01 2.127050e-01 0.0
9.850088e-01 2.513697e-01 0.0
9.713897e-01 2.893094e-01 0.0
9.446285e-01 3.248425e-01 0.0
9.023015e-01 3.569354e-01 0.0
8.396037e-01 3.856798e-01 0.0
7.508585e-01 4.118660e-01 0.0
6.434020e-01 4.259464e-01 0.0
5.578136e-01 3.911373e-01 0.0
5.290629e-01 2.873414e-01 0.0
5.482749e-01 1.341822e-01 0.0
5.828720e-01 -2.496805e-02 0.0
6.105010e-01 -1.592941e-01 0.0
6.252963e-01 -2.638841e-01 0.0
6.298999e-01 -3.416876e-01 0.0
6.324069e-01 -3.907608e-01 0.0
6.412640e-01 -4.016081e-01 0.0
6.602259e-01 -3.707112e-01 0.0
6.898217e-01 -3.061695e-01 0.0
7.276235e-01 -2.218932e-01 0.0
7.687295e-01 -1.329349e-01 0.0
8.073455e-01 -5.156096e-02 0.0
8.388012e-01 1.489360e-02 0.0
8.637249e-01 6.581659e-02 0.0
8.831112e-01 1.044175e-01 0.0
8.980983e-01 1.321221e-01 0.0
9.097008e-01 1.498504e-01 0.0
9.186281e-01 1.586206e-01 0.0
9.249286e-01 1.597922e-01 0.0
9.284921e-01 1.545861e-01 0.0
9.293520e-01 1.449084e-01 0.0
9.277442e-01 1.327434e-01 0.0
9.241118e-01 1.196916e-01 0.0
9.190511e-01 1.068145e-01 0.0
9.132239e-01 9.467569e-02 0.0
9.072686e-01 8.347780e-02 0.0
9.017266e-01 7.321859e-02 0.0
8.970018e-01 6.380979e-02 0.0
8.933511e-01 5.514995e-02 0.0
8.909056e-01 4.714916e-02 0.0
8.897081e-01 3.973486e-02 0.0
8.897313e-01 3.287696e-02 0.0
8.908941e-01 2.657239e-02 0.0
8.930928e-01 2.081345e-02 0.0
8.962095e-01 1.560197e-02 0.0
9.001035e-01 1.095744e-02 0.0
9.046378e-01 6.866751e-03 0.0
9.097013e-01 3.293452e-03 0.0
9.151953e-01 2.227594e-04 0.0
9.210464e-01 -2.376976e-03 0.0
9.271542e-01 -4.521902e-03 0.0
9.334007e-01 -6.241340e-03 0.0
9.396578e-01 -7.573394e-03 0.0
9.458113e-01 -8.561012e-03 0.0
9.517671e-01 -9.250816e-03 0.0
9.574532e-01 -9.689494e-03 0.0
9.628193e-01 -9.921432e-03 0.0
9.678341e-01 -9.986721e-03 0.0
9.724824e-01 -9.920085e-03 0.0
9.767615e-01 -9.750287e-03 0.0
9.806778e-01 -9.500919e-03 0.0
9.842442e-01 -9.190912e-03 0.0
9.874780e-01 -8.835071e-03 0.0
9.903993e-01 -8.444945e-03 0.0
9.930296e-01 -8.029242e-03 0.0
9.953909e-01 -7.594255e-03 0.0
9.975046e-01 -7.144157e-03 0.0
9.993905e-01 -6.681621e-03 0.0
1.001067e+00 -6.208126e-03 0.0
1.002549e+00 -5.724137e-03 0.0
1.003852e+00 -5.229299e-03 0.0
1.004983e+00 -4.722589e-03 0.0
1.005951e+00 -4.202445e-03 0.0
1.006757e+00 -3.666943e-03 0.0
1.007395e+00 -3.113058e-03 0.0
1.007857e+00 -2.546255e-03 0.0
1.008082e+00 -1.880265e-03 0.0
0.000000e+00 -1.848018e-03 0.0
1.000000e+00 -9.062506e-02 0.0
9.855866e-01 -8.928408e-02 0.0
9.673012e-01 -1.001911e-01 0.0
9.398691e-01 -1.241443e-01 0.0
8.945100e-01 -1.663111e-01 0.0
8.139310e-01 -2.363452e-01 0.0
6.719220e-01 -3.553206e-01 0.0
1.861479e-01 -4.770461e-01 0.0
-9.441394e-01 4.803687e-01 0.0
0.000000e+00 -2.872313e-02 0.0
-9.550528e-02 2.676004e-02 0.0
-1.304759e-01 -1.226836e-02 0.0
-8.882660e-02 -8.825763e-02 0.0
-2.448682e-02 -1.423978e-01 0.0
2.391553e-02 -1.582853e-01 0.0
8.212750e-02 -1.725653e-01 0.0
1.563333e-01 -1.659401e-01 0.0
2.443976e-01 -1.362676e-01 0.0
3.375712e-01 -8.906802e-02 0.0
4.229423e-01 -3.808677e-02 0.0
4.931542e-01 9.040297e-03 0.0
5.528223e-01 4.931245e-02 0.0
6.026788e-01 9.060319e-02 0.0
6.404874e-01 1.373868e-01 0.0
6.639822e-01 1.891911e-01 0.0
6.709721e-01 2.443608e-01 0.0
6.590668e-01 3.011958e-01 0.0
6.256330e-01 3.582573e-01 0.0
5.685330e-01 4.140164e-01 0.0
4.894128e-01 4.647810e-01 0.0
4.050831e-01 4.961767e-01 0.0
3.581689e-01 4.728416e-01 0.0
3.674785e-01 3.818087e-01 0.0
4.222158e-01 2.325851e-01 0.0
4.958025e-01 6.057650e-02 0.0
5.611328e-01 -9.031730e-02 0.0
6.068905e-01 -2.050708e-01 0.0
6.295424e-01 -2.865550e-01 0.0
6.312486e-01 -3.434129e-01 0.0
6.211173e-01 -3.806485e-01 0.0
6.120538e-01 -3.925636e-01 0.0
6.115295e-01 -3.702059e-01 0.0
6.217421e-01 -3.164011e-01 0.0
6.418775e-01 -2.420476e-01 0.0
6.686080e-01 -1.596845e-01 0.0
6.972511e-01 -8.022309e-02 0.0
7.232408e-01 -1.111513e-02 0.0
7.449574e-01 4.408099e-02 0.0
7.628961e-01 8.645978e-02 0.0
7.777798e-01 1.172194e-01 0.0
7.901699e-01 1.374413e-01 0.0
8.003267e-01 1.484448e-01 0.0
8.081723e-01 1.519275e-01 0.0
8.133798e-01 1.493596e-01 0.0
8.159742e-01 1.422951e-01 0.0
8.163445e-01 1.323540e-01 0.0
8.151682e-01 1.208489e-01 0.0
8.132430e-01 1.087206e-01 0.0
8.113175e-01 9.658222e-02 0.0
8.099861e-01 8.479017e-02 0.0
8.096454e-01 7.354032e-02 0.0
8.105092e-01 6.292693e-02 0.0
8.126406e-01 5.299954e-02 0.0
8.160056e-01 4.376511e-02 0.0
8.205653e-01 3.515616e-02 0.0
8.262632e-01 2.716006e-02 0.0
8.329957e-01 1.982089e-02 0.0
8.406693e-01 1.312087e-02 0.0
8.492132e-01 7.038995e-03 0.0
8.584806e-01 1.671051e-03 0.0
8.682568e-01 -2.928438e-03 0.0
8.783154e-01 -6.784197e-03 0.0
8.884586e-01 -9.939462e-03 0.0
8.985028e-01 -1.244017e-02 0.0
9.083000e-01 -1.433811e-02 0.0
9.177351e-01 -1.569549e-02 0.0
9.267219e-01 -1.657920e-02 0.0
9.352003e-01 -1.705836e-02 0.0
9.431321e-01 -1.720166e-02 0.0
9.504965e-01 -1.707287e-02 0.0
9.572872e-01 -1.673120e-02 0.0
9.635099e-01 -1.622841e-02 0.0
9.691791e-01 -1.560830e-02 0.0
9.743172e-01 -1.490745e-02 0.0
9.789525e-01 -1.415518e-02 0.0
9.831168e-01 -1.337424e-02 0.0
9.868444e-01 -1.258165e-02 0.0
9.901701e-01 -1.178969e-02 0.0
9.931285e-01 -1.100663e-02 0.0
9.957526e-01 -1.023746e-02 0.0
9.980740e-01 -9.484509e-03 0.0
1.000121e+00 -8.748059e-03 0.0
1.001921e+00 -8.026742e-03 0.0
1.003496e+00 -7.317820e-03 0.0
1.004865e+00 -6.617381e-03 0.0
1.006044e+00 -5.920404e-03 0.0
1.007043e+00 -5.220704e-03 0.0
1.007868e+00 -4.510824e-03 0.0
1.008516e+00 -3.780522e-03 0.0
1.008981e+00 -3.029982e-03 0.0
1.009191e+00 -2.109960e-03 0.0
0.000000e+00 -2.068571e-03 0.0
1.000000e+00 -7.015395e-02 0.0
9.794377e-01 -6.879463e-02 0.0
9.533076e-01 -7.408006e-02 0.0
9.137968e-01 -8.465245e-02 0.0
8.469817e-01 -9.951503e-02 0.0
7.238238e-01 -1.132064e-01 0.0
4.707167e-01 -1.022325e-01 0.0
-5.903141e-03 -3.914073e-04 0.0
-4.620184e-05 0.000000e+00 0.0
0.000000e+00 -0.000000e+00 0.0
0.000000e+00 -8.107133e-02 0.0
-8.910530e-02 7.681793e-02 0.0
-1.152929e-01 -6.208902e-02 0.0
-1.367837e-01 -1.209260e-01 0.0
-1.635771e-01 -1.315109e-01 0.0
-1.756302e-01 -1.605312e-01 0.0
-1.551889e-01 -1.864005e-01 0.0
-1.004975e-01 -1.909780e-01 0.0
-1.906197e-02 -1.705225e-01 0.0