# vtk DataFile Version 3.0
Vector Field
ASCII
DATASET RECTILINEAR_GRID
DIMENSIONS 102 22 1
X_COORDINATES 102 double
0.000000 0.100000 0.200000 0.300000 0.400000 0.500000 0.600000 0.700000 0.800000 0.900000 1.000000 1.100000 1.200000 1.300000 1.400000 1.500000 1.600000 1.700000 1.800000 1.900000 2.000000 2.100000 2.200000 2.300000 2.400000 2.500000 2.600000 2.700000 2.800000 2.900000 3.000000 3.100000 3.200000 3.300000 3.400000 3.500000 3.600000 3.700000 3.800000 3.900000 4.000000 4.100000 4.200000 4.300000 4.400000 4.500000 4.600000 4.700000 4.800000 4.900000 5.000000 5.100000 5.200000 5.300000 5.400000 5.500000 5.600000 5.700000 5.800000 5.900000 6.000000 6.100000 6.200000 6.300000 6.400000 6.500000 6.600000 6.700000 6.800000 6.900000 7.000000 7.100000 7.200000 7.300000 7.400000 7.500000 7.600000 7.700000 7.800000 7.900000 8.000000 8.100000 8.200000 8.300000 8.400000 8.500000 8.600000 8.700000 8.800000 8.900000 9.000000 9.100000 9.200000 9.300000 9.400000 9.500000 9.600000 9.700000 9.800000 9.900000 10.000000 10.100000 
Y_COORDINATES 22 double
0.000000 0.100000 0.200000 0.300000 0.400000 0.500000 0.600000 0.700000 0.800000 0.900000 1.000000 1.100000 1.200000 1.300000 1.400000 1.500000 1.600000 1.700000 1.800000 1.900000 2.000000 2.100000 
Z_COORDINATES 1 double
0.0
POINT_DATA 2244
VECTORS Velocity double
0.000000e+00 0.000000e+00 0.0
-1.026541e+00 0.000000e+00 0.0
-1.056225e+00 0.000000e+00 0.0
-1.092163e+00 0.000000e+00 0.0
-1.137407e+00 0.000000e+00 0.0
-1.194616e+00 0.000000e+00 0.0
-1.264046e+00 0.000000e+00 0.0
-1.347010e+00 0.000000e+00 0.0
-1.428196e+00 0.000000e+00 0.0
-1.497405e+00 0.000000e+00 0.0
-1.552425e+00 0.000000e+00 0.0
-1.594476e+00 0.000000e+00 0.0
-1.625027e+00 0.000000e+00 0.0
-1.644880e+00 0.000000e+00 0.0
-1.654512e+00 0.000000e+00 0.0
-1.654804e+00 0.000000e+00 0.0
-1.646996e+00 0.000000e+00 0.0
-1.632276e+00 0.000000e+00 0.0
-1.611659e+00 0.000000e+00 0.0
-1.585888e+00 0.000000e+00 0.0
-1.555406e+00 0.000000e+00 0.0
-1.520409e+00 0.000000e+00 0.0
-1.480956e+00 0.000000e+00 0.0
-1.437091e+00 0.000000e+00 0.0
-1.388926e+00 0.000000e+00 0.0
-1.336650e+00 0.000000e+00 0.0
-1.280484e+00 0.000000e+00 0.0
-1.220752e+00 0.000000e+00 0.0
-1.158373e+00 0.000000e+00 0.0
-1.095753e+00 0.000000e+00 0.0
-1.037787e+00 0.000000e+00 0.0
-9.927528e-01 0.000000e+00 0.0
-9.715610e-01 0.000000e+00 0.0
-9.841550e-01 0.000000e+00 0.0
-1.035280e+00 0.000000e+00 0.0
-1.122551e+00 0.000000e+00 0.0
-1.236119e+00 0.000000e+00 0.0
-1.360951e+00 0.000000e+00 0.0
-1.479901e+00 0.000000e+00 0.0
-1.577047e+00 0.000000e+00 0.0
-1.640345e+00 0.000000e+00 0.0
-1.665703e+00 0.000000e+00 0.0
-1.659015e+00 0.000000e+00 0.0
-1.630055e+00 0.000000e+00 0.0
-1.586594e+00 0.000000e+00 0.0
-1.534407e+00 0.000000e+00 0.0
-1.477293e+00 0.000000e+00 0.0
-1.417577e+00 0.000000e+00 0.0
-1.356765e+00 0.000000e+00 0.0
-1.296106e+00 0.000000e+00 0.0
-1.236963e+00 0.000000e+00 0.0
-1.180877e+00 0.000000e+00 0.0
-1.129347e+00 0.000000e+00 0.0
-1.083569e+00 0.000000e+00 0.0
-1.044236e+00 0.000000e+00 0.0
-1.011487e+00 0.000000e+00 0.0
-9.849837e-01 0.000000e+00 0.0
-9.640559e-01 0.000000e+00 0.0
-9.478700e-01 0.000000e+00 0.0
-9.355605e-01 0.000000e+00 0.0
-9.263208e-01 0.000000e+00 0.0
-9.194495e-01 0.000000e+00 0.0
-9.143662e-01 0.000000e+00 0.0
-9.106077e-01 0.000000e+00 0.0
-9.078147e-01 0.000000e+00 0.0
-9.057159e-01 0.000000e+00 0.0
-9.041111e-01 0.000000e+00 0.0
-9.028559e-01 0.000000e+00 0.0
-9.018492e-01 0.000000e+00 0.0
-9.010222e-01 0.000000e+00 0.0
-9.003295e-01 0.000000e+00 0.0
-8.997425e-01 0.000000e+00 0.0
-8.992442e-01 0.000000e+00 0.0
-8.988251e-01 0.000000e+00 0.0
-8.984806e-01 0.000000e+00 0.0
-8.982086e-01 0.000000e+00 0.0
-8.980091e-01 0.000000e+00 0.0
-8.978827e-01 0.000000e+00 0.0
-8.978301e-01 0.000000e+00 0.0
-8.978470e-01 0.000000e+00 0.0
-8.979260e-01 0.000000e+00 0.0
-8.980593e-01 0.000000e+00 0.0
-8.982390e-01 0.000000e+00 0.0
-8.984576e-01 0.000000e+00 0.0
-8.987081e-01 0.000000e+00 0.0
-8.989840e-01 0.000000e+00 0.0
-8.992790e-01 0.000000e+00 0.0
-8.995873e-01 0.000000e+00 0.0
-8.999030e-01 0.000000e+00 0.0
-9.002210e-01 0.000000e+00 0.0
-9.005356e-01 0.000000e+00 0.0
-9.008414e-01 0.000000e+00 0.0
-9.011335e-01 0.000000e+00 0.0
-9.014072e-01 0.000000e+00 0.0
-9.016594e-01 0.000000e+00 0.0
-9.018886e-01 0.000000e+00 0.0
-9.020976e-01 0.000000e+00 0.0
-9.022985e-01 0.000000e+00 0.0
-9.025241e-01 0.000000e+00 0.0
-9.028840e-01 0.000000e+00 0.0
-9.028840e-01 0.000000e+00 0.0
0.000000e+00 0.000000e+00 0.0
1.000000e+00 -2.664930e-02 0.0
1.026306e+00 -2.643254e-02 0.0
1.055753e+00 -2.951974e-02 0.0
1.091437e+00 -3.575647e-02 0.0
1.136402e+00 -4.503844e-02 0.0
1.193308e+00 -5.697859e-02 0.0
1.262422e+00 -6.918645e-02 0.0
1.345065e+00 -8.271568e-02 0.0
1.426037e+00 -8.104516e-02 0.0
1.495235e+00 -6.927095e-02 0.0
1.550510e+00 -5.534757e-02 0.0
1.593118e+00 -4.268021e-02 0.0
1.624528e+00 -3.148272e-02 0.0
1.645483e+00 -2.102802e-02 0.0
1.656313e+00 -1.090241e-02 0.0
1.657714e+00 -1.474328e-03 0.0
1.650864e+00 6.777655e-03 0.0
1.636945e+00 1.384561e-02 0.0
1.617004e+00 1.986834e-02 0.0
1.591830e+00 2.510157e-02 0.0
1.561908e+00 2.984945e-02 0.0
1.527456e+00 3.437870e-02 0.0
1.488532e+00 3.885143e-02 0.0
1.445156e+00 4.330313e-02 0.0
1.397412e+00 4.767128e-02 0.0
1.345472e+00 5.186694e-02 0.0
1.289556e+00 5.584369e-02 0.0
1.229951e+00 5.953182e-02 0.0
1.167402e+00 6.247672e-02 0.0
1.103957e+00 6.337151e-02 0.0
1.043926e+00 5.995892e-02 0.0
9.948624e-01 4.899030e-02 0.0
9.672600e-01 2.752965e-02 0.0
9.715447e-01 -4.357573e-03 0.0
1.013658e+00 -4.218580e-02 0.0
1.092836e+00 -7.925132e-02 0.0
1.201120e+00 -1.083565e-01 0.0
1.324937e+00 -1.238897e-01 0.0
1.447601e+00 -1.227369e-01 0.0
1.552854e+00 -1.053260e-01 0.0
1.627232e+00 -7.445123e-02 0.0
1.663860e+00 -3.670058e-02 0.0
1.665756e+00 -1.968511e-03 0.0
1.642495e+00 2.318753e-02 0.0
1.602431e+00 3.999117e-02 0.0
1.551918e+00 5.044020e-02 0.0
1.495395e+00 5.645051e-02 0.0
1.435627e+00 5.969487e-02 0.0
1.374385e+00 6.116995e-02 0.0
1.313017e+00 6.129439e-02 0.0
1.252880e+00 6.006483e-02 0.0
1.195495e+00 5.731182e-02 0.0
1.142391e+00 5.303073e-02 0.0
1.094848e+00 4.747022e-02 0.0
1.053681e+00 4.109479e-02 0.0
1.019151e+00 3.445681e-02 0.0
9.910181e-01 2.806000e-02 0.0
9.686741e-01 2.227109e-02 0.0
9.513082e-01 1.729304e-02 0.0
9.380498e-01 1.318550e-02 0.0
9.280693e-01 9.907645e-03 0.0
9.206342e-01 7.362238e-03 0.0
9.151313e-01 5.429996e-03 0.0
9.110670e-01 3.991467e-03 0.0
9.080555e-01 2.938556e-03 0.0
9.058035e-01 2.179143e-03 0.0
9.040928e-01 1.637798e-03 0.0
9.027653e-01 1.254607e-03 0.0
9.017092e-01 9.832076e-04 0.0
9.008477e-01 7.886073e-04 0.0
9.001297e-01 6.450574e-04 0.0
8.995227e-01 5.341125e-04 0.0
8.990069e-01 4.429466e-04 0.0
8.985710e-01 3.629663e-04 0.0
8.982094e-01 2.886980e-04 0.0
8.979196e-01 2.168631e-04 0.0
8.977012e-01 1.455336e-04 0.0
8.975549e-01 7.337277e-05 0.0
8.974819e-01 6.631646e-08 0.0
8.974790e-01 -6.993156e-05 0.0
8.975393e-01 -1.332656e-04 0.0
8.976553e-01 -1.888482e-04 0.0
8.978189e-01 -2.365451e-04 0.0
8.980227e-01 -2.767045e-04 0.0
8.982596e-01 -3.098091e-04 0.0
8.985229e-01 -3.362793e-04 0.0
8.988065e-01 -3.564398e-04 0.0
8.991041e-01 -3.705508e-04 0.0
8.994101e-01 -3.788886e-04 0.0
8.997189e-01 -3.817822e-04 0.0
9.000251e-01 -3.791527e-04 0.0
9.003232e-01 -3.710140e-04 0.0
9.006080e-01 -3.576903e-04 0.0
9.008749e-01 -3.398062e-04 0.0
9.011204e-01 -3.184748e-04 0.0
9.013433e-01 -2.957334e-04 0.0
9.015459e-01 -2.755593e-04 0.0
9.017405e-01 -2.675730e-04 0.0
9.019600e-01 -2.924288e-04 0.0
9.023137e-01 -4.265880e-04 0.0
9.028840e-01 -6.432142e-04 0.0
0.000000e+00 -6.381426e-04 0.0
1.000000e+00 -5.358879e-02 0.0
1.026641e+00 -5.314639e-02 0.0
1.056458e+00 -5.935595e-02 0.0
1.092668e+00 -7.198513e-02 0.0
1.138617e+00 -9.100626e-02 0.0
1.197617e+00 -1.159975e-01 0.0
1.270077e+00 -1.416660e-01 0.0
1.362238e+00 -1.748956e-01 0.0
1.448297e+00 -1.671232e-01 0.0
1.518069e+00 -1.390619e-01 0.0
1.572401e+00 -1.096980e-01 0.0
1.614402e+00 -8.470013e-02 0.0
1.646133e+00 -6.323339e-02 0.0
1.668288e+00 -4.320175e-02 0.0
1.680817e+00 -2.344981e-02 0.0
1.684047e+00 -4.724223e-03 0.0
1.679113e+00 1.169319e-02 0.0
1.667215e+00 2.572468e-02 0.0
1.649437e+00 3.762759e-02 0.0
1.626602e+00 4.791721e-02 0.0
1.599214e+00 5.721889e-02 0.0
1.567485e+00 6.608884e-02 0.0
1.531449e+00 7.486750e-02 0.0
1.491100e+00 8.363341e-02 0.0
1.446496e+00 9.225644e-02 0.0
1.397819e+00 1.005247e-01 0.0
1.345386e+00 1.082583e-01 0.0
1.289658e+00 1.152407e-01 0.0
1.231332e+00 1.207835e-01 0.0
1.171778e+00 1.229062e-01 0.0
1.114194e+00 1.175247e-01 0.0
1.064501e+00 9.866366e-02 0.0
1.031344e+00 6.066789e-02 0.0
1.023145e+00 3.822480e-03 0.0
1.042233e+00 -6.129288e-02 0.0
1.085945e+00 -1.229817e-01 0.0
1.152616e+00 -1.750469e-01 0.0
1.239544e+00 -2.108366e-01 0.0
1.337927e+00 -2.211393e-01 0.0
1.435516e+00 -2.029341e-01 0.0
1.519633e+00 -1.585868e-01 0.0
1.579370e+00 -9.645672e-02 0.0
1.608619e+00 -3.123607e-02 0.0
1.610757e+00 2.103063e-02 0.0
1.594433e+00 5.629588e-02 0.0
1.565599e+00 7.925517e-02 0.0
1.528285e+00 9.374500e-02 0.0
1.485362e+00 1.025993e-01 0.0
1.438863e+00 1.076499e-01 0.0
1.390353e+00 1.097848e-01 0.0
1.341398e+00 1.090015e-01 0.0
1.293677e+00 1.050139e-01 0.0
1.248760e+00 9.792885e-02 0.0
1.207911e+00 8.830006e-02 0.0
1.171938e+00 7.704876e-02 0.0
1.141148e+00 6.522775e-02 0.0
1.115416e+00 5.377306e-02 0.0
1.094311e+00 4.335647e-02 0.0
1.077237e+00 3.434874e-02 0.0
1.063540e+00 2.686326e-02 0.0
1.052593e+00 2.083504e-02 0.0
1.043837e+00 1.609945e-02 0.0
1.036796e+00 1.245238e-02 0.0
1.031080e+00 9.688104e-03 0.0
1.026381e+00 7.619094e-03 0.0
1.022457e+00 6.083978e-03 0.0
1.019126e+00 4.949005e-03 0.0
1.016256e+00 4.106483e-03 0.0
1.013748e+00 3.471994e-03 0.0
1.011536e+00 2.981186e-03 0.0
1.009576e+00 2.586535e-03 0.0
1.007837e+00 2.254202e-03 0.0
1.006299e+00 1.961088e-03 0.0
1.004951e+00 1.692250e-03 0.0
1.003782e+00 1.438760e-03 0.0
1.002784e+00 1.195903e-03 0.0
1.001949e+00 9.616093e-04 0.0
1.001268e+00 7.356089e-04 0.0
1.000729e+00 5.197240e-04 0.0
1.000322e+00 3.177251e-04 0.0
1.000038e+00 1.321659e-04 0.0
9.998657e-01 -3.572032e-05 0.0
9.997956e-01 -1.854494e-04 0.0
9.998171e-01 -3.172917e-04 0.0
9.999200e-01 -4.317566e-04 0.0
1.000094e+00 -5.292175e-04 0.0
1.000328e+00 -6.099458e-04 0.0
1.000613e+00 -6.741676e-04 0.0
1.000937e+00 -7.220804e-04 0.0
1.001290e+00 -7.539385e-04 0.0
1.001663e+00 -7.706172e-04 0.0
1.002046e+00 -7.730803e-04 0.0
1.002431e+00 -7.623059e-04 0.0
1.002812e+00 -7.396295e-04 0.0
1.003182e+00 -7.071060e-04 0.0
1.003535e+00 -6.681399e-04 0.0
1.003869e+00 -6.286926e-04 0.0
1.004181e+00 -5.986191e-04 0.0
1.004467e+00 -5.966483e-04 0.0
1.004684e+00 -6.631214e-04 0.0
1.004839e+00 -8.168710e-04 0.0
0.000000e+00 -8.107010e-04 0.0
1.000000e+00 -7.720408e-02 0.0
1.023328e+00 -7.654665e-02 0.0
1.049904e+00 -8.595182e-02 0.0
1.083205e+00 -1.053052e-01 0.0
1.127308e+00 -1.351274e-01 0.0
1.187064e+00 -1.757730e-01 0.0
1.264105e+00 -2.187262e-01 0.0
1.375448e+00 -2.862573e-01 0.0
1.466423e+00 -2.581174e-01 0.0
1.531320e+00 -2.039776e-01 0.0
1.578779e+00 -1.571766e-01 0.0
1.615415e+00 -1.213551e-01 0.0
1.644138e+00 -9.197445e-02 0.0
1.665398e+00 -6.448135e-02 0.0
1.678266e+00 -3.633666e-02 0.0
1.682052e+00 -8.529445e-03 0.0
1.677690e+00 1.603687e-02 0.0
1.666414e+00 3.698157e-02 0.0
1.649413e+00 5.460902e-02 0.0
1.627608e+00 6.970336e-02 0.0
1.601553e+00 8.325464e-02 0.0
1.571458e+00 9.616479e-02 0.0
1.537303e+00 1.090039e-01 0.0
1.498996e+00 1.219212e-01 0.0
1.456522e+00 1.347114e-01 0.0
1.410041e+00 1.469873e-01 0.0
1.359923e+00 1.583568e-01 0.0
1.306727e+00 1.684173e-01 0.0
1.251225e+00 1.762670e-01 0.0
1.194757e+00 1.793556e-01 0.0
1.139973e+00 1.722891e-01 0.0
1.091045e+00 1.475726e-01 0.0
1.052366e+00 9.932785e-02 0.0
1.026128e+00 3.004224e-02 0.0
1.012641e+00 -4.782506e-02 0.0
1.012412e+00 -1.227719e-01 0.0
1.028794e+00 -1.914480e-01 0.0
1.068211e+00 -2.502729e-01 0.0
1.132727e+00 -2.856735e-01 0.0
1.213192e+00 -2.834187e-01 0.0
1.298051e+00 -2.434650e-01 0.0
1.374984e+00 -1.734082e-01 0.0
1.433004e+00 -8.927484e-02 0.0
1.465005e+00 -1.098970e-02 0.0
1.475584e+00 4.569822e-02 0.0
1.471222e+00 8.359827e-02 0.0
1.456001e+00 1.089468e-01 0.0
1.432757e+00 1.258239e-01 0.0
1.403698e+00 1.366899e-01 0.0
1.370673e+00 1.427914e-01 0.0
1.335243e+00 1.444116e-01 0.0
1.299062e+00 1.411768e-01 0.0
1.263785e+00 1.331862e-01 0.0
1.230747e+00 1.213189e-01 0.0
1.200795e+00 1.069823e-01 0.0
1.174289e+00 9.171483e-02 0.0
1.151200e+00 7.684274e-02 0.0
1.131247e+00 6.329023e-02 0.0
1.114028e+00 5.154919e-02 0.0
1.099116e+00 4.175619e-02 0.0
1.086121e+00 3.381068e-02 0.0
1.074716e+00 2.748602e-02 0.0
1.064638e+00 2.251082e-02 0.0
1.055689e+00 1.861834e-02 0.0
1.047718e+00 1.557101e-02 0.0
1.040614e+00 1.316916e-02 0.0
1.034292e+00 1.125139e-02 0.0
1.028689e+00 9.691222e-03 0.0
1.023749e+00 8.392538e-03 0.0
1.019427e+00 7.284500e-03 0.0
1.015678e+00 6.316715e-03 0.0
1.012458e+00 5.454709e-03 0.0
1.009725e+00 4.675650e-03 0.0
1.007433e+00 3.964683e-03 0.0
1.005540e+00 3.312376e-03 0.0
1.004004e+00 2.713030e-03 0.0
1.002784e+00 2.162871e-03 0.0
1.001841e+00 1.659199e-03 0.0
1.001141e+00 1.201059e-03 0.0
1.000652e+00 7.881719e-04 0.0
1.000346e+00 4.191445e-04 0.0
1.000198e+00 9.252699e-05 0.0
1.000189e+00 -1.946850e-04 0.0
1.000297e+00 -4.452300e-04 0.0
1.000508e+00 -6.610261e-04 0.0
1.000803e+00 -8.436140e-04 0.0
1.001168e+00 -9.943275e-04 0.0
1.001590e+00 -1.114399e-03 0.0
1.002054e+00 -1.205043e-03 0.0
1.002548e+00 -1.267580e-03 0.0
1.003062e+00 -1.303555e-03 0.0
1.003585e+00 -1.314583e-03 0.0
1.004106e+00 -1.302418e-03 0.0
1.004616e+00 -1.269152e-03 0.0
1.005108e+00 -1.217608e-03 0.0
1.005572e+00 -1.151926e-03 0.0
1.006003e+00 -1.078514e-03 0.0
1.006393e+00 -1.007281e-03 0.0
1.006731e+00 -9.537199e-04 0.0
1.006988e+00 -9.391426e-04 0.0
1.007141e+00 -9.893290e-04 0.0
0.000000e+00 -9.811839e-04 0.0
1.000000e+00 -9.573749e-02 0.0
1.018262e+00 -9.488155e-02 0.0
1.039669e+00 -1.073781e-01 0.0
1.067901e+00 -1.335553e-01 0.0
1.108095e+00 -1.753413e-01 0.0
1.167650e+00 -2.353460e-01 0.0
1.252347e+00 -3.034422e-01 0.0
1.394835e+00 -4.287649e-01 0.0
1.480981e+00 -3.442825e-01 0.0
1.528202e+00 -2.512168e-01 0.0
1.559664e+00 -1.886585e-01 0.0
1.584742e+00 -1.464515e-01 0.0
1.606827e+00 -1.140781e-01 0.0
1.626155e+00 -8.382860e-02 0.0
1.640617e+00 -5.081810e-02 0.0
1.647168e+00 -1.509867e-02 0.0
1.645347e+00 1.783888e-02 0.0
1.636446e+00 4.586323e-02 0.0
1.621833e+00 6.920320e-02 0.0
1.602614e+00 8.890266e-02 0.0
1.579440e+00 1.064104e-01 0.0
1.552499e+00 1.230866e-01 0.0
1.521672e+00 1.398121e-01 0.0
1.486724e+00 1.568499e-01 0.0
1.447500e+00 1.739167e-01 0.0
1.404073e+00 1.903955e-01 0.0
1.356838e+00 2.055720e-01 0.0
1.306519e+00 2.187176e-01 0.0
1.254052e+00 2.287155e-01 0.0
1.200604e+00 2.327843e-01 0.0
1.148140e+00 2.247343e-01 0.0
1.098732e+00 1.969616e-01 0.0
1.051730e+00 1.463102e-01 0.0
1.003427e+00 7.832640e-02 0.0
9.549559e-01 6.273032e-04 0.0
9.138584e-01 -8.169343e-02 0.0
8.895807e-01 -1.671892e-01 0.0
8.904665e-01 -2.511778e-01 0.0
9.210410e-01 -3.162670e-01 0.0
9.773917e-01 -3.397884e-01 0.0
1.049513e+00 -3.156056e-01 0.0
1.126973e+00 -2.508867e-01 0.0
1.199047e+00 -1.613681e-01 0.0
1.255979e+00 -6.794104e-02 0.0
1.291587e+00 1.007153e-02 0.0
1.311056e+00 6.411059e-02 0.0
1.318391e+00 1.015922e-01 0.0
1.316203e+00 1.279933e-01 0.0
1.306568e+00 1.463054e-01 0.0
1.291347e+00 1.579939e-01 0.0
1.272124e+00 1.636151e-01 0.0
1.250221e+00 1.630616e-01 0.0
1.227133e+00 1.562548e-01 0.0
1.204146e+00 1.442870e-01 0.0
1.182148e+00 1.289608e-01 0.0
1.161629e+00 1.122151e-01 0.0
1.142762e+00 9.569115e-02 0.0
1.125518e+00 8.051446e-02 0.0
1.109772e+00 6.727650e-02 0.0
1.095369e+00 5.614059e-02 0.0
1.082170e+00 4.699053e-02 0.0
1.070071e+00 3.956565e-02 0.0
1.059005e+00 3.355822e-02 0.0
1.048932e+00 2.867204e-02 0.0
1.039833e+00 2.465099e-02 0.0
1.031695e+00 2.128820e-02 0.0
1.024503e+00 1.842424e-02 0.0
1.018234e+00 1.594094e-02 0.0
1.012854e+00 1.375392e-02 0.0
1.008315e+00 1.180484e-02 0.0
1.004558e+00 1.005449e-02 0.0
1.001516e+00 8.477509e-03 0.0
9.991153e-01 7.057287e-03 0.0
9.972797e-01 5.781222e-03 0.0
9.959348e-01 4.638285e-03 0.0
9.950090e-01 3.619768e-03 0.0
9.944356e-01 2.717224e-03 0.0
9.941557e-01 1.920069e-03 0.0
9.941176e-01 1.220164e-03 0.0
9.942756e-01 6.111610e-04 0.0
9.945929e-01 8.282221e-05 0.0
9.950415e-01 -3.750736e-04 0.0
9.955975e-01 -7.697059e-04 0.0
9.962393e-01 -1.106078e-03 0.0
9.969475e-01 -1.388226e-03 0.0
9.977045e-01 -1.619653e-03 0.0
9.984947e-01 -1.803507e-03 0.0
9.993039e-01 -1.942696e-03 0.0
1.000120e+00 -2.039994e-03 0.0
1.000931e+00 -2.098113e-03 0.0
1.001729e+00 -2.119711e-03 0.0
1.002502e+00 -2.107393e-03 0.0
1.003245e+00 -2.063735e-03 0.0
1.003948e+00 -1.991529e-03 0.0
1.004605e+00 -1.894097e-03 0.0
1.005210e+00 -1.775762e-03 0.0
1.005755e+00 -1.642538e-03 0.0
1.006232e+00 -1.503005e-03 0.0
1.006628e+00 -1.369070e-03 0.0
1.006926e+00 -1.255678e-03 0.0
1.007100e+00 -1.182669e-03 0.0
0.000000e+00 -1.171170e-03 0.0
1.000000e+00 -1.074115e-01 0.0
1.011426e+00 -1.063807e-01 0.0
1.025412e+00 -1.213823e-01 0.0
1.045390e+00 -1.535526e-01 0.0
1.077364e+00 -2.073344e-01 0.0
1.131871e+00 -2.898724e-01 0.0
1.223652e+00 -3.952419e-01 0.0
1.403086e+00 -6.082180e-01 0.0
1.456288e+00 -3.975033e-01 0.0
1.463747e+00 -2.586951e-01 0.0
1.464445e+00 -1.893755e-01 0.0
1.467471e+00 -1.494963e-01 0.0
1.475681e+00 -1.223072e-01 0.0
1.489833e+00 -9.799876e-02 0.0
1.507523e+00 -6.852761e-02 0.0
1.522938e+00 -3.053227e-02 0.0
1.529546e+00 1.121164e-02 0.0
1.528383e+00 4.700744e-02 0.0
1.521216e+00 7.635049e-02 0.0
1.509503e+00 1.005973e-01 0.0
1.494085e+00 1.218091e-01 0.0
1.475137e+00 1.420155e-01 0.0
1.452365e+00 1.625658e-01 0.0
1.425277e+00 1.839182e-01 0.0
1.393461e+00 2.057141e-01 0.0
1.356790e+00 2.270471e-01 0.0
1.315578e+00 2.467655e-01 0.0
1.270624e+00 2.636530e-01 0.0
1.223042e+00 2.762779e-01 0.0
1.173754e+00 2.820529e-01 0.0
1.123123e+00 2.753465e-01 0.0
1.070425e+00 2.496411e-01 0.0
1.012171e+00 2.045453e-01 0.0
9.422079e-01 1.482700e-01 0.0
8.627173e-01 8.009890e-02 0.0
7.963348e-01 -1.532990e-02 0.0
7.608247e-01 -1.316981e-01 0.0
7.525826e-01 -2.429547e-01 0.0
7.649643e-01 -3.286677e-01 0.0
7.980507e-01 -3.728938e-01 0.0
8.480430e-01 -3.656169e-01 0.0
9.096391e-01 -3.125019e-01 0.0
9.759276e-01 -2.276756e-01 0.0
1.038693e+00 -1.307252e-01 0.0
1.089548e+00 -4.080271e-02 0.0
1.125045e+00 2.859463e-02 0.0
1.148818e+00 7.779979e-02 0.0
1.163036e+00 1.137563e-01 0.0
1.169487e+00 1.398362e-01 0.0
1.169857e+00 1.576041e-01 0.0
1.165703e+00 1.677503e-01 0.0
1.158075e+00 1.706703e-01 0.0
1.147921e+00 1.663904e-01 0.0
1.136175e+00 1.560139e-01 0.0
1.123561e+00 1.415561e-01 0.0
1.110572e+00 1.251849e-01 0.0
1.097525e+00 1.087187e-01 0.0
1.084625e+00 9.339607e-02 0.0
1.072015e+00 7.986664e-02 0.0
1.059822e+00 6.831512e-02 0.0
1.048166e+00 5.862715e-02 0.0
1.037175e+00 5.053834e-02 0.0
1.026972e+00 4.374157e-02 0.0
1.017674e+00 3.795081e-02 0.0
1.009375e+00 3.293150e-02 0.0
1.002136e+00 2.850834e-02 0.0
9.959826e-01 2.455834e-02 0.0
9.909052e-01 2.099937e-02 0.0
9.868602e-01 1.777981e-02 0.0
9.837782e-01 1.486791e-02 0.0
9.815709e-01 1.224276e-02 0.0
9.801382e-01 9.891125e-03 0.0
9.793722e-01 7.804293e-03 0.0
9.791635e-01 5.970932e-03 0.0
9.794108e-01 4.371994e-03 0.0
9.800201e-01 2.991430e-03 0.0
9.809027e-01 1.815582e-03 0.0
9.819865e-01 8.172109e-04 0.0
9.832184e-01 -3.075861e-05 0.0
9.845629e-01 -7.523232e-04 0.0
9.859899e-01 -1.363186e-03 0.0
9.874713e-01 -1.875489e-03 0.0
9.889816e-01 -2.299033e-03 0.0
9.904986e-01 -2.642150e-03 0.0
9.920036e-01 -2.912227e-03 0.0
9.934809e-01 -3.115917e-03 0.0
9.949175e-01 -3.259222e-03 0.0
9.963034e-01 -3.347521e-03 0.0
9.976300e-01 -3.385689e-03 0.0
9.988911e-01 -3.378210e-03 0.0
1.000081e+00 -3.329086e-03 0.0
1.001197e+00 -3.241865e-03 0.0
1.002234e+00 -3.119850e-03 0.0
1.003190e+00 -2.966250e-03 0.0
1.004061e+00 -2.784396e-03 0.0
1.004844e+00 -2.578077e-03 0.0
1.005535e+00 -2.352032e-03 0.0
1.006125e+00 -2.112576e-03 0.0
1.006605e+00 -1.867783e-03 0.0
1.006960e+00 -1.629903e-03 0.0
1.007158e+00 -1.399557e-03 0.0
0.000000e+00 -1.382933e-03 0.0
1.000000e+00 -1.107130e-01 0.0
1.003085e+00 -1.095386e-01 0.0
1.007314e+00 -1.256302e-01 0.0
1.014745e+00 -1.610022e-01 0.0
1.030533e+00 -2.231414e-01 0.0
1.066542e+00 -3.259010e-01 0.0
1.149698e+00 -4.784164e-01 0.0
1.357085e+00 -8.156241e-01 0.0
1.325114e+00 -3.655518e-01 0.0
1.259561e+00 -1.931602e-01 0.0
1.211941e+00 -1.417749e-01 0.0
1.179042e+00 -1.166158e-01 0.0
1.160057e+00 -1.033416e-01 0.0
1.159114e+00 -9.707465e-02 0.0
1.176775e+00 -8.620788e-02 0.0
1.207474e+00 -6.124985e-02 0.0
1.239652e+00 -2.098548e-02 0.0
1.260732e+00 2.590838e-02 0.0
1.273470e+00 6.359380e-02 0.0
1.280630e+00 9.341796e-02 0.0
1.283786e+00 1.186339e-01 0.0
1.283198e+00 1.425850e-01 0.0
1.278315e+00 1.674299e-01 0.0
1.268236e+00 1.939778e-01 0.0
1.252130e+00 2.218014e-01 0.0
1.229536e+00 2.496214e-01 0.0
1.200579e+00 2.757044e-01 0.0
1.166114e+00 2.980983e-01 0.0
1.127744e+00 3.146292e-01 0.0
1.086771e+00 3.230069e-01 0.0
1.038951e+00 3.231479e-01 0.0
9.700580e-01 3.185147e-01 0.0
8.690071e-01 3.055772e-01 0.0
7.586134e-01 2.586447e-01 0.0
6.852096e-01 1.534837e-01 0.0
6.601247e-01 9.735988e-03 0.0
6.599691e-01 -1.315614e-01 0.0
6.659913e-01 -2.489959e-01 0.0
6.743131e-01 -3.370085e-01 0.0
6.896069e-01 -3.882066e-01 0.0
7.167114e-01 -3.927403e-01 0.0
7.559623e-01 -3.517718e-01 0.0
8.048865e-01 -2.766188e-01 0.0
8.582869e-01 -1.841446e-01 0.0
9.093422e-01 -9.187704e-02 0.0
9.508968e-01 -1.297899e-02 0.0
9.823474e-01 4.633027e-02 0.0
1.005353e+00 9.073168e-02 0.0
1.021367e+00 1.238036e-01 0.0
1.031835e+00 1.471162e-01 0.0
1.038101e+00 1.614662e-01 0.0
1.041185e+00 1.675668e-01 0.0
1.041440e+00 1.661167e-01 0.0
1.039257e+00 1.581774e-01 0.0
1.034996e+00 1.457983e-01 0.0
1.028996e+00 1.311661e-01 0.0
1.021606e+00 1.160891e-01 0.0
1.013201e+00 1.017823e-01 0.0
1.004173e+00 8.887540e-02 0.0
9.949218e-01 7.754768e-02 0.0
9.858296e-01 6.770042e-02 0.0
9.772410e-01 5.910786e-02 0.0
9.694421e-01 5.152144e-02 0.0
9.626486e-01 4.472531e-02 0.0
9.570023e-01 3.855884e-02 0.0
9.525703e-01 3.292130e-02 0.0
9.493534e-01 2.775626e-02 0.0
9.473007e-01 2.303299e-02 0.0
9.463222e-01 1.873929e-02 0.0
9.462993e-01 1.487181e-02 0.0
9.471018e-01 1.142124e-02 0.0
9.485970e-01 8.376935e-03 0.0
9.506458e-01 5.736442e-03 0.0
9.531042e-01 3.493507e-03 0.0
9.558520e-01 1.605167e-03 0.0
9.588004e-01 2.408912e-05 0.0
9.618944e-01 -1.297438e-03 0.0
9.650814e-01 -2.388850e-03 0.0
9.683081e-01 -3.276457e-03 0.0
9.715217e-01 -3.984975e-03 0.0
9.746766e-01 -4.537094e-03 0.0
9.777358e-01 -4.953710e-03 0.0
9.806713e-01 -5.253562e-03 0.0
9.834632e-01 -5.453094e-03 0.0
9.860986e-01 -5.566623e-03 0.0
9.885702e-01 -5.606501e-03 0.0
9.908752e-01 -5.583298e-03 0.0
9.930144e-01 -5.505715e-03 0.0
9.949906e-01 -5.380955e-03 0.0
9.968083e-01 -5.214935e-03 0.0
9.984727e-01 -5.012521e-03 0.0
9.999896e-01 -4.777728e-03 0.0
1.001365e+00 -4.513827e-03 0.0
1.002603e+00 -4.223498e-03 0.0
1.003708e+00 -3.909039e-03 0.0
1.004684e+00 -3.572587e-03 0.0
1.005529e+00 -3.216386e-03 0.0
1.006241e+00 -2.843294e-03 0.0
1.006811e+00 -2.456573e-03 0.0
1.007228e+00 -2.065788e-03 0.0
1.007445e+00 -1.636299e-03 0.0
0.000000e+00 -1.612647e-03 0.0
1.000000e+00 -1.049002e-01 0.0
9.940095e-01 -1.036209e-01 0.0
9.868139e-01 -1.184535e-01 0.0
9.773456e-01 -1.515528e-01 0.0
9.658313e-01 -2.116460e-01 0.0
9.568106e-01 -3.168992e-01 0.0
9.756790e-01 -4.973038e-01 0.0
1.122882e+00 -9.628460e-01 0.0
9.434023e-01 -1.860374e-01 0.0
7.712158e-01 -2.093886e-02 0.0
6.771519e-01 -4.773007e-02 0.0
6.077325e-01 -4.721538e-02 0.0
5.509504e-01 -4.657849e-02 0.0
5.318819e-01 -7.802511e-02 0.0
5.555168e-01 -1.098618e-01 0.0
6.085951e-01 -1.143471e-01 0.0
6.793303e-01 -9.173971e-02 0.0
7.534349e-01 -4.821512e-02 0.0
8.129147e-01 4.094943e-03 0.0
8.590312e-01 4.728248e-02 0.0
8.983913e-01 7.925485e-02 0.0
9.319733e-01 1.089840e-01 0.0
9.589214e-01 1.404627e-01 0.0
9.776821e-01 1.751981e-01 0.0
9.867753e-01 2.126893e-01 0.0
9.850223e-01 2.513553e-01 0.0
9.714108e-01 2.892969e-01 0.0
9.446587e-01 3.248315e-01 0.0
9.023437e-01 3.569251e-01 0.0
8.396633e-01 3.856684e-01 0.0
7.509395e-01 4.118528e-01 0.0
6.434915e-01 4.259437e-01 0.0
5.578811e-01 3.911686e-01 0.0
5.290960e-01 2.874109e-01 0.0
5.482878e-01 1.342729e-01 0.0
5.828847e-01 -2.487990e-02 0.0
6.105217e-01 -1.592174e-01 0.0
6.253255e-01 -2.638188e-01 0.0
6.299329e-01 -3.416349e-01 0.0
6.324363e-01 -3.907290e-01 0.0
6.412842e-01 -4.016072e-01 0.0
6.602347e-01 -3.707413e-01 0.0
6.898192e-01 -3.062223e-01 0.0
7.276129e-01 -2.219573e-01 0.0
7.687158e-01 -1.329989e-01 0.0
8.073340e-01 -5.161621e-02 0.0
8.387942e-01 1.485105e-02 0.0
8.637221e-01 6.578477e-02 0.0
8.831121e-01 1.043945e-01 0.0
8.981024e-01 1.321070e-01 0.0
9.097075e-01 1.498421e-01 0.0
9.186371e-01 1.586182e-01 0.0
9.249402e-01 1.597946e-01 0.0
9.285064e-01 1.545922e-01 0.0
9.293690e-01 1.449167e-01 0.0
9.277637e-01 1.327524e-01 0.0
9.241333e-01 1.197005e-01 0.0
9.190738e-01 1.068227e-01 0.0
9.132471e-01 9.468313e-02 0.0
9.072913e-01 8.348449e-02 0.0
9.017480e-01 7.322467e-02 0.0
8.970214e-01 6.381540e-02 0.0
8.933687e-01 5.515517e-02 0.0
8.909209e-01 4.715406e-02 0.0
8.897213e-01 3.973946e-02 0.0
8.897423e-01 3.288123e-02 0.0
8.909033e-01 2.657630e-02 0.0
8.931003e-01 2.081698e-02 0.0
8.962155e-01 1.560507e-02 0.0
9.001082e-01 1.096010e-02 0.0
9.046414e-01 6.868997e-03 0.0
9.097040e-01 3.295296e-03 0.0
9.151972e-01 2.242132e-04 0.0
9.210476e-01 -2.375903e-03 0.0
9.271550e-01 -4.521195e-03 0.0
9.334010e-01 -6.240977e-03 0.0
9.396579e-01 -7.573341e-03 0.0
9.458113e-01 -8.561231e-03 0.0
9.517670e-01 -9.251267e-03 0.0
9.574532e-01 -9.690138e-03 0.0
9.628193e-01 -9.922233e-03 0.0
9.678342e-01 -9.987645e-03 0.0
9.724827e-01 -9.921104e-03 0.0
9.767620e-01 -9.751377e-03 0.0
9.806784e-01 -9.502059e-03 0.0
9.842450e-01 -9.192085e-03 0.0
9.874789e-01 -8.836262e-03 0.0
9.904003e-01 -8.446142e-03 0.0
9.930308e-01 -8.030434e-03 0.0
9.953923e-01 -7.595432e-03 0.0
9.975060e-01 -7.145311e-03 0.0
9.993920e-01 -6.682744e-03 0.0
1.001068e+00 -6.209209e-03 0.0
1.002551e+00 -5.725171e-03 0.0
1.003853e+00 -5.230274e-03 0.0
1.004985e+00 -4.723494e-03 0.0
1.005953e+00 -4.203266e-03 0.0
1.006758e+00 -3.667666e-03 0.0
1.007396e+00 -3.113667e-03 0.0
1.007858e+00 -2.546737e-03 0.0
1.008084e+00 -1.880592e-03 0.0
0.000000e+00 -1.848354e-03 0.0
1.000000e+00 -9.062107e-02 0.0
9.855864e-01 -8.928012e-02 0.0
9.673008e-01 -1.001869e-01 0.0
9.398686e-01 -1.241396e-01 0.0
8.945093e-01 -1.663057e-01 0.0
8.139299e-01 -2.363389e-01 0.0
6.719204e-01 -3.553132e-01 0.0
1.861450e-01 -4.770358e-01 0.0
-9.441370e-01 4.803583e-01 0.0
0.000000e+00 -2.871443e-02 0.0
-9.549375e-02 2.675206e-02 0.0
-1.304654e-01 -1.226270e-02 0.0
-8.881751e-02 -8.824537e-02 0.0
-2.448537e-02 -1.423762e-01 0.0
2.390039e-02 -1.582665e-01 0.0
8.209666e-02 -1.725624e-01 0.0
1.562918e-01 -1.659538e-01 0.0
2.443523e-01 -1.362947e-01 0.0
3.375295e-01 -8.910117e-02 0.0
4.229115e-01 -3.811855e-02 0.0
4.931338e-01 9.013534e-03 0.0
5.528095e-01 4.928935e-02 0.0
6.026747e-01 9.057860e-02 0.0
6.404931e-01 1.373607e-01 0.0
6.639989e-01 1.891646e-01 0.0
6.710008e-01 2.443344e-01 0.0
6.591090e-01 3.011696e-01 0.0
6.256904e-01 3.582311e-01 0.0
5.686066e-01 4.139900e-01 0.0
4.894989e-01 4.647570e-01 0.0
4.051640e-01 4.961687e-01 0.0
3.582193e-01 4.728694e-01 0.0
3.674951e-01 3.818738e-01 0.0
4.222104e-01 2.326765e-01 0.0
4.957928e-01 6.067147e-02 0.0
5.611325e-01 -9.023859e-02 0.0
6.069045e-01 -2.050083e-01 0.0
6.295723e-01 -2.865056e-01 0.0
6.312909e-01 -3.433725e-01 0.0
6.211626e-01 -3.806197e-01 0.0
6.120929e-01 -3.925565e-01 0.0
6.115588e-01 -3.702262e-01 0.0
6.217607e-01 -3.164433e-01 0.0
6.418868e-01 -2.421024e-01 0.0
6.686115e-01 -1.597425e-01 0.0
6.972530e-01 -8.027672e-02 0.0
7.232446e-01 -1.115957e-02 0.0
7.449637e-01 4.404663e-02 0.0
7.629049e-01 8.643435e-02 0.0
7.777910e-01 1.172019e-01 0.0
7.901833e-01 1.374308e-01 0.0
8.003424e-01 1.484401e-01 0.0
8.081907e-01 1.519273e-01 0.0
8.134009e-01 1.493629e-01 0.0
8.159976e-01 1.423010e-01 0.0
8.163696e-01 1.323615e-01 0.0
8.151938e-01 1.208573e-01 0.0
8.132680e-01 1.087294e-01 0.0
8.113410e-01 9.659116e-02 0.0
8.100074e-01 8.479904e-02 0.0
8.096641e-01 7.354896e-02 0.0
8.105253e-01 6.293521e-02 0.0
8.126541e-01 5.300734e-02 0.0
8.160168e-01 4.377241e-02 0.0
8.205742e-01 3.516299e-02 0.0
8.262701e-01 2.716636e-02 0.0
8.330008e-01 1.982658e-02 0.0
8.406727e-01 1.312602e-02 0.0
8.492152e-01 7.043543e-03 0.0
8.584814e-01 1.674896e-03 0.0
8.682567e-01 -2.925290e-03 0.0
8.783147e-01 -6.781703e-03 0.0
8.884575e-01 -9.937583e-03 0.0
8.985014e-01 -1.243886e-02 0.0
9.082985e-01 -1.433731e-02 0.0
9.177336e-01 -1.569515e-02 0.0
9.267205e-01 -1.657925e-02 0.0
9.351990e-01 -1.705875e-02 0.0
9.431311e-01 -1.720232e-02 0.0
9.504957e-01 -1.707375e-02 0.0
9.572866e-01 -1.673225e-02 0.0
9.635096e-01 -1.622959e-02 0.0
9.691790e-01 -1.560958e-02 0.0
9.743174e-01 -1.490879e-02 0.0
9.789529e-01 -1.415656e-02 0.0
9.831174e-01 -1.337563e-02 0.0
9.868452e-01 -1.258305e-02 0.0
9.901711e-01 -1.179108e-02 0.0
9.931296e-01 -1.100800e-02 0.0
9.957540e-01 -1.023879e-02 0.0
9.980754e-01 -9.485797e-03 0.0
1.000123e+00 -8.749297e-03 0.0
1.001923e+00 -8.027922e-03 0.0
1.003497e+00 -7.318935e-03 0.0
1.004867e+00 -6.618422e-03 0.0
1.006045e+00 -5.921361e-03 0.0
1.007045e+00 -5.221566e-03 0.0
1.007870e+00 -4.511579e-03 0.0
1.008518e+00 -3.781156e-03 0.0
1.008983e+00 -3.030483e-03 0.0
1.009193e+00 -2.110299e-03 0.0
0.000000e+00 -2.068919e-03 0.0
1.000000e+00 -7.014986e-02 0.0
9.794377e-01 -6.879057e-02 0.0
9.533076e-01 -7.407574e-02 0.0
9.137967e-01 -8.464767e-02 0.0
8.469816e-01 -9.950964e-02 0.0
7.238239e-01 -1.132001e-01 0.0
4.707172e-01 -1.022255e-01 0.0
-5.903093e-03 -3.807486e-04 0.0
-4.611981e-05 0.000000e+00 0.0
0.000000e+00 -0.000000e+00 0.0
0.000000e+00 -8.105756e-02 0.0
-8.908486e-02 7.680317e-02 0.0
-1.152777e-01 -6.207149e-02 0.0
-1.367765e-01 -1.208965e-01 0.0
-1.635771e-01 -1.314849e-01 0.0
-1.756425e-01 -1.605159e-01 0.0
-1.552140e-01 -1.864014e-01 0.0
-1.005332e-01 -1.909944e-01 0.0
-1.910179e-02 -1.705515e-01 0.0