# vtk DataFile Version 3.0
Vector Field
ASCII
DATASET RECTILINEAR_GRID
DIMENSIONS 102 22 1
X_COORDINATES 102 double
0.000000 0.100000 0.200000 0.300000 0.400000 0.500000 0.600000 0.700000 0.800000 0.900000 1.000000 1.100000 1.200000 1.300000 1.400000 1.500000 1.600000 1.700000 1.800000 1.900000 2.000000 2.100000 2.200000 2.300000 2.400000 2.500000 2.600000 2.700000 2.800000 2.900000 3.000000 3.100000 3.200000 3.300000 3.400000 3.500000 3.600000 3.700000 3.800000 3.900000 4.000000 4.100000 4.200000 4.300000 4.400000 4.500000 4.600000 4.700000 4.800000 4.900000 5.000000 5.100000 5.200000 5.300000 5.400000 5.500000 5.600000 5.700000 5.800000 5.900000 6.000000 6.100000 6.200000 6.300000 6.400000 6.500000 6.600000 6.700000 6.800000 6.900000 7.000000 7.100000 7.200000 7.300000 7.400000 7.500000 7.600000 7.700000 7.800000 7.900000 8.000000 8.100000 8.200000 8.300000 8.400000 8.500000 8.600000 8.700000 8.800000 8.900000 9.000000 9.100000 9.200000 9.300000 9.400000 9.500000 9.600000 9.700000 9.800000 9.900000 10.000000 10.100000 
Y_COORDINATES 22 double
0.000000 0.100000 0.200000 0.300000 0.400000 0.500000 0.600000 0.700000 0.800000 0.900000 1.000000 1.100000 1.200000 1.300000 1.400000 1.500000 1.600000 1.700000 1.800000 1.900000 2.000000 2.100000 
Z_COORDINATES 1 double
0.0
POINT_DATA 2244
VECTORS Velocity double
0.000000e+00 0.000000e+00 0.0
-1.023934e+00 0.000000e+00 0.0
-1.050830e+00 0.000000e+00 0.0
-1.083427e+00 0.000000e+00 0.0
-1.124381e+00 0.000000e+00 0.0
-1.175790e+00 0.000000e+00 0.0
-1.237384e+00 0.000000e+00 0.0
-1.308827e+00 0.000000e+00 0.0
-1.375143e+00 0.000000e+00 0.0
-1.427145e+00 0.000000e+00 0.0
-1.464109e+00 0.000000e+00 0.0
-1.489310e+00 0.000000e+00 0.0
-1.506902e+00 0.000000e+00 0.0
-1.520688e+00 0.000000e+00 0.0
-1.533925e+00 0.000000e+00 0.0
-1.549292e+00 0.000000e+00 0.0
-1.568504e+00 0.000000e+00 0.0
-1.591382e+00 0.000000e+00 0.0
-1.615292e+00 0.000000e+00 0.0
-1.636060e+00 0.000000e+00 0.0
-1.649949e+00 0.000000e+00 0.0
-1.655316e+00 0.000000e+00 0.0
-1.652700e+00 0.000000e+00 0.0
-1.643355e+00 0.000000e+00 0.0
-1.628452e+00 0.000000e+00 0.0
-1.608755e+00 0.000000e+00 0.0
-1.584517e+00 0.000000e+00 0.0
-1.555541e+00 0.000000e+00 0.0
-1.521346e+00 0.000000e+00 0.0
-1.481385e+00 0.000000e+00 0.0
-1.435261e+00 0.000000e+00 0.0
-1.382856e+00 0.000000e+00 0.0
-1.324398e+00 0.000000e+00 0.0
-1.260416e+00 0.000000e+00 0.0
-1.191712e+00 0.000000e+00 0.0
-1.119608e+00 0.000000e+00 0.0
-1.046443e+00 0.000000e+00 0.0
-9.757946e-01 0.000000e+00 0.0
-9.126973e-01 0.000000e+00 0.0
-8.632505e-01 0.000000e+00 0.0
-8.333640e-01 0.000000e+00 0.0
-8.269332e-01 0.000000e+00 0.0
-8.448059e-01 0.000000e+00 0.0
-8.864518e-01 0.000000e+00 0.0
-9.509323e-01 0.000000e+00 0.0
-1.036649e+00 0.000000e+00 0.0
-1.139830e+00 0.000000e+00 0.0
-1.253633e+00 0.000000e+00 0.0
-1.368085e+00 0.000000e+00 0.0
-1.472209e+00 0.000000e+00 0.0
-1.555345e+00 0.000000e+00 0.0
-1.609370e+00 0.000000e+00 0.0
-1.631064e+00 0.000000e+00 0.0
-1.622126e+00 0.000000e+00 0.0
-1.584290e+00 0.000000e+00 0.0
-1.519097e+00 0.000000e+00 0.0
-1.429476e+00 0.000000e+00 0.0
-1.321669e+00 0.000000e+00 0.0
-1.206398e+00 0.000000e+00 0.0
-1.096422e+00 0.000000e+00 0.0
-1.002478e+00 0.000000e+00 0.0
-9.314376e-01 0.000000e+00 0.0
-8.859574e-01 0.000000e+00 0.0
-8.650059e-01 0.000000e+00 0.0
-8.648687e-01 0.000000e+00 0.0
-8.805344e-01 0.000000e+00 0.0
-9.073950e-01 0.000000e+00 0.0
-9.416076e-01 0.000000e+00 0.0
-9.800560e-01 0.000000e+00 0.0
-1.020243e+00 0.000000e+00 0.0
-1.060178e+00 0.000000e+00 0.0
-1.098283e+00 0.000000e+00 0.0
-1.133313e+00 0.000000e+00 0.0
-1.164286e+00 0.000000e+00 0.0
-1.190470e+00 0.000000e+00 0.0
-1.211376e+00 0.000000e+00 0.0
-1.226773e+00 0.000000e+00 0.0
-1.236695e+00 0.000000e+00 0.0
-1.241406e+00 0.000000e+00 0.0
-1.241165e+00 0.000000e+00 0.0
-1.235964e+00 0.000000e+00 0.0
-1.225714e+00 0.000000e+00 0.0
-1.210313e+00 0.000000e+00 0.0
-1.189740e+00 0.000000e+00 0.0
-1.164306e+00 0.000000e+00 0.0
-1.135024e+00 0.000000e+00 0.0
-1.103891e+00 0.000000e+00 0.0
-1.073666e+00 0.000000e+00 0.0
-1.047141e+00 0.000000e+00 0.0
-1.026521e+00 0.000000e+00 0.0
-1.013084e+00 0.000000e+00 0.0
-1.007081e+00 0.000000e+00 0.0
-1.007786e+00 0.000000e+00 0.0
-1.013795e+00 0.000000e+00 0.0
-1.023519e+00 0.000000e+00 0.0
-1.035447e+00 0.000000e+00 0.0
-1.048252e+00 0.000000e+00 0.0
-1.060795e+00 0.000000e+00 0.0
-1.072073e+00 0.000000e+00 0.0
-1.081280e+00 0.000000e+00 0.0
-1.081280e+00 0.000000e+00 0.0
0.000000e+00 0.000000e+00 0.0
1.000000e+00 -2.418875e-02 0.0
1.024080e+00 -2.432179e-02 0.0
1.051120e+00 -2.717964e-02 0.0
1.083865e+00 -3.288356e-02 0.0
1.124963e+00 -4.123805e-02 0.0
1.176501e+00 -5.167675e-02 0.0
1.238184e+00 -6.182253e-02 0.0
1.309629e+00 -7.158331e-02 0.0
1.375774e+00 -6.628463e-02 0.0
1.427381e+00 -5.174593e-02 0.0
1.463710e+00 -3.646872e-02 0.0
1.488037e+00 -2.446619e-02 0.0
1.504517e+00 -1.661871e-02 0.0
1.516952e+00 -1.257470e-02 0.0
1.528623e+00 -1.180960e-02 0.0
1.542314e+00 -1.383072e-02 0.0
1.560034e+00 -1.785873e-02 0.0
1.582083e+00 -2.218885e-02 0.0
1.606241e+00 -2.429725e-02 0.0
1.628352e+00 -2.224991e-02 0.0
1.644284e+00 -1.607072e-02 0.0
1.651810e+00 -7.665491e-03 0.0
1.651106e+00 5.647933e-04 0.0
1.643412e+00 7.555172e-03 0.0
1.629955e+00 1.331688e-02 0.0
1.611586e+00 1.823044e-02 0.0
1.588629e+00 2.281767e-02 0.0
1.560938e+00 2.755202e-02 0.0
1.528047e+00 3.275100e-02 0.0
1.489395e+00 3.851350e-02 0.0
1.444537e+00 4.471799e-02 0.0
1.393304e+00 5.109468e-02 0.0
1.335867e+00 5.729775e-02 0.0
1.272720e+00 6.300751e-02 0.0
1.204628e+00 6.795205e-02 0.0
1.132802e+00 7.168697e-02 0.0
1.059381e+00 7.328152e-02 0.0
9.877061e-01 7.153612e-02 0.0
9.225263e-01 6.504059e-02 0.0
8.697659e-01 5.262106e-02 0.0
8.354325e-01 3.419415e-02 0.0
8.238738e-01 1.141948e-02 0.0
8.364025e-01 -1.266797e-02 0.0
8.726072e-01 -3.634400e-02 0.0
9.315852e-01 -5.911728e-02 0.0
1.011981e+00 -8.053485e-02 0.0
1.110624e+00 -9.878216e-02 0.0
1.221596e+00 -1.111112e-01 0.0
1.335714e+00 -1.142582e-01 0.0
1.442448e+00 -1.068732e-01 0.0
1.531196e+00 -8.888717e-02 0.0
1.593180e+00 -6.212346e-02 0.0
1.623793e+00 -3.075192e-02 0.0
1.623590e+00 6.320487e-05 0.0
1.594463e+00 2.898806e-02 0.0
1.537631e+00 5.669299e-02 0.0
1.455238e+00 8.225287e-02 0.0
1.352212e+00 1.028875e-01 0.0
1.238029e+00 1.140437e-01 0.0
1.125531e+00 1.123585e-01 0.0
1.026493e+00 9.889863e-02 0.0
9.490601e-01 7.729346e-02 0.0
8.970068e-01 5.191393e-02 0.0
8.701418e-01 2.672561e-02 0.0
8.652662e-01 4.736324e-03 0.0
8.774420e-01 -1.231518e-02 0.0
9.018427e-01 -2.454003e-02 0.0
9.343984e-01 -3.269514e-02 0.0
9.718125e-01 -3.755344e-02 0.0
1.011449e+00 -3.977601e-02 0.0
1.051220e+00 -3.991044e-02 0.0
1.089473e+00 -3.839206e-02 0.0
1.124910e+00 -3.557625e-02 0.0
1.156512e+00 -3.174129e-02 0.0
1.183506e+00 -2.713381e-02 0.0
1.205363e+00 -2.199574e-02 0.0
1.221799e+00 -1.657632e-02 0.0
1.232796e+00 -1.113560e-02 0.0
1.238573e+00 -5.917079e-03 0.0
1.239432e+00 -9.984150e-04 0.0
1.235418e+00 3.874576e-03 0.0
1.226458e+00 8.820800e-03 0.0
1.212456e+00 1.386298e-02 0.0
1.193365e+00 1.895182e-02 0.0
1.169385e+00 2.383988e-02 0.0
1.141311e+00 2.793534e-02 0.0
1.110849e+00 3.032248e-02 0.0
1.080561e+00 3.014784e-02 0.0
1.053234e+00 2.718845e-02 0.0
1.031209e+00 2.188552e-02 0.0
1.015994e+00 1.507543e-02 0.0
1.008099e+00 7.755876e-03 0.0
1.007051e+00 9.083099e-04 0.0
1.011595e+00 -4.684008e-03 0.0
1.020178e+00 -8.722384e-03 0.0
1.031266e+00 -1.122682e-02 0.0
1.043485e+00 -1.235890e-02 0.0
1.055652e+00 -1.230662e-02 0.0
1.066720e+00 -1.120701e-02 0.0
1.075838e+00 -9.257363e-03 0.0
1.081280e+00 -5.581053e-03 0.0
0.000000e+00 -5.625255e-03 0.0
1.000000e+00 -4.861338e-02 0.0
1.024426e+00 -4.888685e-02 0.0
1.051844e+00 -5.463448e-02 0.0
1.085144e+00 -6.621958e-02 0.0
1.127318e+00 -8.344788e-02 0.0
1.181150e+00 -1.055456e-01 0.0
1.246621e+00 -1.273293e-01 0.0
1.327794e+00 -1.527934e-01 0.0
1.399565e+00 -1.380919e-01 0.0
1.452308e+00 -1.045253e-01 0.0
1.487950e+00 -7.214667e-02 0.0
1.511362e+00 -4.791451e-02 0.0
1.527196e+00 -3.248851e-02 0.0
1.539159e+00 -2.457468e-02 0.0
1.550207e+00 -2.289357e-02 0.0
1.562961e+00 -2.662080e-02 0.0
1.579716e+00 -3.465044e-02 0.0
1.601487e+00 -4.399589e-02 0.0
1.626540e+00 -4.938723e-02 0.0
1.650670e+00 -4.641603e-02 0.0
1.669318e+00 -3.475433e-02 0.0
1.679609e+00 -1.799286e-02 0.0
1.681390e+00 -1.252612e-03 0.0
1.676160e+00 1.274813e-02 0.0
1.665346e+00 2.409463e-02 0.0
1.649895e+00 3.364515e-02 0.0
1.630144e+00 4.253313e-02 0.0
1.605914e+00 5.174541e-02 0.0
1.576698e+00 6.193091e-02 0.0
1.541886e+00 7.328853e-02 0.0
1.501032e+00 8.553624e-02 0.0
1.453979e+00 9.811126e-02 0.0
1.400946e+00 1.102944e-01 0.0
1.342531e+00 1.213856e-01 0.0
1.279681e+00 1.307664e-01 0.0
1.213642e+00 1.376892e-01 0.0
1.146008e+00 1.408790e-01 0.0
1.079273e+00 1.382348e-01 0.0
1.017061e+00 1.272169e-01 0.0
9.639230e-01 1.057223e-01 0.0
9.246760e-01 7.340487e-02 0.0
9.031568e-01 3.290237e-02 0.0
9.008449e-01 -1.039244e-02 0.0
9.167194e-01 -5.225481e-02 0.0
9.497396e-01 -9.217385e-02 0.0
9.993810e-01 -1.302126e-01 0.0
1.065039e+00 -1.644769e-01 0.0
1.143846e+00 -1.899545e-01 0.0
1.230004e+00 -2.004523e-01 0.0
1.315340e+00 -1.922454e-01 0.0
1.391129e+00 -1.647123e-01 0.0
1.449411e+00 -1.204416e-01 0.0
1.484384e+00 -6.576154e-02 0.0
1.493298e+00 -8.887688e-03 0.0
1.477252e+00 4.499792e-02 0.0
1.439315e+00 9.459370e-02 0.0
1.384030e+00 1.375021e-01 0.0
1.317028e+00 1.698529e-01 0.0
1.244035e+00 1.870003e-01 0.0
1.171137e+00 1.852203e-01 0.0
1.104931e+00 1.650683e-01 0.0
1.050213e+00 1.319744e-01 0.0
1.009736e+00 9.235531e-02 0.0
9.847988e-01 5.162601e-02 0.0
9.750400e-01 1.445880e-02 0.0
9.784654e-01 -1.577696e-02 0.0
9.920492e-01 -3.816020e-02 0.0
1.012901e+00 -5.358315e-02 0.0
1.038515e+00 -6.320356e-02 0.0
1.066715e+00 -6.801298e-02 0.0
1.095729e+00 -6.896012e-02 0.0
1.124214e+00 -6.691382e-02 0.0
1.151055e+00 -6.245369e-02 0.0
1.175321e+00 -5.604318e-02 0.0
1.196272e+00 -4.812154e-02 0.0
1.213375e+00 -3.913537e-02 0.0
1.226300e+00 -2.953796e-02 0.0
1.234882e+00 -1.975342e-02 0.0
1.238992e+00 -1.006349e-02 0.0
1.238319e+00 -3.616428e-04 0.0
1.232553e+00 9.603980e-03 0.0
1.221548e+00 1.978963e-02 0.0
1.205334e+00 3.004057e-02 0.0
1.184311e+00 3.993859e-02 0.0
1.159490e+00 4.862386e-02 0.0
1.132661e+00 5.472820e-02 0.0
1.106333e+00 5.661456e-02 0.0
1.083269e+00 5.317558e-02 0.0
1.065654e+00 4.476706e-02 0.0
1.054637e+00 3.286553e-02 0.0
1.050227e+00 1.944968e-02 0.0
1.051485e+00 6.460869e-03 0.0
1.056945e+00 -4.587396e-03 0.0
1.065256e+00 -1.303219e-02 0.0
1.075316e+00 -1.881861e-02 0.0
1.086191e+00 -2.213805e-02 0.0
1.097056e+00 -2.326022e-02 0.0
1.107249e+00 -2.253556e-02 0.0
1.116225e+00 -2.021923e-02 0.0
1.123466e+00 -1.653473e-02 0.0
1.128044e+00 -1.019614e-02 0.0
0.000000e+00 -1.027835e-02 0.0
1.000000e+00 -6.993277e-02 0.0
1.021316e+00 -7.034195e-02 0.0
1.045728e+00 -7.908237e-02 0.0
1.076419e+00 -9.694735e-02 0.0
1.117166e+00 -1.242308e-01 0.0
1.172379e+00 -1.607951e-01 0.0
1.243341e+00 -1.983283e-01 0.0
1.344739e+00 -2.542278e-01 0.0
1.423497e+00 -2.168856e-01 0.0
1.473130e+00 -1.541944e-01 0.0
1.502755e+00 -1.018087e-01 0.0
1.520272e+00 -6.546759e-02 0.0
1.530946e+00 -4.319833e-02 0.0
1.538077e+00 -3.174249e-02 0.0
1.543939e+00 -2.879120e-02 0.0
1.550596e+00 -3.331505e-02 0.0
1.560621e+00 -4.471174e-02 0.0
1.576603e+00 -6.001407e-02 0.0
1.598703e+00 -7.152361e-02 0.0
1.622951e+00 -7.069996e-02 0.0
1.643918e+00 -5.575718e-02 0.0
1.657259e+00 -3.137060e-02 0.0
1.661538e+00 -5.567572e-03 0.0
1.658475e+00 1.577426e-02 0.0
1.649965e+00 3.256864e-02 0.0
1.637232e+00 4.634152e-02 0.0
1.620658e+00 5.907076e-02 0.0
1.600011e+00 7.235642e-02 0.0
1.574700e+00 8.720499e-02 0.0
1.544029e+00 1.039240e-01 0.0
1.507408e+00 1.221208e-01 0.0
1.464575e+00 1.409072e-01 0.0
1.415708e+00 1.591255e-01 0.0
1.361426e+00 1.756312e-01 0.0
1.302710e+00 1.894465e-01 0.0
1.240802e+00 1.995602e-01 0.0
1.177315e+00 2.043306e-01 0.0
1.114601e+00 2.009121e-01 0.0
1.055869e+00 1.859129e-01 0.0
1.004612e+00 1.569423e-01 0.0
9.637230e-01 1.142577e-01 0.0
9.350719e-01 6.151710e-02 0.0
9.200052e-01 4.637990e-03 0.0
9.188960e-01 -5.118193e-02 0.0
9.326584e-01 -1.059726e-01 0.0
9.618547e-01 -1.594452e-01 0.0
1.005103e+00 -2.077616e-01 0.0
1.059498e+00 -2.443862e-01 0.0
1.121031e+00 -2.620207e-01 0.0
1.184011e+00 -2.552622e-01 0.0
1.242130e+00 -2.228676e-01 0.0
1.289406e+00 -1.677539e-01 0.0
1.320888e+00 -9.727965e-02 0.0
1.333407e+00 -2.144376e-02 0.0
1.327190e+00 5.117914e-02 0.0
1.305364e+00 1.163829e-01 0.0
1.272242e+00 1.705880e-01 0.0
1.232262e+00 2.097967e-01 0.0
1.189158e+00 2.300675e-01 0.0
1.145732e+00 2.286102e-01 0.0
1.104546e+00 2.062185e-01 0.0
1.068467e+00 1.680169e-01 0.0
1.039980e+00 1.208057e-01 0.0
1.020275e+00 7.129485e-02 0.0
1.009547e+00 2.515002e-02 0.0
1.007346e+00 -1.361247e-02 0.0
1.012450e+00 -4.330005e-02 0.0
1.023425e+00 -6.459419e-02 0.0
1.038870e+00 -7.868500e-02 0.0
1.057454e+00 -8.663415e-02 0.0
1.077816e+00 -8.935781e-02 0.0
1.098614e+00 -8.774851e-02 0.0
1.118673e+00 -8.254888e-02 0.0
1.136986e+00 -7.439239e-02 0.0
1.152742e+00 -6.391380e-02 0.0
1.165336e+00 -5.176628e-02 0.0
1.174354e+00 -3.859249e-02 0.0
1.179495e+00 -2.493015e-02 0.0
1.180388e+00 -1.099281e-02 0.0
1.176414e+00 3.575722e-03 0.0
1.167313e+00 1.866851e-02 0.0
1.153107e+00 3.395898e-02 0.0
1.134246e+00 4.886578e-02 0.0
1.111843e+00 6.230507e-02 0.0
1.087876e+00 7.255497e-02 0.0
1.065116e+00 7.745159e-02 0.0
1.046460e+00 7.523423e-02 0.0
1.033478e+00 6.612133e-02 0.0
1.026385e+00 5.182293e-02 0.0
1.024399e+00 3.481576e-02 0.0
1.026193e+00 1.761898e-02 0.0
1.030364e+00 2.253632e-03 0.0
1.035911e+00 -1.017033e-02 0.0
1.042308e+00 -1.946606e-02 0.0
1.049252e+00 -2.579939e-02 0.0
1.056521e+00 -2.944256e-02 0.0
1.063886e+00 -3.066157e-02 0.0
1.071045e+00 -2.973088e-02 0.0
1.077598e+00 -2.680858e-02 0.0
1.083115e+00 -2.208822e-02 0.0
1.087063e+00 -1.418128e-02 0.0
0.000000e+00 -1.431975e-02 0.0
1.000000e+00 -8.648874e-02 0.0
1.016545e+00 -8.702621e-02 0.0
1.036127e+00 -9.870081e-02 0.0
1.062196e+00 -1.230526e-01 0.0
1.099679e+00 -1.617498e-01 0.0
1.155726e+00 -2.168780e-01 0.0
1.235868e+00 -2.785075e-01 0.0
1.371939e+00 -3.903349e-01 0.0
1.451297e+00 -2.962801e-01 0.0
1.487534e+00 -1.904669e-01 0.0
1.503705e+00 -1.180167e-01 0.0
1.510497e+00 -7.229537e-02 0.0
1.512113e+00 -4.485054e-02 0.0
1.510646e+00 -3.031177e-02 0.0
1.507145e+00 -2.532685e-02 0.0
1.502337e+00 -2.854343e-02 0.0
1.498273e+00 -4.068394e-02 0.0
1.499516e+00 -6.129316e-02 0.0
1.510681e+00 -8.272580e-02 0.0
1.530177e+00 -9.023198e-02 0.0
1.552245e+00 -7.786134e-02 0.0
1.571001e+00 -5.016245e-02 0.0
1.581843e+00 -1.644592e-02 0.0
1.584516e+00 1.306474e-02 0.0
1.581716e+00 3.533244e-02 0.0
1.575253e+00 5.276798e-02 0.0
1.565537e+00 6.874989e-02 0.0
1.552161e+00 8.569704e-02 0.0
1.534322e+00 1.050070e-01 0.0
1.511053e+00 1.271564e-01 0.0
1.481550e+00 1.515883e-01 0.0
1.445376e+00 1.770443e-01 0.0
1.402604e+00 2.018609e-01 0.0
1.353845e+00 2.243542e-01 0.0
1.300159e+00 2.430960e-01 0.0
1.242882e+00 2.568014e-01 0.0
1.183565e+00 2.636112e-01 0.0
1.124494e+00 2.599462e-01 0.0
1.068764e+00 2.416074e-01 0.0
1.019114e+00 2.065554e-01 0.0
9.766371e-01 1.566984e-01 0.0
9.414792e-01 9.663864e-02 0.0
9.158896e-01 3.019124e-02 0.0
9.044997e-01 -3.982836e-02 0.0
9.089767e-01 -1.104859e-01 0.0
9.280250e-01 -1.785299e-01 0.0
9.584977e-01 -2.382706e-01 0.0
9.967945e-01 -2.827194e-01 0.0
1.039363e+00 -3.046253e-01 0.0
1.082509e+00 -2.984451e-01 0.0
1.122375e+00 -2.627700e-01 0.0
1.155361e+00 -2.007758e-01 0.0
1.178271e+00 -1.202259e-01 0.0
1.188830e+00 -3.203933e-02 0.0
1.187027e+00 5.294551e-02 0.0
1.175348e+00 1.280263e-01 0.0
1.157056e+00 1.888436e-01 0.0
1.135183e+00 2.316330e-01 0.0
1.111967e+00 2.532475e-01 0.0
1.088610e+00 2.519306e-01 0.0
1.065908e+00 2.288840e-01 0.0
1.044979e+00 1.889093e-01 0.0
1.026963e+00 1.387858e-01 0.0
1.012723e+00 8.549799e-02 0.0
1.002955e+00 3.488157e-02 0.0
9.983389e-01 -9.032511e-03 0.0
9.991197e-01 -4.411716e-02 0.0
1.004952e+00 -7.046289e-02 0.0
1.015104e+00 -8.887343e-02 0.0
1.028562e+00 -1.001280e-01 0.0
1.044095e+00 -1.049280e-01 0.0
1.060369e+00 -1.040589e-01 0.0
1.076156e+00 -9.837197e-02 0.0
1.090401e+00 -8.867353e-02 0.0
1.102259e+00 -7.580786e-02 0.0
1.111089e+00 -6.063273e-02 0.0
1.116397e+00 -4.393759e-02 0.0
1.117695e+00 -2.626440e-02 0.0
1.114246e+00 -7.580010e-03 0.0
1.105487e+00 1.229816e-02 0.0
1.091500e+00 3.261932e-02 0.0
1.072891e+00 5.253152e-02 0.0
1.051003e+00 7.071803e-02 0.0
1.028078e+00 8.519363e-02 0.0
1.007109e+00 9.348702e-02 0.0
9.911031e-01 9.342141e-02 0.0
9.813030e-01 8.499796e-02 0.0
9.772495e-01 7.013848e-02 0.0
9.775487e-01 5.148736e-02 0.0
9.805348e-01 3.179326e-02 0.0
9.848023e-01 1.331511e-02 0.0
9.894979e-01 -2.478339e-03 0.0
9.944332e-01 -1.514200e-02 0.0
9.996572e-01 -2.472643e-02 0.0
1.005245e+00 -3.142372e-02 0.0
1.011203e+00 -3.543695e-02 0.0
1.017421e+00 -3.691561e-02 0.0
1.023635e+00 -3.598129e-02 0.0
1.029477e+00 -3.268656e-02 0.0
1.034550e+00 -2.719802e-02 0.0
1.038213e+00 -1.788047e-02 0.0
0.000000e+00 -1.806857e-02 0.0
1.000000e+00 -9.658778e-02 0.0
1.010077e+00 -9.724218e-02 0.0
1.022672e+00 -1.113320e-01 0.0
1.041082e+00 -1.414997e-01 0.0
1.071258e+00 -1.919613e-01 0.0
1.123869e+00 -2.695261e-01 0.0
1.213955e+00 -3.686290e-01 0.0
1.394220e+00 -5.706370e-01 0.0
1.449458e+00 -3.515544e-01 0.0
1.455568e+00 -1.966133e-01 0.0
1.449242e+00 -1.117266e-01 0.0
1.439759e+00 -6.284826e-02 0.0
1.428333e+00 -3.346123e-02 0.0
1.414812e+00 -1.682749e-02 0.0
1.398443e+00 -8.993533e-03 0.0
1.377707e+00 -7.843797e-03 0.0
1.351684e+00 -1.469762e-02 0.0
1.324741e+00 -3.438595e-02 0.0
1.308323e+00 -6.634418e-02 0.0
1.309554e+00 -9.149978e-02 0.0
1.324484e+00 -9.282684e-02 0.0
1.347195e+00 -7.291071e-02 0.0
1.371446e+00 -4.073282e-02 0.0
1.389724e+00 -5.249352e-03 0.0
1.401417e+00 2.360332e-02 0.0
1.410208e+00 4.394022e-02 0.0
1.416462e+00 6.246003e-02 0.0
1.419317e+00 8.280492e-02 0.0
1.417678e+00 1.066102e-01 0.0
1.410059e+00 1.347394e-01 0.0
1.395271e+00 1.663396e-01 0.0
1.372573e+00 1.997065e-01 0.0
1.341841e+00 2.325557e-01 0.0
1.303642e+00 2.625176e-01 0.0
1.259130e+00 2.875712e-01 0.0
1.209836e+00 3.060595e-01 0.0
1.157434e+00 3.159768e-01 0.0
1.103932e+00 3.134114e-01 0.0
1.051809e+00 2.936947e-01 0.0
1.002687e+00 2.556409e-01 0.0
9.568397e-01 2.025093e-01 0.0
9.157919e-01 1.376501e-01 0.0
8.849072e-01 6.103964e-02 0.0
8.708806e-01 -2.583812e-02 0.0
8.745481e-01 -1.141898e-01 0.0
8.907832e-01 -1.948013e-01 0.0
9.143006e-01 -2.618243e-01 0.0
9.416935e-01 -3.101486e-01 0.0
9.706318e-01 -3.335999e-01 0.0
9.988495e-01 -3.266991e-01 0.0
1.024117e+00 -2.880735e-01 0.0
1.044669e+00 -2.213640e-01 0.0
1.059030e+00 -1.346232e-01 0.0
1.066091e+00 -3.913673e-02 0.0
1.065914e+00 5.308530e-02 0.0
1.060226e+00 1.336782e-01 0.0
1.051194e+00 1.978400e-01 0.0
1.040704e+00 2.420864e-01 0.0
1.029993e+00 2.639220e-01 0.0
1.019413e+00 2.624742e-01 0.0
1.008805e+00 2.394553e-01 0.0
9.981613e-01 1.995170e-01 0.0
9.877490e-01 1.491619e-01 0.0
9.781453e-01 9.506531e-02 0.0
9.702917e-01 4.269877e-02 0.0
9.654572e-01 -4.234403e-03 0.0
9.648289e-01 -4.352516e-02 0.0
9.687981e-01 -7.446842e-02 0.0
9.769597e-01 -9.707146e-02 0.0
9.883542e-01 -1.115588e-01 0.0
1.001726e+00 -1.183364e-01 0.0
1.015697e+00 -1.180658e-01 0.0
1.028956e+00 -1.116678e-01 0.0
1.040402e+00 -1.001558e-01 0.0
1.049171e+00 -8.461255e-02 0.0
1.054591e+00 -6.608986e-02 0.0
1.056072e+00 -4.545500e-02 0.0
1.052900e+00 -2.312863e-02 0.0
1.044164e+00 1.120170e-03 0.0
1.030018e+00 2.640743e-02 0.0
1.011263e+00 5.133794e-02 0.0
9.894804e-01 7.427784e-02 0.0
9.671443e-01 9.301771e-02 0.0
9.473682e-01 1.049334e-01 0.0
9.330740e-01 1.077449e-01 0.0
9.253339e-01 1.011251e-01 0.0
9.231719e-01 8.712367e-02 0.0
9.248626e-01 6.841134e-02 0.0
9.285832e-01 4.773047e-02 0.0
9.329582e-01 2.738186e-02 0.0
9.372977e-01 8.939215e-03 0.0
9.415667e-01 -6.783674e-03 0.0
9.460473e-01 -1.965894e-02 0.0
9.509654e-01 -2.968091e-02 0.0
9.564028e-01 -3.689754e-02 0.0
9.623002e-01 -4.137067e-02 0.0
9.684849e-01 -4.313670e-02 0.0
9.746689e-01 -4.220165e-02 0.0
9.804808e-01 -3.853484e-02 0.0
9.855459e-01 -3.229949e-02 0.0
9.890048e-01 -2.137570e-02 0.0
0.000000e+00 -2.159095e-02 0.0
1.000000e+00 -9.876965e-02 0.0
1.002143e+00 -9.952443e-02 0.0
1.005475e+00 -1.147001e-01 0.0
1.012035e+00 -1.480966e-01 0.0
1.027150e+00 -2.071121e-01 0.0
1.063289e+00 -3.057014e-01 0.0
1.148634e+00 -4.540102e-01 0.0
1.364483e+00 -7.865229e-01 0.0
1.349694e+00 -3.368010e-01 0.0
1.300322e+00 -1.472777e-01 0.0
1.262492e+00 -7.393284e-02 0.0
1.234541e+00 -3.493363e-02 0.0
1.210478e+00 -9.434721e-03 0.0
1.184461e+00 9.153279e-03 0.0
1.153974e+00 2.145680e-02 0.0
1.118025e+00 2.806871e-02 0.0
1.071493e+00 3.179793e-02 0.0
1.010402e+00 2.666876e-02 0.0
9.444270e-01 -4.050772e-04 0.0
9.011189e-01 -4.822794e-02 0.0
8.912263e-01 -8.297057e-02 0.0
9.066779e-01 -8.839866e-02 0.0
9.416583e-01 -7.574948e-02 0.0
9.898110e-01 -5.343840e-02 0.0
1.041674e+00 -2.829630e-02 0.0
1.088346e+00 -2.767346e-03 0.0
1.128530e+00 2.223892e-02 0.0
1.162957e+00 4.834190e-02 0.0
1.191463e+00 7.806819e-02 0.0
1.211854e+00 1.143119e-01 0.0
1.222711e+00 1.554464e-01 0.0
1.223033e+00 1.993480e-01 0.0
1.212551e+00 2.430008e-01 0.0
1.191862e+00 2.831708e-01 0.0
1.162332e+00 3.170649e-01 0.0
1.125928e+00 3.424275e-01 0.0
1.084866e+00 3.570017e-01 0.0
1.040417e+00 3.578241e-01 0.0
9.921778e-01 3.418978e-01 0.0
9.385917e-01 3.091907e-01 0.0
8.822944e-01 2.587702e-01 0.0
8.356443e-01 1.842639e-01 0.0
8.126205e-01 8.402706e-02 0.0
8.148836e-01 -2.813752e-02 0.0
8.326225e-01 -1.319651e-01 0.0
8.556010e-01 -2.178162e-01 0.0
8.783774e-01 -2.846370e-01 0.0
8.993260e-01 -3.311335e-01 0.0
9.182562e-01 -3.525664e-01 0.0
9.347111e-01 -3.431904e-01 0.0
9.480208e-01 -3.014195e-01 0.0
9.579263e-01 -2.313059e-01 0.0
9.644113e-01 -1.411445e-01 0.0
9.673735e-01 -4.213526e-02 0.0
9.669555e-01 5.346695e-02 0.0
9.641437e-01 1.364535e-01 0.0
9.601752e-01 2.017722e-01 0.0
9.560986e-01 2.461266e-01 0.0
9.524748e-01 2.675095e-01 0.0
9.490963e-01 2.658162e-01 0.0
9.452417e-01 2.432736e-01 0.0
9.402932e-01 2.044292e-01 0.0
9.341380e-01 1.552807e-01 0.0
9.274202e-01 1.017468e-01 0.0
9.215220e-01 4.856067e-02 0.0
9.182128e-01 -9.615856e-04 0.0
9.190457e-01 -4.439446e-02 0.0
9.244691e-01 -7.992818e-02 0.0
9.338439e-01 -1.064826e-01 0.0
9.459269e-01 -1.236781e-01 0.0
9.592802e-01 -1.317260e-01 0.0
9.724818e-01 -1.313038e-01 0.0
9.842141e-01 -1.234364e-01 0.0
9.934007e-01 -1.093788e-01 0.0
9.992020e-01 -9.045021e-02 0.0
1.000925e+00 -6.784909e-02 0.0
9.978679e-01 -4.243437e-02 0.0
9.891917e-01 -1.448881e-02 0.0
9.748302e-01 1.544531e-02 0.0
9.559470e-01 4.525420e-02 0.0
9.343636e-01 7.288502e-02 0.0
9.126860e-01 9.591907e-02 0.0
8.939722e-01 1.116951e-01 0.0
8.808583e-01 1.180109e-01 0.0
8.742717e-01 1.142951e-01 0.0
8.728921e-01 1.024683e-01 0.0
8.748592e-01 8.512020e-02 0.0
8.783926e-01 6.484156e-02 0.0
8.822687e-01 4.381798e-02 0.0
8.860084e-01 2.360585e-02 0.0
8.897485e-01 5.162706e-03 0.0
8.939540e-01 -1.102554e-02 0.0
8.989505e-01 -2.469182e-02 0.0
9.047896e-01 -3.555631e-02 0.0
9.113041e-01 -4.344846e-02 0.0
9.182031e-01 -4.830599e-02 0.0
9.251552e-01 -5.012524e-02 0.0
9.318117e-01 -4.889445e-02 0.0
9.378116e-01 -4.457116e-02 0.0
9.428398e-01 -3.736408e-02 0.0
9.460373e-01 -2.460950e-02 0.0
0.000000e+00 -2.481258e-02 0.0
1.000000e+00 -9.230074e-02 0.0
9.934699e-01 -9.313349e-02 0.0
9.858643e-01 -1.071309e-01 0.0
9.762057e-01 -1.384743e-01 0.0
9.650606e-01 -1.960033e-01 0.0
9.577582e-01 -2.984353e-01 0.0
9.812838e-01 -4.775721e-01 0.0
1.139315e+00 -9.445907e-01 0.0
9.919963e-01 -1.894155e-01 0.0
8.610679e-01 -1.628275e-02 0.0
7.966328e-01 -9.534048e-03 0.0
7.561354e-01 5.527453e-03 0.0
7.191210e-01 2.754338e-02 0.0
6.752732e-01 5.296478e-02 0.0
6.175058e-01 7.918793e-02 0.0
5.442039e-01 1.013343e-01 0.0
4.648975e-01 1.110680e-01 0.0
3.989058e-01 9.262418e-02 0.0
3.491958e-01 4.926853e-02 0.0
3.100416e-01 -9.110048e-03 0.0
2.933618e-01 -6.632710e-02 0.0
3.081333e-01 -1.032065e-01 0.0
3.518890e-01 -1.195415e-01 0.0
4.229682e-01 -1.245539e-01 0.0
5.172546e-01 -1.226191e-01 0.0
6.253215e-01 -1.108705e-01 0.0
7.333145e-01 -8.579037e-02 0.0
8.266394e-01 -4.501934e-02 0.0
8.971242e-01 7.547070e-03 0.0
9.506572e-01 6.074264e-02 0.0
9.905598e-01 1.155074e-01 0.0
1.016565e+00 1.733061e-01 0.0
1.028435e+00 2.310950e-01 0.0
1.026812e+00 2.847573e-01 0.0
1.013119e+00 3.307218e-01 0.0
9.892301e-01 3.662799e-01 0.0
9.566126e-01 3.895828e-01 0.0
9.135254e-01 4.008750e-01 0.0
8.559523e-01 3.994345e-01 0.0
7.903031e-01 3.748036e-01 0.0
7.377072e-01 3.113298e-01 0.0
7.184478e-01 2.034870e-01 0.0
7.332263e-01 6.921224e-02 0.0
7.663425e-01 -6.129003e-02 0.0
8.025394e-01 -1.681983e-01 0.0
8.340047e-01 -2.493178e-01 0.0
8.576802e-01 -3.083488e-01 0.0
8.739175e-01 -3.474071e-01 0.0
8.846811e-01 -3.633664e-01 0.0
8.914401e-01 -3.499858e-01 0.0
8.948963e-01 -3.049120e-01 0.0
8.957785e-01 -2.322245e-01 0.0
8.950587e-01 -1.404610e-01 0.0
8.934183e-01 -4.053130e-02 0.0
8.911660e-01 5.568298e-02 0.0
8.887082e-01 1.388749e-01 0.0
8.865705e-01 2.038736e-01 0.0
8.851836e-01 2.474772e-01 0.0
8.845728e-01 2.680840e-01 0.0
8.840764e-01 2.662762e-01 0.0
8.826394e-01 2.446743e-01 0.0
8.794893e-01 2.075429e-01 0.0
8.747382e-01 1.599954e-01 0.0
8.696294e-01 1.068192e-01 0.0
8.661769e-01 5.197676e-02 0.0
8.663644e-01 -1.185402e-03 0.0
8.713381e-01 -4.940455e-02 0.0
8.808098e-01 -8.943615e-02 0.0
8.934870e-01 -1.191962e-01 0.0
9.077543e-01 -1.379817e-01 0.0
9.220641e-01 -1.460722e-01 0.0
9.350384e-01 -1.443144e-01 0.0
9.454664e-01 -1.339008e-01 0.0
9.523725e-01 -1.163213e-01 0.0
9.549666e-01 -9.308065e-02 0.0
9.525484e-01 -6.546724e-02 0.0
9.444533e-01 -3.437565e-02 0.0
9.304113e-01 -4.831456e-04 0.0
9.119088e-01 3.391138e-02 0.0
8.909957e-01 6.613095e-02 0.0
8.702925e-01 9.355192e-02 0.0
8.526472e-01 1.135280e-01 0.0
8.403226e-01 1.239833e-01 0.0
8.340219e-01 1.242753e-01 0.0
8.323912e-01 1.158894e-01 0.0
8.335730e-01 1.012502e-01 0.0
8.359554e-01 8.270140e-02 0.0
8.385446e-01 6.221600e-02 0.0
8.410916e-01 4.123466e-02 0.0
8.439319e-01 2.072910e-02 0.0
8.476651e-01 1.393218e-03 0.0
8.527744e-01 -1.617122e-02 0.0
8.593004e-01 -3.125420e-02 0.0
8.669333e-01 -4.322562e-02 0.0
8.751765e-01 -5.172805e-02 0.0
8.834907e-01 -5.665651e-02 0.0
8.913908e-01 -5.806174e-02 0.0
8.984702e-01 -5.601017e-02 0.0
9.044185e-01 -5.055590e-02 0.0
9.090319e-01 -4.201379e-02 0.0
9.118100e-01 -2.742397e-02 0.0
0.000000e+00 -2.756480e-02 0.0
1.000000e+00 -7.778527e-02 0.0
9.853959e-01 -7.866855e-02 0.0
9.670998e-01 -8.887107e-02 0.0
9.399681e-01 -1.113788e-01 0.0
8.955367e-01 -1.516082e-01 0.0
8.168595e-01 -2.197944e-01 0.0
6.788821e-01 -3.396310e-01 0.0
1.896212e-01 -4.552633e-01 0.0
-9.901172e-01 4.531095e-01 0.0
0.000000e+00 -2.627983e-02 0.0
-5.364530e-02 2.768931e-02 0.0
-1.060779e-02 -3.754637e-02 0.0
3.745692e-02 -2.055764e-02 0.0
6.854481e-02 2.184058e-02 0.0
7.494681e-02 7.274961e-02 0.0
6.563407e-02 1.106107e-01 0.0
4.846683e-02 1.281989e-01 0.0
1.829072e-02 1.227640e-01 0.0
-2.312748e-02 9.065042e-02 0.0
-7.145611e-02 3.918226e-02 0.0
-1.154537e-01 -2.236587e-02 0.0
-1.327698e-01 -8.592665e-02 0.0
-1.076508e-01 -1.446968e-01 0.0
-3.617082e-02 -1.960702e-01 0.0
7.439826e-02 -2.332245e-01 0.0
2.091394e-01 -2.456480e-01 0.0
3.531930e-01 -2.298803e-01 0.0
4.924686e-01 -1.843312e-01 0.0
6.124582e-01 -1.124789e-01 0.0
7.007704e-01 -2.760585e-02 0.0
7.630658e-01 5.317569e-02 0.0
8.066443e-01 1.296912e-01 0.0
8.327033e-01 2.049998e-01 0.0
8.419731e-01 2.754511e-01 0.0
8.351688e-01 3.374898e-01 0.0
8.124577e-01 3.889547e-01 0.0
7.727967e-01 4.292074e-01 0.0
7.163822e-01 4.572531e-01 0.0
6.541294e-01 4.616510e-01 0.0
6.100106e-01 4.188860e-01 0.0
6.035912e-01 3.177129e-01 0.0
6.338507e-01 1.731912e-01 0.0
6.857701e-01 1.725650e-02 0.0
7.412746e-01 -1.168309e-01 0.0
7.906280e-01 -2.175880e-01 0.0
8.287713e-01 -2.874975e-01 0.0
8.534676e-01 -3.330815e-01 0.0
8.656866e-01 -3.596624e-01 0.0
8.690911e-01 -3.668073e-01 0.0
8.674125e-01 -3.483436e-01 0.0
8.627715e-01 -3.003073e-01 0.0
8.563412e-01 -2.258305e-01 0.0
8.494212e-01 -1.335774e-01 0.0
8.431226e-01 -3.426897e-02 0.0
8.379894e-01 6.077977e-02 0.0
8.340919e-01 1.427361e-01 0.0
8.314609e-01 2.064682e-01 0.0
8.300250e-01 2.488767e-01 0.0
8.293172e-01 2.687555e-01 0.0
8.283355e-01 2.672216e-01 0.0
8.260314e-01 2.469421e-01 0.0
8.220963e-01 2.114417e-01 0.0
8.174812e-01 1.645741e-01 0.0
8.142006e-01 1.100635e-01 0.0
8.144990e-01 5.164196e-02 0.0
8.199236e-01 -6.646296e-03 0.0
8.305749e-01 -6.009220e-02 0.0
8.451459e-01 -1.040435e-01 0.0
8.617214e-01 -1.358081e-01 0.0
8.784285e-01 -1.547252e-01 0.0
8.937151e-01 -1.613952e-01 0.0
9.063196e-01 -1.569553e-01 0.0
9.152334e-01 -1.428509e-01 0.0
9.196418e-01 -1.207661e-01 0.0
9.188602e-01 -9.233547e-02 0.0
9.123297e-01 -5.897308e-02 0.0
8.998758e-01 -2.195815e-02 0.0
8.827648e-01 1.659155e-02 0.0
8.633344e-01 5.330536e-02 0.0
8.441064e-01 8.532262e-02 0.0
8.276304e-01 1.099916e-01 0.0
8.157884e-01 1.253336e-01 0.0
8.090849e-01 1.306505e-01 0.0
8.063872e-01 1.269366e-01 0.0
8.059645e-01 1.162757e-01 0.0
8.064491e-01 1.007293e-01 0.0
8.070896e-01 8.202451e-02 0.0
8.078296e-01 6.143967e-02 0.0
8.091439e-01 3.988398e-02 0.0
8.117424e-01 1.809427e-02 0.0
8.162687e-01 -3.169470e-03 0.0
8.229368e-01 -2.287568e-02 0.0
8.314202e-01 -3.977400e-02 0.0
8.410656e-01 -5.290740e-02 0.0
8.510926e-01 -6.179142e-02 0.0
8.607529e-01 -6.635319e-02 0.0
8.694240e-01 -6.676918e-02 0.0
8.766500e-01 -6.327254e-02 0.0
8.821958e-01 -5.613807e-02 0.0
8.859950e-01 -4.584933e-02 0.0
8.881981e-01 -2.966351e-02 0.0
0.000000e+00 -2.968846e-02 0.0
1.000000e+00 -5.741693e-02 0.0
9.795132e-01 -5.832092e-02 0.0
9.536313e-01 -6.302553e-02 0.0
9.146245e-01 -7.240826e-02 0.0
8.486827e-01 -8.570278e-02 0.0
7.263170e-01 -9.746503e-02 0.0
4.743961e-01 -8.774640e-02 0.0
-6.846062e-03 2.604548e-02 0.0
-1.084695e-04 0.000000e+00 0.0
0.000000e+00 -0.000000e+00 0.0
0.000000e+00 3.726591e-02 0.0
-2.497644e-03 -3.508504e-02 0.0
-4.799170e-02 2.490009e-02 0.0
-8.331339e-02 5.712597e-02 0.0
-1.196992e-01 1.090991e-01 0.0
-1.466642e-01 1.375393e-01 0.0
-1.676773e-01 1.491758e-01 0.0
-1.895485e-01 1.445989e-01 0.0