# vtk DataFile Version 3.0
Vector Field
ASCII
DATASET RECTILINEAR_GRID
DIMENSIONS 102 22 1
X_COORDINATES 102 double
0.000000 0.100000 0.200000 0.300000 0.400000 0.500000 0.600000 0.700000 0.800000 0.900000 1.000000 1.100000 1.200000 1.300000 1.400000 1.500000 1.600000 1.700000 1.800000 1.900000 2.000000 2.100000 2.200000 2.300000 2.400000 2.500000 2.600000 2.700000 2.800000 2.900000 3.000000 3.100000 3.200000 3.300000 3.400000 3.500000 3.600000 3.700000 3.800000 3.900000 4.000000 4.100000 4.200000 4.300000 4.400000 4.500000 4.600000 4.700000 4.800000 4.900000 5.000000 5.100000 5.200000 5.300000 5.400000 5.500000 5.600000 5.700000 5.800000 5.900000 6.000000 6.100000 6.200000 6.300000 6.400000 6.500000 6.600000 6.700000 6.800000 6.900000 7.000000 7.100000 7.200000 7.300000 7.400000 7.500000 7.600000 7.700000 7.800000 7.900000 8.000000 8.100000 8.200000 8.300000 8.400000 8.500000 8.600000 8.700000 8.800000 8.900000 9.000000 9.100000 9.200000 9.300000 9.400000 9.500000 9.600000 9.700000 9.800000 9.900000 10.000000 10.100000 
Y_COORDINATES 22 double
0.000000 0.100000 0.200000 0.300000 0.400000 0.500000 0.600000 0.700000 0.800000 0.900000 1.000000 1.100000 1.200000 1.300000 1.400000 1.500000 1.600000 1.700000 1.800000 1.900000 2.000000 2.100000 
Z_COORDINATES 1 double
0.0
POINT_DATA 2244
VECTORS Velocity double
0.000000e+00 0.000000e+00 0.0
-1.022950e+00 0.000000e+00 0.0
-1.048912e+00 0.000000e+00 0.0
-1.080585e+00 0.000000e+00 0.0
-1.120693e+00 0.000000e+00 0.0
-1.171474e+00 0.000000e+00 0.0
-1.232884e+00 0.000000e+00 0.0
-1.305082e+00 0.000000e+00 0.0
-1.373753e+00 0.000000e+00 0.0
-1.430102e+00 0.000000e+00 0.0
-1.473488e+00 0.000000e+00 0.0
-1.507132e+00 0.000000e+00 0.0
-1.534962e+00 0.000000e+00 0.0
-1.560301e+00 0.000000e+00 0.0
-1.585313e+00 0.000000e+00 0.0
-1.610585e+00 0.000000e+00 0.0
-1.634804e+00 0.000000e+00 0.0
-1.655144e+00 0.000000e+00 0.0
-1.668570e+00 0.000000e+00 0.0
-1.673429e+00 0.000000e+00 0.0
-1.669925e+00 0.000000e+00 0.0
-1.659045e+00 0.000000e+00 0.0
-1.641911e+00 0.000000e+00 0.0
-1.619425e+00 0.000000e+00 0.0
-1.592092e+00 0.000000e+00 0.0
-1.559986e+00 0.000000e+00 0.0
-1.522874e+00 0.000000e+00 0.0
-1.480395e+00 0.000000e+00 0.0
-1.432256e+00 0.000000e+00 0.0
-1.378377e+00 0.000000e+00 0.0
-1.318939e+00 0.000000e+00 0.0
-1.254333e+00 0.000000e+00 0.0
-1.185153e+00 0.000000e+00 0.0
-1.112563e+00 0.000000e+00 0.0
-1.039031e+00 0.000000e+00 0.0
-9.688093e-01 0.000000e+00 0.0
-9.082683e-01 0.000000e+00 0.0
-8.651558e-01 0.000000e+00 0.0
-8.464869e-01 0.000000e+00 0.0
-8.558593e-01 0.000000e+00 0.0
-8.931769e-01 0.000000e+00 0.0
-9.562773e-01 0.000000e+00 0.0
-1.042033e+00 0.000000e+00 0.0
-1.146053e+00 0.000000e+00 0.0
-1.261613e+00 0.000000e+00 0.0
-1.378974e+00 0.000000e+00 0.0
-1.487643e+00 0.000000e+00 0.0
-1.577375e+00 0.000000e+00 0.0
-1.639895e+00 0.000000e+00 0.0
-1.671349e+00 0.000000e+00 0.0
-1.674074e+00 0.000000e+00 0.0
-1.654179e+00 0.000000e+00 0.0
-1.616137e+00 0.000000e+00 0.0
-1.563500e+00 0.000000e+00 0.0
-1.499753e+00 0.000000e+00 0.0
-1.428703e+00 0.000000e+00 0.0
-1.354468e+00 0.000000e+00 0.0
-1.280994e+00 0.000000e+00 0.0
-1.211680e+00 0.000000e+00 0.0
-1.149025e+00 0.000000e+00 0.0
-1.094460e+00 0.000000e+00 0.0
-1.048464e+00 0.000000e+00 0.0
-1.010803e+00 0.000000e+00 0.0
-9.807463e-01 0.000000e+00 0.0
-9.572869e-01 0.000000e+00 0.0
-9.393296e-01 0.000000e+00 0.0
-9.258151e-01 0.000000e+00 0.0
-9.157938e-01 0.000000e+00 0.0
-9.084580e-01 0.000000e+00 0.0
-9.031458e-01 0.000000e+00 0.0
-8.993306e-01 0.000000e+00 0.0
-8.966034e-01 0.000000e+00 0.0
-8.946531e-01 0.000000e+00 0.0
-8.932481e-01 0.000000e+00 0.0
-8.922198e-01 0.000000e+00 0.0
-8.914481e-01 0.000000e+00 0.0
-8.908500e-01 0.000000e+00 0.0
-8.903699e-01 0.000000e+00 0.0
-8.899720e-01 0.000000e+00 0.0
-8.896350e-01 0.000000e+00 0.0
-8.893478e-01 0.000000e+00 0.0
-8.891076e-01 0.000000e+00 0.0
-8.889133e-01 0.000000e+00 0.0
-8.887634e-01 0.000000e+00 0.0
-8.886559e-01 0.000000e+00 0.0
-8.885875e-01 0.000000e+00 0.0
-8.885541e-01 0.000000e+00 0.0
-8.885503e-01 0.000000e+00 0.0
-8.885700e-01 0.000000e+00 0.0
-8.886064e-01 0.000000e+00 0.0
-8.886525e-01 0.000000e+00 0.0
-8.887014e-01 0.000000e+00 0.0
-8.887467e-01 0.000000e+00 0.0
-8.887825e-01 0.000000e+00 0.0
-8.888042e-01 0.000000e+00 0.0
-8.888109e-01 0.000000e+00 0.0
-8.888072e-01 0.000000e+00 0.0
-8.888107e-01 0.000000e+00 0.0
-8.888623e-01 0.000000e+00 0.0
-8.890748e-01 0.000000e+00 0.0
-8.890748e-01 0.000000e+00 0.0
0.000000e+00 0.000000e+00 0.0
1.000000e+00 -2.335364e-02 0.0
1.022999e+00 -2.339781e-02 0.0
1.049005e+00 -2.623564e-02 0.0
1.080713e+00 -3.193694e-02 0.0
1.120832e+00 -4.034893e-02 0.0
1.171582e+00 -5.097920e-02 0.0
1.232887e+00 -6.153431e-02 0.0
1.304838e+00 -7.217995e-02 0.0
1.373061e+00 -6.845290e-02 0.0
1.428735e+00 -5.590338e-02 0.0
1.471231e+00 -4.272467e-02 0.0
1.503800e+00 -3.279912e-02 0.0
1.530442e+00 -2.687140e-02 0.0
1.554599e+00 -2.438579e-02 0.0
1.578640e+00 -2.427095e-02 0.0
1.603446e+00 -2.503468e-02 0.0
1.627965e+00 -2.474907e-02 0.0
1.649438e+00 -2.170234e-02 0.0
1.664605e+00 -1.539630e-02 0.0
1.671372e+00 -6.996143e-03 0.0
1.669629e+00 1.513327e-03 0.0
1.660306e+00 9.093412e-03 0.0
1.644537e+00 1.553947e-02 0.0
1.623279e+00 2.102891e-02 0.0
1.597099e+00 2.595026e-02 0.0
1.566129e+00 3.074061e-02 0.0
1.530158e+00 3.574180e-02 0.0
1.488820e+00 4.110921e-02 0.0
1.441788e+00 4.680198e-02 0.0
1.388934e+00 5.262424e-02 0.0
1.330398e+00 5.830704e-02 0.0
1.266546e+00 6.362233e-02 0.0
1.197938e+00 6.837908e-02 0.0
1.125598e+00 7.211032e-02 0.0
1.051721e+00 7.364710e-02 0.0
9.801904e-01 7.130133e-02 0.0
9.169517e-01 6.300918e-02 0.0
8.695261e-01 4.719614e-02 0.0
8.451615e-01 2.413514e-02 0.0
8.481780e-01 -3.246054e-03 0.0
8.789998e-01 -3.105128e-02 0.0
9.357738e-01 -5.700355e-02 0.0
1.015698e+00 -8.015422e-02 0.0
1.114846e+00 -9.937705e-02 0.0
1.227484e+00 -1.128678e-01 0.0
1.344697e+00 -1.174418e-01 0.0
1.456253e+00 -1.117859e-01 0.0
1.551929e+00 -9.590544e-02 0.0
1.622817e+00 -7.111750e-02 0.0
1.663586e+00 -4.099866e-02 0.0
1.674619e+00 -1.126236e-02 0.0
1.661480e+00 1.290946e-02 0.0
1.629043e+00 3.220720e-02 0.0
1.580886e+00 4.792744e-02 0.0
1.520344e+00 6.031189e-02 0.0
1.451056e+00 6.905853e-02 0.0
1.377108e+00 7.371843e-02 0.0
1.302662e+00 7.421653e-02 0.0
1.231420e+00 7.101244e-02 0.0
1.166259e+00 6.493101e-02 0.0
1.108969e+00 5.706025e-02 0.0
1.060291e+00 4.844902e-02 0.0
1.020162e+00 3.989906e-02 0.0
9.879504e-01 3.198180e-02 0.0
9.626871e-01 2.503371e-02 0.0
9.432686e-01 1.918879e-02 0.0
9.286029e-01 1.443603e-02 0.0
9.176961e-01 1.067719e-02 0.0
9.096933e-01 7.773035e-03 0.0
9.038891e-01 5.574549e-03 0.0
8.997184e-01 3.941055e-03 0.0
8.967398e-01 2.748835e-03 0.0
8.946163e-01 1.893850e-03 0.0
8.930953e-01 1.291311e-03 0.0
8.919918e-01 8.737770e-04 0.0
8.911733e-01 5.887426e-04 0.0
8.905474e-01 3.961659e-04 0.0
8.900516e-01 2.661399e-04 0.0
8.896451e-01 1.767944e-04 0.0
8.893030e-01 1.123872e-04 0.0
8.890119e-01 6.136187e-05 0.0
8.887671e-01 1.501952e-05 0.0
8.885673e-01 -2.992845e-05 0.0
8.884108e-01 -7.323840e-05 0.0
8.882956e-01 -1.145405e-04 0.0
8.882188e-01 -1.529786e-04 0.0
8.881765e-01 -1.874389e-04 0.0
8.881636e-01 -2.168298e-04 0.0
8.881741e-01 -2.402648e-04 0.0
8.882014e-01 -2.570915e-04 0.0
8.882386e-01 -2.669470e-04 0.0
8.882788e-01 -2.699728e-04 0.0
8.883155e-01 -2.664297e-04 0.0
8.883427e-01 -2.569716e-04 0.0
8.883562e-01 -2.432333e-04 0.0
8.883548e-01 -2.283968e-04 0.0
8.883437e-01 -2.186490e-04 0.0
8.883408e-01 -2.268442e-04 0.0
8.883877e-01 -2.767209e-04 0.0
8.885981e-01 -4.401263e-04 0.0
8.890748e-01 -7.064902e-04 0.0
0.000000e+00 -7.090431e-04 0.0
1.000000e+00 -4.684500e-02 0.0
1.023309e+00 -4.693614e-02 0.0
1.049666e+00 -5.265249e-02 0.0
1.081905e+00 -6.423599e-02 0.0
1.123068e+00 -8.157130e-02 0.0
1.176052e+00 -1.040233e-01 0.0
1.241038e+00 -1.265798e-01 0.0
1.322491e+00 -1.536937e-01 0.0
1.396098e+00 -1.421195e-01 0.0
1.452639e+00 -1.125036e-01 0.0
1.494065e+00 -8.421087e-02 0.0
1.525214e+00 -6.400821e-02 0.0
1.550587e+00 -5.230438e-02 0.0
1.573692e+00 -4.755009e-02 0.0
1.596984e+00 -4.762308e-02 0.0
1.621681e+00 -4.979132e-02 0.0
1.647059e+00 -5.018651e-02 0.0
1.670397e+00 -4.510077e-02 0.0
1.688100e+00 -3.315919e-02 0.0
1.697478e+00 -1.643404e-02 0.0
1.698115e+00 8.165940e-04 0.0
1.691148e+00 1.600055e-02 0.0
1.677872e+00 2.875536e-02 0.0
1.659337e+00 3.950405e-02 0.0
1.636147e+00 4.908073e-02 0.0
1.608423e+00 5.840509e-02 0.0
1.575914e+00 6.819045e-02 0.0
1.538220e+00 7.874367e-02 0.0
1.495005e+00 8.995664e-02 0.0
1.446149e+00 1.014212e-01 0.0
1.391830e+00 1.125656e-01 0.0
1.332534e+00 1.228588e-01 0.0
1.269025e+00 1.318285e-01 0.0
1.202355e+00 1.387201e-01 0.0
1.134052e+00 1.418906e-01 0.0
1.066945e+00 1.383483e-01 0.0
1.005569e+00 1.243254e-01 0.0
9.558548e-01 9.685004e-02 0.0
9.237503e-01 5.617977e-02 0.0
9.127962e-01 7.648220e-03 0.0
9.220667e-01 -4.038164e-02 0.0
9.486682e-01 -8.366492e-02 0.0
9.914201e-01 -1.229660e-01 0.0
1.050786e+00 -1.588031e-01 0.0
1.125822e+00 -1.879637e-01 0.0
1.212365e+00 -2.040441e-01 0.0
1.302561e+00 -2.020421e-01 0.0
1.387842e+00 -1.812462e-01 0.0
1.459895e+00 -1.432302e-01 0.0
1.512197e+00 -9.336116e-02 0.0
1.541268e+00 -4.039339e-02 0.0
1.547925e+00 6.192517e-03 0.0
1.537562e+00 4.251113e-02 0.0
1.514393e+00 7.103569e-02 0.0
1.481801e+00 9.284410e-02 0.0
1.442495e+00 1.083053e-01 0.0
1.398555e+00 1.175980e-01 0.0
1.351914e+00 1.207975e-01 0.0
1.304935e+00 1.179322e-01 0.0
1.259892e+00 1.099138e-01 0.0
1.218476e+00 9.841661e-02 0.0
1.181623e+00 8.524220e-02 0.0
1.149771e+00 7.169084e-02 0.0
1.122918e+00 5.877463e-02 0.0
1.100730e+00 4.716152e-02 0.0
1.082680e+00 3.717954e-02 0.0
1.068159e+00 2.889727e-02 0.0
1.056559e+00 2.221644e-02 0.0
1.047322e+00 1.695041e-02 0.0
1.039957e+00 1.287972e-02 0.0
1.034052e+00 9.786157e-03 0.0
1.029270e+00 7.470480e-03 0.0
1.025345e+00 5.759876e-03 0.0
1.022066e+00 4.509516e-03 0.0
1.019279e+00 3.601220e-03 0.0
1.016867e+00 2.940861e-03 0.0
1.014748e+00 2.455262e-03 0.0
1.012865e+00 2.088997e-03 0.0
1.011181e+00 1.801272e-03 0.0
1.009670e+00 1.562898e-03 0.0
1.008318e+00 1.353444e-03 0.0
1.007114e+00 1.159688e-03 0.0
1.006048e+00 9.756097e-04 0.0
1.005115e+00 7.997256e-04 0.0
1.004308e+00 6.324134e-04 0.0
1.003621e+00 4.749841e-04 0.0
1.003044e+00 3.292125e-04 0.0
1.002570e+00 1.969092e-04 0.0
1.002190e+00 7.968524e-05 0.0
1.001894e+00 -2.097942e-05 0.0
1.001671e+00 -1.039421e-04 0.0
1.001510e+00 -1.684156e-04 0.0
1.001398e+00 -2.147748e-04 0.0
1.001326e+00 -2.444125e-04 0.0
1.001283e+00 -2.599926e-04 0.0
1.001261e+00 -2.666442e-04 0.0
1.001256e+00 -2.736385e-04 0.0
1.001266e+00 -2.965282e-04 0.0
1.001293e+00 -3.643025e-04 0.0
1.001317e+00 -5.238593e-04 0.0
1.001416e+00 -8.648832e-04 0.0
0.000000e+00 -8.696789e-04 0.0
1.000000e+00 -6.725528e-02 0.0
1.020229e+00 -6.739475e-02 0.0
1.043598e+00 -7.608105e-02 0.0
1.073223e+00 -9.392078e-02 0.0
1.112908e+00 -1.213160e-01 0.0
1.167137e+00 -1.583120e-01 0.0
1.237381e+00 -1.968840e-01 0.0
1.338375e+00 -2.547472e-01 0.0
1.418240e+00 -2.220449e-01 0.0
1.470939e+00 -1.652626e-01 0.0
1.505396e+00 -1.187271e-01 0.0
1.529434e+00 -8.810628e-02 0.0
1.548145e+00 -7.107571e-02 0.0
1.564843e+00 -6.430763e-02 0.0
1.582052e+00 -6.489212e-02 0.0
1.601894e+00 -6.969251e-02 0.0
1.624712e+00 -7.306465e-02 0.0
1.648081e+00 -6.852986e-02 0.0
1.667826e+00 -5.296357e-02 0.0
1.679924e+00 -2.859259e-02 0.0
1.682766e+00 -2.085194e-03 0.0
1.677717e+00 2.099003e-02 0.0
1.666430e+00 3.998303e-02 0.0
1.650172e+00 5.570143e-02 0.0
1.629650e+00 6.954274e-02 0.0
1.604991e+00 8.300468e-02 0.0
1.575886e+00 9.723562e-02 0.0
1.541835e+00 1.127344e-01 0.0
1.502375e+00 1.293572e-01 0.0
1.457298e+00 1.464384e-01 0.0
1.406764e+00 1.630395e-01 0.0
1.351309e+00 1.782541e-01 0.0
1.291762e+00 1.913157e-01 0.0
1.229207e+00 2.012149e-01 0.0
1.165194e+00 2.058438e-01 0.0
1.102304e+00 2.011782e-01 0.0
1.044281e+00 1.822888e-01 0.0
9.951113e-01 1.459601e-01 0.0
9.574850e-01 9.374613e-02 0.0
9.320988e-01 3.297452e-02 0.0
9.182080e-01 -2.655065e-02 0.0
9.159166e-01 -8.143345e-02 0.0
9.270034e-01 -1.341127e-01 0.0
9.530982e-01 -1.849578e-01 0.0
9.947478e-01 -2.296730e-01 0.0
1.050867e+00 -2.602227e-01 0.0
1.116574e+00 -2.678090e-01 0.0
1.185143e+00 -2.498757e-01 0.0
1.249791e+00 -2.079374e-01 0.0
1.304445e+00 -1.480758e-01 0.0
1.344503e+00 -8.051051e-02 0.0
1.367520e+00 -1.688519e-02 0.0
1.376074e+00 3.389774e-02 0.0
1.374024e+00 7.302609e-02 0.0
1.364110e+00 1.026982e-01 0.0
1.348296e+00 1.240586e-01 0.0
1.328085e+00 1.377495e-01 0.0
1.304646e+00 1.441766e-01 0.0
1.278966e+00 1.435522e-01 0.0
1.252308e+00 1.365120e-01 0.0
1.225939e+00 1.247261e-01 0.0
1.200955e+00 1.101658e-01 0.0
1.177994e+00 9.459208e-02 0.0
1.157308e+00 7.940021e-02 0.0
1.138893e+00 6.551691e-02 0.0
1.122589e+00 5.342343e-02 0.0
1.108168e+00 4.325826e-02 0.0
1.095387e+00 3.493752e-02 0.0
1.084020e+00 2.825774e-02 0.0
1.073871e+00 2.296861e-02 0.0
1.064780e+00 1.881749e-02 0.0
1.056618e+00 1.557283e-02 0.0
1.049284e+00 1.303419e-02 0.0
1.042699e+00 1.103461e-02 0.0
1.036801e+00 9.439261e-03 0.0
1.031539e+00 8.142322e-03 0.0
1.026871e+00 7.063215e-03 0.0
1.022758e+00 6.142438e-03 0.0
1.019162e+00 5.337550e-03 0.0
1.016045e+00 4.619348e-03 0.0
1.013371e+00 3.968356e-03 0.0
1.011098e+00 3.372477e-03 0.0
1.009188e+00 2.825489e-03 0.0
1.007603e+00 2.324818e-03 0.0
1.006306e+00 1.869211e-03 0.0
1.005264e+00 1.457598e-03 0.0
1.004444e+00 1.089465e-03 0.0
1.003816e+00 7.644804e-04 0.0
1.003354e+00 4.817060e-04 0.0
1.003033e+00 2.404051e-04 0.0
1.002829e+00 3.960799e-05 0.0
1.002723e+00 -1.223359e-04 0.0
1.002696e+00 -2.470472e-04 0.0
1.002728e+00 -3.368096e-04 0.0
1.002804e+00 -3.953936e-04 0.0
1.002906e+00 -4.293258e-04 0.0
1.003022e+00 -4.497996e-04 0.0
1.003141e+00 -4.753213e-04 0.0
1.003254e+00 -5.369583e-04 0.0
1.003342e+00 -6.722101e-04 0.0
1.003459e+00 -1.041505e-03 0.0
0.000000e+00 -1.048313e-03 0.0
1.000000e+00 -8.294137e-02 0.0
1.015507e+00 -8.313070e-02 0.0
1.034078e+00 -9.471210e-02 0.0
1.059073e+00 -1.189762e-01 0.0
1.095411e+00 -1.577130e-01 0.0
1.150233e+00 -2.131947e-01 0.0
1.229179e+00 -2.758895e-01 0.0
1.363360e+00 -3.889875e-01 0.0
1.442372e+00 -3.011172e-01 0.0
1.480182e+00 -2.031326e-01 0.0
1.499315e+00 -1.379197e-01 0.0
1.509822e+00 -9.867332e-02 0.0
1.515932e+00 -7.724552e-02 0.0
1.519982e+00 -6.841760e-02 0.0
1.524076e+00 -6.904541e-02 0.0
1.531583e+00 -7.725934e-02 0.0
1.545710e+00 -8.725135e-02 0.0
1.565621e+00 -8.850118e-02 0.0
1.587136e+00 -7.453799e-02 0.0
1.604787e+00 -4.630363e-02 0.0
1.613709e+00 -1.106717e-02 0.0
1.613934e+00 2.070561e-02 0.0
1.607792e+00 4.606488e-02 0.0
1.596980e+00 6.645368e-02 0.0
1.582361e+00 8.410154e-02 0.0
1.564039e+00 1.012672e-01 0.0
1.541494e+00 1.197207e-01 0.0
1.513996e+00 1.401720e-01 0.0
1.480874e+00 1.624202e-01 0.0
1.441752e+00 1.854996e-01 0.0
1.396712e+00 2.080200e-01 0.0
1.346318e+00 2.285882e-01 0.0
1.291537e+00 2.460371e-01 0.0
1.233565e+00 2.591265e-01 0.0
1.173896e+00 2.654534e-01 0.0
1.114985e+00 2.600298e-01 0.0
1.060043e+00 2.371707e-01 0.0
1.011148e+00 1.947953e-01 0.0
9.674877e-01 1.373463e-01 0.0
9.274788e-01 7.292349e-02 0.0
8.941469e-01 6.721384e-03 0.0
8.722642e-01 -5.961062e-02 0.0
8.645780e-01 -1.264864e-01 0.0
8.716359e-01 -1.920755e-01 0.0
8.921283e-01 -2.502253e-01 0.0
9.243183e-01 -2.924727e-01 0.0
9.663080e-01 -3.098586e-01 0.0
1.014047e+00 -2.976743e-01 0.0
1.063489e+00 -2.574390e-01 0.0
1.110601e+00 -1.952481e-01 0.0
1.151549e+00 -1.215182e-01 0.0
1.183126e+00 -4.852276e-02 0.0
1.203736e+00 1.322864e-02 0.0
1.216162e+00 6.053934e-02 0.0
1.222222e+00 9.657897e-02 0.0
1.223230e+00 1.229906e-01 0.0
1.220238e+00 1.406819e-01 0.0
1.214086e+00 1.502680e-01 0.0
1.205207e+00 1.523717e-01 0.0
1.194135e+00 1.475239e-01 0.0
1.181581e+00 1.372197e-01 0.0
1.168230e+00 1.234570e-01 0.0
1.154590e+00 1.081720e-01 0.0
1.141007e+00 9.292367e-02 0.0
1.127702e+00 7.876187e-02 0.0
1.114815e+00 6.625111e-02 0.0
1.102433e+00 5.557992e-02 0.0
1.090620e+00 4.669103e-02 0.0
1.079424e+00 3.939303e-02 0.0
1.068893e+00 3.344039e-02 0.0
1.059067e+00 2.858297e-02 0.0
1.049987e+00 2.459292e-02 0.0
1.041685e+00 2.127659e-02 0.0
1.034182e+00 1.847717e-02 0.0
1.027489e+00 1.607252e-02 0.0
1.021600e+00 1.397116e-02 0.0
1.016496e+00 1.210724e-02 0.0
1.012144e+00 1.043503e-02 0.0
1.008498e+00 8.923979e-03 0.0
1.005502e+00 7.554767e-03 0.0
1.003095e+00 6.315192e-03 0.0
1.001211e+00 5.196805e-03 0.0
9.997836e-01 4.193157e-03 0.0
9.987487e-01 3.299766e-03 0.0
9.980461e-01 2.511945e-03 0.0
9.976214e-01 1.822339e-03 0.0
9.974263e-01 1.224597e-03 0.0
9.974170e-01 7.138656e-04 0.0
9.975564e-01 2.824029e-04 0.0
9.978142e-01 -7.738402e-05 0.0
9.981650e-01 -3.711049e-04 0.0
9.985850e-01 -6.022396e-04 0.0
9.990519e-01 -7.739035e-04 0.0
9.995448e-01 -8.896341e-04 0.0
1.000044e+00 -9.542710e-04 0.0
1.000530e+00 -9.751934e-04 0.0
1.000984e+00 -9.642474e-04 0.0
1.001389e+00 -9.405253e-04 0.0
1.001728e+00 -9.354624e-04 0.0
1.001983e+00 -9.875847e-04 0.0
1.002180e+00 -1.298354e-03 0.0
0.000000e+00 -1.304201e-03 0.0
1.000000e+00 -9.223551e-02 0.0
1.009115e+00 -9.247510e-02 0.0
1.020758e+00 -1.064151e-01 0.0
1.038108e+00 -1.363861e-01 0.0
1.067046e+00 -1.867109e-01 0.0
1.118118e+00 -2.643257e-01 0.0
1.206190e+00 -3.640220e-01 0.0
1.382435e+00 -5.652921e-01 0.0
1.435653e+00 -3.543950e-01 0.0
1.440630e+00 -2.081693e-01 0.0
1.433416e+00 -1.307663e-01 0.0
1.422540e+00 -8.785690e-02 0.0
1.409310e+00 -6.407500e-02 0.0
1.393606e+00 -5.277328e-02 0.0
1.375672e+00 -5.117210e-02 0.0
1.358588e+00 -6.023469e-02 0.0
1.350253e+00 -7.897582e-02 0.0
1.356385e+00 -9.469330e-02 0.0
1.374425e+00 -9.263811e-02 0.0
1.398930e+00 -7.086843e-02 0.0
1.422606e+00 -3.480300e-02 0.0
1.437152e+00 6.099827e-03 0.0
1.444510e+00 3.864695e-02 0.0
1.447381e+00 6.352265e-02 0.0
1.446900e+00 8.452252e-02 0.0
1.443224e+00 1.048836e-01 0.0
1.435352e+00 1.275331e-01 0.0
1.422127e+00 1.533372e-01 0.0
1.402476e+00 1.820113e-01 0.0
1.375717e+00 2.121991e-01 0.0
1.341759e+00 2.419182e-01 0.0
1.301159e+00 2.691275e-01 0.0
1.255031e+00 2.921055e-01 0.0
1.204819e+00 3.092790e-01 0.0
1.152112e+00 3.181001e-01 0.0
1.098879e+00 3.132027e-01 0.0
1.047044e+00 2.889463e-01 0.0
9.965795e-01 2.451996e-01 0.0
9.455846e-01 1.882814e-01 0.0
8.944898e-01 1.239584e-01 0.0
8.493411e-01 5.181021e-02 0.0
8.187042e-01 -2.903359e-02 0.0
8.046581e-01 -1.125003e-01 0.0
8.038964e-01 -1.913736e-01 0.0
8.127751e-01 -2.591640e-01 0.0
8.292622e-01 -3.090197e-01 0.0
8.526948e-01 -3.333511e-01 0.0
8.817770e-01 -3.268163e-01 0.0
9.148498e-01 -2.905718e-01 0.0
9.501583e-01 -2.306164e-01 0.0
9.854603e-01 -1.568802e-01 0.0
1.017932e+00 -8.105415e-02 0.0
1.044515e+00 -1.341432e-02 0.0
1.065052e+00 3.994202e-02 0.0
1.080645e+00 8.092617e-02 0.0
1.092121e+00 1.114544e-01 0.0
1.100200e+00 1.325438e-01 0.0
1.105465e+00 1.449424e-01 0.0
1.108264e+00 1.495135e-01 0.0
1.108587e+00 1.471403e-01 0.0
1.106635e+00 1.391117e-01 0.0
1.102681e+00 1.273517e-01 0.0
1.097024e+00 1.137693e-01 0.0
1.089978e+00 9.990985e-02 0.0
1.081859e+00 8.682039e-02 0.0
1.072977e+00 7.507364e-02 0.0
1.063623e+00 6.487369e-02 0.0
1.054071e+00 5.618268e-02 0.0
1.044574e+00 4.883101e-02 0.0
1.035356e+00 4.259771e-02 0.0
1.026618e+00 3.726106e-02 0.0
1.018525e+00 3.262635e-02 0.0
1.011204e+00 2.853801e-02 0.0
1.004741e+00 2.488031e-02 0.0
9.991818e-01 2.157138e-02 0.0
9.945365e-01 1.855656e-02 0.0
9.907816e-01 1.580221e-02 0.0
9.878686e-01 1.328805e-02 0.0
9.857310e-01 1.100167e-02 0.0
9.842887e-01 8.937129e-03 0.0
9.834524e-01 7.091593e-03 0.0
9.831294e-01 5.459890e-03 0.0
9.832318e-01 4.030817e-03 0.0
9.836765e-01 2.795131e-03 0.0
9.843835e-01 1.744984e-03 0.0
9.852866e-01 8.593536e-04 0.0
9.863348e-01 1.164560e-04 0.0
9.874922e-01 -5.035111e-04 0.0
9.887280e-01 -1.013281e-03 0.0
9.900126e-01 -1.421995e-03 0.0
9.913185e-01 -1.736877e-03 0.0
9.926202e-01 -1.963949e-03 0.0
9.938952e-01 -2.108779e-03 0.0
9.951224e-01 -2.176805e-03 0.0
9.962824e-01 -2.174200e-03 0.0
9.973561e-01 -2.108844e-03 0.0
9.983236e-01 -1.991725e-03 0.0
9.991632e-01 -1.840045e-03 0.0
9.998501e-01 -1.682249e-03 0.0
1.000360e+00 -1.557196e-03 0.0
1.000666e+00 -1.664939e-03 0.0
0.000000e+00 -1.665039e-03 0.0
1.000000e+00 -9.371477e-02 0.0
1.001298e+00 -9.400231e-02 0.0
1.003784e+00 -1.089606e-01 0.0
1.009353e+00 -1.420157e-01 0.0
1.023209e+00 -2.006262e-01 0.0
1.057584e+00 -2.987605e-01 0.0
1.140167e+00 -4.466655e-01 0.0
1.350572e+00 -7.757564e-01 0.0
1.331608e+00 -3.354910e-01 0.0
1.277473e+00 -1.540935e-01 0.0
1.233726e+00 -8.707934e-02 0.0
1.197383e+00 -5.157379e-02 0.0
1.162911e+00 -2.966304e-02 0.0
1.125708e+00 -1.563001e-02 0.0
1.082625e+00 -8.148872e-03 0.0
1.030068e+00 -7.737538e-03 0.0
9.779246e-01 -2.689238e-02 0.0
9.477393e-01 -6.456784e-02 0.0
9.482115e-01 -9.317014e-02 0.0
9.725537e-01 -9.527051e-02 0.0
1.013691e+00 -7.599978e-02 0.0
1.062632e+00 -4.290185e-02 0.0
1.105842e+00 -4.622160e-03 0.0
1.140448e+00 2.885659e-02 0.0
1.170140e+00 5.477096e-02 0.0
1.196371e+00 7.859278e-02 0.0
1.217122e+00 1.067218e-01 0.0
1.230842e+00 1.395571e-01 0.0
1.235977e+00 1.768171e-01 0.0
1.231488e+00 2.166282e-01 0.0
1.217135e+00 2.562109e-01 0.0
1.193538e+00 2.926649e-01 0.0
1.162074e+00 3.235092e-01 0.0
1.124714e+00 3.465793e-01 0.0
1.083542e+00 3.592126e-01 0.0
1.039254e+00 3.574311e-01 0.0
9.900588e-01 3.380812e-01 0.0
9.325227e-01 3.026758e-01 0.0
8.685362e-01 2.522080e-01 0.0
8.107102e-01 1.817245e-01 0.0
7.723844e-01 9.007612e-02 0.0
7.550967e-01 -1.180571e-02 0.0
7.511447e-01 -1.086082e-01 0.0
7.526549e-01 -1.929437e-01 0.0
7.563226e-01 -2.628915e-01 0.0
7.622641e-01 -3.150211e-01 0.0
7.718220e-01 -3.429688e-01 0.0
7.858737e-01 -3.409279e-01 0.0
8.044843e-01 -3.092423e-01 0.0
8.274950e-01 -2.536870e-01 0.0
8.540458e-01 -1.834910e-01 0.0
8.821634e-01 -1.092316e-01 0.0
9.089979e-01 -4.030874e-02 0.0
9.320185e-01 1.686157e-02 0.0
9.515672e-01 6.131749e-02 0.0
9.680487e-01 9.491307e-02 0.0
9.819223e-01 1.186102e-01 0.0
9.935603e-01 1.332445e-01 0.0
1.003134e+00 1.398804e-01 0.0
1.010401e+00 1.398127e-01 0.0
1.015153e+00 1.343005e-01 0.0
1.017344e+00 1.250999e-01 0.0
1.017097e+00 1.139569e-01 0.0
1.014673e+00 1.022741e-01 0.0
1.010438e+00 9.099565e-02 0.0
1.004817e+00 8.063427e-02 0.0
9.982587e-01 7.137218e-02 0.0
9.912010e-01 6.318047e-02 0.0
9.840491e-01 5.592306e-02 0.0
9.771550e-01 4.943189e-02 0.0
9.708053e-01 4.355084e-02 0.0
9.652157e-01 3.815600e-02 0.0
9.605297e-01 3.316411e-02 0.0
9.568215e-01 2.852859e-02 0.0
9.541070e-01 2.422597e-02 0.0
9.523576e-01 2.024595e-02 0.0
9.515099e-01 1.659000e-02 0.0
9.514760e-01 1.326204e-02 0.0
9.521579e-01 1.025988e-02 0.0
9.534514e-01 7.583702e-03 0.0
9.552438e-01 5.239263e-03 0.0
9.574161e-01 3.227597e-03 0.0
9.598674e-01 1.519564e-03 0.0
9.625212e-01 8.145394e-05 0.0
9.653290e-01 -1.122757e-03 0.0
9.682428e-01 -2.114353e-03 0.0
9.712118e-01 -2.912535e-03 0.0
9.741843e-01 -3.535944e-03 0.0
9.771132e-01 -4.002059e-03 0.0
9.799584e-01 -4.327168e-03 0.0
9.826875e-01 -4.525910e-03 0.0
9.852748e-01 -4.611149e-03 0.0
9.877005e-01 -4.594461e-03 0.0
9.899495e-01 -4.485775e-03 0.0
9.920089e-01 -4.293466e-03 0.0
9.938656e-01 -4.025563e-03 0.0
9.955053e-01 -3.691300e-03 0.0
9.969085e-01 -3.303164e-03 0.0
9.980471e-01 -2.880826e-03 0.0
9.988871e-01 -2.457096e-03 0.0
9.993194e-01 -2.157261e-03 0.0
0.000000e+00 -2.145135e-03 0.0
1.000000e+00 -8.669054e-02 0.0
9.927879e-01 -8.701958e-02 0.0
9.845056e-01 -1.007381e-01 0.0
9.740292e-01 -1.315992e-01 0.0
9.617889e-01 -1.884457e-01 0.0
9.528797e-01 -2.899112e-01 0.0
9.738250e-01 -4.676706e-01 0.0
1.127841e+00 -9.298324e-01 0.0
9.753814e-01 -1.829216e-01 0.0
8.370563e-01 -1.565864e-02 0.0
7.632972e-01 -1.338012e-02 0.0
7.129762e-01 -1.312634e-03 0.0
6.628914e-01 2.036196e-02 0.0
6.016857e-01 4.551584e-02 0.0
5.267908e-01 6.668624e-02 0.0
4.478676e-01 7.112580e-02 0.0
3.828850e-01 3.803038e-02 0.0
3.434258e-01 -2.516851e-02 0.0
3.393103e-01 -8.911448e-02 0.0
3.699464e-01 -1.259665e-01 0.0
4.262421e-01 -1.323553e-01 0.0
5.041420e-01 -1.208617e-01 0.0
5.974937e-01 -9.803372e-02 0.0
6.944973e-01 -6.820679e-02 0.0
7.821574e-01 -3.294904e-02 0.0
8.537958e-01 6.894528e-03 0.0
9.124107e-01 4.804709e-02 0.0
9.602983e-01 9.160961e-02 0.0
9.961219e-01 1.409335e-01 0.0
1.018718e+00 1.939725e-01 0.0
1.027814e+00 2.470548e-01 0.0
1.024129e+00 2.962899e-01 0.0
1.009111e+00 3.384676e-01 0.0
9.845428e-01 3.710876e-01 0.0
9.514396e-01 3.922559e-01 0.0
9.066221e-01 4.021888e-01 0.0
8.458820e-01 3.987614e-01 0.0
7.768193e-01 3.716786e-01 0.0
7.203654e-01 3.086020e-01 0.0
6.932036e-01 2.088265e-01 0.0
6.930549e-01 9.016496e-02 0.0
7.058799e-01 -2.469061e-02 0.0
7.191651e-01 -1.219533e-01 0.0
7.269161e-01 -2.007546e-01 0.0
7.281129e-01 -2.641482e-01 0.0
7.255264e-01 -3.124944e-01 0.0
7.230944e-01 -3.405967e-01 0.0
7.239948e-01 -3.418882e-01 0.0
7.296865e-01 -3.149940e-01 0.0
7.408619e-01 -2.649222e-01 0.0
7.573730e-01 -2.000619e-01 0.0
7.778961e-01 -1.298146e-01 0.0
8.001074e-01 -6.257997e-02 0.0
8.212255e-01 -4.316389e-03 0.0
8.403556e-01 4.212754e-02 0.0
8.575819e-01 7.762678e-02 0.0
8.730976e-01 1.030347e-01 0.0
8.869918e-01 1.192904e-01 0.0
8.991639e-01 1.276484e-01 0.0
9.092255e-01 1.296912e-01 0.0
9.167231e-01 1.267430e-01 0.0
9.214673e-01 1.202957e-01 0.0
9.235405e-01 1.118237e-01 0.0
9.232665e-01 1.024882e-01 0.0
9.211414e-01 9.306091e-02 0.0
9.177483e-01 8.396742e-02 0.0
9.136780e-01 7.538253e-02 0.0
9.094636e-01 6.733502e-02 0.0
9.055393e-01 5.978742e-02 0.0
9.022229e-01 5.268837e-02 0.0
8.997194e-01 4.599442e-02 0.0
8.981455e-01 3.967000e-02 0.0
8.975493e-01 3.370037e-02 0.0
8.979199e-01 2.809809e-02 0.0
8.992051e-01 2.288082e-02 0.0
9.013362e-01 1.805491e-02 0.0
9.042265e-01 1.363971e-02 0.0
9.077704e-01 9.658294e-03 0.0
9.118706e-01 6.099765e-03 0.0
9.164446e-01 2.949757e-03 0.0
9.214146e-01 2.093134e-04 0.0
9.267199e-01 -2.137603e-03 0.0
9.322761e-01 -4.096622e-03 0.0
9.379828e-01 -5.685199e-03 0.0
9.437288e-01 -6.928638e-03 0.0
9.494115e-01 -7.856971e-03 0.0
9.549435e-01 -8.504534e-03 0.0
9.602546e-01 -8.906978e-03 0.0
9.652920e-01 -9.099372e-03 0.0
9.700192e-01 -9.114303e-03 0.0
9.744136e-01 -8.980235e-03 0.0
9.784633e-01 -8.720779e-03 0.0
9.821636e-01 -8.354768e-03 0.0
9.855149e-01 -7.896993e-03 0.0
9.885202e-01 -7.358637e-03 0.0
9.911823e-01 -6.747642e-03 0.0
9.935006e-01 -6.069567e-03 0.0
9.954660e-01 -5.328453e-03 0.0
9.970535e-01 -4.528255e-03 0.0
9.982242e-01 -3.687763e-03 0.0
9.987636e-01 -2.756592e-03 0.0
0.000000e+00 -2.725691e-03 0.0
1.000000e+00 -7.180756e-02 0.0
9.849182e-01 -7.216709e-02 0.0
9.661762e-01 -8.205604e-02 0.0
9.385144e-01 -1.039972e-01 0.0
8.933769e-01 -1.433680e-01 0.0
8.136510e-01 -2.102451e-01 0.0
6.734535e-01 -3.275330e-01 0.0
1.832607e-01 -4.395299e-01 0.0
-9.731262e-01 4.385468e-01 0.0
0.000000e+00 -1.600866e-02 0.0
-4.642019e-02 1.715206e-02 0.0
-2.478212e-02 -2.301054e-02 0.0
4.382486e-03 -8.862489e-03 0.0
3.024833e-02 1.959015e-02 0.0
3.922786e-02 5.764687e-02 0.0
3.563835e-02 7.465547e-02 0.0
1.179716e-02 6.181172e-02 0.0
-2.726112e-02 1.382993e-02 0.0
-6.415544e-02 -5.228000e-02 0.0
-7.445262e-02 -1.157291e-01 0.0
-4.329118e-02 -1.635766e-01 0.0
2.845426e-02 -1.926669e-01 0.0
1.340569e-01 -2.036962e-01 0.0
2.607731e-01 -1.949828e-01 0.0
3.941102e-01 -1.663460e-01 0.0
5.196607e-01 -1.187158e-01 0.0
6.225464e-01 -5.489844e-02 0.0
6.983375e-01 1.575865e-02 0.0
7.557856e-01 8.342554e-02 0.0
7.964252e-01 1.532731e-01 0.0
8.202016e-01 2.232185e-01 0.0
8.275220e-01 2.889095e-01 0.0
8.188348e-01 3.470950e-01 0.0
7.939948e-01 3.958677e-01 0.0
7.519205e-01 4.342704e-01 0.0
6.943328e-01 4.597166e-01 0.0
6.345038e-01 4.585305e-01 0.0
5.943613e-01 4.117613e-01 0.0
5.874717e-01 3.154317e-01 0.0
6.092883e-01 1.869500e-01 0.0
6.461415e-01 5.325184e-02 0.0
6.840545e-01 -6.266347e-02 0.0
7.131877e-01 -1.511464e-01 0.0
7.288532e-01 -2.164799e-01 0.0
7.301478e-01 -2.655027e-01 0.0
7.202476e-01 -3.026542e-01 0.0
7.058551e-01 -3.262641e-01 0.0
6.933432e-01 -3.294362e-01 0.0
6.859826e-01 -3.076932e-01 0.0
6.850548e-01 -2.640543e-01 0.0
6.906734e-01 -2.057404e-01 0.0
7.017900e-01 -1.409910e-01 0.0
7.164491e-01 -7.729903e-02 0.0
7.323602e-01 -2.028740e-02 0.0
7.478399e-01 2.658796e-02 0.0
7.625555e-01 6.285131e-02 0.0
7.763415e-01 8.918880e-02 0.0
7.889335e-01 1.066385e-01 0.0
7.999602e-01 1.165617e-01 0.0
8.090455e-01 1.205459e-01 0.0
8.157553e-01 1.199733e-01 0.0
8.200453e-01 1.159458e-01 0.0
8.222093e-01 1.095998e-01 0.0
8.227862e-01 1.018514e-01 0.0
8.224230e-01 9.336423e-02 0.0
8.217454e-01 8.458508e-02 0.0
8.212749e-01 7.579313e-02 0.0
8.213878e-01 6.716215e-02 0.0
8.223212e-01 5.879412e-02 0.0
8.241935e-01 5.075618e-02 0.0
8.270285e-01 4.309948e-02 0.0
8.308168e-01 3.582178e-02 0.0
8.355468e-01 2.891041e-02 0.0
8.411739e-01 2.241108e-02 0.0
8.476175e-01 1.637729e-02 0.0
8.548223e-01 1.079024e-02 0.0
8.627304e-01 5.671604e-03 0.0
8.712149e-01 1.113928e-03 0.0
8.801080e-01 -2.853305e-03 0.0
8.892205e-01 -6.222631e-03 0.0
8.983858e-01 -9.015936e-03 0.0
9.074514e-01 -1.126313e-02 0.0
9.162949e-01 -1.300005e-02 0.0
9.248213e-01 -1.427156e-02 0.0
9.329595e-01 -1.512676e-02 0.0
9.406594e-01 -1.561682e-02 0.0
9.478888e-01 -1.579385e-02 0.0
9.546284e-01 -1.570654e-02 0.0
9.608702e-01 -1.540112e-02 0.0
9.666147e-01 -1.491868e-02 0.0
9.718688e-01 -1.429428e-02 0.0
9.766450e-01 -1.355695e-02 0.0
9.809596e-01 -1.272931e-02 0.0
9.848305e-01 -1.182788e-02 0.0
9.882754e-01 -1.086338e-02 0.0
9.913086e-01 -9.840840e-03 0.0
9.939386e-01 -8.759515e-03 0.0
9.961629e-01 -7.612696e-03 0.0
9.979594e-01 -6.384647e-03 0.0
9.992874e-01 -5.075709e-03 0.0
9.998543e-01 -3.383392e-03 0.0
0.000000e+00 -3.330975e-03 0.0
1.000000e+00 -5.128040e-02 0.0
9.792597e-01 -5.165616e-02 0.0
9.531919e-01 -5.604805e-02 0.0
9.140069e-01 -6.487208e-02 0.0
8.478985e-01 -7.731942e-02 0.0
7.256639e-01 -8.807030e-02 0.0
4.744875e-01 -7.641641e-02 0.0
-4.914194e-03 3.998150e-02 0.0
-1.717112e-04 0.000000e+00 0.0
0.000000e+00 -0.000000e+00 0.0
0.000000e+00 4.817301e-02 0.0
2.633293e-02 -4.940331e-02 0.0
-3.346832e-02 5.087892e-02 0.0
-8.662135e-02 7.268334e-02 0.0
-1.320338e-01 1.029995e-01 0.0
-1.626069e-01 1.051687e-01 0.0
-1.884789e-01 8.762395e-02 0.0
-2.214556e-01 4.674674e-02 0.0
-2.587558e-01 -1.503959e-02 0.0
-2.843558e-01 -9.018901e-02 0.0