# vtk DataFile Version 3.0
Vector Field
ASCII
DATASET RECTILINEAR_GRID
DIMENSIONS 102 22 1
X_COORDINATES 102 double
0.000000 0.100000 0.200000 0.300000 0.400000 0.500000 0.600000 0.700000 0.800000 0.900000 1.000000 1.100000 1.200000 1.300000 1.400000 1.500000 1.600000 1.700000 1.800000 1.900000 2.000000 2.100000 2.200000 2.300000 2.400000 2.500000 2.600000 2.700000 2.800000 2.900000 3.000000 3.100000 3.200000 3.300000 3.400000 3.500000 3.600000 3.700000 3.800000 3.900000 4.000000 4.100000 4.200000 4.300000 4.400000 4.500000 4.600000 4.700000 4.800000 4.900000 5.000000 5.100000 5.200000 5.300000 5.400000 5.500000 5.600000 5.700000 5.800000 5.900000 6.000000 6.100000 6.200000 6.300000 6.400000 6.500000 6.600000 6.700000 6.800000 6.900000 7.000000 7.100000 7.200000 7.300000 7.400000 7.500000 7.600000 7.700000 7.800000 7.900000 8.000000 8.100000 8.200000 8.300000 8.400000 8.500000 8.600000 8.700000 8.800000 8.900000 9.000000 9.100000 9.200000 9.300000 9.400000 9.500000 9.600000 9.700000 9.800000 9.900000 10.000000 10.100000 
Y_COORDINATES 22 double
0.000000 0.100000 0.200000 0.300000 0.400000 0.500000 0.600000 0.700000 0.800000 0.900000 1.000000 1.100000 1.200000 1.300000 1.400000 1.500000 1.600000 1.700000 1.800000 1.900000 2.000000 2.100000 
Z_COORDINATES 1 double
0.0
POINT_DATA 2244
VECTORS Velocity double
0.000000e+00 0.000000e+00 0.0
-1.023500e+00 0.000000e+00 0.0
-1.050060e+00 0.000000e+00 0.0
-1.082532e+00 0.000000e+00 0.0
-1.123796e+00 0.000000e+00 0.0
-1.176326e+00 0.000000e+00 0.0
-1.240333e+00 0.000000e+00 0.0
-1.316660e+00 0.000000e+00 0.0
-1.391149e+00 0.000000e+00 0.0
-1.454856e+00 0.000000e+00 0.0
-1.506722e+00 0.000000e+00 0.0
-1.549212e+00 0.000000e+00 0.0
-1.585050e+00 0.000000e+00 0.0
-1.615874e+00 0.000000e+00 0.0
-1.641829e+00 0.000000e+00 0.0
-1.661795e+00 0.000000e+00 0.0
-1.674183e+00 0.000000e+00 0.0
-1.678108e+00 0.000000e+00 0.0
-1.673929e+00 0.000000e+00 0.0
-1.662579e+00 0.000000e+00 0.0
-1.645146e+00 0.000000e+00 0.0
-1.622589e+00 0.000000e+00 0.0
-1.595542e+00 0.000000e+00 0.0
-1.564245e+00 0.000000e+00 0.0
-1.528610e+00 0.000000e+00 0.0
-1.488362e+00 0.000000e+00 0.0
-1.443208e+00 0.000000e+00 0.0
-1.393001e+00 0.000000e+00 0.0
-1.337816e+00 0.000000e+00 0.0
-1.277925e+00 0.000000e+00 0.0
-1.213780e+00 0.000000e+00 0.0
-1.146235e+00 0.000000e+00 0.0
-1.077145e+00 0.000000e+00 0.0
-1.009844e+00 0.000000e+00 0.0
-9.495922e-01 0.000000e+00 0.0
-9.034719e-01 0.000000e+00 0.0
-8.790769e-01 0.000000e+00 0.0
-8.819377e-01 0.000000e+00 0.0
-9.139686e-01 0.000000e+00 0.0
-9.748379e-01 0.000000e+00 0.0
-1.063149e+00 0.000000e+00 0.0
-1.175530e+00 0.000000e+00 0.0
-1.304328e+00 0.000000e+00 0.0
-1.435814e+00 0.000000e+00 0.0
-1.553786e+00 0.000000e+00 0.0
-1.642362e+00 0.000000e+00 0.0
-1.690655e+00 0.000000e+00 0.0
-1.697515e+00 0.000000e+00 0.0
-1.669337e+00 0.000000e+00 0.0
-1.611768e+00 0.000000e+00 0.0
-1.530361e+00 0.000000e+00 0.0
-1.431280e+00 0.000000e+00 0.0
-1.321533e+00 0.000000e+00 0.0
-1.208550e+00 0.000000e+00 0.0
-1.099700e+00 0.000000e+00 0.0
-1.001733e+00 0.000000e+00 0.0
-9.199755e-01 0.000000e+00 0.0
-8.576390e-01 0.000000e+00 0.0
-8.154903e-01 0.000000e+00 0.0
-7.921692e-01 0.000000e+00 0.0
-7.849344e-01 0.000000e+00 0.0
-7.904396e-01 0.000000e+00 0.0
-8.060648e-01 0.000000e+00 0.0
-8.303025e-01 0.000000e+00 0.0
-8.622017e-01 0.000000e+00 0.0
-9.010094e-01 0.000000e+00 0.0
-9.459370e-01 0.000000e+00 0.0
-9.959176e-01 0.000000e+00 0.0
-1.049537e+00 0.000000e+00 0.0
-1.105121e+00 0.000000e+00 0.0
-1.160873e+00 0.000000e+00 0.0
-1.215105e+00 0.000000e+00 0.0
-1.266239e+00 0.000000e+00 0.0
-1.312812e+00 0.000000e+00 0.0
-1.353513e+00 0.000000e+00 0.0
-1.387241e+00 0.000000e+00 0.0
-1.413188e+00 0.000000e+00 0.0
-1.430948e+00 0.000000e+00 0.0
-1.440616e+00 0.000000e+00 0.0
-1.442693e+00 0.000000e+00 0.0
-1.437350e+00 0.000000e+00 0.0
-1.424064e+00 0.000000e+00 0.0
-1.402013e+00 0.000000e+00 0.0
-1.370290e+00 0.000000e+00 0.0
-1.328293e+00 0.000000e+00 0.0
-1.276421e+00 0.000000e+00 0.0
-1.216830e+00 0.000000e+00 0.0
-1.153545e+00 0.000000e+00 0.0
-1.091326e+00 0.000000e+00 0.0
-1.034128e+00 0.000000e+00 0.0
-9.845585e-01 0.000000e+00 0.0
-9.438210e-01 0.000000e+00 0.0
-9.119395e-01 0.000000e+00 0.0
-8.880929e-01 0.000000e+00 0.0
-8.710182e-01 0.000000e+00 0.0
-8.593489e-01 0.000000e+00 0.0
-8.518336e-01 0.000000e+00 0.0
-8.474368e-01 0.000000e+00 0.0
-8.453437e-01 0.000000e+00 0.0
-8.449259e-01 0.000000e+00 0.0
-8.449259e-01 0.000000e+00 0.0
0.000000e+00 0.000000e+00 0.0
1.000000e+00 -2.381628e-02 0.0
1.023391e+00 -2.371770e-02 0.0
1.049836e+00 -2.663295e-02 0.0
1.082173e+00 -3.252399e-02 0.0
1.123266e+00 -4.128117e-02 0.0
1.175572e+00 -5.249341e-02 0.0
1.239284e+00 -6.390004e-02 0.0
1.315191e+00 -7.609479e-02 0.0
1.389151e+00 -7.414819e-02 0.0
1.452258e+00 -6.329442e-02 0.0
1.503507e+00 -5.143655e-02 0.0
1.545453e+00 -4.213376e-02 0.0
1.580942e+00 -3.567754e-02 0.0
1.611762e+00 -3.100744e-02 0.0
1.638188e+00 -2.661372e-02 0.0
1.659136e+00 -2.113570e-02 0.0
1.672892e+00 -1.394353e-02 0.0
1.678291e+00 -5.586950e-03 0.0
1.675477e+00 2.626295e-03 0.0
1.665313e+00 9.975882e-03 0.0
1.648886e+00 1.623936e-02 0.0
1.627194e+00 2.150366e-02 0.0
1.600933e+00 2.607363e-02 0.0
1.570402e+00 3.034313e-02 0.0
1.535550e+00 3.466413e-02 0.0
1.496107e+00 3.925478e-02 0.0
1.451759e+00 4.416009e-02 0.0
1.402316e+00 4.925582e-02 0.0
1.347808e+00 5.431938e-02 0.0
1.288488e+00 5.913290e-02 0.0
1.224781e+00 6.351873e-02 0.0
1.157449e+00 6.714386e-02 0.0
1.088125e+00 6.913628e-02 0.0
1.019837e+00 6.810026e-02 0.0
9.574350e-01 6.221431e-02 0.0
9.076510e-01 4.959614e-02 0.0
8.780409e-01 2.942218e-02 0.0
8.746275e-01 3.225554e-03 0.0
8.998577e-01 -2.541811e-02 0.0
9.536803e-01 -5.401047e-02 0.0
1.035025e+00 -8.153216e-02 0.0
1.141205e+00 -1.063680e-01 0.0
1.266190e+00 -1.251733e-01 0.0
1.397857e+00 -1.318550e-01 0.0
1.520671e+00 -1.230018e-01 0.0
1.618614e+00 -9.813060e-02 0.0
1.679059e+00 -6.063353e-02 0.0
1.697763e+00 -1.889216e-02 0.0
1.679745e+00 1.783059e-02 0.0
1.630686e+00 4.887108e-02 0.0
1.555821e+00 7.467686e-02 0.0
1.460956e+00 9.467668e-02 0.0
1.352898e+00 1.078705e-01 0.0
1.239327e+00 1.133828e-01 0.0
1.127966e+00 1.111729e-01 0.0
1.026045e+00 1.017332e-01 0.0
9.394245e-01 8.643268e-02 0.0
8.718949e-01 6.734165e-02 0.0
8.247531e-01 4.695384e-02 0.0
7.970168e-01 2.754827e-02 0.0
7.861351e-01 1.069371e-02 0.0
7.888009e-01 -2.853825e-03 0.0
8.020544e-01 -1.344152e-02 0.0
8.241681e-01 -2.230166e-02 0.0
8.540875e-01 -3.010738e-02 0.0
8.910345e-01 -3.713503e-02 0.0
9.342485e-01 -4.340205e-02 0.0
9.827616e-01 -4.870111e-02 0.0
1.035248e+00 -5.267403e-02 0.0
1.090113e+00 -5.505380e-02 0.0
1.145591e+00 -5.566546e-02 0.0
1.199983e+00 -5.458043e-02 0.0
1.251710e+00 -5.191441e-02 0.0
1.299297e+00 -4.777528e-02 0.0
1.341408e+00 -4.229970e-02 0.0
1.376895e+00 -3.567512e-02 0.0
1.404870e+00 -2.816237e-02 0.0
1.424805e+00 -2.012327e-02 0.0
1.436648e+00 -1.203068e-02 0.0
1.440809e+00 -4.349586e-03 0.0
1.437671e+00 2.949917e-03 0.0
1.426844e+00 1.063913e-02 0.0
1.407578e+00 1.907825e-02 0.0
1.378965e+00 2.842433e-02 0.0
1.340253e+00 3.852439e-02 0.0
1.291445e+00 4.861937e-02 0.0
1.234091e+00 5.716656e-02 0.0
1.171675e+00 6.222789e-02 0.0
1.108891e+00 6.259522e-02 0.0
1.050019e+00 5.868405e-02 0.0
9.980913e-01 5.173977e-02 0.0
9.547256e-01 4.317766e-02 0.0
9.202878e-01 3.424968e-02 0.0
8.941860e-01 2.591370e-02 0.0
8.752658e-01 1.873215e-02 0.0
8.621757e-01 1.290192e-02 0.0
8.536235e-01 8.364179e-03 0.0
8.485079e-01 4.927474e-03 0.0
8.459442e-01 2.375555e-03 0.0
8.452446e-01 5.115435e-04 0.0
8.449259e-01 1.306032e-04 0.0
0.000000e+00 3.315169e-05 0.0
1.000000e+00 -4.783022e-02 0.0
1.023722e+00 -4.762719e-02 0.0
1.050539e+00 -5.349936e-02 0.0
1.083415e+00 -6.544863e-02 0.0
1.125525e+00 -8.343988e-02 0.0
1.179979e+00 -1.069967e-01 0.0
1.247181e+00 -1.311513e-01 0.0
1.332404e+00 -1.613662e-01 0.0
1.411444e+00 -1.532377e-01 0.0
1.475097e+00 -1.269968e-01 0.0
1.525034e+00 -1.014218e-01 0.0
1.565533e+00 -8.268190e-02 0.0
1.600098e+00 -7.029168e-02 0.0
1.630784e+00 -6.174241e-02 0.0
1.657988e+00 -5.386671e-02 0.0
1.680592e+00 -4.378857e-02 0.0
1.696597e+00 -2.999724e-02 0.0
1.704359e+00 -1.339883e-02 0.0
1.703788e+00 3.148830e-03 0.0
1.695857e+00 1.785743e-02 0.0
1.681749e+00 3.029832e-02 0.0
1.662540e+00 4.066380e-02 0.0
1.638970e+00 4.959442e-02 0.0
1.611350e+00 5.791445e-02 0.0
1.579612e+00 6.635290e-02 0.0
1.543468e+00 7.534999e-02 0.0
1.502578e+00 8.500086e-02 0.0
1.456733e+00 9.505256e-02 0.0
1.405963e+00 1.050405e-01 0.0
1.350577e+00 1.144693e-01 0.0
1.291164e+00 1.228824e-01 0.0
1.228608e+00 1.296518e-01 0.0
1.164182e+00 1.335132e-01 0.0
1.100140e+00 1.320930e-01 0.0
1.040242e+00 1.220632e-01 0.0
9.897317e-01 1.000574e-01 0.0
9.545706e-01 6.453427e-02 0.0
9.394278e-01 1.831933e-02 0.0
9.450469e-01 -3.108621e-02 0.0
9.693146e-01 -7.832726e-02 0.0
1.011953e+00 -1.242194e-01 0.0
1.074971e+00 -1.694351e-01 0.0
1.158508e+00 -2.087595e-01 0.0
1.257518e+00 -2.309136e-01 0.0
1.360470e+00 -2.260031e-01 0.0
1.453853e+00 -1.915624e-01 0.0
1.524847e+00 -1.316764e-01 0.0
1.564466e+00 -5.856091e-02 0.0
1.570814e+00 1.143373e-02 0.0
1.549657e+00 6.997884e-02 0.0
1.506603e+00 1.176820e-01 0.0
1.446917e+00 1.543136e-01 0.0
1.375237e+00 1.795019e-01 0.0
1.295787e+00 1.927834e-01 0.0
1.213745e+00 1.931662e-01 0.0
1.134721e+00 1.807079e-01 0.0
1.063194e+00 1.579111e-01 0.0
1.002244e+00 1.282422e-01 0.0
9.534271e-01 9.572174e-02 0.0
9.171170e-01 6.380938e-02 0.0
8.928836e-01 3.487806e-02 0.0
8.798931e-01 1.008765e-02 0.0
8.768281e-01 -1.042563e-02 0.0
8.822396e-01 -2.776216e-02 0.0
8.952118e-01 -4.312865e-02 0.0
9.150692e-01 -5.704147e-02 0.0
9.412036e-01 -6.958553e-02 0.0
9.730272e-01 -8.057372e-02 0.0
1.009696e+00 -8.939216e-02 0.0
1.049982e+00 -9.538855e-02 0.0
1.092360e+00 -9.809230e-02 0.0
1.135212e+00 -9.748188e-02 0.0
1.177053e+00 -9.380452e-02 0.0
1.216513e+00 -8.728439e-02 0.0
1.252368e+00 -7.820330e-02 0.0
1.283574e+00 -6.692994e-02 0.0
1.309307e+00 -5.394476e-02 0.0
1.328984e+00 -3.984992e-02 0.0
1.342210e+00 -2.530476e-02 0.0
1.348596e+00 -1.078492e-02 0.0
1.347633e+00 3.863196e-03 0.0
1.338961e+00 1.926267e-02 0.0
1.322445e+00 3.554523e-02 0.0
1.298456e+00 5.236383e-02 0.0
1.268214e+00 6.871769e-02 0.0
1.233943e+00 8.284093e-02 0.0
1.198543e+00 9.251798e-02 0.0
1.164782e+00 9.593929e-02 0.0
1.134582e+00 9.274634e-02 0.0
1.108883e+00 8.433403e-02 0.0
1.087743e+00 7.283103e-02 0.0
1.070601e+00 6.027010e-02 0.0
1.056842e+00 4.795989e-02 0.0
1.045883e+00 3.682362e-02 0.0
1.037224e+00 2.734242e-02 0.0
1.030469e+00 1.960704e-02 0.0
1.025328e+00 1.345634e-02 0.0
1.021594e+00 8.613034e-03 0.0
1.019113e+00 4.807116e-03 0.0
1.017781e+00 1.794860e-03 0.0
1.016854e+00 1.007833e-03 0.0
0.000000e+00 8.696738e-04 0.0
1.000000e+00 -6.869157e-02 0.0
1.020578e+00 -6.839302e-02 0.0
1.044326e+00 -7.729651e-02 0.0
1.074471e+00 -9.564203e-02 0.0
1.114922e+00 -1.239404e-01 0.0
1.170331e+00 -1.624546e-01 0.0
1.242358e+00 -2.032273e-01 0.0
1.346439e+00 -2.654962e-01 0.0
1.430708e+00 -2.375553e-01 0.0
1.489580e+00 -1.859176e-01 0.0
1.531818e+00 -1.437094e-01 0.0
1.564957e+00 -1.158692e-01 0.0
1.593421e+00 -9.880458e-02 0.0
1.619644e+00 -8.801449e-02 0.0
1.644412e+00 -7.868461e-02 0.0
1.666723e+00 -6.614792e-02 0.0
1.684093e+00 -4.741686e-02 0.0
1.693780e+00 -2.313399e-02 0.0
1.694781e+00 2.098318e-03 0.0
1.688216e+00 2.437398e-02 0.0
1.675464e+00 4.300135e-02 0.0
1.657773e+00 5.830523e-02 0.0
1.636015e+00 7.130370e-02 0.0
1.610557e+00 8.332338e-02 0.0
1.581330e+00 9.553135e-02 0.0
1.547965e+00 1.086650e-01 0.0
1.510024e+00 1.228931e-01 0.0
1.467192e+00 1.378359e-01 0.0
1.419434e+00 1.527492e-01 0.0
1.367068e+00 1.667869e-01 0.0
1.310740e+00 1.791613e-01 0.0
1.251384e+00 1.889581e-01 0.0
1.190348e+00 1.945007e-01 0.0
1.129831e+00 1.925605e-01 0.0
1.073162e+00 1.786830e-01 0.0
1.024101e+00 1.490699e-01 0.0
9.853901e-01 1.031961e-01 0.0
9.579005e-01 4.575997e-02 0.0
9.416511e-01 -1.488584e-02 0.0
9.380339e-01 -7.475911e-02 0.0
9.503331e-01 -1.365676e-01 0.0
9.812411e-01 -2.003922e-01 0.0
1.031234e+00 -2.588016e-01 0.0
1.098617e+00 -2.983455e-01 0.0
1.176645e+00 -3.040800e-01 0.0
1.255395e+00 -2.703619e-01 0.0
1.324457e+00 -2.007865e-01 0.0
1.374643e+00 -1.087966e-01 0.0
1.400067e+00 -1.403877e-02 0.0
1.402568e+00 6.742809e-02 0.0
1.386481e+00 1.337208e-01 0.0
1.355832e+00 1.849137e-01 0.0
1.314129e+00 2.211554e-01 0.0
1.264558e+00 2.423058e-01 0.0
1.210007e+00 2.476681e-01 0.0
1.153949e+00 2.367163e-01 0.0
1.100096e+00 2.117152e-01 0.0
1.051099e+00 1.771906e-01 0.0
1.008174e+00 1.385973e-01 0.0
9.718395e-01 1.000949e-01 0.0
9.424424e-01 6.422611e-02 0.0
9.203069e-01 3.217404e-02 0.0
9.058323e-01 3.999974e-03 0.0
8.987226e-01 -2.070157e-02 0.0
8.984409e-01 -4.289596e-02 0.0
9.046256e-01 -6.327521e-02 0.0
9.170862e-01 -8.209518e-02 0.0
9.353642e-01 -9.890077e-02 0.0
9.587322e-01 -1.128093e-01 0.0
9.861838e-01 -1.228892e-01 0.0
1.016475e+00 -1.284329e-01 0.0
1.048111e+00 -1.291670e-01 0.0
1.079656e+00 -1.253983e-01 0.0
1.109839e+00 -1.175163e-01 0.0
1.137579e+00 -1.059920e-01 0.0
1.161985e+00 -9.138565e-02 0.0
1.182346e+00 -7.435438e-02 0.0
1.198079e+00 -5.563261e-02 0.0
1.208640e+00 -3.591493e-02 0.0
1.213416e+00 -1.560960e-02 0.0
1.211830e+00 5.399865e-03 0.0
1.204055e+00 2.698860e-02 0.0
1.190926e+00 4.862513e-02 0.0
1.174006e+00 6.923536e-02 0.0
1.155545e+00 8.712930e-02 0.0
1.138078e+00 1.002590e-01 0.0
1.123663e+00 1.068838e-01 0.0
1.113184e+00 1.063693e-01 0.0
1.106004e+00 9.987740e-02 0.0
1.100941e+00 8.934787e-02 0.0
1.096899e+00 7.682437e-02 0.0
1.093123e+00 6.399691e-02 0.0
1.089054e+00 5.197916e-02 0.0
1.084423e+00 4.140638e-02 0.0
1.079221e+00 3.249442e-02 0.0
1.073621e+00 2.515809e-02 0.0
1.067884e+00 1.914450e-02 0.0
1.062308e+00 1.413999e-02 0.0
1.057216e+00 9.849988e-03 0.0
1.052869e+00 6.092947e-03 0.0
1.050995e+00 2.832790e-03 0.0
0.000000e+00 2.672766e-03 0.0
1.000000e+00 -8.472870e-02 0.0
1.015767e+00 -8.434747e-02 0.0
1.034605e+00 -9.618343e-02 0.0
1.059952e+00 -1.210386e-01 0.0
1.096787e+00 -1.608247e-01 0.0
1.152325e+00 -2.180412e-01 0.0
1.232329e+00 -2.832803e-01 0.0
1.367828e+00 -4.010441e-01 0.0
1.448871e+00 -3.186476e-01 0.0
1.490774e+00 -2.278689e-01 0.0
1.515952e+00 -1.689373e-01 0.0
1.534030e+00 -1.339956e-01 0.0
1.549530e+00 -1.143535e-01 0.0
1.565304e+00 -1.038373e-01 0.0
1.583093e+00 -9.652339e-02 0.0
1.602775e+00 -8.587862e-02 0.0
1.621842e+00 -6.653263e-02 0.0
1.636151e+00 -3.749187e-02 0.0
1.641849e+00 -3.648811e-03 0.0
1.639353e+00 2.682041e-02 0.0
1.630434e+00 5.187196e-02 0.0
1.616653e+00 7.203752e-02 0.0
1.599104e+00 8.880319e-02 0.0
1.578202e+00 1.041767e-01 0.0
1.553815e+00 1.198690e-01 0.0
1.525439e+00 1.369923e-01 0.0
1.492447e+00 1.558361e-01 0.0
1.454338e+00 1.758957e-01 0.0
1.410940e+00 1.960986e-01 0.0
1.362528e+00 2.151496e-01 0.0
1.309838e+00 2.318019e-01 0.0
1.253951e+00 2.447960e-01 0.0
1.196217e+00 2.521858e-01 0.0
1.138737e+00 2.499918e-01 0.0
1.084521e+00 2.328501e-01 0.0
1.035871e+00 1.976713e-01 0.0
9.920668e-01 1.469508e-01 0.0
9.509640e-01 8.681382e-02 0.0
9.161963e-01 1.983286e-02 0.0
8.962986e-01 -5.491047e-02 0.0
8.961378e-01 -1.364558e-01 0.0
9.146548e-01 -2.189582e-01 0.0
9.474938e-01 -2.916896e-01 0.0
9.910599e-01 -3.419607e-01 0.0
1.043010e+00 -3.560795e-01 0.0
1.098928e+00 -3.263282e-01 0.0
1.153280e+00 -2.551879e-01 0.0
1.199699e+00 -1.552650e-01 0.0
1.232087e+00 -4.647566e-02 0.0
1.248057e+00 5.140890e-02 0.0
1.249632e+00 1.320975e-01 0.0
1.239311e+00 1.951851e-01 0.0
1.219530e+00 2.408879e-01 0.0
1.192619e+00 2.691674e-01 0.0
1.160597e+00 2.796409e-01 0.0
1.125238e+00 2.720258e-01 0.0
1.088544e+00 2.483607e-01 0.0
1.052223e+00 2.134621e-01 0.0
1.017790e+00 1.729820e-01 0.0
9.862845e-01 1.315510e-01 0.0
9.583356e-01 9.212599e-02 0.0
9.344930e-01 5.596761e-02 0.0
9.153538e-01 2.309010e-02 0.0
9.015758e-01 -6.972595e-03 0.0
8.933491e-01 -3.471834e-02 0.0
8.908094e-01 -6.078458e-02 0.0
8.938856e-01 -8.522042e-02 0.0
9.022845e-01 -1.073487e-01 0.0
9.154668e-01 -1.260406e-01 0.0
9.326115e-01 -1.400830e-01 0.0
9.526459e-01 -1.485163e-01 0.0
9.743023e-01 -1.508724e-01 0.0
9.962537e-01 -1.473988e-01 0.0
1.017349e+00 -1.386604e-01 0.0
1.036653e+00 -1.253452e-01 0.0
1.053434e+00 -1.082154e-01 0.0
1.067096e+00 -8.806585e-02 0.0
1.077091e+00 -6.567658e-02 0.0
1.082850e+00 -4.172316e-02 0.0
1.083881e+00 -1.668956e-02 0.0
1.080322e+00 8.910308e-03 0.0
1.073293e+00 3.396761e-02 0.0
1.064523e+00 5.734610e-02 0.0
1.056117e+00 7.759304e-02 0.0
1.050143e+00 9.305420e-02 0.0
1.048015e+00 1.023377e-01 0.0
1.049973e+00 1.048768e-01 0.0
1.054839e+00 1.014536e-01 0.0
1.060879e+00 9.378850e-02 0.0
1.066571e+00 8.360704e-02 0.0
1.070865e+00 7.248130e-02 0.0
1.073218e+00 6.159507e-02 0.0
1.073478e+00 5.166976e-02 0.0
1.071805e+00 4.303048e-02 0.0
1.068549e+00 3.570104e-02 0.0
1.064145e+00 2.951354e-02 0.0
1.059039e+00 2.420079e-02 0.0
1.053673e+00 1.945732e-02 0.0
1.048513e+00 1.496129e-02 0.0
1.044043e+00 1.051375e-02 0.0
1.042175e+00 4.651590e-03 0.0
0.000000e+00 4.487334e-03 0.0
1.000000e+00 -9.425605e-02 0.0
1.009273e+00 -9.380832e-02 0.0
1.021050e+00 -1.080090e-01 0.0
1.038544e+00 -1.385822e-01 0.0
1.067625e+00 -1.899544e-01 0.0
1.118740e+00 -2.692052e-01 0.0
1.206615e+00 -3.712042e-01 0.0
1.380993e+00 -5.754709e-01 0.0
1.432713e+00 -3.704165e-01 0.0
1.437526e+00 -2.327308e-01 0.0
1.431910e+00 -1.633708e-01 0.0
1.424191e+00 -1.263255e-01 0.0
1.416642e+00 -1.068537e-01 0.0
1.411762e+00 -9.900653e-02 0.0
1.413040e+00 -9.785045e-02 0.0
1.423168e+00 -9.605482e-02 0.0
1.441292e+00 -8.470614e-02 0.0
1.463272e+00 -5.952067e-02 0.0
1.481821e+00 -2.224695e-02 0.0
1.490802e+00 1.779070e-02 0.0
1.492635e+00 4.999026e-02 0.0
1.489361e+00 7.526162e-02 0.0
1.482629e+00 9.548631e-02 0.0
1.472896e+00 1.138612e-01 0.0
1.459915e+00 1.328011e-01 0.0
1.442905e+00 1.539526e-01 0.0
1.420893e+00 1.777992e-01 0.0
1.393033e+00 2.037070e-01 0.0
1.358886e+00 2.301962e-01 0.0
1.318597e+00 2.553894e-01 0.0
1.272937e+00 2.774129e-01 0.0
1.223175e+00 2.945090e-01 0.0
1.170780e+00 3.045326e-01 0.0
1.117382e+00 3.033403e-01 0.0
1.064833e+00 2.853501e-01 0.0
1.013474e+00 2.489812e-01 0.0
9.609700e-01 1.994060e-01 0.0
9.074870e-01 1.402478e-01 0.0
8.631446e-01 6.412625e-02 0.0
8.424409e-01 -3.425580e-02 0.0
8.463345e-01 -1.403984e-01 0.0
8.647968e-01 -2.374695e-01 0.0
8.899002e-01 -3.168421e-01 0.0
9.185642e-01 -3.706737e-01 0.0
9.507218e-01 -3.882861e-01 0.0
9.859791e-01 -3.616346e-01 0.0
1.022973e+00 -2.922303e-01 0.0
1.058899e+00 -1.912401e-01 0.0
1.089428e+00 -7.705453e-02 0.0
1.110164e+00 3.062402e-02 0.0
1.120974e+00 1.212387e-01 0.0
1.122867e+00 1.932430e-01 0.0
1.117291e+00 2.464153e-01 0.0
1.105835e+00 2.805737e-01 0.0
1.089911e+00 2.955161e-01 0.0
1.070326e+00 2.915622e-01 0.0
1.047883e+00 2.707541e-01 0.0
1.023512e+00 2.377840e-01 0.0
9.982476e-01 1.981978e-01 0.0
9.730542e-01 1.566954e-01 0.0
9.488552e-01 1.162759e-01 0.0
9.265769e-01 7.819688e-02 0.0
9.071051e-01 4.251292e-02 0.0
8.913112e-01 8.772217e-03 0.0
8.798110e-01 -2.326720e-02 0.0
8.727221e-01 -5.374474e-02 0.0
8.699855e-01 -8.253282e-02 0.0
8.714487e-01 -1.088610e-01 0.0
8.768282e-01 -1.314691e-01 0.0
8.856186e-01 -1.489224e-01 0.0
8.970470e-01 -1.599938e-01 0.0
9.101068e-01 -1.639813e-01 0.0
9.236217e-01 -1.609627e-01 0.0
9.365364e-01 -1.516242e-01 0.0
9.480225e-01 -1.368803e-01 0.0
9.574757e-01 -1.177177e-01 0.0
9.644491e-01 -9.508830e-02 0.0
9.685869e-01 -6.986344e-02 0.0
9.696734e-01 -4.285869e-02 0.0
9.679303e-01 -1.499554e-02 0.0
9.644714e-01 1.232010e-02 0.0
9.609136e-01 3.747642e-02 0.0
9.589965e-01 5.921409e-02 0.0
9.602265e-01 7.631398e-02 0.0
9.654257e-01 8.780597e-02 0.0
9.743893e-01 9.332504e-02 0.0
9.858764e-01 9.334066e-02 0.0
9.980656e-01 8.921530e-02 0.0
1.009428e+00 8.237695e-02 0.0
1.018859e+00 7.412669e-02 0.0
1.025759e+00 6.553289e-02 0.0
1.029975e+00 5.732941e-02 0.0
1.031683e+00 4.991349e-02 0.0
1.031253e+00 4.341136e-02 0.0
1.029145e+00 3.775954e-02 0.0
1.025831e+00 3.277872e-02 0.0
1.021758e+00 2.822413e-02 0.0
1.017358e+00 2.380858e-02 0.0
1.013091e+00 1.917918e-02 0.0
1.009493e+00 1.406319e-02 0.0
1.008063e+00 6.032005e-03 0.0
0.000000e+00 5.863903e-03 0.0
1.000000e+00 -9.584905e-02 0.0
1.001357e+00 -9.535317e-02 0.0
1.003843e+00 -1.105444e-01 0.0
1.009343e+00 -1.441309e-01 0.0
1.022952e+00 -2.036125e-01 0.0
1.056615e+00 -3.029173e-01 0.0
1.137451e+00 -4.520893e-01 0.0
1.342945e+00 -7.810136e-01 0.0
1.316818e+00 -3.443379e-01 0.0
1.255534e+00 -1.714963e-01 0.0
1.205904e+00 -1.137894e-01 0.0
1.163943e+00 -8.441373e-02 0.0
1.124392e+00 -6.735161e-02 0.0
1.086375e+00 -6.103893e-02 0.0
1.055155e+00 -6.667904e-02 0.0
1.041086e+00 -8.203504e-02 0.0
1.048663e+00 -9.233209e-02 0.0
1.075338e+00 -8.624453e-02 0.0
1.114720e+00 -6.167786e-02 0.0
1.155012e+00 -2.255002e-02 0.0
1.184555e+00 2.039818e-02 0.0
1.206281e+00 5.348621e-02 0.0
1.224127e+00 7.759189e-02 0.0
1.238681e+00 9.925729e-02 0.0
1.249680e+00 1.217533e-01 0.0
1.255891e+00 1.476930e-01 0.0
1.255777e+00 1.778637e-01 0.0
1.247964e+00 2.114720e-01 0.0
1.231632e+00 2.464788e-01 0.0
1.206748e+00 2.802248e-01 0.0
1.174138e+00 3.099731e-01 0.0
1.135498e+00 3.331003e-01 0.0
1.093017e+00 3.469646e-01 0.0
1.047106e+00 3.492025e-01 0.0
9.932992e-01 3.391078e-01 0.0
9.240625e-01 3.181688e-01 0.0
8.439182e-01 2.795013e-01 0.0
7.804499e-01 2.036670e-01 0.0
7.586939e-01 8.583316e-02 0.0
7.723931e-01 -4.800398e-02 0.0
7.997128e-01 -1.677671e-01 0.0
8.266469e-01 -2.644526e-01 0.0
8.488913e-01 -3.391355e-01 0.0
8.677141e-01 -3.895455e-01 0.0
8.860219e-01 -4.066430e-01 0.0
9.058129e-01 -3.814745e-01 0.0
9.280397e-01 -3.145062e-01 0.0
9.524397e-01 -2.156891e-01 0.0
9.767125e-01 -1.013763e-01 0.0
9.968345e-01 1.045298e-02 0.0
1.010863e+00 1.071616e-01 0.0
1.018754e+00 1.853027e-01 0.0
1.021195e+00 2.439250e-01 0.0
1.019176e+00 2.825435e-01 0.0
1.013582e+00 3.010609e-01 0.0
1.004681e+00 3.004144e-01 0.0
9.924854e-01 2.829009e-01 0.0
9.772131e-01 2.530072e-01 0.0
9.594600e-01 2.159019e-01 0.0
9.402203e-01 1.758860e-01 0.0
9.207918e-01 1.356554e-01 0.0
9.025030e-01 9.643660e-02 0.0
8.863872e-01 5.857965e-02 0.0
8.730070e-01 2.210342e-02 0.0
8.626216e-01 -1.293090e-02 0.0
8.550609e-01 -4.623307e-02 0.0
8.500373e-01 -7.755828e-02 0.0
8.474135e-01 -1.062863e-01 0.0
8.471797e-01 -1.312844e-01 0.0
8.492641e-01 -1.510558e-01 0.0
8.533530e-01 -1.641318e-01 0.0
8.588328e-01 -1.695101e-01 0.0
8.648188e-01 -1.669978e-01 0.0
8.704197e-01 -1.572741e-01 0.0
8.749249e-01 -1.414345e-01 0.0
8.778701e-01 -1.207121e-01 0.0
8.790483e-01 -9.631556e-02 0.0
8.785325e-01 -6.939670e-02 0.0
8.767782e-01 -4.115345e-02 0.0
8.747727e-01 -1.303904e-02 0.0
8.739080e-01 1.313566e-02 0.0
8.754178e-01 3.591754e-02 0.0
8.802132e-01 5.436968e-02 0.0
8.886279e-01 6.785017e-02 0.0
9.002341e-01 7.615073e-02 0.0
9.138822e-01 7.962792e-02 0.0
9.279967e-01 7.917705e-02 0.0
9.412118e-01 7.595114e-02 0.0
9.525466e-01 7.099305e-02 0.0
9.614271e-01 6.519711e-02 0.0
9.676735e-01 5.923747e-02 0.0
9.714162e-01 5.353761e-02 0.0
9.729842e-01 4.829640e-02 0.0
9.728026e-01 4.354390e-02 0.0
9.713153e-01 3.919784e-02 0.0
9.689391e-01 3.510582e-02 0.0
9.660477e-01 3.106647e-02 0.0
9.629804e-01 2.682679e-02 0.0
9.600825e-01 2.202804e-02 0.0
9.577691e-01 1.632750e-02 0.0
9.570234e-01 6.728671e-03 0.0
0.000000e+00 6.543946e-03 0.0
1.000000e+00 -8.883599e-02 0.0
9.927699e-01 -8.831082e-02 0.0
9.843850e-01 -1.022085e-01 0.0
9.736731e-01 -1.334680e-01 0.0
9.609016e-01 -1.908900e-01 0.0
9.508081e-01 -2.928728e-01 0.0
9.692668e-01 -4.705970e-01 0.0
1.118127e+00 -9.299223e-01 0.0
9.533784e-01 -1.795000e-01 0.0
7.989582e-01 -1.698626e-02 0.0
7.121184e-01 -2.699864e-02 0.0
6.485448e-01 -2.088911e-02 0.0
5.867512e-01 -5.606945e-03 0.0
5.177865e-01 7.876745e-03 0.0
4.520265e-01 -9.679701e-04 0.0
4.160968e-01 -4.615433e-02 0.0
4.236321e-01 -9.991642e-02 0.0
4.641934e-01 -1.268548e-01 0.0
5.261778e-01 -1.237112e-01 0.0
6.024497e-01 -9.887090e-02 0.0
6.838208e-01 -6.102192e-02 0.0
7.567922e-01 -1.953419e-02 0.0
8.172890e-01 1.704603e-02 0.0
8.699885e-01 4.650886e-02 0.0
9.174532e-01 7.423951e-02 0.0
9.580463e-01 1.070509e-01 0.0
9.895811e-01 1.462799e-01 0.0
1.010002e+00 1.910026e-01 0.0
1.018014e+00 2.384170e-01 0.0
1.013210e+00 2.849803e-01 0.0
9.958397e-01 3.272942e-01 0.0
9.663151e-01 3.625759e-01 0.0
9.240308e-01 3.891999e-01 0.0
8.651414e-01 4.080428e-01 0.0
7.839976e-01 4.202027e-01 0.0
6.960364e-01 4.060810e-01 0.0
6.395912e-01 3.358974e-01 0.0
6.378978e-01 2.053115e-01 0.0
6.777808e-01 4.590119e-02 0.0
7.293619e-01 -9.963417e-02 0.0
7.753376e-01 -2.137918e-01 0.0
8.090960e-01 -2.982599e-01 0.0
8.295809e-01 -3.596695e-01 0.0
8.405008e-01 -4.005144e-01 0.0
8.474332e-01 -4.136244e-01 0.0
8.546382e-01 -3.887285e-01 0.0
8.644135e-01 -3.243305e-01 0.0
8.777477e-01 -2.290724e-01 0.0
8.938321e-01 -1.175097e-01 0.0
9.097502e-01 -5.514143e-03 0.0
9.228394e-01 9.402341e-02 0.0
9.322948e-01 1.757982e-01 0.0
9.382183e-01 2.379525e-01 0.0
9.410849e-01 2.796278e-01 0.0
9.412727e-01 3.008241e-01 0.0
9.386100e-01 3.030280e-01 0.0
9.325549e-01 2.889069e-01 0.0
9.228952e-01 2.626179e-01 0.0
9.101579e-01 2.285901e-01 0.0
8.956823e-01 1.903125e-01 0.0
8.812719e-01 1.500168e-01 0.0
8.685596e-01 1.090998e-01 0.0
8.584493e-01 6.864093e-02 0.0
8.509328e-01 2.957087e-02 0.0
8.453690e-01 -7.416206e-03 0.0
8.408790e-01 -4.179209e-02 0.0
8.366674e-01 -7.339570e-02 0.0
8.324358e-01 -1.021038e-01 0.0
8.284074e-01 -1.273051e-01 0.0
8.250299e-01 -1.477273e-01 0.0
8.226273e-01 -1.617783e-01 0.0
8.211768e-01 -1.681086e-01 0.0
8.202820e-01 -1.661521e-01 0.0
8.193831e-01 -1.564242e-01 0.0
8.179974e-01 -1.400980e-01 0.0
8.158641e-01 -1.186278e-01 0.0
8.130510e-01 -9.355145e-02 0.0
8.100234e-01 -6.641819e-02 0.0
8.076419e-01 -3.882095e-02 0.0
8.069833e-01 -1.242952e-02 0.0
8.089136e-01 1.115629e-02 0.0
8.138759e-01 3.090619e-02 0.0
8.218780e-01 4.631845e-02 0.0
8.324276e-01 5.725150e-02 0.0
8.445860e-01 6.394330e-02 0.0
8.571682e-01 6.699670e-02 0.0
8.690317e-01 6.726440e-02 0.0
8.793957e-01 6.553811e-02 0.0
8.878074e-01 6.253233e-02 0.0
8.941206e-01 5.883479e-02 0.0
8.984436e-01 5.486544e-02 0.0
9.010555e-01 5.087658e-02 0.0
9.023204e-01 4.698252e-02 0.0
9.026134e-01 4.320183e-02 0.0
9.022701e-01 3.949203e-02 0.0
9.015611e-01 3.576571e-02 0.0
9.006879e-01 3.189066e-02 0.0
8.997937e-01 2.767190e-02 0.0
8.989886e-01 2.278408e-02 0.0
8.983942e-01 1.687286e-02 0.0
8.985390e-01 6.534767e-03 0.0
0.000000e+00 6.324835e-03 0.0
1.000000e+00 -7.389388e-02 0.0
9.848582e-01 -7.335682e-02 0.0
9.659661e-01 -8.336532e-02 0.0
9.380115e-01 -1.055624e-01 0.0
8.923074e-01 -1.452349e-01 0.0
8.115046e-01 -2.121190e-01 0.0
6.692541e-01 -3.283954e-01 0.0
1.797775e-01 -4.403559e-01 0.0
-9.518276e-01 4.414171e-01 0.0
0.000000e+00 -9.408655e-03 0.0
-5.357676e-02 9.404071e-03 0.0
-6.713281e-02 -7.382056e-03 0.0
-4.721061e-02 -2.557813e-02 0.0
-5.182948e-03 -3.419991e-02 0.0
1.580871e-02 -2.200862e-02 0.0
1.006206e-02 -4.045666e-02 0.0
-3.271859e-03 -8.663149e-02 0.0
5.893348e-03 -1.360690e-01 0.0
4.615761e-02 -1.640245e-01 0.0
1.144076e-01 -1.671699e-01 0.0
2.043017e-01 -1.509650e-01 0.0
3.060542e-01 -1.213356e-01 0.0
4.102179e-01 -8.716673e-02 0.0
5.058165e-01 -4.913874e-02 0.0
5.852198e-01 -5.212732e-03 0.0
6.511608e-01 4.106088e-02 0.0
7.052261e-01 9.216549e-02 0.0
7.448616e-01 1.513181e-01 0.0
7.680840e-01 2.151457e-01 0.0
7.736044e-01 2.794109e-01 0.0
7.601906e-01 3.406589e-01 0.0
7.261089e-01 3.966086e-01 0.0
6.692986e-01 4.459612e-01 0.0
5.919276e-01 4.853648e-01 0.0
5.177724e-01 4.943088e-01 0.0
4.837701e-01 4.400344e-01 0.0
5.046443e-01 3.149741e-01 0.0
5.673769e-01 1.425299e-01 0.0
6.449693e-01 -3.174029e-02 0.0
7.158466e-01 -1.705605e-01 0.0
7.728615e-01 -2.708557e-01 0.0
8.119643e-01 -3.374117e-01 0.0
8.320287e-01 -3.797830e-01 0.0
8.363958e-01 -4.049304e-01 0.0
8.329004e-01 -4.101781e-01 0.0
8.288310e-01 -3.847081e-01 0.0
8.277297e-01 -3.232783e-01 0.0
8.309034e-01 -2.322951e-01 0.0
8.382352e-01 -1.248905e-01 0.0
8.478893e-01 -1.521729e-02 0.0
8.573653e-01 8.449838e-02 0.0
8.654341e-01 1.676803e-01 0.0
8.717204e-01 2.316172e-01 0.0
8.761798e-01 2.751194e-01 0.0
8.786193e-01 2.983355e-01 0.0
8.784319e-01 3.031663e-01 0.0
8.747808e-01 2.925090e-01 0.0
8.675175e-01 2.698322e-01 0.0
8.576243e-01 2.384343e-01 0.0
8.470502e-01 2.008376e-01 0.0
8.379753e-01 1.590425e-01 0.0
8.319558e-01 1.150704e-01 0.0
8.294300e-01 7.111761e-02 0.0
8.297292e-01 2.922266e-02 0.0
8.313994e-01 -9.135398e-03 0.0
8.326940e-01 -4.313578e-02 0.0
8.320756e-01 -7.282632e-02 0.0
8.287413e-01 -9.881854e-02 0.0
8.228672e-01 -1.214801e-01 0.0
8.152791e-01 -1.401882e-01 0.0
8.070114e-01 -1.535596e-01 0.0
7.988510e-01 -1.599973e-01 0.0
7.911397e-01 -1.584898e-01 0.0
7.839003e-01 -1.492339e-01 0.0
7.770792e-01 -1.333259e-01 0.0
7.707109e-01 -1.123086e-01 0.0
7.650417e-01 -8.793127e-02 0.0
7.605673e-01 -6.199289e-02 0.0
7.579255e-01 -3.622826e-02 0.0
7.576389e-01 -1.219197e-02 0.0
7.598650e-01 8.881169e-03 0.0
7.644794e-01 2.624268e-02 0.0
7.710568e-01 3.969203e-02 0.0
7.789233e-01 4.933593e-02 0.0
7.872913e-01 5.552619e-02 0.0
7.954355e-01 5.880347e-02 0.0
8.028346e-01 5.981627e-02 0.0
8.092116e-01 5.911203e-02 0.0
8.145156e-01 5.717929e-02 0.0
8.188560e-01 5.444527e-02 0.0
8.224354e-01 5.123697e-02 0.0
8.254864e-01 4.777651e-02 0.0
8.282292e-01 4.419063e-02 0.0
8.308418e-01 4.054020e-02 0.0
8.334376e-01 3.684719e-02 0.0
8.360613e-01 3.309290e-02 0.0
8.386947e-01 2.920824e-02 0.0
8.412629e-01 2.505457e-02 0.0
8.436172e-01 2.038074e-02 0.0
8.455249e-01 1.491611e-02 0.0
8.468233e-01 5.187257e-03 0.0
0.000000e+00 4.947662e-03 0.0
1.000000e+00 -5.327331e-02 0.0
9.791942e-01 -5.273878e-02 0.0
9.529899e-01 -5.720999e-02 0.0
9.135725e-01 -6.619403e-02 0.0
8.471464e-01 -7.885775e-02 0.0
7.245121e-01 -8.953368e-02 0.0
4.734731e-01 -7.740544e-02 0.0
-4.119956e-03 3.732694e-02 0.0
-1.342335e-04 0.000000e+00 0.0
0.000000e+00 -0.000000e+00 0.0
0.000000e+00 2.059115e-03 0.0
3.080797e-05 -7.461854e-03 0.0
-4.751837e-02 2.192206e-02 0.0
-9.813212e-02 1.636485e-02 0.0
-1.390541e-01 1.886434e-02 0.0
-1.742514e-01 -5.308291e-03 0.0
-2.094667e-01 -5.146522e-02 0.0
-2.351552e-01 -1.104296e-01 0.0
-2.346241e-01 -1.646046e-01 0.0
-2.005458e-01 -2.012971e-01 0.0