# vtk DataFile Version 3.0
Vector Field
ASCII
DATASET RECTILINEAR_GRID
DIMENSIONS 102 22 1
X_COORDINATES 102 double
0.000000 0.100000 0.200000 0.300000 0.400000 0.500000 0.600000 0.700000 0.800000 0.900000 1.000000 1.100000 1.200000 1.300000 1.400000 1.500000 1.600000 1.700000 1.800000 1.900000 2.000000 2.100000 2.200000 2.300000 2.400000 2.500000 2.600000 2.700000 2.800000 2.900000 3.000000 3.100000 3.200000 3.300000 3.400000 3.500000 3.600000 3.700000 3.800000 3.900000 4.000000 4.100000 4.200000 4.300000 4.400000 4.500000 4.600000 4.700000 4.800000 4.900000 5.000000 5.100000 5.200000 5.300000 5.400000 5.500000 5.600000 5.700000 5.800000 5.900000 6.000000 6.100000 6.200000 6.300000 6.400000 6.500000 6.600000 6.700000 6.800000 6.900000 7.000000 7.100000 7.200000 7.300000 7.400000 7.500000 7.600000 7.700000 7.800000 7.900000 8.000000 8.100000 8.200000 8.300000 8.400000 8.500000 8.600000 8.700000 8.800000 8.900000 9.000000 9.100000 9.200000 9.300000 9.400000 9.500000 9.600000 9.700000 9.800000 9.900000 10.000000 10.100000 
Y_COORDINATES 22 double
0.000000 0.100000 0.200000 0.300000 0.400000 0.500000 0.600000 0.700000 0.800000 0.900000 1.000000 1.100000 1.200000 1.300000 1.400000 1.500000 1.600000 1.700000 1.800000 1.900000 2.000000 2.100000 
Z_COORDINATES 1 double
0.0
POINT_DATA 2244
VECTORS Velocity double
0.000000e+00 0.000000e+00 0.0
-1.027582e+00 0.000000e+00 0.0
-1.058278e+00 0.000000e+00 0.0
-1.095287e+00 0.000000e+00 0.0
-1.141657e+00 0.000000e+00 0.0
-1.200002e+00 0.000000e+00 0.0
-1.270471e+00 0.000000e+00 0.0
-1.354164e+00 0.000000e+00 0.0
-1.435222e+00 0.000000e+00 0.0
-1.503078e+00 0.000000e+00 0.0
-1.555397e+00 0.000000e+00 0.0
-1.593472e+00 0.000000e+00 0.0
-1.619061e+00 0.000000e+00 0.0
-1.633543e+00 0.000000e+00 0.0
-1.638217e+00 0.000000e+00 0.0
-1.634623e+00 0.000000e+00 0.0
-1.624153e+00 0.000000e+00 0.0
-1.607959e+00 0.000000e+00 0.0
-1.586905e+00 0.000000e+00 0.0
-1.561559e+00 0.000000e+00 0.0
-1.532234e+00 0.000000e+00 0.0
-1.499068e+00 0.000000e+00 0.0
-1.462117e+00 0.000000e+00 0.0
-1.421418e+00 0.000000e+00 0.0
-1.377003e+00 0.000000e+00 0.0
-1.328882e+00 0.000000e+00 0.0
-1.277130e+00 0.000000e+00 0.0
-1.222301e+00 0.000000e+00 0.0
-1.166195e+00 0.000000e+00 0.0
-1.112546e+00 0.000000e+00 0.0
-1.067637e+00 0.000000e+00 0.0
-1.040246e+00 0.000000e+00 0.0
-1.040043e+00 0.000000e+00 0.0
-1.074305e+00 0.000000e+00 0.0
-1.145130e+00 0.000000e+00 0.0
-1.246842e+00 0.000000e+00 0.0
-1.366327e+00 0.000000e+00 0.0
-1.485025e+00 0.000000e+00 0.0
-1.583262e+00 0.000000e+00 0.0
-1.645045e+00 0.000000e+00 0.0
-1.664773e+00 0.000000e+00 0.0
-1.649489e+00 0.000000e+00 0.0
-1.609226e+00 0.000000e+00 0.0
-1.551761e+00 0.000000e+00 0.0
-1.482284e+00 0.000000e+00 0.0
-1.404169e+00 0.000000e+00 0.0
-1.319647e+00 0.000000e+00 0.0
-1.230725e+00 0.000000e+00 0.0
-1.140215e+00 0.000000e+00 0.0
-1.052015e+00 0.000000e+00 0.0
-9.709714e-01 0.000000e+00 0.0
-9.022147e-01 0.000000e+00 0.0
-8.501619e-01 0.000000e+00 0.0
-8.176008e-01 0.000000e+00 0.0
-8.051277e-01 0.000000e+00 0.0
-8.110646e-01 0.000000e+00 0.0
-8.326656e-01 0.000000e+00 0.0
-8.671129e-01 0.000000e+00 0.0
-9.115802e-01 0.000000e+00 0.0
-9.632667e-01 0.000000e+00 0.0
-1.019355e+00 0.000000e+00 0.0
-1.077085e+00 0.000000e+00 0.0
-1.133823e+00 0.000000e+00 0.0
-1.187173e+00 0.000000e+00 0.0
-1.235071e+00 0.000000e+00 0.0
-1.275781e+00 0.000000e+00 0.0
-1.307985e+00 0.000000e+00 0.0
-1.330892e+00 0.000000e+00 0.0
-1.344303e+00 0.000000e+00 0.0
-1.348410e+00 0.000000e+00 0.0
-1.342982e+00 0.000000e+00 0.0
-1.327378e+00 0.000000e+00 0.0
-1.300816e+00 0.000000e+00 0.0
-1.262728e+00 0.000000e+00 0.0
-1.213696e+00 0.000000e+00 0.0
-1.156809e+00 0.000000e+00 0.0
-1.098233e+00 0.000000e+00 0.0
-1.045367e+00 0.000000e+00 0.0
-1.003879e+00 0.000000e+00 0.0
-9.767169e-01 0.000000e+00 0.0
-9.642380e-01 0.000000e+00 0.0
-9.647588e-01 0.000000e+00 0.0
-9.753167e-01 0.000000e+00 0.0
-9.928982e-01 0.000000e+00 0.0
-1.014994e+00 0.000000e+00 0.0
-1.039661e+00 0.000000e+00 0.0
-1.065427e+00 0.000000e+00 0.0
-1.091160e+00 0.000000e+00 0.0
-1.115971e+00 0.000000e+00 0.0
-1.139153e+00 0.000000e+00 0.0
-1.160146e+00 0.000000e+00 0.0
-1.178531e+00 0.000000e+00 0.0
-1.194036e+00 0.000000e+00 0.0
-1.206543e+00 0.000000e+00 0.0
-1.216096e+00 0.000000e+00 0.0
-1.222900e+00 0.000000e+00 0.0
-1.227290e+00 0.000000e+00 0.0
-1.229672e+00 0.000000e+00 0.0
-1.230475e+00 0.000000e+00 0.0
-1.230115e+00 0.000000e+00 0.0
-1.230115e+00 0.000000e+00 0.0
0.000000e+00 0.000000e+00 0.0
1.000000e+00 -2.753398e-02 0.0
1.027382e+00 -2.735083e-02 0.0
1.057878e+00 -3.047869e-02 0.0
1.094676e+00 -3.678014e-02 0.0
1.140823e+00 -4.612865e-02 0.0
1.198939e+00 -5.809875e-02 0.0
1.269193e+00 -7.023574e-02 0.0
1.352714e+00 -8.350339e-02 0.0
1.433749e+00 -8.101695e-02 0.0
1.501808e+00 -6.804110e-02 0.0
1.554587e+00 -5.276104e-02 0.0
1.593378e+00 -3.877296e-02 0.0
1.619891e+00 -2.649595e-02 0.0
1.635402e+00 -1.549282e-02 0.0
1.641059e+00 -5.639053e-03 0.0
1.638305e+00 2.771426e-03 0.0
1.628525e+00 9.798201e-03 0.0
1.612889e+00 1.565347e-02 0.0
1.592300e+00 2.060691e-02 0.0
1.567362e+00 2.495590e-02 0.0
1.538410e+00 2.897030e-02 0.0
1.505584e+00 3.284344e-02 0.0
1.468929e+00 3.667282e-02 0.0
1.428468e+00 4.047950e-02 0.0
1.384227e+00 4.425792e-02 0.0
1.336227e+00 4.801859e-02 0.0
1.284516e+00 5.172845e-02 0.0
1.229503e+00 5.503108e-02 0.0
1.172670e+00 5.685068e-02 0.0
1.117291e+00 5.539683e-02 0.0
1.069062e+00 4.824696e-02 0.0
1.036269e+00 3.281064e-02 0.0
1.028618e+00 7.669039e-03 0.0
1.054170e+00 -2.553382e-02 0.0
1.116437e+00 -6.224977e-02 0.0
1.211932e+00 -9.547644e-02 0.0
1.329565e+00 -1.176153e-01 0.0
1.452078e+00 -1.224957e-01 0.0
1.559609e+00 -1.075132e-01 0.0
1.634229e+00 -7.460215e-02 0.0
1.666425e+00 -3.217825e-02 0.0
1.660038e+00 6.405154e-03 0.0
1.625420e+00 3.463614e-02 0.0
1.571221e+00 5.421679e-02 0.0
1.503524e+00 6.771500e-02 0.0
1.426307e+00 7.723423e-02 0.0
1.342178e+00 8.414743e-02 0.0
1.253217e+00 8.897905e-02 0.0
1.162065e+00 9.116940e-02 0.0
1.072419e+00 8.966362e-02 0.0
9.889715e-01 8.346569e-02 0.0
9.168712e-01 7.211809e-02 0.0
8.607569e-01 5.613225e-02 0.0
8.237931e-01 3.698159e-02 0.0
8.070258e-01 1.678521e-02 0.0
8.091955e-01 -2.151812e-03 0.0
8.275814e-01 -1.836809e-02 0.0
8.593457e-01 -3.174645e-02 0.0
9.016351e-01 -4.227151e-02 0.0
9.516429e-01 -4.998995e-02 0.0
1.006564e+00 -5.490324e-02 0.0
1.063647e+00 -5.706489e-02 0.0
1.120259e+00 -5.659414e-02 0.0
1.173986e+00 -5.370889e-02 0.0
1.222727e+00 -4.872312e-02 0.0
1.264712e+00 -4.196777e-02 0.0
1.298556e+00 -3.382569e-02 0.0
1.323364e+00 -2.479061e-02 0.0
1.338819e+00 -1.543688e-02 0.0
1.345079e+00 -6.242582e-03 0.0
1.342081e+00 3.016381e-03 0.0
1.329268e+00 1.283059e-02 0.0
1.305899e+00 2.338722e-02 0.0
1.271309e+00 3.460811e-02 0.0
1.225657e+00 4.566930e-02 0.0
1.171209e+00 5.446634e-02 0.0
1.113260e+00 5.796679e-02 0.0
1.059035e+00 5.424297e-02 0.0
1.014751e+00 4.430206e-02 0.0
9.840394e-01 3.072917e-02 0.0
9.679233e-01 1.613392e-02 0.0
9.652465e-01 2.694655e-03 0.0
9.733311e-01 -8.066673e-03 0.0
9.891379e-01 -1.578888e-02 0.0
1.010037e+00 -2.088097e-02 0.0
1.033957e+00 -2.390244e-02 0.0
1.059323e+00 -2.534854e-02 0.0
1.084934e+00 -2.559231e-02 0.0
1.109844e+00 -2.489244e-02 0.0
1.133310e+00 -2.344786e-02 0.0
1.154741e+00 -2.141298e-02 0.0
1.173687e+00 -1.892878e-02 0.0
1.189844e+00 -1.613929e-02 0.0
1.203059e+00 -1.319697e-02 0.0
1.213339e+00 -1.026161e-02 0.0
1.220849e+00 -7.491953e-03 0.0
1.225893e+00 -5.026289e-03 0.0
1.228864e+00 -2.953195e-03 0.0
1.230195e+00 -1.313069e-03 0.0
1.230321e+00 -1.083744e-04 0.0
1.230115e+00 2.235216e-04 0.0
0.000000e+00 5.735299e-04 0.0
1.000000e+00 -5.547082e-02 0.0
1.027761e+00 -5.509446e-02 0.0
1.058671e+00 -6.138317e-02 0.0
1.096033e+00 -7.413764e-02 0.0
1.143198e+00 -9.328916e-02 0.0
1.203452e+00 -1.183479e-01 0.0
1.277104e+00 -1.438831e-01 0.0
1.370316e+00 -1.767106e-01 0.0
1.456584e+00 -1.672812e-01 0.0
1.525381e+00 -1.368328e-01 0.0
1.577424e+00 -1.047999e-01 0.0
1.615838e+00 -7.718241e-02 0.0
1.642832e+00 -5.348511e-02 0.0
1.659525e+00 -3.218047e-02 0.0
1.666707e+00 -1.281712e-02 0.0
1.665655e+00 3.828201e-03 0.0
1.657737e+00 1.772094e-02 0.0
1.644123e+00 2.927255e-02 0.0
1.625728e+00 3.900621e-02 0.0
1.603168e+00 4.752101e-02 0.0
1.576770e+00 5.537251e-02 0.0
1.546655e+00 6.296312e-02 0.0
1.512834e+00 7.049868e-02 0.0
1.475296e+00 7.802195e-02 0.0
1.434063e+00 8.549511e-02 0.0
1.389226e+00 9.286065e-02 0.0
1.341000e+00 9.995934e-02 0.0
1.289845e+00 1.061901e-01 0.0
1.236763e+00 1.099378e-01 0.0
1.184113e+00 1.080520e-01 0.0
1.136246e+00 9.611787e-02 0.0
1.099603e+00 6.945866e-02 0.0
1.081848e+00 2.542828e-02 0.0
1.088517e+00 -3.219810e-02 0.0
1.120179e+00 -9.390655e-02 0.0
1.176305e+00 -1.515982e-01 0.0
1.256538e+00 -1.978433e-01 0.0
1.355352e+00 -2.213054e-01 0.0
1.459100e+00 -2.112568e-01 0.0
1.550798e+00 -1.662953e-01 0.0
1.613558e+00 -9.493352e-02 0.0
1.637637e+00 -1.766952e-02 0.0
1.628841e+00 4.343760e-02 0.0
1.596178e+00 8.688440e-02 0.0
1.546441e+00 1.174561e-01 0.0
1.484638e+00 1.390423e-01 0.0
1.414461e+00 1.543292e-01 0.0
1.338881e+00 1.645639e-01 0.0
1.260541e+00 1.695141e-01 0.0
1.182451e+00 1.677575e-01 0.0
1.108289e+00 1.576325e-01 0.0
1.041941e+00 1.384705e-01 0.0
9.869746e-01 1.111036e-01 0.0
9.462523e-01 7.770854e-02 0.0
9.215588e-01 4.148339e-02 0.0
9.132503e-01 6.161369e-03 0.0
9.197810e-01 -2.489417e-02 0.0
9.385820e-01 -5.054278e-02 0.0
9.670222e-01 -7.070707e-02 0.0
1.002683e+00 -8.564589e-02 0.0
1.043211e+00 -9.542659e-02 0.0
1.086294e+00 -1.001434e-01 0.0
1.129798e+00 -1.000933e-01 0.0
1.171763e+00 -9.566953e-02 0.0
1.210320e+00 -8.727573e-02 0.0
1.243808e+00 -7.545057e-02 0.0
1.270906e+00 -6.091953e-02 0.0
1.290695e+00 -4.457504e-02 0.0
1.302579e+00 -2.731578e-02 0.0
1.305929e+00 -9.588019e-03 0.0
1.299806e+00 9.143882e-03 0.0
1.283637e+00 2.900476e-02 0.0
1.257338e+00 4.969115e-02 0.0
1.221831e+00 7.011967e-02 0.0
1.179726e+00 8.777876e-02 0.0
1.135554e+00 9.864297e-02 0.0
1.094926e+00 9.859949e-02 0.0
1.062333e+00 8.684079e-02 0.0
1.040193e+00 6.644608e-02 0.0
1.028866e+00 4.206125e-02 0.0
1.027049e+00 1.795538e-02 0.0
1.032540e+00 -2.791218e-03 0.0
1.043214e+00 -1.873587e-02 0.0
1.057546e+00 -3.011714e-02 0.0
1.074419e+00 -3.774885e-02 0.0
1.092947e+00 -4.242612e-02 0.0
1.112367e+00 -4.476396e-02 0.0
1.132026e+00 -4.524579e-02 0.0
1.151410e+00 -4.427179e-02 0.0
1.170047e+00 -4.208045e-02 0.0
1.187502e+00 -3.886310e-02 0.0
1.203402e+00 -3.482489e-02 0.0
1.217471e+00 -3.020317e-02 0.0
1.229541e+00 -2.526208e-02 0.0
1.239555e+00 -2.027160e-02 0.0
1.247544e+00 -1.547599e-02 0.0
1.253584e+00 -1.106136e-02 0.0
1.257774e+00 -7.138252e-03 0.0
1.260255e+00 -3.789758e-03 0.0
1.261121e+00 -9.698404e-04 0.0
1.260551e+00 7.978575e-04 0.0
0.000000e+00 1.536400e-03 0.0
1.000000e+00 -8.004198e-02 0.0
1.024404e+00 -7.948031e-02 0.0
1.052033e+00 -8.900751e-02 0.0
1.086457e+00 -1.085575e-01 0.0
1.131768e+00 -1.385950e-01 0.0
1.192813e+00 -1.793883e-01 0.0
1.271133e+00 -2.221983e-01 0.0
1.383956e+00 -2.895295e-01 0.0
1.475500e+00 -2.588209e-01 0.0
1.539834e+00 -2.011618e-01 0.0
1.585547e+00 -1.505082e-01 0.0
1.619222e+00 -1.108526e-01 0.0
1.643670e+00 -7.792843e-02 0.0
1.659490e+00 -4.799560e-02 0.0
1.666513e+00 -1.983610e-02 0.0
1.665495e+00 4.850905e-03 0.0
1.657793e+00 2.542817e-02 0.0
1.644585e+00 4.248491e-02 0.0
1.626845e+00 5.675084e-02 0.0
1.605233e+00 6.913806e-02 0.0
1.580078e+00 8.053213e-02 0.0
1.551457e+00 9.158890e-02 0.0
1.519310e+00 1.026498e-01 0.0
1.483558e+00 1.137785e-01 0.0
1.444191e+00 1.248667e-01 0.0
1.401336e+00 1.357205e-01 0.0
1.355291e+00 1.460092e-01 0.0
1.306563e+00 1.549222e-01 0.0
1.256092e+00 1.604133e-01 0.0
1.205810e+00 1.583390e-01 0.0
1.158921e+00 1.430120e-01 0.0
1.118831e+00 1.095528e-01 0.0
1.087256e+00 5.700844e-02 0.0
1.065147e+00 -1.008441e-02 0.0
1.053805e+00 -8.255992e-02 0.0
1.055820e+00 -1.536091e-01 0.0
1.080298e+00 -2.223167e-01 0.0
1.138606e+00 -2.796081e-01 0.0
1.226074e+00 -2.987207e-01 0.0
1.326493e+00 -2.667093e-01 0.0
1.419445e+00 -1.878807e-01 0.0
1.485135e+00 -8.335511e-02 0.0
1.513140e+00 1.543747e-02 0.0
1.511845e+00 8.818337e-02 0.0
1.488771e+00 1.405349e-01 0.0
1.449565e+00 1.782536e-01 0.0
1.398765e+00 2.051337e-01 0.0
1.340121e+00 2.232124e-01 0.0
1.276699e+00 2.329405e-01 0.0
1.211449e+00 2.330123e-01 0.0
1.147840e+00 2.212458e-01 0.0
1.089421e+00 1.968946e-01 0.0
1.039184e+00 1.613450e-01 0.0
9.994689e-01 1.174285e-01 0.0
9.718766e-01 6.908038e-02 0.0
9.571154e-01 2.092720e-02 0.0
9.547254e-01 -2.249948e-02 0.0
9.628345e-01 -5.864726e-02 0.0
9.793468e-01 -8.721465e-02 0.0
1.002452e+00 -1.087467e-01 0.0
1.030562e+00 -1.235316e-01 0.0
1.061962e+00 -1.315392e-01 0.0
1.094697e+00 -1.328234e-01 0.0
1.126814e+00 -1.277817e-01 0.0
1.156481e+00 -1.169384e-01 0.0
1.182097e+00 -1.010613e-01 0.0
1.202363e+00 -8.118151e-02 0.0
1.216292e+00 -5.849854e-02 0.0
1.223040e+00 -3.405987e-02 0.0
1.221520e+00 -8.062591e-03 0.0
1.210806e+00 1.986163e-02 0.0
1.190927e+00 4.888869e-02 0.0
1.162937e+00 7.768642e-02 0.0
1.129403e+00 1.036582e-01 0.0
1.094633e+00 1.225530e-01 0.0
1.063918e+00 1.293624e-01 0.0
1.041083e+00 1.214395e-01 0.0
1.026851e+00 1.010776e-01 0.0
1.020148e+00 7.315310e-02 0.0
1.019190e+00 4.302401e-02 0.0
1.022207e+00 1.494365e-02 0.0
1.027880e+00 -8.459761e-03 0.0
1.035668e+00 -2.651918e-02 0.0
1.045357e+00 -3.980110e-02 0.0
1.056774e+00 -4.916136e-02 0.0
1.069694e+00 -5.534178e-02 0.0
1.083813e+00 -5.887849e-02 0.0
1.098724e+00 -6.015169e-02 0.0
1.113941e+00 -5.948393e-02 0.0
1.128986e+00 -5.712108e-02 0.0
1.143403e+00 -5.327578e-02 0.0
1.156788e+00 -4.820539e-02 0.0
1.168817e+00 -4.222741e-02 0.0
1.179261e+00 -3.570135e-02 0.0
1.187984e+00 -2.898936e-02 0.0
1.194920e+00 -2.240810e-02 0.0
1.200055e+00 -1.619142e-02 0.0
1.203407e+00 -1.048529e-02 0.0
1.205053e+00 -5.431112e-03 0.0
1.205136e+00 -1.048563e-03 0.0
1.204203e+00 1.735803e-03 0.0
0.000000e+00 2.853784e-03 0.0
1.000000e+00 -9.946663e-02 0.0
1.019270e+00 -9.873211e-02 0.0
1.041667e+00 -1.114004e-01 0.0
1.070977e+00 -1.378626e-01 0.0
1.112371e+00 -1.799848e-01 0.0
1.173279e+00 -2.402911e-01 0.0
1.259456e+00 -3.083709e-01 0.0
1.404191e+00 -4.342593e-01 0.0
1.491459e+00 -3.460845e-01 0.0
1.538838e+00 -2.485363e-01 0.0
1.569880e+00 -1.815460e-01 0.0
1.593745e+00 -1.347129e-01 0.0
1.613294e+00 -9.747242e-02 0.0
1.628228e+00 -6.292478e-02 0.0
1.636555e+00 -2.815902e-02 0.0
1.637070e+00 4.340983e-03 0.0
1.630948e+00 3.155514e-02 0.0
1.619399e+00 5.403837e-02 0.0
1.603523e+00 7.263103e-02 0.0
1.584069e+00 8.859691e-02 0.0
1.561372e+00 1.032334e-01 0.0
1.535438e+00 1.175283e-01 0.0
1.506088e+00 1.320044e-01 0.0
1.473116e+00 1.467545e-01 0.0
1.436421e+00 1.615672e-01 0.0
1.396110e+00 1.760358e-01 0.0
1.352573e+00 1.895510e-01 0.0
1.306444e+00 2.010559e-01 0.0
1.258486e+00 2.083761e-01 0.0
1.209876e+00 2.069535e-01 0.0
1.162546e+00 1.903461e-01 0.0
1.117174e+00 1.549295e-01 0.0
1.070023e+00 1.041640e-01 0.0
1.015475e+00 4.446851e-02 0.0
9.563495e-01 -2.342966e-02 0.0
9.056155e-01 -1.028704e-01 0.0
8.814632e-01 -1.981597e-01 0.0
8.985255e-01 -2.966658e-01 0.0
9.611870e-01 -3.613776e-01 0.0
1.053627e+00 -3.591441e-01 0.0
1.156548e+00 -2.907978e-01 0.0
1.249864e+00 -1.766664e-01 0.0
1.315459e+00 -5.015251e-02 0.0
1.348734e+00 5.491309e-02 0.0
1.357148e+00 1.321248e-01 0.0
1.346163e+00 1.892440e-01 0.0
1.320276e+00 2.310253e-01 0.0
1.283389e+00 2.601035e-01 0.0
1.238957e+00 2.773772e-01 0.0
1.189952e+00 2.820224e-01 0.0
1.139543e+00 2.716596e-01 0.0
1.091026e+00 2.454161e-01 0.0
1.047576e+00 2.047994e-01 0.0
1.011707e+00 1.533022e-01 0.0
9.848560e-01 9.593629e-02 0.0
9.675050e-01 3.828290e-02 0.0
9.596132e-01 -1.460298e-02 0.0
9.603947e-01 -5.942409e-02 0.0
9.689473e-01 -9.576264e-02 0.0
9.841132e-01 -1.239079e-01 0.0
1.004399e+00 -1.438123e-01 0.0
1.028050e+00 -1.551863e-01 0.0
1.053145e+00 -1.579130e-01 0.0
1.077744e+00 -1.523760e-01 0.0
1.100095e+00 -1.392850e-01 0.0
1.118710e+00 -1.196716e-01 0.0
1.132367e+00 -9.483395e-02 0.0
1.140017e+00 -6.614346e-02 0.0
1.140549e+00 -3.458765e-02 0.0
1.132590e+00 -9.897924e-05 0.0
1.116083e+00 3.637324e-02 0.0
1.092207e+00 7.276919e-02 0.0
1.063527e+00 1.063708e-01 0.0
1.034159e+00 1.330316e-01 0.0
1.009101e+00 1.476153e-01 0.0
9.922796e-01 1.461887e-01 0.0
9.838309e-01 1.298928e-01 0.0
9.817612e-01 1.031519e-01 0.0
9.835297e-01 7.138924e-02 0.0
9.871280e-01 3.943040e-02 0.0
9.914905e-01 1.058578e-02 0.0
9.964866e-01 -1.345117e-02 0.0
1.002533e+00 -3.256094e-02 0.0
1.009995e+00 -4.725823e-02 0.0
1.019008e+00 -5.816944e-02 0.0
1.029491e+00 -6.582045e-02 0.0
1.041204e+00 -7.058685e-02 0.0
1.053784e+00 -7.272728e-02 0.0
1.066774e+00 -7.246897e-02 0.0
1.079705e+00 -7.004729e-02 0.0
1.092128e+00 -6.569436e-02 0.0
1.103639e+00 -5.971192e-02 0.0
1.113897e+00 -5.248082e-02 0.0
1.122632e+00 -4.443132e-02 0.0
1.129638e+00 -3.599032e-02 0.0
1.134760e+00 -2.752578e-02 0.0
1.137887e+00 -1.931413e-02 0.0
1.138972e+00 -1.156552e-02 0.0
1.138113e+00 -4.567724e-03 0.0
1.135729e+00 1.340820e-03 0.0
1.133895e+00 3.573753e-03 0.0
0.000000e+00 5.032624e-03 0.0
1.000000e+00 -1.119372e-01 0.0
1.012334e+00 -1.110482e-01 0.0
1.027215e+00 -1.262766e-01 0.0
1.048193e+00 -1.588367e-01 0.0
1.081329e+00 -2.131159e-01 0.0
1.137239e+00 -2.961959e-01 0.0
1.230762e+00 -4.018898e-01 0.0
1.413260e+00 -6.167524e-01 0.0
1.467987e+00 -4.008065e-01 0.0
1.476787e+00 -2.573317e-01 0.0
1.479381e+00 -1.841361e-01 0.0
1.484725e+00 -1.400519e-01 0.0
1.494740e+00 -1.074826e-01 0.0
1.508498e+00 -7.667861e-02 0.0
1.521911e+00 -4.156655e-02 0.0
1.528992e+00 -2.735630e-03 0.0
1.529028e+00 3.152372e-02 0.0
1.523256e+00 5.981488e-02 0.0
1.513216e+00 8.267531e-02 0.0
1.499890e+00 1.019280e-01 0.0
1.483636e+00 1.194923e-01 0.0
1.464337e+00 1.368321e-01 0.0
1.441614e+00 1.547317e-01 0.0
1.415039e+00 1.733346e-01 0.0
1.384307e+00 1.923033e-01 0.0
1.349387e+00 2.109605e-01 0.0
1.310604e+00 2.283387e-01 0.0
1.268576e+00 2.430883e-01 0.0
1.223807e+00 2.531506e-01 0.0
1.176032e+00 2.547324e-01 0.0
1.125073e+00 2.413099e-01 0.0
1.070364e+00 2.096433e-01 0.0
1.005459e+00 1.690739e-01 0.0
9.185003e-01 1.314317e-01 0.0
8.186438e-01 7.643151e-02 0.0
7.498156e-01 -3.403755e-02 0.0
7.297509e-01 -1.780904e-01 0.0
7.424284e-01 -3.093386e-01 0.0
7.821009e-01 -4.010454e-01 0.0
8.491691e-01 -4.262077e-01 0.0
9.343866e-01 -3.760106e-01 0.0
1.024453e+00 -2.667282e-01 0.0
1.104211e+00 -1.299053e-01 0.0
1.159261e+00 -1.326200e-04 0.0
1.190777e+00 1.006136e-01 0.0
1.202860e+00 1.771652e-01 0.0
1.199161e+00 2.347295e-01 0.0
1.183069e+00 2.761995e-01 0.0
1.157809e+00 3.026419e-01 0.0
1.126254e+00 3.135818e-01 0.0
1.090940e+00 3.069789e-01 0.0
1.054838e+00 2.815226e-01 0.0
1.020811e+00 2.388315e-01 0.0
9.910468e-01 1.830706e-01 0.0
9.668830e-01 1.201048e-01 0.0
9.491556e-01 5.601492e-02 0.0
9.387725e-01 -4.215224e-03 0.0
9.363724e-01 -5.701930e-02 0.0
9.416006e-01 -1.009862e-01 0.0
9.532487e-01 -1.355513e-01 0.0
9.696047e-01 -1.601636e-01 0.0
9.887571e-01 -1.743341e-01 0.0
1.008771e+00 -1.779225e-01 0.0
1.027762e+00 -1.713623e-01 0.0
1.044086e+00 -1.556043e-01 0.0
1.056405e+00 -1.319858e-01 0.0
1.063604e+00 -1.020283e-01 0.0
1.064610e+00 -6.714517e-02 0.0
1.058184e+00 -2.815620e-02 0.0
1.043618e+00 1.447098e-02 0.0
1.022265e+00 5.773150e-02 0.0
9.966368e-01 9.840169e-02 0.0
9.706123e-01 1.324000e-01 0.0
9.488666e-01 1.547820e-01 0.0
9.352198e-01 1.612669e-01 0.0
9.300371e-01 1.513760e-01 0.0
9.309400e-01 1.289946e-01 0.0
9.349826e-01 9.911403e-02 0.0
9.398173e-01 6.655917e-02 0.0
9.442779e-01 3.497444e-02 0.0
9.483125e-01 6.555912e-03 0.0
9.526210e-01 -1.775499e-02 0.0
9.579778e-01 -3.791317e-02 0.0
9.648172e-01 -5.409290e-02 0.0
9.732088e-01 -6.655635e-02 0.0
9.829658e-01 -7.557279e-02 0.0
9.937604e-01 -8.137686e-02 0.0
1.005201e+00 -8.416275e-02 0.0
1.016851e+00 -8.411427e-02 0.0
1.028259e+00 -8.145100e-02 0.0
1.039003e+00 -7.643398e-02 0.0
1.048702e+00 -6.940565e-02 0.0
1.057015e+00 -6.078942e-02 0.0
1.063643e+00 -5.105527e-02 0.0
1.068322e+00 -4.066446e-02 0.0
1.070822e+00 -3.002110e-02 0.0
1.070980e+00 -1.946763e-02 0.0
1.068780e+00 -9.360793e-03 0.0
1.064594e+00 -3.770906e-04 0.0
1.059549e+00 6.390492e-03 0.0
1.056933e+00 6.194359e-03 0.0
0.000000e+00 7.870640e-03 0.0
1.000000e+00 -1.159048e-01 0.0
1.003856e+00 -1.148867e-01 0.0
1.008843e+00 -1.312581e-01 0.0
1.017138e+00 -1.671272e-01 0.0
1.033969e+00 -2.299428e-01 0.0
1.071304e+00 -3.335264e-01 0.0
1.156251e+00 -4.868316e-01 0.0
1.366945e+00 -8.274418e-01 0.0
1.336387e+00 -3.702444e-01 0.0
1.272931e+00 -1.938702e-01 0.0
1.229633e+00 -1.408337e-01 0.0
1.203658e+00 -1.140723e-01 0.0
1.194029e+00 -9.784938e-02 0.0
1.202015e+00 -8.465916e-02 0.0
1.223598e+00 -6.314558e-02 0.0
1.250325e+00 -2.945813e-02 0.0
1.268812e+00 1.304137e-02 0.0
1.279291e+00 4.934105e-02 0.0
1.284633e+00 7.733757e-02 0.0
1.286494e+00 1.000721e-01 0.0
1.285453e+00 1.205375e-01 0.0
1.281243e+00 1.410465e-01 0.0
1.273166e+00 1.628134e-01 0.0
1.260441e+00 1.860649e-01 0.0
1.242433e+00 2.103155e-01 0.0
1.218837e+00 2.345618e-01 0.0
1.189785e+00 2.573951e-01 0.0
1.155751e+00 2.771268e-01 0.0
1.116871e+00 2.920350e-01 0.0
1.070203e+00 3.014054e-01 0.0
1.003038e+00 3.084794e-01 0.0
8.929402e-01 3.197457e-01 0.0
7.423369e-01 3.196819e-01 0.0
6.242124e-01 2.495608e-01 0.0
5.961751e-01 1.044735e-01 0.0
6.254119e-01 -6.326967e-02 0.0
6.615378e-01 -2.142117e-01 0.0
6.887455e-01 -3.365417e-01 0.0
7.121076e-01 -4.244028e-01 0.0
7.472568e-01 -4.613522e-01 0.0
8.000188e-01 -4.287679e-01 0.0
8.660506e-01 -3.327554e-01 0.0
9.350934e-01 -1.989434e-01 0.0
9.942748e-01 -5.930942e-02 0.0
1.035271e+00 5.962223e-02 0.0
1.059551e+00 1.528894e-01 0.0
1.069387e+00 2.248985e-01 0.0
1.067338e+00 2.782528e-01 0.0
1.056085e+00 3.139002e-01 0.0
1.038246e+00 3.314257e-01 0.0
1.015873e+00 3.293559e-01 0.0
9.911494e-01 3.062512e-01 0.0
9.661559e-01 2.638296e-01 0.0
9.426533e-01 2.065779e-01 0.0
9.223112e-01 1.404516e-01 0.0
9.069953e-01 7.133546e-02 0.0
8.986065e-01 4.178269e-03 0.0
8.983117e-01 -5.671987e-02 0.0
9.054369e-01 -1.081068e-01 0.0
9.180846e-01 -1.481943e-01 0.0
9.340736e-01 -1.761480e-01 0.0
9.513708e-01 -1.916266e-01 0.0
9.681568e-01 -1.947039e-01 0.0
9.827590e-01 -1.859598e-01 0.0
9.937694e-01 -1.666100e-01 0.0
1.000066e+00 -1.382775e-01 0.0
1.000684e+00 -1.026413e-01 0.0
9.946502e-01 -6.110725e-02 0.0
9.811025e-01 -1.460382e-02 0.0
9.612010e-01 3.437713e-02 0.0
9.375207e-01 8.141647e-02 0.0
9.136413e-01 1.222858e-01 0.0
8.937786e-01 1.522673e-01 0.0
8.814201e-01 1.671452e-01 0.0
8.774104e-01 1.652812e-01 0.0
8.793054e-01 1.494858e-01 0.0
8.841059e-01 1.241987e-01 0.0
8.893443e-01 9.388026e-02 0.0
8.937477e-01 6.216050e-02 0.0
8.972723e-01 3.145447e-02 0.0
9.007038e-01 3.129107e-03 0.0
9.050997e-01 -2.214626e-02 0.0
9.111382e-01 -4.394694e-02 0.0
9.189580e-01 -6.190812e-02 0.0
9.282983e-01 -7.589195e-02 0.0
9.386963e-01 -8.596610e-02 0.0
9.496414e-01 -9.231732e-02 0.0
9.606597e-01 -9.517635e-02 0.0
9.713274e-01 -9.477730e-02 0.0
9.812427e-01 -9.136163e-02 0.0
9.900524e-01 -8.523907e-02 0.0
9.974373e-01 -7.678585e-02 0.0
1.003093e+00 -6.644059e-02 0.0
1.006724e+00 -5.468103e-02 0.0
1.008052e+00 -4.198780e-02 0.0
1.006864e+00 -2.882848e-02 0.0
1.003118e+00 -1.571709e-02 0.0
9.971636e-01 -3.401965e-03 0.0
9.901811e-01 6.610003e-03 0.0
9.838766e-01 1.269968e-02 0.0
9.811096e-01 8.966081e-03 0.0
0.000000e+00 1.071047e-02 0.0
1.000000e+00 -1.105911e-01 0.0
9.946076e-01 -1.094765e-01 0.0
9.879814e-01 -1.246272e-01 0.0
9.791649e-01 -1.583060e-01 0.0
9.684483e-01 -2.192215e-01 0.0
9.604570e-01 -3.255305e-01 0.0
9.806523e-01 -5.070222e-01 0.0
1.129691e+00 -9.764757e-01 0.0
9.506696e-01 -1.912317e-01 0.0
7.790593e-01 -2.226850e-02 0.0
6.886509e-01 -5.042056e-02 0.0
6.265332e-01 -5.195000e-02 0.0
5.871715e-01 -5.848302e-02 0.0
5.893713e-01 -8.685432e-02 0.0
6.248406e-01 -9.861016e-02 0.0
6.812263e-01 -8.583918e-02 0.0
7.454546e-01 -5.118228e-02 0.0
7.995173e-01 -4.717056e-03 0.0
8.401506e-01 3.670893e-02 0.0
8.740053e-01 6.622211e-02 0.0
9.030434e-01 9.150408e-02 0.0
9.268123e-01 1.172823e-01 0.0
9.440538e-01 1.455765e-01 0.0
9.533080e-01 1.768154e-01 0.0
9.529817e-01 2.106465e-01 0.0
9.412379e-01 2.463102e-01 0.0
9.157084e-01 2.829292e-01 0.0
8.729270e-01 3.199129e-01 0.0
8.076521e-01 3.573145e-01 0.0
7.132192e-01 3.958430e-01 0.0
5.882309e-01 4.334723e-01 0.0
4.642870e-01 4.436943e-01 0.0
4.122017e-01 3.717718e-01 0.0
4.436438e-01 2.181233e-01 0.0
5.223017e-01 2.582031e-02 0.0
5.998446e-01 -1.408079e-01 0.0
6.556130e-01 -2.699755e-01 0.0
6.857768e-01 -3.667008e-01 0.0
6.977203e-01 -4.363417e-01 0.0
7.087285e-01 -4.723557e-01 0.0
7.328779e-01 -4.529127e-01 0.0
7.721400e-01 -3.720127e-01 0.0
8.212289e-01 -2.480276e-01 0.0
8.708457e-01 -1.089216e-01 0.0
9.105317e-01 1.994081e-02 0.0
9.376166e-01 1.258092e-01 0.0
9.527565e-01 2.097632e-01 0.0
9.575823e-01 2.734317e-01 0.0
9.541485e-01 3.173386e-01 0.0
9.446141e-01 3.409648e-01 0.0
9.305902e-01 3.433843e-01 0.0
9.133440e-01 3.235021e-01 0.0
8.942474e-01 2.829308e-01 0.0
8.752890e-01 2.255410e-01 0.0
8.594204e-01 1.563248e-01 0.0
8.498838e-01 8.087673e-02 0.0
8.487906e-01 5.276131e-03 0.0
8.560587e-01 -6.398324e-02 0.0
8.694681e-01 -1.215115e-01 0.0
8.861763e-01 -1.648979e-01 0.0
9.037740e-01 -1.937410e-01 0.0
9.204585e-01 -2.083064e-01 0.0
9.348045e-01 -2.090452e-01 0.0
9.455317e-01 -1.966823e-01 0.0
9.515818e-01 -1.726555e-01 0.0
9.520866e-01 -1.387776e-01 0.0
9.463096e-01 -9.685963e-02 0.0
9.337064e-01 -4.849943e-02 0.0
9.147881e-01 4.319128e-03 0.0
8.924498e-01 5.672009e-02 0.0
8.699845e-01 1.038865e-01 0.0
8.510806e-01 1.411943e-01 0.0
8.388264e-01 1.645262e-01 0.0
8.342245e-01 1.717518e-01 0.0
8.353377e-01 1.641727e-01 0.0
8.392446e-01 1.455835e-01 0.0
8.435483e-01 1.198996e-01 0.0
8.469692e-01 9.046403e-02 0.0
8.494700e-01 5.966442e-02 0.0
8.519003e-01 2.902878e-02 0.0
8.554441e-01 -4.099954e-04 0.0
8.610578e-01 -2.775533e-02 0.0
8.689793e-01 -5.186374e-02 0.0
8.788442e-01 -7.176833e-02 0.0
8.899622e-01 -8.700533e-02 0.0
9.015692e-01 -9.756843e-02 0.0
9.129832e-01 -1.037266e-01 0.0
9.236652e-01 -1.058538e-01 0.0
9.331984e-01 -1.043058e-01 0.0
9.412568e-01 -9.941538e-02 0.0
9.475878e-01 -9.156539e-02 0.0
9.519674e-01 -8.116071e-02 0.0
9.541701e-01 -6.863869e-02 0.0
9.539751e-01 -5.448132e-02 0.0
9.512270e-01 -3.923506e-02 0.0
9.459762e-01 -2.357300e-02 0.0
9.387002e-01 -8.436444e-03 0.0
9.306061e-01 4.696822e-03 0.0
9.232949e-01 1.392584e-02 0.0
9.183425e-01 1.765675e-02 0.0
9.162375e-01 1.107575e-02 0.0
0.000000e+00 1.272719e-02 0.0
1.000000e+00 -9.661702e-02 0.0
9.859848e-01 -9.544350e-02 0.0
9.680422e-01 -1.066800e-01 0.0
9.409830e-01 -1.312421e-01 0.0
8.960652e-01 -1.742990e-01 0.0
8.161460e-01 -2.456066e-01 0.0
6.754767e-01 -3.663482e-01 0.0
1.912054e-01 -4.922129e-01 0.0
-9.519820e-01 4.951751e-01 0.0
0.000000e+00 -3.878967e-02 0.0
-1.093804e-01 3.670913e-02 0.0
-1.392504e-01 -2.207526e-02 0.0
-9.404293e-02 -1.036859e-01 0.0
-1.698195e-02 -1.639107e-01 0.0
5.500016e-02 -1.705876e-01 0.0
1.292985e-01 -1.601329e-01 0.0
2.090442e-01 -1.309233e-01 0.0
2.911143e-01 -8.678252e-02 0.0
3.656967e-01 -3.786883e-02 0.0
4.267249e-01 5.198606e-03 0.0
4.780613e-01 4.017231e-02 0.0
5.202078e-01 7.514049e-02 0.0
5.518027e-01 1.139863e-01 0.0
5.712310e-01 1.573917e-01 0.0
5.762920e-01 2.055901e-01 0.0
5.642104e-01 2.583964e-01 0.0
5.319549e-01 3.151894e-01 0.0
4.768800e-01 3.749925e-01 0.0
3.988258e-01 4.353734e-01 0.0
3.067147e-01 4.879587e-01 0.0
2.343291e-01 5.058626e-01 0.0
2.316262e-01 4.464018e-01 0.0
2.984155e-01 3.049872e-01 0.0
4.085124e-01 1.080310e-01 0.0
5.212271e-01 -8.688975e-02 0.0
6.147173e-01 -2.342935e-01 0.0
6.801708e-01 -3.354243e-01 0.0
7.133882e-01 -3.999135e-01 0.0
7.184133e-01 -4.413622e-01 0.0
7.105470e-01 -4.644846e-01 0.0
7.107711e-01 -4.531322e-01 0.0
7.264699e-01 -3.877069e-01 0.0
7.547315e-01 -2.762846e-01 0.0
7.888936e-01 -1.430790e-01 0.0
8.203918e-01 -1.155269e-02 0.0
8.438167e-01 1.023889e-01 0.0
8.582599e-01 1.953247e-01 0.0
8.643911e-01 2.673052e-01 0.0
8.635187e-01 3.182156e-01 0.0
8.570715e-01 3.474167e-01 0.0
8.461117e-01 3.543488e-01 0.0
8.314469e-01 3.381716e-01 0.0
8.150083e-01 2.993741e-01 0.0
8.003863e-01 2.401677e-01 0.0
7.919143e-01 1.648015e-01 0.0
7.926684e-01 8.012730e-02 0.0
8.031062e-01 -5.156967e-03 0.0
8.208045e-01 -8.167690e-02 0.0
8.420896e-01 -1.427920e-01 0.0
8.636623e-01 -1.864659e-01 0.0
8.832388e-01 -2.133129e-01 0.0
8.994499e-01 -2.245129e-01 0.0
9.113900e-01 -2.209807e-01 0.0
9.183466e-01 -2.036343e-01 0.0
9.197025e-01 -1.740067e-01 0.0
9.149139e-01 -1.339844e-01 0.0
9.036640e-01 -8.560507e-02 0.0
8.863289e-01 -3.115962e-02 0.0
8.653505e-01 2.530212e-02 0.0
8.440492e-01 7.802609e-02 0.0
8.256218e-01 1.223185e-01 0.0
8.127243e-01 1.540965e-01 0.0
8.063906e-01 1.708646e-01 0.0
8.054004e-01 1.727466e-01 0.0
8.071013e-01 1.624765e-01 0.0
8.092871e-01 1.434024e-01 0.0
8.107405e-01 1.184509e-01 0.0
8.114173e-01 8.979184e-02 0.0
8.121677e-01 5.891868e-02 0.0
8.142283e-01 2.697291e-02 0.0
8.187557e-01 -4.932721e-03 0.0
8.263053e-01 -3.530034e-02 0.0
8.365953e-01 -6.214907e-02 0.0
8.487836e-01 -8.395195e-02 0.0
8.617981e-01 -1.000151e-01 0.0
8.746082e-01 -1.103739e-01 0.0
8.863794e-01 -1.154931e-01 0.0
8.965144e-01 -1.159841e-01 0.0
9.046015e-01 -1.123882e-01 0.0
9.104085e-01 -1.052178e-01 0.0
9.138068e-01 -9.495895e-02 0.0
9.147147e-01 -8.206400e-02 0.0
9.130803e-01 -6.699962e-02 0.0
9.089277e-01 -5.032401e-02 0.0
9.024930e-01 -3.279575e-02 0.0
8.944324e-01 -1.550769e-02 0.0
8.859777e-01 2.291986e-05 0.0
8.786985e-01 1.198069e-02 0.0
8.737592e-01 1.886982e-02 0.0
8.717192e-01 1.970143e-02 0.0
8.706763e-01 1.212329e-02 0.0
0.000000e+00 1.361747e-02 0.0
1.000000e+00 -7.624908e-02 0.0
9.796299e-01 -7.505551e-02 0.0
9.536079e-01 -8.065338e-02 0.0
9.141708e-01 -9.180038e-02 0.0
8.473493e-01 -1.074729e-01 0.0
7.241264e-01 -1.223791e-01 0.0
4.703259e-01 -1.125431e-01 0.0
-6.472869e-03 -1.542264e-02 0.0
2.028677e-05 0.000000e+00 0.0
0.000000e+00 -0.000000e+00 0.0
0.000000e+00 -9.759277e-02 0.0
-1.165601e-01 9.448946e-02 0.0
-1.342253e-01 -8.601603e-02 0.0
-1.395376e-01 -1.585937e-01 0.0
-1.504098e-01 -1.597108e-01 0.0
-1.450403e-01 -1.654977e-01 0.0
-1.126898e-01 -1.632691e-01 0.0
-5.629635e-02 -1.431714e-01 0.0