# vtk DataFile Version 3.0
Vector Field
ASCII
DATASET RECTILINEAR_GRID
DIMENSIONS 102 22 1
X_COORDINATES 102 double
0.000000 0.100000 0.200000 0.300000 0.400000 0.500000 0.600000 0.700000 0.800000 0.900000 1.000000 1.100000 1.200000 1.300000 1.400000 1.500000 1.600000 1.700000 1.800000 1.900000 2.000000 2.100000 2.200000 2.300000 2.400000 2.500000 2.600000 2.700000 2.800000 2.900000 3.000000 3.100000 3.200000 3.300000 3.400000 3.500000 3.600000 3.700000 3.800000 3.900000 4.000000 4.100000 4.200000 4.300000 4.400000 4.500000 4.600000 4.700000 4.800000 4.900000 5.000000 5.100000 5.200000 5.300000 5.400000 5.500000 5.600000 5.700000 5.800000 5.900000 6.000000 6.100000 6.200000 6.300000 6.400000 6.500000 6.600000 6.700000 6.800000 6.900000 7.000000 7.100000 7.200000 7.300000 7.400000 7.500000 7.600000 7.700000 7.800000 7.900000 8.000000 8.100000 8.200000 8.300000 8.400000 8.500000 8.600000 8.700000 8.800000 8.900000 9.000000 9.100000 9.200000 9.300000 9.400000 9.500000 9.600000 9.700000 9.800000 9.900000 10.000000 10.100000 
Y_COORDINATES 22 double
0.000000 0.100000 0.200000 0.300000 0.400000 0.500000 0.600000 0.700000 0.800000 0.900000 1.000000 1.100000 1.200000 1.300000 1.400000 1.500000 1.600000 1.700000 1.800000 1.900000 2.000000 2.100000 
Z_COORDINATES 1 double
0.0
POINT_DATA 2244
VECTORS Velocity double
0.000000e+00 0.000000e+00 0.0
-1.028108e+00 0.000000e+00 0.0
-1.059331e+00 0.000000e+00 0.0
-1.096893e+00 0.000000e+00 0.0
-1.143840e+00 0.000000e+00 0.0
-1.202769e+00 0.000000e+00 0.0
-1.273769e+00 0.000000e+00 0.0
-1.357858e+00 0.000000e+00 0.0
-1.438892e+00 0.000000e+00 0.0
-1.506102e+00 0.000000e+00 0.0
-1.557080e+00 0.000000e+00 0.0
-1.593148e+00 0.000000e+00 0.0
-1.616228e+00 0.000000e+00 0.0
-1.628007e+00 0.000000e+00 0.0
-1.630169e+00 0.000000e+00 0.0
-1.624427e+00 0.000000e+00 0.0
-1.612180e+00 0.000000e+00 0.0
-1.594506e+00 0.000000e+00 0.0
-1.572176e+00 0.000000e+00 0.0
-1.545680e+00 0.000000e+00 0.0
-1.515300e+00 0.000000e+00 0.0
-1.481192e+00 0.000000e+00 0.0
-1.443460e+00 0.000000e+00 0.0
-1.402187e+00 0.000000e+00 0.0
-1.357422e+00 0.000000e+00 0.0
-1.309210e+00 0.000000e+00 0.0
-1.257832e+00 0.000000e+00 0.0
-1.204427e+00 0.000000e+00 0.0
-1.151708e+00 0.000000e+00 0.0
-1.104626e+00 0.000000e+00 0.0
-1.070736e+00 0.000000e+00 0.0
-1.059461e+00 0.000000e+00 0.0
-1.079409e+00 0.000000e+00 0.0
-1.135152e+00 0.000000e+00 0.0
-1.224045e+00 0.000000e+00 0.0
-1.334629e+00 0.000000e+00 0.0
-1.449233e+00 0.000000e+00 0.0
-1.548311e+00 0.000000e+00 0.0
-1.615179e+00 0.000000e+00 0.0
-1.642126e+00 0.000000e+00 0.0
-1.633917e+00 0.000000e+00 0.0
-1.600277e+00 0.000000e+00 0.0
-1.548730e+00 0.000000e+00 0.0
-1.484421e+00 0.000000e+00 0.0
-1.410699e+00 0.000000e+00 0.0
-1.329717e+00 0.000000e+00 0.0
-1.243267e+00 0.000000e+00 0.0
-1.153798e+00 0.000000e+00 0.0
-1.064958e+00 0.000000e+00 0.0
-9.814218e-01 0.000000e+00 0.0
-9.083563e-01 0.000000e+00 0.0
-8.504368e-01 0.000000e+00 0.0
-8.108578e-01 0.000000e+00 0.0
-7.907163e-01 0.000000e+00 0.0
-7.889548e-01 0.000000e+00 0.0
-8.030419e-01 0.000000e+00 0.0
-8.305399e-01 0.000000e+00 0.0
-8.691674e-01 0.000000e+00 0.0
-9.167469e-01 0.000000e+00 0.0
-9.710844e-01 0.000000e+00 0.0
-1.029862e+00 0.000000e+00 0.0
-1.090655e+00 0.000000e+00 0.0
-1.150994e+00 0.000000e+00 0.0
-1.208531e+00 0.000000e+00 0.0
-1.261088e+00 0.000000e+00 0.0
-1.306717e+00 0.000000e+00 0.0
-1.343828e+00 0.000000e+00 0.0
-1.371323e+00 0.000000e+00 0.0
-1.388705e+00 0.000000e+00 0.0
-1.396010e+00 0.000000e+00 0.0
-1.393059e+00 0.000000e+00 0.0
-1.378984e+00 0.000000e+00 0.0
-1.352558e+00 0.000000e+00 0.0
-1.312430e+00 0.000000e+00 0.0
-1.257933e+00 0.000000e+00 0.0
-1.190701e+00 0.000000e+00 0.0
-1.116181e+00 0.000000e+00 0.0
-1.042875e+00 0.000000e+00 0.0
-9.787176e-01 0.000000e+00 0.0
-9.287795e-01 0.000000e+00 0.0
-8.949650e-01 0.000000e+00 0.0
-8.766605e-01 0.000000e+00 0.0
-8.716945e-01 0.000000e+00 0.0
-8.772279e-01 0.000000e+00 0.0
-8.906723e-01 0.000000e+00 0.0
-9.100692e-01 0.000000e+00 0.0
-9.340025e-01 0.000000e+00 0.0
-9.613894e-01 0.000000e+00 0.0
-9.913025e-01 0.000000e+00 0.0
-1.022876e+00 0.000000e+00 0.0
-1.055278e+00 0.000000e+00 0.0
-1.087747e+00 0.000000e+00 0.0
-1.119615e+00 0.000000e+00 0.0
-1.150277e+00 0.000000e+00 0.0
-1.179152e+00 0.000000e+00 0.0
-1.205665e+00 0.000000e+00 0.0
-1.229245e+00 0.000000e+00 0.0
-1.249333e+00 0.000000e+00 0.0
-1.265420e+00 0.000000e+00 0.0
-1.277139e+00 0.000000e+00 0.0
-1.277139e+00 0.000000e+00 0.0
0.000000e+00 0.000000e+00 0.0
1.000000e+00 -2.802042e-02 0.0
1.027922e+00 -2.785070e-02 0.0
1.058960e+00 -3.099701e-02 0.0
1.096329e+00 -3.732792e-02 0.0
1.143076e+00 -4.670655e-02 0.0
1.201808e+00 -5.869060e-02 0.0
1.272635e+00 -7.078669e-02 0.0
1.356616e+00 -8.393929e-02 0.0
1.437707e+00 -8.105064e-02 0.0
1.505210e+00 -6.746204e-02 0.0
1.556734e+00 -5.148319e-02 0.0
1.593582e+00 -3.680708e-02 0.0
1.617605e+00 -2.398133e-02 0.0
1.630368e+00 -1.272264e-02 0.0
1.633420e+00 -3.011452e-03 0.0
1.628423e+00 5.038179e-03 0.0
1.616779e+00 1.168554e-02 0.0
1.599596e+00 1.722349e-02 0.0
1.577679e+00 2.195779e-02 0.0
1.551546e+00 2.617461e-02 0.0
1.521486e+00 3.010071e-02 0.0
1.487650e+00 3.387695e-02 0.0
1.450128e+00 3.756286e-02 0.0
1.408995e+00 4.117385e-02 0.0
1.364307e+00 4.472884e-02 0.0
1.316105e+00 4.824343e-02 0.0
1.264588e+00 5.155728e-02 0.0
1.210657e+00 5.397200e-02 0.0
1.156647e+00 5.405120e-02 0.0
1.106975e+00 4.971319e-02 0.0
1.068643e+00 3.837222e-02 0.0
1.050831e+00 1.785324e-02 0.0
1.062652e+00 -1.178002e-02 0.0
1.109874e+00 -4.718100e-02 0.0
1.191941e+00 -8.202592e-02 0.0
1.299672e+00 -1.076899e-01 0.0
1.416882e+00 -1.171689e-01 0.0
1.523983e+00 -1.070607e-01 0.0
1.602692e+00 -7.866822e-02 0.0
1.641793e+00 -3.905982e-02 0.0
1.642591e+00 -7.573411e-04 0.0
1.614667e+00 2.796514e-02 0.0
1.566574e+00 4.813450e-02 0.0
1.504252e+00 6.236219e-02 0.0
1.431655e+00 7.263797e-02 0.0
1.351323e+00 8.037306e-02 0.0
1.265152e+00 8.621283e-02 0.0
1.175423e+00 8.976921e-02 0.0
1.085556e+00 8.990840e-02 0.0
1.000035e+00 8.556224e-02 0.0
9.239991e-01 7.607644e-02 0.0
8.623077e-01 6.173227e-02 0.0
8.185150e-01 4.383369e-02 0.0
7.941555e-01 2.440044e-02 0.0
7.885827e-01 5.613811e-03 0.0
7.993826e-01 -1.075897e-02 0.0
8.240435e-01 -2.461994e-02 0.0
8.602283e-01 -3.614385e-02 0.0
9.057341e-01 -4.546481e-02 0.0
9.583883e-01 -5.261320e-02 0.0
1.015920e+00 -5.749026e-02 0.0
1.075956e+00 -5.999559e-02 0.0
1.136065e+00 -6.006781e-02 0.0
1.193900e+00 -5.779400e-02 0.0
1.247284e+00 -5.334328e-02 0.0
1.294244e+00 -4.691894e-02 0.0
1.333126e+00 -3.884124e-02 0.0
1.362728e+00 -2.956051e-02 0.0
1.382414e+00 -1.964544e-02 0.0
1.392126e+00 -9.671301e-03 0.0
1.391865e+00 3.024785e-04 0.0
1.380906e+00 1.099947e-02 0.0
1.358126e+00 2.282105e-02 0.0
1.322184e+00 3.598350e-02 0.0
1.272110e+00 5.011448e-02 0.0
1.208700e+00 6.345089e-02 0.0
1.136203e+00 7.253838e-02 0.0
1.062421e+00 7.382280e-02 0.0
9.956910e-01 6.677108e-02 0.0
9.419021e-01 5.382996e-02 0.0
9.038113e-01 3.813169e-02 0.0
8.814526e-01 2.239974e-02 0.0
8.730383e-01 8.455302e-03 0.0
8.758821e-01 -2.802834e-03 0.0
8.872607e-01 -1.133765e-02 0.0
9.050496e-01 -1.774796e-02 0.0
9.277000e-01 -2.260940e-02 0.0
9.540557e-01 -2.631466e-02 0.0
9.831565e-01 -2.905982e-02 0.0
1.014124e+00 -3.092627e-02 0.0
1.046117e+00 -3.195271e-02 0.0
1.078353e+00 -3.219469e-02 0.0
1.110140e+00 -3.174561e-02 0.0
1.140859e+00 -3.067785e-02 0.0
1.169921e+00 -2.902102e-02 0.0
1.196742e+00 -2.678021e-02 0.0
1.220735e+00 -2.395180e-02 0.0
1.241313e+00 -2.053789e-02 0.0
1.257921e+00 -1.656683e-02 0.0
1.270129e+00 -1.216716e-02 0.0
1.277139e+00 -6.968826e-03 0.0
0.000000e+00 -6.706627e-03 0.0
1.000000e+00 -5.646664e-02 0.0
1.028307e+00 -5.611698e-02 0.0
1.059763e+00 -6.244191e-02 0.0
1.097701e+00 -7.525574e-02 0.0
1.145476e+00 -9.447044e-02 0.0
1.206362e+00 -1.195661e-01 0.0
1.280613e+00 -1.450272e-01 0.0
1.374382e+00 -1.776970e-01 0.0
1.460786e+00 -1.674442e-01 0.0
1.529098e+00 -1.357632e-01 0.0
1.579970e+00 -1.023452e-01 0.0
1.616515e+00 -7.334098e-02 0.0
1.641037e+00 -4.849244e-02 0.0
1.654921e+00 -2.659609e-02 0.0
1.659413e+00 -7.492952e-03 0.0
1.656086e+00 8.376296e-03 0.0
1.646297e+00 2.148500e-02 0.0
1.631151e+00 3.238016e-02 0.0
1.611455e+00 4.166469e-02 0.0
1.587722e+00 4.991779e-02 0.0
1.560227e+00 5.760648e-02 0.0
1.529090e+00 6.502450e-02 0.0
1.494368e+00 7.229619e-02 0.0
1.456113e+00 7.943952e-02 0.0
1.414413e+00 8.643932e-02 0.0
1.369431e+00 9.323553e-02 0.0
1.321491e+00 9.950794e-02 0.0
1.271262e+00 1.042122e-01 0.0
1.220331e+00 1.049929e-01 0.0
1.172023e+00 9.803172e-02 0.0
1.131738e+00 7.866810e-02 0.0
1.106749e+00 4.285283e-02 0.0
1.104263e+00 -9.283431e-03 0.0
1.127231e+00 -7.013835e-02 0.0
1.175497e+00 -1.302812e-01 0.0
1.248177e+00 -1.803594e-01 0.0
1.340719e+00 -2.097003e-01 0.0
1.440872e+00 -2.072024e-01 0.0
1.532548e+00 -1.703339e-01 0.0
1.598936e+00 -1.054368e-01 0.0
1.628658e+00 -3.046904e-02 0.0
1.624643e+00 3.199095e-02 0.0
1.596013e+00 7.677509e-02 0.0
1.549720e+00 1.086654e-01 0.0
1.490809e+00 1.315602e-01 0.0
1.422900e+00 1.482922e-01 0.0
1.348874e+00 1.602500e-01 0.0
1.271318e+00 1.673360e-01 0.0
1.192914e+00 1.683230e-01 0.0
1.117122e+00 1.613645e-01 0.0
1.047764e+00 1.454452e-01 0.0
9.884462e-01 1.210609e-01 0.0
9.421396e-01 9.015101e-02 0.0
9.108208e-01 5.572988e-02 0.0
8.952206e-01 2.122472e-02 0.0
8.946424e-01 -1.017007e-02 0.0
9.069854e-01 -3.695225e-02 0.0
9.300372e-01 -5.918493e-02 0.0
9.617313e-01 -7.714826e-02 0.0
1.000180e+00 -9.105146e-02 0.0
1.043463e+00 -1.007620e-01 0.0
1.089637e+00 -1.061591e-01 0.0
1.136733e+00 -1.071530e-01 0.0
1.182821e+00 -1.038712e-01 0.0
1.225972e+00 -9.648409e-02 0.0
1.264387e+00 -8.532363e-02 0.0
1.296521e+00 -7.096400e-02 0.0
1.321189e+00 -5.421764e-02 0.0
1.337574e+00 -3.601957e-02 0.0
1.344973e+00 -1.705963e-02 0.0
1.342303e+00 2.982954e-03 0.0
1.328570e+00 2.474296e-02 0.0
1.303129e+00 4.827299e-02 0.0
1.266120e+00 7.300324e-02 0.0
1.219291e+00 9.695396e-02 0.0
1.166579e+00 1.161738e-01 0.0
1.113509e+00 1.256187e-01 0.0
1.065282e+00 1.220602e-01 0.0
1.025054e+00 1.070103e-01 0.0
9.938757e-01 8.501875e-02 0.0
9.711474e-01 6.087068e-02 0.0
9.558813e-01 3.767659e-02 0.0
9.472096e-01 1.713766e-02 0.0
9.444271e-01 -9.592385e-06 0.0
9.469176e-01 -1.381746e-02 0.0
9.540707e-01 -2.489039e-02 0.0
9.653353e-01 -3.386331e-02 0.0
9.802184e-01 -4.118712e-02 0.0
9.981886e-01 -4.701925e-02 0.0
1.018654e+00 -5.138105e-02 0.0
1.040967e+00 -5.425531e-02 0.0
1.064435e+00 -5.565175e-02 0.0
1.088369e+00 -5.566913e-02 0.0
1.112161e+00 -5.445846e-02 0.0
1.135245e+00 -5.209517e-02 0.0
1.157086e+00 -4.860962e-02 0.0
1.177157e+00 -4.401216e-02 0.0
1.194942e+00 -3.831268e-02 0.0
1.209919e+00 -3.153357e-02 0.0
1.221625e+00 -2.386185e-02 0.0
1.227907e+00 -1.324009e-02 0.0
0.000000e+00 -1.280939e-02 0.0
1.000000e+00 -8.152782e-02 0.0
1.024929e+00 -8.100478e-02 0.0
1.053087e+00 -9.058957e-02 0.0
1.088079e+00 -1.102365e-01 0.0
1.134003e+00 -1.403845e-01 0.0
1.195713e+00 -1.812648e-01 0.0
1.274696e+00 -2.239994e-01 0.0
1.388323e+00 -2.913139e-01 0.0
1.480192e+00 -2.593027e-01 0.0
1.544230e+00 -1.997900e-01 0.0
1.589009e+00 -1.471139e-01 0.0
1.621053e+00 -1.053743e-01 0.0
1.643152e+00 -7.058090e-02 0.0
1.656057e+00 -3.949006e-02 0.0
1.660137e+00 -1.156265e-02 0.0
1.656716e+00 1.180865e-02 0.0
1.647071e+00 3.113999e-02 0.0
1.632323e+00 4.713881e-02 0.0
1.613310e+00 6.068856e-02 0.0
1.590556e+00 7.268228e-02 0.0
1.564308e+00 8.386538e-02 0.0
1.534627e+00 9.471652e-02 0.0
1.501498e+00 1.054360e-01 0.0
1.464925e+00 1.160234e-01 0.0
1.425001e+00 1.263733e-01 0.0
1.381957e+00 1.362909e-01 0.0
1.336179e+00 1.452963e-01 0.0
1.288316e+00 1.520854e-01 0.0
1.239668e+00 1.536521e-01 0.0
1.192747e+00 1.449637e-01 0.0
1.150938e+00 1.204877e-01 0.0
1.116897e+00 7.690390e-02 0.0
1.092170e+00 1.545454e-02 0.0
1.078705e+00 -5.666256e-02 0.0
1.078212e+00 -1.297778e-01 0.0
1.096647e+00 -1.987841e-01 0.0
1.145210e+00 -2.582521e-01 0.0
1.224424e+00 -2.864054e-01 0.0
1.320388e+00 -2.662876e-01 0.0
1.413718e+00 -1.987560e-01 0.0
1.483680e+00 -1.004206e-01 0.0
1.516450e+00 -7.684189e-04 0.0
1.518322e+00 7.491430e-02 0.0
1.497397e+00 1.296006e-01 0.0
1.459641e+00 1.693268e-01 0.0
1.409738e+00 1.982059e-01 0.0
1.351500e+00 2.184986e-01 0.0
1.287991e+00 2.308555e-01 0.0
1.221985e+00 2.343403e-01 0.0
1.156697e+00 2.266626e-01 0.0
1.095554e+00 2.065989e-01 0.0
1.041535e+00 1.750913e-01 0.0
9.970761e-01 1.346203e-01 0.0
9.639565e-01 8.886023e-02 0.0
9.431589e-01 4.203293e-02 0.0
9.348461e-01 -1.846497e-03 0.0
9.377604e-01 -3.985596e-02 0.0
9.501073e-01 -7.152112e-02 0.0
9.701310e-01 -9.716123e-02 0.0
9.963561e-01 -1.172659e-01 0.0
1.027464e+00 -1.318592e-01 0.0
1.061935e+00 -1.406192e-01 0.0
1.098030e+00 -1.432371e-01 0.0
1.133903e+00 -1.397343e-01 0.0
1.167759e+00 -1.303294e-01 0.0
1.197933e+00 -1.154869e-01 0.0
1.222977e+00 -9.599709e-02 0.0
1.241705e+00 -7.293523e-02 0.0
1.253124e+00 -4.742782e-02 0.0
1.256141e+00 -2.006537e-02 0.0
1.249389e+00 9.745483e-03 0.0
1.232388e+00 4.175457e-02 0.0
1.205582e+00 7.508943e-02 0.0
1.170831e+00 1.077648e-01 0.0
1.131804e+00 1.359922e-01 0.0
1.093460e+00 1.545285e-01 0.0
1.060211e+00 1.588785e-01 0.0
1.033552e+00 1.487297e-01 0.0
1.012518e+00 1.280552e-01 0.0
9.954931e-01 1.020541e-01 0.0
9.812918e-01 7.508268e-02 0.0
9.692597e-01 4.971937e-02 0.0
9.593148e-01 2.709325e-02 0.0
9.519003e-01 7.415603e-03 0.0
9.476225e-01 -9.528940e-03 0.0
9.468412e-01 -2.409847e-02 0.0
9.496777e-01 -3.668910e-02 0.0
9.559902e-01 -4.748890e-02 0.0
9.654630e-01 -5.648143e-02 0.0
9.776494e-01 -6.355674e-02 0.0
9.920111e-01 -6.860630e-02 0.0
1.007953e+00 -7.158260e-02 0.0
1.024813e+00 -7.251908e-02 0.0
1.041956e+00 -7.159081e-02 0.0
1.058828e+00 -6.895621e-02 0.0
1.074938e+00 -6.470881e-02 0.0
1.089843e+00 -5.890656e-02 0.0
1.103128e+00 -5.158722e-02 0.0
1.114378e+00 -4.277284e-02 0.0
1.123186e+00 -3.265877e-02 0.0
1.128002e+00 -1.804606e-02 0.0
0.000000e+00 -1.748852e-02 0.0
1.000000e+00 -1.014115e-01 0.0
1.019762e+00 -1.007256e-01 0.0
1.042660e+00 -1.134776e-01 0.0
1.072520e+00 -1.400854e-01 0.0
1.114534e+00 -1.823877e-01 0.0
1.176154e+00 -2.428743e-01 0.0
1.263122e+00 -3.109569e-01 0.0
1.409061e+00 -4.372424e-01 0.0
1.496915e+00 -3.471461e-01 0.0
1.544349e+00 -2.472130e-01 0.0
1.575041e+00 -1.777955e-01 0.0
1.598035e+00 -1.283572e-01 0.0
1.615922e+00 -8.845718e-02 0.0
1.628210e+00 -5.176797e-02 0.0
1.633209e+00 -1.655098e-02 0.0
1.630966e+00 1.406290e-02 0.0
1.622644e+00 3.947251e-02 0.0
1.609411e+00 6.038255e-02 0.0
1.592181e+00 7.792925e-02 0.0
1.571517e+00 9.335678e-02 0.0
1.547626e+00 1.077669e-01 0.0
1.520471e+00 1.218824e-01 0.0
1.489915e+00 1.360027e-01 0.0
1.455855e+00 1.500946e-01 0.0
1.418331e+00 1.639072e-01 0.0
1.377615e+00 1.770181e-01 0.0
1.334212e+00 1.887098e-01 0.0
1.288757e+00 1.975511e-01 0.0
1.241975e+00 2.004453e-01 0.0
1.195259e+00 1.916899e-01 0.0
1.150103e+00 1.656547e-01 0.0
1.105297e+00 1.217207e-01 0.0
1.055606e+00 6.515581e-02 0.0
9.993285e-01 -3.742622e-04 0.0
9.448636e-01 -7.530222e-02 0.0
9.085224e-01 -1.624322e-01 0.0
9.093733e-01 -2.590923e-01 0.0
9.587968e-01 -3.358182e-01 0.0
1.044698e+00 -3.521782e-01 0.0
1.147285e+00 -3.013321e-01 0.0
1.244979e+00 -1.981038e-01 0.0
1.317822e+00 -7.360118e-02 0.0
1.356144e+00 3.660272e-02 0.0
1.367772e+00 1.179837e-01 0.0
1.358679e+00 1.784307e-01 0.0
1.333686e+00 2.232098e-01 0.0
1.296913e+00 2.552824e-01 0.0
1.251946e+00 2.758325e-01 0.0
1.201883e+00 2.844139e-01 0.0
1.149674e+00 2.788830e-01 0.0
1.098509e+00 2.577740e-01 0.0
1.051555e+00 2.220565e-01 0.0
1.011450e+00 1.747359e-01 0.0
9.799757e-01 1.203450e-01 0.0
9.580068e-01 6.401245e-02 0.0
9.457326e-01 1.043840e-02 0.0
9.426701e-01 -3.678276e-02 0.0
9.477739e-01 -7.661424e-02 0.0
9.600930e-01 -1.094696e-01 0.0
9.784929e-01 -1.356551e-01 0.0
1.001607e+00 -1.549627e-01 0.0
1.027888e+00 -1.668899e-01 0.0
1.055678e+00 -1.710161e-01 0.0
1.083268e+00 -1.673134e-01 0.0
1.109041e+00 -1.560918e-01 0.0
1.131543e+00 -1.379778e-01 0.0
1.149489e+00 -1.139324e-01 0.0
1.161719e+00 -8.515482e-02 0.0
1.167053e+00 -5.275162e-02 0.0
1.164081e+00 -1.708252e-02 0.0
1.151943e+00 2.189458e-02 0.0
1.131272e+00 6.243600e-02 0.0
1.104028e+00 1.023439e-01 0.0
1.073686e+00 1.381172e-01 0.0
1.044817e+00 1.648720e-01 0.0
1.021505e+00 1.778520e-01 0.0
1.005214e+00 1.751798e-01 0.0
9.940792e-01 1.598751e-01 0.0
9.854275e-01 1.367176e-01 0.0
9.771705e-01 1.103218e-01 0.0
9.683455e-01 8.391839e-02 0.0
9.589307e-01 5.914477e-02 0.0
9.495247e-01 3.650997e-02 0.0
9.410091e-01 1.594195e-02 0.0
9.342842e-01 -2.793390e-03 0.0
9.300060e-01 -1.980953e-02 0.0
9.284985e-01 -3.517097e-02 0.0
9.298441e-01 -4.882375e-02 0.0
9.339322e-01 -6.055886e-02 0.0
9.404840e-01 -7.009782e-02 0.0
9.490773e-01 -7.718896e-02 0.0
9.591871e-01 -8.168164e-02 0.0
9.702390e-01 -8.356030e-02 0.0
9.816331e-01 -8.297428e-02 0.0
9.928430e-01 -8.015542e-02 0.0
1.003431e+00 -7.528610e-02 0.0
1.013042e+00 -6.850734e-02 0.0
1.021384e+00 -5.991825e-02 0.0
1.028204e+00 -4.958185e-02 0.0
1.033225e+00 -3.766907e-02 0.0
1.036167e+00 -2.097733e-02 0.0
0.000000e+00 -2.029571e-02 0.0
1.000000e+00 -1.142944e-01 0.0
1.012777e+00 -1.134617e-01 0.0
1.028114e+00 -1.288035e-01 0.0
1.049607e+00 -1.615677e-01 0.0
1.083350e+00 -2.161202e-01 0.0
1.140006e+00 -2.995193e-01 0.0
1.234473e+00 -4.054137e-01 0.0
1.418574e+00 -6.213326e-01 0.0
1.474049e+00 -4.026101e-01 0.0
1.483472e+00 -2.566256e-01 0.0
1.486892e+00 -1.812053e-01 0.0
1.493105e+00 -1.345593e-01 0.0
1.503477e+00 -9.881877e-02 0.0
1.516256e+00 -6.453605e-02 0.0
1.526624e+00 -2.690783e-02 0.0
1.529872e+00 1.082487e-02 0.0
1.526791e+00 4.256447e-02 0.0
1.518855e+00 6.832929e-02 0.0
1.507121e+00 8.967419e-02 0.0
1.492266e+00 1.082221e-01 0.0
1.474453e+00 1.255906e-01 0.0
1.453476e+00 1.428697e-01 0.0
1.428987e+00 1.605033e-01 0.0
1.400675e+00 1.784171e-01 0.0
1.368419e+00 1.961738e-01 0.0
1.332388e+00 2.130592e-01 0.0
1.293048e+00 2.280612e-01 0.0
1.250914e+00 2.396957e-01 0.0
1.205872e+00 2.454982e-01 0.0
1.157159e+00 2.404131e-01 0.0
1.104560e+00 2.182648e-01 0.0
1.045722e+00 1.805695e-01 0.0
9.705379e-01 1.403502e-01 0.0
8.723124e-01 9.786190e-02 0.0
7.809222e-01 1.609865e-02 0.0
7.360318e-01 -1.175311e-01 0.0
7.345596e-01 -2.576094e-01 0.0
7.654853e-01 -3.667332e-01 0.0
8.293139e-01 -4.159961e-01 0.0
9.154691e-01 -3.874767e-01 0.0
1.010030e+00 -2.926545e-01 0.0
1.096835e+00 -1.603955e-01 0.0
1.159746e+00 -2.629741e-02 0.0
1.196669e+00 8.107205e-02 0.0
1.212352e+00 1.627582e-01 0.0
1.210876e+00 2.246963e-01 0.0
1.195887e+00 2.702824e-01 0.0
1.170772e+00 3.009574e-01 0.0
1.138616e+00 3.165806e-01 0.0
1.101938e+00 3.155724e-01 0.0
1.063630e+00 2.960925e-01 0.0
1.026631e+00 2.590660e-01 0.0
9.934069e-01 2.079706e-01 0.0
9.656899e-01 1.480727e-01 0.0
9.445557e-01 8.515741e-02 0.0
9.307803e-01 2.422447e-02 0.0
9.250656e-01 -3.105742e-02 0.0
9.272299e-01 -7.876785e-02 0.0
9.363517e-01 -1.185807e-01 0.0
9.510189e-01 -1.503116e-01 0.0
9.696342e-01 -1.735673e-01 0.0
9.905793e-01 -1.878242e-01 0.0
1.012279e+00 -1.927056e-01 0.0
1.033198e+00 -1.882217e-01 0.0
1.051936e+00 -1.748184e-01 0.0
1.067285e+00 -1.533167e-01 0.0
1.078166e+00 -1.248026e-01 0.0
1.083496e+00 -9.047361e-02 0.0
1.082060e+00 -5.130509e-02 0.0
1.072650e+00 -7.661939e-03 0.0
1.055797e+00 3.875850e-02 0.0
1.033487e+00 8.475652e-02 0.0
1.008976e+00 1.268659e-01 0.0
9.864347e-01 1.606689e-01 0.0
9.696643e-01 1.816531e-01 0.0
9.602531e-01 1.872739e-01 0.0
9.563993e-01 1.790443e-01 0.0
9.549897e-01 1.612954e-01 0.0
9.533388e-01 1.383792e-01 0.0
9.499323e-01 1.137390e-01 0.0
9.444255e-01 8.943585e-02 0.0
9.372454e-01 6.633553e-02 0.0
9.291791e-01 4.458701e-02 0.0
9.210824e-01 2.404936e-02 0.0
9.137436e-01 4.556055e-03 0.0
9.078309e-01 -1.388609e-02 0.0
9.037668e-01 -3.109619e-02 0.0
9.017793e-01 -4.682558e-02 0.0
9.019292e-01 -6.069803e-02 0.0
9.041151e-01 -7.227304e-02 0.0
9.080764e-01 -8.113959e-02 0.0
9.134125e-01 -8.700711e-02 0.0
9.196268e-01 -8.976390e-02 0.0
9.261631e-01 -8.949988e-02 0.0
9.324977e-01 -8.647932e-02 0.0
9.382084e-01 -8.098611e-02 0.0
9.429922e-01 -7.328042e-02 0.0
9.466544e-01 -6.356980e-02 0.0
9.491019e-01 -5.201861e-02 0.0
9.502505e-01 -3.880698e-02 0.0
9.512727e-01 -2.198887e-02 0.0
0.000000e+00 -2.118089e-02 0.0
1.000000e+00 -1.186083e-01 0.0
1.004231e+00 -1.176518e-01 0.0
1.009604e+00 -1.341656e-01 0.0
1.018345e+00 -1.702985e-01 0.0
1.035723e+00 -2.334878e-01 0.0
1.073760e+00 -3.375454e-01 0.0
1.159668e+00 -4.913107e-01 0.0
1.372071e+00 -8.337251e-01 0.0
1.342171e+00 -3.726993e-01 0.0
1.279753e+00 -1.941966e-01 0.0
1.238659e+00 -1.401007e-01 0.0
1.216127e+00 -1.120167e-01 0.0
1.210812e+00 -9.349355e-02 0.0
1.222305e+00 -7.601765e-02 0.0
1.244556e+00 -4.914860e-02 0.0
1.266526e+00 -1.113415e-02 0.0
1.279490e+00 2.961042e-02 0.0
1.286292e+00 6.153864e-02 0.0
1.288745e+00 8.723134e-02 0.0
1.288115e+00 1.088636e-01 0.0
1.284555e+00 1.291608e-01 0.0
1.277590e+00 1.498458e-01 0.0
1.266529e+00 1.715749e-01 0.0
1.250725e+00 1.942317e-01 0.0
1.229753e+00 2.171566e-01 0.0
1.203549e+00 2.392738e-01 0.0
1.172406e+00 2.592142e-01 0.0
1.136558e+00 2.755550e-01 0.0
1.094731e+00 2.873352e-01 0.0
1.039105e+00 2.960497e-01 0.0
9.504660e-01 3.069148e-01 0.0
8.107860e-01 3.202602e-01 0.0
6.618327e-01 2.893142e-01 0.0
5.886817e-01 1.710236e-01 0.0
5.992294e-01 5.561621e-03 0.0
6.364750e-01 -1.547660e-01 0.0
6.688058e-01 -2.899295e-01 0.0
6.946715e-01 -3.925881e-01 0.0
7.286027e-01 -4.499166e-01 0.0
7.809603e-01 -4.398236e-01 0.0
8.489232e-01 -3.606068e-01 0.0
9.225732e-01 -2.340348e-01 0.0
9.887459e-01 -9.245942e-02 0.0
1.035709e+00 3.411996e-02 0.0
1.064564e+00 1.339135e-01 0.0
1.077677e+00 2.115942e-01 0.0
1.077740e+00 2.702297e-01 0.0
1.067548e+00 3.111606e-01 0.0
1.049857e+00 3.342823e-01 0.0
1.026864e+00 3.385764e-01 0.0
1.000749e+00 3.222179e-01 0.0
9.737376e-01 2.860879e-01 0.0
9.478414e-01 2.338775e-01 0.0
9.249006e-01 1.710243e-01 0.0
9.067779e-01 1.032907e-01 0.0
8.952746e-01 3.573850e-02 0.0
8.917256e-01 -2.749773e-02 0.0
8.960346e-01 -8.306618e-02 0.0
9.066175e-01 -1.291529e-01 0.0
9.214094e-01 -1.650929e-01 0.0
9.385125e-01 -1.906597e-01 0.0
9.563379e-01 -2.056389e-01 0.0
9.735214e-01 -2.098785e-01 0.0
9.888087e-01 -2.034983e-01 0.0
1.001108e+00 -1.871067e-01 0.0
1.009512e+00 -1.617100e-01 0.0
1.013191e+00 -1.284708e-01 0.0
1.011259e+00 -8.853150e-02 0.0
1.002828e+00 -4.286366e-02 0.0
9.878627e-01 7.314398e-03 0.0
9.685640e-01 5.806789e-02 0.0
9.479295e-01 1.054017e-01 0.0
9.296307e-01 1.451754e-01 0.0
9.170438e-01 1.732664e-01 0.0
9.117209e-01 1.869867e-01 0.0
9.124038e-01 1.866017e-01 0.0
9.158838e-01 1.755750e-01 0.0
9.193109e-01 1.578790e-01 0.0
9.208398e-01 1.368610e-01 0.0
9.197891e-01 1.148003e-01 0.0
9.163460e-01 9.288965e-02 0.0
9.111345e-01 7.155775e-02 0.0
9.048820e-01 5.085018e-02 0.0
8.982408e-01 3.070128e-02 0.0
8.917313e-01 1.107623e-02 0.0
8.858043e-01 -7.948426e-03 0.0
8.808070e-01 -2.608817e-02 0.0
8.769816e-01 -4.298951e-02 0.0
8.744866e-01 -5.819234e-02 0.0
8.733818e-01 -7.115752e-02 0.0
8.735975e-01 -8.134465e-02 0.0
8.749140e-01 -8.831284e-02 0.0
8.769706e-01 -9.180982e-02 0.0
8.793030e-01 -9.182160e-02 0.0
8.814258e-01 -8.859147e-02 0.0
8.829360e-01 -8.248562e-02 0.0
8.835679e-01 -7.390162e-02 0.0
8.832210e-01 -6.321221e-02 0.0
8.819816e-01 -5.076847e-02 0.0
8.801355e-01 -3.695019e-02 0.0
8.796245e-01 -2.146719e-02 0.0
0.000000e+00 -2.057276e-02 0.0
1.000000e+00 -1.135555e-01 0.0
9.948941e-01 -1.125050e-01 0.0
9.885583e-01 -1.278191e-01 0.0
9.800769e-01 -1.618064e-01 0.0
9.697730e-01 -2.231733e-01 0.0
9.623131e-01 -3.300748e-01 0.0
9.831934e-01 -5.121803e-01 0.0
1.133207e+00 -9.837282e-01 0.0
9.543068e-01 -1.938185e-01 0.0
7.830104e-01 -2.291973e-02 0.0
6.946106e-01 -5.169011e-02 0.0
6.368763e-01 -5.427183e-02 0.0
6.065941e-01 -6.320068e-02 0.0
6.181990e-01 -8.761180e-02 0.0
6.593886e-01 -9.032750e-02 0.0
7.177970e-01 -6.953195e-02 0.0
7.769808e-01 -2.956268e-02 0.0
8.218398e-01 1.669031e-02 0.0
8.566408e-01 5.244108e-02 0.0
8.859719e-01 7.954317e-02 0.0
9.103672e-01 1.047761e-01 0.0
9.288844e-01 1.313394e-01 0.0
9.401914e-01 1.602785e-01 0.0
9.427634e-01 1.916704e-01 0.0
9.347932e-01 2.251375e-01 0.0
9.139829e-01 2.600947e-01 0.0
8.771329e-01 2.960750e-01 0.0
8.196320e-01 3.330666e-01 0.0
7.353783e-01 3.715996e-01 0.0
6.200673e-01 4.113713e-01 0.0
4.865367e-01 4.404562e-01 0.0
3.998295e-01 4.069781e-01 0.0
4.024649e-01 2.866894e-01 0.0
4.707666e-01 1.027326e-01 0.0
5.557610e-01 -7.942205e-02 0.0
6.240550e-01 -2.230493e-01 0.0
6.663407e-01 -3.322046e-01 0.0
6.858860e-01 -4.121227e-01 0.0
6.977348e-01 -4.617548e-01 0.0
7.201144e-01 -4.621925e-01 0.0
7.585607e-01 -3.990423e-01 0.0
8.091599e-01 -2.846233e-01 0.0
8.627695e-01 -1.460583e-01 0.0
9.078982e-01 -1.099810e-02 0.0
9.396681e-01 1.021543e-01 0.0
9.584943e-01 1.927788e-01 0.0
9.660035e-01 2.627311e-01 0.0
9.642723e-01 3.129024e-01 0.0
9.555139e-01 3.430514e-01 0.0
9.416996e-01 3.524013e-01 0.0
9.240808e-01 3.398474e-01 0.0
9.041028e-01 3.060766e-01 0.0
8.836338e-01 2.543572e-01 0.0
8.653682e-01 1.893006e-01 0.0
8.525240e-01 1.161455e-01 0.0
8.476710e-01 4.060219e-02 0.0
8.515674e-01 -3.138337e-02 0.0
8.627152e-01 -9.420332e-02 0.0
8.783149e-01 -1.447419e-01 0.0
8.957013e-01 -1.824686e-01 0.0
9.129334e-01 -2.078812e-01 0.0
9.287302e-01 -2.214250e-01 0.0
9.421521e-01 -2.232897e-01 0.0
9.523533e-01 -2.136888e-01 0.0
9.586206e-01 -1.933633e-01 0.0
9.603698e-01 -1.634486e-01 0.0
9.570911e-01 -1.251814e-01 0.0
9.483421e-01 -7.977181e-02 0.0
9.341390e-01 -2.864986e-02 0.0
9.163773e-01 2.508680e-02 0.0
8.980627e-01 7.639316e-02 0.0
8.823540e-01 1.211211e-01 0.0
8.721013e-01 1.554388e-01 0.0
8.687200e-01 1.766584e-01 0.0
8.713596e-01 1.843578e-01 0.0
8.772363e-01 1.807357e-01 0.0
8.835140e-01 1.693080e-01 0.0
8.882521e-01 1.531515e-01 0.0
8.905695e-01 1.345544e-01 0.0
8.904649e-01 1.149156e-01 0.0
8.884340e-01 9.493128e-02 0.0
8.851064e-01 7.489602e-02 0.0
8.810188e-01 5.494842e-02 0.0
8.765308e-01 3.519997e-02 0.0
8.718396e-01 1.577817e-02 0.0
8.670617e-01 -3.159833e-03 0.0
8.623269e-01 -2.134268e-02 0.0
8.577699e-01 -3.842188e-02 0.0
8.535640e-01 -5.397571e-02 0.0
8.498939e-01 -6.747674e-02 0.0
8.468947e-01 -7.833478e-02 0.0
8.445884e-01 -8.599580e-02 0.0
8.428479e-01 -9.005867e-02 0.0
8.414000e-01 -9.036296e-02 0.0
8.398956e-01 -8.707640e-02 0.0
8.380310e-01 -8.061030e-02 0.0
8.356345e-01 -7.149449e-02 0.0
8.327378e-01 -6.030481e-02 0.0
8.296234e-01 -4.764336e-02 0.0
8.269292e-01 -3.424534e-02 0.0
8.256387e-01 -2.016601e-02 0.0
0.000000e+00 -1.925247e-02 0.0
1.000000e+00 -9.974199e-02 0.0
9.861690e-01 -9.863300e-02 0.0
9.683998e-01 -1.100392e-01 0.0
9.415288e-01 -1.349246e-01 0.0
8.968312e-01 -1.784651e-01 0.0
8.172339e-01 -2.504669e-01 0.0
6.771848e-01 -3.721206e-01 0.0
1.937580e-01 -5.003210e-01 0.0
-9.558970e-01 5.031505e-01 0.0
0.000000e+00 -4.502773e-02 0.0
-1.173129e-01 4.274401e-02 0.0
-1.437115e-01 -2.786255e-02 0.0
-9.553209e-02 -1.113694e-01 0.0
-7.923235e-03 -1.752100e-01 0.0
7.481611e-02 -1.730562e-01 0.0
1.564941e-01 -1.511993e-01 0.0
2.393102e-01 -1.123681e-01 0.0
3.190441e-01 -6.303286e-02 0.0
3.854394e-01 -1.394361e-02 0.0
4.393854e-01 2.560788e-02 0.0
4.837572e-01 6.041499e-02 0.0
5.176071e-01 9.750010e-02 0.0
5.397224e-01 1.381740e-01 0.0
5.483508e-01 1.830527e-01 0.0
5.410032e-01 2.324958e-01 0.0
5.147010e-01 2.864076e-01 0.0
4.666324e-01 3.441542e-01 0.0
3.956790e-01 4.040306e-01 0.0
3.067959e-01 4.604934e-01 0.0
2.221467e-01 4.960312e-01 0.0
1.926059e-01 4.700076e-01 0.0
2.369826e-01 3.626120e-01 0.0
3.386007e-01 1.850821e-01 0.0
4.610912e-01 -1.974729e-02 0.0
5.673183e-01 -1.856384e-01 0.0
6.479231e-01 -3.036435e-01 0.0
6.959728e-01 -3.802436e-01 0.0
7.122910e-01 -4.284302e-01 0.0
7.083862e-01 -4.578394e-01 0.0
7.061382e-01 -4.599337e-01 0.0
7.191024e-01 -4.119960e-01 0.0
7.464811e-01 -3.119913e-01 0.0
7.821632e-01 -1.817298e-01 0.0
8.175025e-01 -4.632667e-02 0.0
8.449772e-01 7.469025e-02 0.0
8.630197e-01 1.747470e-01 0.0
8.720601e-01 2.537014e-01 0.0
8.733563e-01 3.116169e-01 0.0
8.684113e-01 3.480072e-01 0.0
8.585446e-01 3.622786e-01 0.0
8.445188e-01 3.538839e-01 0.0
8.277880e-01 3.228181e-01 0.0
8.113214e-01 2.708345e-01 0.0
7.992906e-01 2.013421e-01 0.0
7.954236e-01 1.200232e-01 0.0
8.014022e-01 3.463426e-02 0.0
8.161100e-01 -4.608051e-02 0.0
8.362103e-01 -1.142929e-01 0.0
8.580557e-01 -1.665767e-01 0.0
8.787712e-01 -2.031734e-01 0.0
8.965670e-01 -2.256662e-01 0.0
9.105876e-01 -2.354349e-01 0.0
9.204276e-01 -2.331191e-01 0.0
9.257953e-01 -2.190457e-01 0.0
9.264366e-01 -1.939939e-01 0.0
9.221337e-01 -1.591350e-01 0.0
9.128364e-01 -1.158734e-01 0.0
8.989046e-01 -6.582932e-02 0.0
8.817693e-01 -1.150381e-02 0.0
8.645647e-01 4.230203e-02 0.0
8.500732e-01 9.089540e-02 0.0
8.406202e-01 1.305847e-01 0.0
8.374109e-01 1.586588e-01 0.0
8.398962e-01 1.741837e-01 0.0
8.459291e-01 1.783356e-01 0.0
8.528567e-01 1.738188e-01 0.0
8.587725e-01 1.634029e-01 0.0
8.627090e-01 1.492257e-01 0.0
8.645419e-01 1.327322e-01 0.0
8.646864e-01 1.147817e-01 0.0
8.637460e-01 9.588237e-02 0.0
8.622465e-01 7.640625e-02 0.0
8.604996e-01 5.670594e-02 0.0
8.585794e-01 3.713094e-02 0.0
8.563730e-01 1.799517e-02 0.0
8.536744e-01 -4.504945e-04 0.0
8.502984e-01 -1.795605e-02 0.0
8.461411e-01 -3.425383e-02 0.0
8.412543e-01 -4.907824e-02 0.0
8.358390e-01 -6.205074e-02 0.0
8.301759e-01 -7.266100e-02 0.0
8.245302e-01 -8.033940e-02 0.0
8.190694e-01 -8.458720e-02 0.0
8.138286e-01 -8.511150e-02 0.0
8.087417e-01 -8.197878e-02 0.0
8.037450e-01 -7.560292e-02 0.0
7.988606e-01 -6.659938e-02 0.0
7.942657e-01 -5.569924e-02 0.0
7.903252e-01 -4.369215e-02 0.0
7.875900e-01 -3.149943e-02 0.0
7.858245e-01 -1.838977e-02 0.0
0.000000e+00 -1.749393e-02 0.0
1.000000e+00 -7.943062e-02 0.0
9.797083e-01 -7.830032e-02 0.0
9.537388e-01 -8.405911e-02 0.0
9.143336e-01 -9.550869e-02 0.0
8.475010e-01 -1.116218e-01 0.0
7.242351e-01 -1.271903e-01 0.0
4.700720e-01 -1.179468e-01 0.0
-6.720597e-03 -2.354793e-02 0.0
3.721411e-05 0.000000e+00 0.0
0.000000e+00 -0.000000e+00 0.0
0.000000e+00 -1.054071e-01 0.0
-1.306751e-01 1.028232e-01 0.0
-1.447842e-01 -9.724960e-02 0.0
-1.435820e-01 -1.764015e-01 0.0
-1.462156e-01 -1.704119e-01 0.0
-1.313149e-01 -1.660892e-01 0.0
-9.112071e-02 -1.525517e-01 0.0
-3.170872e-02 -1.224342e-01 0.0