# vtk DataFile Version 3.0
Vector Field
ASCII
DATASET RECTILINEAR_GRID
DIMENSIONS 102 22 1
X_COORDINATES 102 double
0.000000 0.100000 0.200000 0.300000 0.400000 0.500000 0.600000 0.700000 0.800000 0.900000 1.000000 1.100000 1.200000 1.300000 1.400000 1.500000 1.600000 1.700000 1.800000 1.900000 2.000000 2.100000 2.200000 2.300000 2.400000 2.500000 2.600000 2.700000 2.800000 2.900000 3.000000 3.100000 3.200000 3.300000 3.400000 3.500000 3.600000 3.700000 3.800000 3.900000 4.000000 4.100000 4.200000 4.300000 4.400000 4.500000 4.600000 4.700000 4.800000 4.900000 5.000000 5.100000 5.200000 5.300000 5.400000 5.500000 5.600000 5.700000 5.800000 5.900000 6.000000 6.100000 6.200000 6.300000 6.400000 6.500000 6.600000 6.700000 6.800000 6.900000 7.000000 7.100000 7.200000 7.300000 7.400000 7.500000 7.600000 7.700000 7.800000 7.900000 8.000000 8.100000 8.200000 8.300000 8.400000 8.500000 8.600000 8.700000 8.800000 8.900000 9.000000 9.100000 9.200000 9.300000 9.400000 9.500000 9.600000 9.700000 9.800000 9.900000 10.000000 10.100000 
Y_COORDINATES 22 double
0.000000 0.100000 0.200000 0.300000 0.400000 0.500000 0.600000 0.700000 0.800000 0.900000 1.000000 1.100000 1.200000 1.300000 1.400000 1.500000 1.600000 1.700000 1.800000 1.900000 2.000000 2.100000 
Z_COORDINATES 1 double
0.0
POINT_DATA 2244
VECTORS Velocity double
0.000000e+00 0.000000e+00 0.0
-1.023184e+00 0.000000e+00 0.0
-1.049360e+00 0.000000e+00 0.0
-1.081245e+00 0.000000e+00 0.0
-1.121546e+00 0.000000e+00 0.0
-1.172467e+00 0.000000e+00 0.0
-1.233912e+00 0.000000e+00 0.0
-1.305913e+00 0.000000e+00 0.0
-1.373991e+00 0.000000e+00 0.0
-1.429250e+00 0.000000e+00 0.0
-1.471024e+00 0.000000e+00 0.0
-1.502555e+00 0.000000e+00 0.0
-1.527860e+00 0.000000e+00 0.0
-1.550448e+00 0.000000e+00 0.0
-1.572854e+00 0.000000e+00 0.0
-1.596263e+00 0.000000e+00 0.0
-1.620022e+00 0.000000e+00 0.0
-1.641665e+00 0.000000e+00 0.0
-1.657938e+00 0.000000e+00 0.0
-1.666417e+00 0.000000e+00 0.0
-1.666604e+00 0.000000e+00 0.0
-1.659319e+00 0.000000e+00 0.0
-1.645693e+00 0.000000e+00 0.0
-1.626747e+00 0.000000e+00 0.0
-1.603136e+00 0.000000e+00 0.0
-1.575059e+00 0.000000e+00 0.0
-1.542315e+00 0.000000e+00 0.0
-1.504468e+00 0.000000e+00 0.0
-1.461062e+00 0.000000e+00 0.0
-1.411799e+00 0.000000e+00 0.0
-1.356673e+00 0.000000e+00 0.0
-1.295990e+00 0.000000e+00 0.0
-1.230317e+00 0.000000e+00 0.0
-1.160537e+00 0.000000e+00 0.0
-1.088250e+00 0.000000e+00 0.0
-1.016241e+00 0.000000e+00 0.0
-9.487476e-01 0.000000e+00 0.0
-8.915317e-01 0.000000e+00 0.0
-8.510693e-01 0.000000e+00 0.0
-8.328049e-01 0.000000e+00 0.0
-8.392705e-01 0.000000e+00 0.0
-8.704078e-01 0.000000e+00 0.0
-9.254072e-01 0.000000e+00 0.0
-1.003278e+00 0.000000e+00 0.0
-1.101698e+00 0.000000e+00 0.0
-1.215726e+00 0.000000e+00 0.0
-1.336328e+00 0.000000e+00 0.0
-1.452027e+00 0.000000e+00 0.0
-1.550785e+00 0.000000e+00 0.0
-1.621988e+00 0.000000e+00 0.0
-1.659363e+00 0.000000e+00 0.0
-1.662927e+00 0.000000e+00 0.0
-1.635678e+00 0.000000e+00 0.0
-1.579637e+00 0.000000e+00 0.0
-1.497423e+00 0.000000e+00 0.0
-1.393776e+00 0.000000e+00 0.0
-1.276988e+00 0.000000e+00 0.0
-1.158283e+00 0.000000e+00 0.0
-1.048454e+00 0.000000e+00 0.0
-9.556145e-01 0.000000e+00 0.0
-8.842722e-01 0.000000e+00 0.0
-8.353589e-01 0.000000e+00 0.0
-8.070446e-01 0.000000e+00 0.0
-7.959872e-01 0.000000e+00 0.0
-7.983770e-01 0.000000e+00 0.0
-8.109906e-01 0.000000e+00 0.0
-8.319419e-01 0.000000e+00 0.0
-8.600790e-01 0.000000e+00 0.0
-8.945705e-01 0.000000e+00 0.0
-9.346503e-01 0.000000e+00 0.0
-9.794206e-01 0.000000e+00 0.0
-1.027701e+00 0.000000e+00 0.0
-1.078108e+00 0.000000e+00 0.0
-1.129137e+00 0.000000e+00 0.0
-1.179347e+00 0.000000e+00 0.0
-1.227401e+00 0.000000e+00 0.0
-1.272049e+00 0.000000e+00 0.0
-1.312140e+00 0.000000e+00 0.0
-1.346646e+00 0.000000e+00 0.0
-1.374720e+00 0.000000e+00 0.0
-1.395772e+00 0.000000e+00 0.0
-1.409567e+00 0.000000e+00 0.0
-1.416296e+00 0.000000e+00 0.0
-1.416381e+00 0.000000e+00 0.0
-1.409747e+00 0.000000e+00 0.0
-1.395806e+00 0.000000e+00 0.0
-1.373749e+00 0.000000e+00 0.0
-1.342713e+00 0.000000e+00 0.0
-1.302150e+00 0.000000e+00 0.0
-1.252476e+00 0.000000e+00 0.0
-1.195739e+00 0.000000e+00 0.0
-1.135692e+00 0.000000e+00 0.0
-1.076730e+00 0.000000e+00 0.0
-1.022551e+00 0.000000e+00 0.0
-9.756650e-01 0.000000e+00 0.0
-9.373252e-01 0.000000e+00 0.0
-9.077070e-01 0.000000e+00 0.0
-8.862053e-01 0.000000e+00 0.0
-8.718011e-01 0.000000e+00 0.0
-8.634150e-01 0.000000e+00 0.0
-8.634150e-01 0.000000e+00 0.0
0.000000e+00 0.000000e+00 0.0
1.000000e+00 -2.353207e-02 0.0
1.023260e+00 -2.360038e-02 0.0
1.049507e+00 -2.644353e-02 0.0
1.081457e+00 -3.214574e-02 0.0
1.121805e+00 -4.054408e-02 0.0
1.172737e+00 -5.112766e-02 0.0
1.234127e+00 -6.158651e-02 0.0
1.305946e+00 -7.201494e-02 0.0
1.373650e+00 -6.789980e-02 0.0
1.428307e+00 -5.485328e-02 0.0
1.469255e+00 -4.114368e-02 0.0
1.499754e+00 -3.069497e-02 0.0
1.523867e+00 -2.430851e-02 0.0
1.545188e+00 -2.151740e-02 0.0
1.566423e+00 -2.143086e-02 0.0
1.589029e+00 -2.280232e-02 0.0
1.612672e+00 -2.383881e-02 0.0
1.635057e+00 -2.258130e-02 0.0
1.652821e+00 -1.795956e-02 0.0
1.663155e+00 -1.053035e-02 0.0
1.665139e+00 -2.180158e-03 0.0
1.659457e+00 5.486521e-03 0.0
1.647229e+00 1.203113e-02 0.0
1.629525e+00 1.750855e-02 0.0
1.607063e+00 2.226530e-02 0.0
1.580108e+00 2.675974e-02 0.0
1.548498e+00 3.141365e-02 0.0
1.511808e+00 3.649337e-02 0.0
1.469560e+00 4.205273e-02 0.0
1.421409e+00 4.795409e-02 0.0
1.367295e+00 5.391850e-02 0.0
1.307477e+00 5.962146e-02 0.0
1.242494e+00 6.478772e-02 0.0
1.173168e+00 6.912945e-02 0.0
1.100946e+00 7.202614e-02 0.0
1.028392e+00 7.235705e-02 0.0
9.594460e-01 6.875033e-02 0.0
8.995847e-01 5.966513e-02 0.0
8.551909e-01 4.419767e-02 0.0
8.319727e-01 2.302204e-02 0.0
8.330401e-01 -1.263527e-03 0.0
8.586086e-01 -2.576471e-02 0.0
9.079237e-01 -4.951129e-02 0.0
9.800525e-01 -7.232498e-02 0.0
1.073135e+00 -9.327886e-02 0.0
1.183050e+00 -1.101107e-01 0.0
1.301946e+00 -1.190930e-01 0.0
1.418991e+00 -1.172404e-01 0.0
1.522496e+00 -1.037013e-01 0.0
1.601510e+00 -7.921013e-02 0.0
1.648468e+00 -4.715488e-02 0.0
1.661604e+00 -1.333218e-02 0.0
1.643617e+00 1.779119e-02 0.0
1.596406e+00 4.701476e-02 0.0
1.522052e+00 7.415711e-02 0.0
1.424307e+00 9.754855e-02 0.0
1.310280e+00 1.138312e-01 0.0
1.190778e+00 1.193051e-01 0.0
1.077303e+00 1.132790e-01 0.0
9.790496e-01 9.805714e-02 0.0
9.016150e-01 7.723828e-02 0.0
8.468344e-01 5.458428e-02 0.0
8.134333e-01 3.320475e-02 0.0
7.982821e-01 1.495485e-02 0.0
7.975702e-01 5.155089e-04 0.0
8.077481e-01 -1.037428e-02 0.0
8.266261e-01 -1.907433e-02 0.0
8.528984e-01 -2.646867e-02 0.0
8.856739e-01 -3.297192e-02 0.0
9.241846e-01 -3.870712e-02 0.0
9.675894e-01 -4.360119e-02 0.0
1.014788e+00 -4.739497e-02 0.0
1.064453e+00 -4.986187e-02 0.0
1.115117e+00 -5.085971e-02 0.0
1.165326e+00 -5.040548e-02 0.0
1.213740e+00 -4.861056e-02 0.0
1.259105e+00 -4.556103e-02 0.0
1.300255e+00 -4.134654e-02 0.0
1.336139e+00 -3.608127e-02 0.0
1.365866e+00 -2.992352e-02 0.0
1.388770e+00 -2.310026e-02 0.0
1.404507e+00 -1.593365e-02 0.0
1.413148e+00 -8.836587e-03 0.0
1.415094e+00 -2.142362e-03 0.0
1.410472e+00 4.424905e-03 0.0
1.398799e+00 1.147634e-02 0.0
1.379321e+00 1.928138e-02 0.0
1.351169e+00 2.795585e-02 0.0
1.313646e+00 3.732673e-02 0.0
1.266796e+00 4.665331e-02 0.0
1.212115e+00 5.448493e-02 0.0
1.152873e+00 5.904535e-02 0.0
1.093416e+00 5.926056e-02 0.0
1.037722e+00 5.549754e-02 0.0
9.886825e-01 4.884281e-02 0.0
9.479293e-01 4.055670e-02 0.0
9.159626e-01 3.177013e-02 0.0
8.924071e-01 2.335906e-02 0.0
8.763749e-01 1.583565e-02 0.0
8.668499e-01 9.328527e-03 0.0
8.634150e-01 3.238423e-03 0.0
0.000000e+00 2.829942e-03 0.0
1.000000e+00 -4.724221e-02 0.0
1.023586e+00 -4.738275e-02 0.0
1.050199e+00 -5.310723e-02 0.0
1.082693e+00 -6.469109e-02 0.0
1.124098e+00 -8.200019e-02 0.0
1.177284e+00 -1.043643e-01 0.0
1.242384e+00 -1.267380e-01 0.0
1.323762e+00 -1.534439e-01 0.0
1.396913e+00 -1.411017e-01 0.0
1.452514e+00 -1.105059e-01 0.0
1.492503e+00 -8.118400e-02 0.0
1.521722e+00 -5.996438e-02 0.0
1.544719e+00 -4.735724e-02 0.0
1.565094e+00 -4.194386e-02 0.0
1.585531e+00 -4.191831e-02 0.0
1.607779e+00 -4.510157e-02 0.0
1.631901e+00 -4.801254e-02 0.0
1.655772e+00 -4.650252e-02 0.0
1.675842e+00 -3.808100e-02 0.0
1.688799e+00 -2.353908e-02 0.0
1.693224e+00 -6.656154e-03 0.0
1.689867e+00 8.792303e-03 0.0
1.680045e+00 2.180249e-02 0.0
1.664956e+00 3.254607e-02 0.0
1.645376e+00 4.179399e-02 0.0
1.621573e+00 5.051196e-02 0.0
1.593357e+00 5.957875e-02 0.0
1.560255e+00 6.954444e-02 0.0
1.521759e+00 8.049682e-02 0.0
1.477525e+00 9.213687e-02 0.0
1.427505e+00 1.038876e-01 0.0
1.372014e+00 1.150610e-01 0.0
1.311721e+00 1.250300e-01 0.0
1.247616e+00 1.331834e-01 0.0
1.180992e+00 1.385987e-01 0.0
1.113703e+00 1.395952e-01 0.0
1.048772e+00 1.336300e-01 0.0
9.904201e-01 1.179658e-01 0.0
9.436643e-01 9.090231e-02 0.0
9.132201e-01 5.341500e-02 0.0
9.019030e-01 1.000239e-02 0.0
9.094452e-01 -3.335809e-02 0.0
9.344995e-01 -7.461674e-02 0.0
9.764612e-01 -1.143379e-01 0.0
1.035632e+00 -1.525011e-01 0.0
1.110845e+00 -1.853746e-01 0.0
1.198072e+00 -2.063710e-01 0.0
1.289729e+00 -2.089485e-01 0.0
1.376519e+00 -1.905425e-01 0.0
1.448995e+00 -1.517374e-01 0.0
1.499338e+00 -9.754963e-02 0.0
1.522763e+00 -3.680776e-02 0.0
1.518969e+00 2.153413e-02 0.0
1.490877e+00 7.505532e-02 0.0
1.442623e+00 1.223597e-01 0.0
1.379309e+00 1.608115e-01 0.0
1.306263e+00 1.868255e-01 0.0
1.228484e+00 1.970331e-01 0.0
1.151843e+00 1.898686e-01 0.0
1.081577e+00 1.682719e-01 0.0
1.020861e+00 1.379036e-01 0.0
9.714399e-01 1.039539e-01 0.0
9.338328e-01 7.076060e-02 0.0
9.077690e-01 4.096747e-02 0.0
8.925256e-01 1.570770e-02 0.0
8.870576e-01 -4.957539e-03 0.0
8.898650e-01 -2.193295e-02 0.0
8.999122e-01 -3.656711e-02 0.0
9.164568e-01 -4.956779e-02 0.0
9.388484e-01 -6.114991e-02 0.0
9.665053e-01 -7.130934e-02 0.0
9.987131e-01 -7.965401e-02 0.0
1.034482e+00 -8.568210e-02 0.0
1.072563e+00 -8.899184e-02 0.0
1.111570e+00 -8.946383e-02 0.0
1.150220e+00 -8.731165e-02 0.0
1.187330e+00 -8.272225e-02 0.0
1.221824e+00 -7.589168e-02 0.0
1.252750e+00 -6.705851e-02 0.0
1.279305e+00 -5.653044e-02 0.0
1.300865e+00 -4.471128e-02 0.0
1.316983e+00 -3.210247e-02 0.0
1.327311e+00 -1.921583e-02 0.0
1.331427e+00 -6.309858e-03 0.0
1.328809e+00 6.991291e-03 0.0
1.319090e+00 2.114402e-02 0.0
1.302143e+00 3.617755e-02 0.0
1.278347e+00 5.170025e-02 0.0
1.248905e+00 6.671808e-02 0.0
1.215957e+00 7.955005e-02 0.0
1.182245e+00 8.814582e-02 0.0
1.150363e+00 9.087613e-02 0.0
1.122110e+00 8.746145e-02 0.0
1.098380e+00 7.917656e-02 0.0
1.079234e+00 6.793722e-02 0.0
1.064183e+00 5.555643e-02 0.0
1.052707e+00 4.319545e-02 0.0
1.044326e+00 3.168890e-02 0.0
1.038647e+00 2.146288e-02 0.0
1.035407e+00 1.251740e-02 0.0
1.033553e+00 5.041421e-03 0.0
0.000000e+00 4.525368e-03 0.0
1.000000e+00 -6.786528e-02 0.0
1.020499e+00 -6.807779e-02 0.0
1.044118e+00 -7.677763e-02 0.0
1.073999e+00 -9.462265e-02 0.0
1.113936e+00 -1.219889e-01 0.0
1.168396e+00 -1.588748e-01 0.0
1.238805e+00 -1.971985e-01 0.0
1.339881e+00 -2.545707e-01 0.0
1.419473e+00 -2.207446e-01 0.0
1.471432e+00 -1.625167e-01 0.0
1.504717e+00 -1.145199e-01 0.0
1.527154e+00 -8.245202e-02 0.0
1.543863e+00 -6.411800e-02 0.0
1.558147e+00 -5.627899e-02 0.0
1.572493e+00 -5.631531e-02 0.0
1.589276e+00 -6.193559e-02 0.0
1.609821e+00 -6.860831e-02 0.0
1.632666e+00 -6.939849e-02 0.0
1.653987e+00 -5.945363e-02 0.0
1.669447e+00 -3.905000e-02 0.0
1.676238e+00 -1.349806e-02 0.0
1.674774e+00 1.020478e-02 0.0
1.666786e+00 2.973951e-02 0.0
1.653782e+00 4.549836e-02 0.0
1.636677e+00 5.884826e-02 0.0
1.615778e+00 7.136015e-02 0.0
1.590856e+00 8.444956e-02 0.0
1.561361e+00 9.898816e-02 0.0
1.526662e+00 1.151441e-01 0.0
1.486286e+00 1.324617e-01 0.0
1.440103e+00 1.500194e-01 0.0
1.388411e+00 1.667025e-01 0.0
1.331913e+00 1.814768e-01 0.0
1.271626e+00 1.934187e-01 0.0
1.208865e+00 2.013088e-01 0.0
1.145471e+00 2.029385e-01 0.0
1.084245e+00 1.948040e-01 0.0
1.028727e+00 1.734330e-01 0.0
9.823319e-01 1.372461e-01 0.0
9.474269e-01 8.826881e-02 0.0
9.253305e-01 3.204770e-02 0.0
9.167830e-01 -2.486182e-02 0.0
9.224568e-01 -8.034169e-02 0.0
9.438422e-01 -1.357745e-01 0.0
9.807438e-01 -1.894539e-01 0.0
1.031195e+00 -2.358773e-01 0.0
1.092056e+00 -2.672831e-01 0.0
1.158693e+00 -2.756365e-01 0.0
1.224632e+00 -2.565331e-01 0.0
1.283082e+00 -2.102376e-01 0.0
1.327806e+00 -1.423250e-01 0.0
1.354083e+00 -6.313615e-02 0.0
1.359947e+00 1.561841e-02 0.0
1.347784e+00 8.716718e-02 0.0
1.321372e+00 1.487210e-01 0.0
1.284865e+00 1.972674e-01 0.0
1.241936e+00 2.297030e-01 0.0
1.195394e+00 2.435242e-01 0.0
1.147416e+00 2.377945e-01 0.0
1.100416e+00 2.152208e-01 0.0
1.056754e+00 1.815152e-01 0.0
1.017712e+00 1.429440e-01 0.0
9.837590e-01 1.046626e-01 0.0
9.553361e-01 6.933914e-02 0.0
9.330172e-01 3.797537e-02 0.0
9.174280e-01 1.058050e-02 0.0
9.086983e-01 -1.325445e-02 0.0
9.063930e-01 -3.431307e-02 0.0
9.101154e-01 -5.334140e-02 0.0
9.196588e-01 -7.074463e-02 0.0
9.346316e-01 -8.633338e-02 0.0
9.544183e-01 -9.949193e-02 0.0
9.781789e-01 -1.094939e-01 0.0
1.004876e+00 -1.157403e-01 0.0
1.033280e+00 -1.179191e-01 0.0
1.062108e+00 -1.161912e-01 0.0
1.090230e+00 -1.108949e-01 0.0
1.116666e+00 -1.023792e-01 0.0
1.140595e+00 -9.103906e-02 0.0
1.161342e+00 -7.732779e-02 0.0
1.178350e+00 -6.177100e-02 0.0
1.191135e+00 -4.493861e-02 0.0
1.199176e+00 -2.730831e-02 0.0
1.201843e+00 -9.027694e-03 0.0
1.198655e+00 1.012762e-02 0.0
1.189840e+00 2.990810e-02 0.0
1.176238e+00 4.972778e-02 0.0
1.159383e+00 6.850391e-02 0.0
1.141444e+00 8.460616e-02 0.0
1.124814e+00 9.612859e-02 0.0
1.111404e+00 1.015045e-01 0.0
1.101989e+00 1.002402e-01 0.0
1.095924e+00 9.347556e-02 0.0
1.092086e+00 8.296278e-02 0.0
1.089439e+00 7.053350e-02 0.0
1.087260e+00 5.768379e-02 0.0
1.085022e+00 4.538160e-02 0.0
1.082511e+00 3.414890e-02 0.0
1.079808e+00 2.411448e-02 0.0
1.077077e+00 1.519789e-02 0.0
1.075386e+00 6.680474e-03 0.0
0.000000e+00 6.217976e-03 0.0
1.000000e+00 -8.375472e-02 0.0
1.015765e+00 -8.403830e-02 0.0
1.034578e+00 -9.564233e-02 0.0
1.059830e+00 -1.199255e-01 0.0
1.096438e+00 -1.586479e-01 0.0
1.151545e+00 -2.140337e-01 0.0
1.230764e+00 -2.764682e-01 0.0
1.365384e+00 -3.892418e-01 0.0
1.444495e+00 -2.999071e-01 0.0
1.481972e+00 -2.000445e-01 0.0
1.500459e+00 -1.330584e-01 0.0
1.510130e+00 -9.217350e-02 0.0
1.515167e+00 -6.920684e-02 0.0
1.517765e+00 -5.892738e-02 0.0
1.519626e+00 -5.822773e-02 0.0
1.523570e+00 -6.593082e-02 0.0
1.533464e+00 -7.855308e-02 0.0
1.550470e+00 -8.645639e-02 0.0
1.571189e+00 -8.022317e-02 0.0
1.590508e+00 -5.841992e-02 0.0
1.603277e+00 -2.631821e-02 0.0
1.607013e+00 6.416713e-03 0.0
1.603893e+00 3.280882e-02 0.0
1.596043e+00 5.329717e-02 0.0
1.584566e+00 7.027379e-02 0.0
1.569824e+00 8.605180e-02 0.0
1.551459e+00 1.027629e-01 0.0
1.528668e+00 1.217282e-01 0.0
1.500581e+00 1.431800e-01 0.0
1.466515e+00 1.664768e-01 0.0
1.426180e+00 1.903028e-01 0.0
1.379802e+00 2.130293e-01 0.0
1.328119e+00 2.331089e-01 0.0
1.272258e+00 2.492282e-01 0.0
1.213571e+00 2.599447e-01 0.0
1.153821e+00 2.626372e-01 0.0
1.095762e+00 2.528116e-01 0.0
1.042537e+00 2.266073e-01 0.0
9.960999e-01 1.836321e-01 0.0
9.565430e-01 1.277745e-01 0.0
9.245743e-01 6.396525e-02 0.0
9.046180e-01 -4.956784e-03 0.0
9.006333e-01 -7.640811e-02 0.0
9.128771e-01 -1.480695e-01 0.0
9.386651e-01 -2.152931e-01 0.0
9.743511e-01 -2.716145e-01 0.0
1.016467e+00 -3.094499e-01 0.0
1.061917e+00 -3.211375e-01 0.0
1.107101e+00 -3.017682e-01 0.0
1.148248e+00 -2.514366e-01 0.0
1.181619e+00 -1.757473e-01 0.0
1.203866e+00 -8.543434e-02 0.0
1.213058e+00 6.375329e-03 0.0
1.210347e+00 8.982674e-02 0.0
1.198443e+00 1.605739e-01 0.0
1.180154e+00 2.155052e-01 0.0
1.157773e+00 2.520333e-01 0.0
1.132788e+00 2.684581e-01 0.0
1.105809e+00 2.647222e-01 0.0
1.077429e+00 2.435493e-01 0.0
1.048413e+00 2.104804e-01 0.0
1.019603e+00 1.717028e-01 0.0
9.920795e-01 1.321346e-01 0.0
9.667639e-01 9.460354e-02 0.0
9.444319e-01 6.025607e-02 0.0
9.258316e-01 2.912955e-02 0.0
9.117543e-01 7.716372e-04 0.0
9.025977e-01 -2.520771e-02 0.0
8.985604e-01 -4.935534e-02 0.0
8.996461e-01 -7.188154e-02 0.0
9.056498e-01 -9.238828e-02 0.0
9.161523e-01 -1.100457e-01 0.0
9.304910e-01 -1.238839e-01 0.0
9.477752e-01 -1.330757e-01 0.0
9.669495e-01 -1.371447e-01 0.0
9.868395e-01 -1.361324e-01 0.0
1.006384e+00 -1.304910e-01 0.0
1.024705e+00 -1.207508e-01 0.0
1.041105e+00 -1.074911e-01 0.0
1.055034e+00 -9.130772e-02 0.0
1.066008e+00 -7.279604e-02 0.0
1.073527e+00 -5.250897e-02 0.0
1.077044e+00 -3.087655e-02 0.0
1.076130e+00 -8.165052e-03 0.0
1.071137e+00 1.506903e-02 0.0
1.063244e+00 3.775027e-02 0.0
1.054148e+00 5.877298e-02 0.0
1.045865e+00 7.673521e-02 0.0
1.040320e+00 9.009949e-02 0.0
1.038765e+00 9.763297e-02 0.0
1.041317e+00 9.890135e-02 0.0
1.046738e+00 9.476719e-02 0.0
1.053366e+00 8.679695e-02 0.0
1.059744e+00 7.653374e-02 0.0
1.064864e+00 6.536205e-02 0.0
1.068204e+00 5.429223e-02 0.0
1.069643e+00 4.389120e-02 0.0
1.069402e+00 3.433897e-02 0.0
1.067954e+00 2.551082e-02 0.0
1.065855e+00 1.724625e-02 0.0
1.064555e+00 7.929335e-03 0.0
0.000000e+00 7.564689e-03 0.0
1.000000e+00 -9.323679e-02 0.0
1.009354e+00 -9.358864e-02 0.0
1.021225e+00 -1.075644e-01 0.0
1.038827e+00 -1.375788e-01 0.0
1.068056e+00 -1.879280e-01 0.0
1.119486e+00 -2.655148e-01 0.0
1.208022e+00 -3.650546e-01 0.0
1.385227e+00 -5.664983e-01 0.0
1.438980e+00 -3.537109e-01 0.0
1.444328e+00 -2.054435e-01 0.0
1.437494e+00 -1.262756e-01 0.0
1.427141e+00 -8.187184e-02 0.0
1.414536e+00 -5.665291e-02 0.0
1.399356e+00 -4.379853e-02 0.0
1.381450e+00 -4.037257e-02 0.0
1.362123e+00 -4.665489e-02 0.0
1.347656e+00 -6.413749e-02 0.0
1.346390e+00 -8.524149e-02 0.0
1.358596e+00 -9.248007e-02 0.0
1.379500e+00 -7.937542e-02 0.0
1.403037e+00 -4.990648e-02 0.0
1.421223e+00 -1.181988e-02 0.0
1.431106e+00 2.287388e-02 0.0
1.436472e+00 4.788081e-02 0.0
1.438702e+00 6.799249e-02 0.0
1.438322e+00 8.638031e-02 0.0
1.434762e+00 1.062720e-01 0.0
1.426666e+00 1.297726e-01 0.0
1.412725e+00 1.570695e-01 0.0
1.391868e+00 1.872827e-01 0.0
1.363513e+00 2.186075e-01 0.0
1.327732e+00 2.487583e-01 0.0
1.285272e+00 2.755180e-01 0.0
1.237407e+00 2.970426e-01 0.0
1.185690e+00 3.116099e-01 0.0
1.131827e+00 3.164490e-01 0.0
1.078075e+00 3.065129e-01 0.0
1.026579e+00 2.780519e-01 0.0
9.779455e-01 2.322144e-01 0.0
9.323939e-01 1.732750e-01 0.0
8.937195e-01 1.025885e-01 0.0
8.696949e-01 1.901664e-02 0.0
8.653609e-01 -7.212530e-02 0.0
8.771438e-01 -1.599037e-01 0.0
8.985675e-01 -2.367680e-01 0.0
9.250191e-01 -2.981172e-01 0.0
9.540087e-01 -3.384907e-01 0.0
9.839072e-01 -3.510873e-01 0.0
1.012937e+00 -3.308489e-01 0.0
1.039415e+00 -2.779665e-01 0.0
1.061775e+00 -1.981584e-01 0.0
1.078342e+00 -1.020524e-01 0.0
1.087665e+00 -2.998801e-03 0.0
1.090060e+00 8.738098e-02 0.0
1.087105e+00 1.634777e-01 0.0
1.080462e+00 2.220964e-01 0.0
1.071415e+00 2.610288e-01 0.0
1.060605e+00 2.792173e-01 0.0
1.047834e+00 2.774423e-01 0.0
1.032681e+00 2.586506e-01 0.0
1.015081e+00 2.280291e-01 0.0
9.955047e-01 1.912282e-01 0.0
9.748371e-01 1.527510e-01 0.0
9.540740e-01 1.153154e-01 0.0
9.342227e-01 8.005621e-02 0.0
9.162404e-01 4.706055e-02 0.0
9.010105e-01 1.595036e-02 0.0
8.893232e-01 -1.357169e-02 0.0
8.814743e-01 -4.155768e-02 0.0
8.775299e-01 -6.798836e-02 0.0
8.774307e-01 -9.234028e-02 0.0
8.809882e-01 -1.136545e-01 0.0
8.878205e-01 -1.307674e-01 0.0
8.973070e-01 -1.426135e-01 0.0
9.086124e-01 -1.485013e-01 0.0
9.207208e-01 -1.482920e-01 0.0
9.326363e-01 -1.424577e-01 0.0
9.435397e-01 -1.317055e-01 0.0
9.528198e-01 -1.168224e-01 0.0
9.600312e-01 -9.857046e-02 0.0
9.648202e-01 -7.763622e-02 0.0
9.668874e-01 -5.462747e-02 0.0
9.660999e-01 -3.014025e-02 0.0
9.628784e-01 -4.994854e-03 0.0
9.585043e-01 1.939191e-02 0.0
9.545625e-01 4.164078e-02 0.0
9.526893e-01 6.059491e-02 0.0
9.542303e-01 7.514300e-02 0.0
9.598259e-01 8.445258e-02 0.0
9.691325e-01 8.827519e-02 0.0
9.808257e-01 8.715685e-02 0.0
9.931415e-01 8.240015e-02 0.0
1.004622e+00 7.526489e-02 0.0
1.014216e+00 6.688925e-02 0.0
1.021353e+00 5.817325e-02 0.0
1.025910e+00 4.968418e-02 0.0
1.028099e+00 4.165073e-02 0.0
1.028369e+00 3.401768e-02 0.0
1.027330e+00 2.649844e-02 0.0
1.025692e+00 1.883301e-02 0.0
1.024806e+00 8.763985e-03 0.0
0.000000e+00 8.492161e-03 0.0
1.000000e+00 -9.487990e-02 0.0
1.001509e+00 -9.529382e-02 0.0
1.004197e+00 -1.103035e-01 0.0
1.010002e+00 -1.434352e-01 0.0
1.024154e+00 -2.021309e-01 0.0
1.058942e+00 -3.003539e-01 0.0
1.142167e+00 -4.483309e-01 0.0
1.353877e+00 -7.782592e-01 0.0
1.335975e+00 -3.358603e-01 0.0
1.283088e+00 -1.526068e-01 0.0
1.241010e+00 -8.424924e-02 0.0
1.206972e+00 -4.788452e-02 0.0
1.175464e+00 -2.519691e-02 0.0
1.141854e+00 -1.023908e-02 0.0
1.103153e+00 -1.722420e-03 0.0
1.054361e+00 2.085107e-03 0.0
9.986602e-01 -8.487333e-03 0.0
9.549546e-01 -4.158708e-02 0.0
9.408187e-01 -7.839525e-02 0.0
9.526860e-01 -9.129387e-02 0.0
9.837126e-01 -8.098419e-02 0.0
1.027092e+00 -5.525076e-02 0.0
1.072291e+00 -2.237639e-02 0.0
1.110387e+00 9.734104e-03 0.0
1.142875e+00 3.545376e-02 0.0
1.172264e+00 5.693955e-02 0.0
1.198141e+00 8.034367e-02 0.0
1.218060e+00 1.098027e-01 0.0
1.230294e+00 1.447840e-01 0.0
1.233334e+00 1.841918e-01 0.0
1.226266e+00 2.256244e-01 0.0
1.209038e+00 2.659349e-01 0.0
1.182474e+00 3.020315e-01 0.0
1.148146e+00 3.313190e-01 0.0
1.108173e+00 3.515320e-01 0.0
1.064492e+00 3.600790e-01 0.0
1.017286e+00 3.536676e-01 0.0
9.646517e-01 3.306347e-01 0.0
9.056741e-01 2.911409e-01 0.0
8.488524e-01 2.300455e-01 0.0
8.114741e-01 1.399156e-01 0.0
8.031083e-01 2.733130e-02 0.0
8.170095e-01 -8.607770e-02 0.0
8.404333e-01 -1.833787e-01 0.0
8.649494e-01 -2.613352e-01 0.0
8.872938e-01 -3.205129e-01 0.0
9.072307e-01 -3.584788e-01 0.0
9.252481e-01 -3.691558e-01 0.0
9.413866e-01 -3.470386e-01 0.0
9.556369e-01 -2.922681e-01 0.0
9.680957e-01 -2.106684e-01 0.0
9.785075e-01 -1.125154e-01 0.0
9.861139e-01 -1.065637e-02 0.0
9.905696e-01 8.287405e-02 0.0
9.924890e-01 1.615071e-01 0.0
9.926686e-01 2.218656e-01 0.0
9.916734e-01 2.619728e-01 0.0
9.895439e-01 2.812955e-01 0.0
9.856210e-01 2.813140e-01 0.0
9.789911e-01 2.652293e-01 0.0
9.691618e-01 2.378071e-01 0.0
9.563309e-01 2.040079e-01 0.0
9.413097e-01 1.677210e-01 0.0
9.252680e-01 1.313058e-01 0.0
9.094435e-01 9.582951e-02 0.0
8.948644e-01 6.158836e-02 0.0
8.821919e-01 2.857168e-02 0.0
8.718103e-01 -3.241308e-03 0.0
8.638262e-01 -3.362489e-02 0.0
8.581287e-01 -6.234203e-02 0.0
8.546529e-01 -8.891573e-02 0.0
8.534132e-01 -1.124660e-01 0.0
8.543792e-01 -1.317847e-01 0.0
8.573272e-01 -1.456128e-01 0.0
8.617666e-01 -1.529919e-01 0.0
8.669598e-01 -1.535364e-01 0.0
8.720647e-01 -1.476138e-01 0.0
8.763478e-01 -1.360398e-01 0.0
8.792781e-01 -1.198040e-01 0.0
8.805522e-01 -9.989574e-02 0.0
8.800952e-01 -7.723053e-02 0.0
8.781096e-01 -5.269311e-02 0.0
8.752135e-01 -2.729544e-02 0.0
8.725556e-01 -2.388165e-03 0.0
8.714913e-01 2.040493e-02 0.0
8.731302e-01 3.995070e-02 0.0
8.782233e-01 5.545054e-02 0.0
8.869331e-01 6.638191e-02 0.0
8.986963e-01 7.263808e-02 0.0
9.122991e-01 7.462121e-02 0.0
9.261961e-01 7.320855e-02 0.0
9.391095e-01 6.943551e-02 0.0
9.501155e-01 6.420762e-02 0.0
9.586818e-01 5.827168e-02 0.0
9.646570e-01 5.214679e-02 0.0
9.681942e-01 4.609572e-02 0.0
9.696517e-01 4.014195e-02 0.0
9.695127e-01 3.410540e-02 0.0
9.683538e-01 2.760608e-02 0.0
9.668547e-01 2.028085e-02 0.0
9.663596e-01 9.207903e-03 0.0
0.000000e+00 8.996555e-03 0.0
1.000000e+00 -8.798499e-02 0.0
9.929603e-01 -8.845013e-02 0.0
9.848402e-01 -1.022344e-01 0.0
9.745592e-01 -1.332053e-01 0.0
9.625797e-01 -1.902026e-01 0.0
9.540525e-01 -2.918778e-01 0.0
9.756020e-01 -4.699315e-01 0.0
1.130556e+00 -9.332641e-01 0.0
9.793788e-01 -1.845895e-01 0.0
8.427639e-01 -1.589824e-02 0.0
7.714220e-01 -1.295843e-02 0.0
7.240509e-01 -5.646176e-04 0.0
6.779878e-01 2.081504e-02 0.0
6.219901e-01 4.570751e-02 0.0
5.520442e-01 6.817236e-02 0.0
4.747562e-01 7.932201e-02 0.0
4.065380e-01 5.967970e-02 0.0
3.576149e-01 7.284921e-03 0.0
3.361495e-01 -5.698107e-02 0.0
3.487720e-01 -1.039675e-01 0.0
3.880904e-01 -1.203537e-01 0.0
4.502269e-01 -1.174384e-01 0.0
5.316740e-01 -1.038747e-01 0.0
6.255446e-01 -8.418756e-02 0.0
7.201043e-01 -5.915710e-02 0.0
8.042482e-01 -2.725554e-02 0.0
8.728053e-01 1.173538e-02 0.0
9.286826e-01 5.387433e-02 0.0
9.733462e-01 1.000693e-01 0.0
1.005452e+00 1.520345e-01 0.0
1.023874e+00 2.071518e-01 0.0
1.028497e+00 2.612605e-01 0.0
1.020174e+00 3.103036e-01 0.0
1.000427e+00 3.510145e-01 0.0
9.709238e-01 3.809841e-01 0.0
9.319102e-01 3.990414e-01 0.0
8.789077e-01 4.066189e-01 0.0
8.115918e-01 3.978995e-01 0.0
7.462432e-01 3.564382e-01 0.0
7.089651e-01 2.672724e-01 0.0
7.111663e-01 1.376632e-01 0.0
7.415062e-01 -3.059783e-03 0.0
7.807101e-01 -1.253328e-01 0.0
8.174348e-01 -2.201546e-01 0.0
8.464072e-01 -2.903588e-01 0.0
8.664254e-01 -3.405823e-01 0.0
8.792385e-01 -3.713430e-01 0.0
8.874517e-01 -3.774202e-01 0.0
8.929183e-01 -3.525563e-01 0.0
8.968890e-01 -2.962900e-01 0.0
9.005364e-01 -2.143670e-01 0.0
9.046154e-01 -1.166456e-01 0.0
9.089645e-01 -1.505668e-02 0.0
9.129910e-01 7.879634e-02 0.0
9.166311e-01 1.578157e-01 0.0
9.200270e-01 2.184184e-01 0.0
9.231754e-01 2.587732e-01 0.0
9.256310e-01 2.787887e-01 0.0
9.264057e-01 2.804881e-01 0.0
9.243490e-01 2.672348e-01 0.0
9.188342e-01 2.432708e-01 0.0
9.100923e-01 2.126986e-01 0.0
8.991620e-01 1.786001e-01 0.0
8.875255e-01 1.428911e-01 0.0
8.765952e-01 1.067085e-01 0.0
8.672739e-01 7.085845e-02 0.0
8.597763e-01 3.601811e-02 0.0
8.537770e-01 2.706728e-03 0.0
8.487428e-01 -2.864190e-02 0.0
8.441097e-01 -5.776019e-02 0.0
8.396077e-01 -8.446494e-02 0.0
8.353668e-01 -1.082764e-01 0.0
8.317365e-01 -1.282057e-01 0.0
8.290117e-01 -1.429392e-01 0.0
8.272251e-01 -1.512566e-01 0.0
8.260879e-01 -1.524505e-01 0.0
8.250801e-01 -1.466572e-01 0.0
8.236827e-01 -1.346937e-01 0.0
8.215292e-01 -1.177017e-01 0.0
8.185147e-01 -9.693249e-02 0.0
8.148795e-01 -7.364663e-02 0.0
8.112548e-01 -4.911965e-02 0.0
8.086144e-01 -2.470631e-02 0.0
8.080136e-01 -1.838622e-03 0.0
8.101670e-01 1.820034e-02 0.0
8.153858e-01 3.468064e-02 0.0
8.235504e-01 4.723463e-02 0.0
8.340748e-01 5.580633e-02 0.0
8.459847e-01 6.067686e-02 0.0
8.581172e-01 6.243752e-02 0.0
8.694229e-01 6.185155e-02 0.0
8.791948e-01 5.961235e-02 0.0
8.870255e-01 5.632566e-02 0.0
8.927929e-01 5.245300e-02 0.0
8.966084e-01 4.828009e-02 0.0
8.987372e-01 4.391560e-02 0.0
8.995208e-01 3.930714e-02 0.0
8.993235e-01 3.425140e-02 0.0
8.985300e-01 2.834829e-02 0.0
8.975915e-01 2.116811e-02 0.0
8.976835e-01 9.064617e-03 0.0
0.000000e+00 8.874674e-03 0.0
1.000000e+00 -7.318719e-02 0.0
9.850420e-01 -7.368807e-02 0.0
9.664075e-01 -8.365105e-02 0.0
9.388742e-01 -1.057231e-01 0.0
8.939106e-01 -1.452901e-01 0.0
8.144496e-01 -2.124679e-01 0.0
6.748356e-01 -3.303687e-01 0.0
1.848792e-01 -4.432139e-01 0.0
-9.772390e-01 4.419338e-01 0.0
0.000000e+00 -1.786781e-02 0.0
-4.815064e-02 1.909798e-02 0.0
-2.294900e-02 -2.581738e-02 0.0
9.768361e-03 -1.195346e-02 0.0
3.632565e-02 1.909910e-02 0.0
4.495985e-02 5.948702e-02 0.0
4.343039e-02 8.080034e-02 0.0
2.456360e-02 7.849535e-02 0.0
-1.167818e-02 4.347556e-02 0.0
-5.440431e-02 -1.430608e-02 0.0
-8.255095e-02 -7.587199e-02 0.0
-7.541661e-02 -1.275392e-01 0.0
-2.819543e-02 -1.647107e-01 0.0
5.652937e-02 -1.886507e-01 0.0
1.703558e-01 -1.980651e-01 0.0
2.999634e-01 -1.888159e-01 0.0
4.327257e-01 -1.600690e-01 0.0
5.544856e-01 -1.100757e-01 0.0
6.510247e-01 -4.271585e-02 0.0
7.215204e-01 2.952247e-02 0.0
7.741122e-01 9.939155e-02 0.0
8.094813e-01 1.717316e-01 0.0
8.276287e-01 2.430620e-01 0.0
8.289024e-01 3.089787e-01 0.0
8.135264e-01 3.663394e-01 0.0
7.808565e-01 4.136028e-01 0.0
7.295267e-01 4.503200e-01 0.0
6.646191e-01 4.714754e-01 0.0
6.070440e-01 4.554234e-01 0.0
5.827442e-01 3.806869e-01 0.0
6.007200e-01 2.492454e-01 0.0
6.494531e-01 8.887894e-02 0.0
7.091865e-01 -6.284437e-02 0.0
7.654958e-01 -1.816932e-01 0.0
8.117593e-01 -2.664693e-01 0.0
8.444237e-01 -3.230744e-01 0.0
8.626966e-01 -3.589063e-01 0.0
8.692460e-01 -3.779437e-01 0.0
8.687387e-01 -3.769641e-01 0.0
8.650862e-01 -3.489550e-01 0.0
8.605312e-01 -2.917862e-01 0.0
8.566501e-01 -2.105371e-01 0.0
8.546411e-01 -1.146877e-01 0.0
8.548333e-01 -1.530012e-02 0.0
8.567357e-01 7.684275e-02 0.0
8.598830e-01 1.546172e-01 0.0
8.639247e-01 2.143255e-01 0.0
8.683575e-01 2.542892e-01 0.0
8.722871e-01 2.748078e-01 0.0
8.744793e-01 2.782446e-01 0.0
8.737637e-01 2.678992e-01 0.0
8.697212e-01 2.472621e-01 0.0
8.629819e-01 2.193866e-01 0.0
8.550265e-01 1.865043e-01 0.0
8.476060e-01 1.502603e-01 0.0
8.420890e-01 1.121743e-01 0.0
8.390425e-01 7.385367e-02 0.0
8.381647e-01 3.684465e-02 0.0
8.384864e-01 2.333802e-03 0.0
8.387208e-01 -2.892753e-02 0.0
8.376343e-01 -5.672489e-02 0.0
8.344455e-01 -8.132740e-02 0.0
8.291218e-01 -1.030039e-01 0.0
8.222313e-01 -1.213665e-01 0.0
8.145916e-01 -1.353508e-01 0.0
8.068969e-01 -1.436131e-01 0.0
7.995140e-01 -1.451188e-01 0.0
7.924896e-01 -1.396840e-01 0.0
7.857383e-01 -1.279937e-01 0.0
7.792091e-01 -1.112238e-01 0.0
7.730129e-01 -9.078752e-02 0.0
7.675061e-01 -6.819112e-02 0.0
7.632659e-01 -4.493070e-02 0.0
7.609262e-01 -2.241787e-02 0.0
7.609124e-01 -1.876067e-03 0.0
7.633166e-01 1.574494e-02 0.0
7.679571e-01 2.998882e-02 0.0
7.743741e-01 4.076643e-02 0.0
7.819051e-01 4.822408e-02 0.0
7.898178e-01 5.271293e-02 0.0
7.974609e-01 5.474308e-02 0.0
8.043761e-01 5.488512e-02 0.0
8.103298e-01 5.360744e-02 0.0
8.152692e-01 5.133496e-02 0.0
8.192691e-01 4.840182e-02 0.0
8.224706e-01 4.502736e-02 0.0
8.250286e-01 4.130634e-02 0.0
8.270724e-01 3.721209e-02 0.0
8.286787e-01 3.259378e-02 0.0
8.298764e-01 2.709942e-02 0.0
8.306719e-01 2.032133e-02 0.0
8.317400e-01 7.945209e-03 0.0
0.000000e+00 7.751188e-03 0.0
1.000000e+00 -5.269587e-02 0.0
9.793301e-01 -5.321411e-02 0.0
9.533075e-01 -5.767955e-02 0.0
9.141669e-01 -6.663367e-02 0.0
8.481032e-01 -7.927756e-02 0.0
7.258427e-01 -9.025850e-02 0.0
4.745050e-01 -7.908221e-02 0.0
-5.388692e-03 3.677351e-02 0.0
-1.479930e-04 0.000000e+00 0.0
0.000000e+00 -0.000000e+00 0.0
0.000000e+00 4.520082e-02 0.0
1.971657e-02 -4.558508e-02 0.0
-3.624221e-02 4.395419e-02 0.0
-8.457498e-02 6.738073e-02 0.0
-1.273055e-01 1.021664e-01 0.0
-1.577684e-01 1.112122e-01 0.0
-1.818886e-01 1.025644e-01 0.0
-2.118825e-01 7.341827e-02 0.0
-2.492534e-01 2.301373e-02 0.0
-2.820914e-01 -4.308516e-02 0.0