# vtk DataFile Version 3.0
Vector Field
ASCII
DATASET RECTILINEAR_GRID
DIMENSIONS 102 22 1
X_COORDINATES 102 double
0.000000 0.100000 0.200000 0.300000 0.400000 0.500000 0.600000 0.700000 0.800000 0.900000 1.000000 1.100000 1.200000 1.300000 1.400000 1.500000 1.600000 1.700000 1.800000 1.900000 2.000000 2.100000 2.200000 2.300000 2.400000 2.500000 2.600000 2.700000 2.800000 2.900000 3.000000 3.100000 3.200000 3.300000 3.400000 3.500000 3.600000 3.700000 3.800000 3.900000 4.000000 4.100000 4.200000 4.300000 4.400000 4.500000 4.600000 4.700000 4.800000 4.900000 5.000000 5.100000 5.200000 5.300000 5.400000 5.500000 5.600000 5.700000 5.800000 5.900000 6.000000 6.100000 6.200000 6.300000 6.400000 6.500000 6.600000 6.700000 6.800000 6.900000 7.000000 7.100000 7.200000 7.300000 7.400000 7.500000 7.600000 7.700000 7.800000 7.900000 8.000000 8.100000 8.200000 8.300000 8.400000 8.500000 8.600000 8.700000 8.800000 8.900000 9.000000 9.100000 9.200000 9.300000 9.400000 9.500000 9.600000 9.700000 9.800000 9.900000 10.000000 10.100000 
Y_COORDINATES 22 double
0.000000 0.100000 0.200000 0.300000 0.400000 0.500000 0.600000 0.700000 0.800000 0.900000 1.000000 1.100000 1.200000 1.300000 1.400000 1.500000 1.600000 1.700000 1.800000 1.900000 2.000000 2.100000 
Z_COORDINATES 1 double
0.0
POINT_DATA 2244
VECTORS Velocity double
0.000000e+00 0.000000e+00 0.0
-1.029511e+00 0.000000e+00 0.0
-1.062097e+00 0.000000e+00 0.0
-1.101035e+00 0.000000e+00 0.0
-1.149312e+00 0.000000e+00 0.0
-1.209377e+00 0.000000e+00 0.0
-1.281049e+00 0.000000e+00 0.0
-1.364826e+00 0.000000e+00 0.0
-1.443708e+00 0.000000e+00 0.0
-1.506495e+00 0.000000e+00 0.0
-1.550889e+00 0.000000e+00 0.0
-1.578744e+00 0.000000e+00 0.0
-1.592947e+00 0.000000e+00 0.0
-1.596358e+00 0.000000e+00 0.0
-1.591434e+00 0.000000e+00 0.0
-1.579932e+00 0.000000e+00 0.0
-1.563066e+00 0.000000e+00 0.0
-1.541679e+00 0.000000e+00 0.0
-1.516368e+00 0.000000e+00 0.0
-1.487567e+00 0.000000e+00 0.0
-1.455595e+00 0.000000e+00 0.0
-1.420655e+00 0.000000e+00 0.0
-1.382820e+00 0.000000e+00 0.0
-1.342127e+00 0.000000e+00 0.0
-1.298957e+00 0.000000e+00 0.0
-1.254764e+00 0.000000e+00 0.0
-1.212833e+00 0.000000e+00 0.0
-1.178930e+00 0.000000e+00 0.0
-1.161136e+00 0.000000e+00 0.0
-1.168028e+00 0.000000e+00 0.0
-1.205433e+00 0.000000e+00 0.0
-1.272947e+00 0.000000e+00 0.0
-1.361045e+00 0.000000e+00 0.0
-1.453548e+00 0.000000e+00 0.0
-1.533731e+00 0.000000e+00 0.0
-1.588731e+00 0.000000e+00 0.0
-1.613290e+00 0.000000e+00 0.0
-1.610941e+00 0.000000e+00 0.0
-1.588270e+00 0.000000e+00 0.0
-1.550476e+00 0.000000e+00 0.0
-1.501051e+00 0.000000e+00 0.0
-1.442065e+00 0.000000e+00 0.0
-1.374810e+00 0.000000e+00 0.0
-1.300395e+00 0.000000e+00 0.0
-1.220230e+00 0.000000e+00 0.0
-1.136627e+00 0.000000e+00 0.0
-1.053137e+00 0.000000e+00 0.0
-9.742743e-01 0.000000e+00 0.0
-9.051256e-01 0.000000e+00 0.0
-8.505359e-01 0.000000e+00 0.0
-8.141366e-01 0.000000e+00 0.0
-7.975702e-01 0.000000e+00 0.0
-8.001714e-01 0.000000e+00 0.0
-8.197879e-01 0.000000e+00 0.0
-8.540421e-01 0.000000e+00 0.0
-9.003734e-01 0.000000e+00 0.0
-9.560447e-01 0.000000e+00 0.0
-1.018060e+00 0.000000e+00 0.0
-1.083224e+00 0.000000e+00 0.0
-1.148275e+00 0.000000e+00 0.0
-1.210143e+00 0.000000e+00 0.0
-1.266050e+00 0.000000e+00 0.0
-1.313580e+00 0.000000e+00 0.0
-1.350855e+00 0.000000e+00 0.0
-1.376709e+00 0.000000e+00 0.0
-1.390784e+00 0.000000e+00 0.0
-1.393145e+00 0.000000e+00 0.0
-1.383197e+00 0.000000e+00 0.0
-1.359937e+00 0.000000e+00 0.0
-1.322307e+00 0.000000e+00 0.0
-1.269979e+00 0.000000e+00 0.0
-1.205032e+00 0.000000e+00 0.0
-1.133613e+00 0.000000e+00 0.0
-1.065118e+00 0.000000e+00 0.0
-1.008052e+00 0.000000e+00 0.0
-9.674108e-01 0.000000e+00 0.0
-9.446434e-01 0.000000e+00 0.0
-9.383708e-01 0.000000e+00 0.0
-9.453727e-01 0.000000e+00 0.0
-9.618530e-01 0.000000e+00 0.0
-9.845557e-01 0.000000e+00 0.0
-1.011006e+00 0.000000e+00 0.0
-1.039377e+00 0.000000e+00 0.0
-1.068297e+00 0.000000e+00 0.0
-1.096686e+00 0.000000e+00 0.0
-1.123674e+00 0.000000e+00 0.0
-1.148538e+00 0.000000e+00 0.0
-1.170685e+00 0.000000e+00 0.0
-1.189652e+00 0.000000e+00 0.0
-1.205125e+00 0.000000e+00 0.0
-1.216958e+00 0.000000e+00 0.0
-1.225192e+00 0.000000e+00 0.0
-1.230044e+00 0.000000e+00 0.0
-1.231823e+00 0.000000e+00 0.0
-1.230731e+00 0.000000e+00 0.0
-1.226830e+00 0.000000e+00 0.0
-1.220244e+00 0.000000e+00 0.0
-1.211271e+00 0.000000e+00 0.0
-1.200608e+00 0.000000e+00 0.0
-1.189541e+00 0.000000e+00 0.0
-1.189541e+00 0.000000e+00 0.0
0.000000e+00 0.000000e+00 0.0
1.000000e+00 -2.926635e-02 0.0
1.029420e+00 -2.918583e-02 0.0
1.061918e+00 -3.236364e-02 0.0
1.100773e+00 -3.872056e-02 0.0
1.148978e+00 -4.807111e-02 0.0
1.209000e+00 -5.988775e-02 0.0
1.280685e+00 -7.155019e-02 0.0
1.364584e+00 -8.376531e-02 0.0
1.443762e+00 -7.904316e-02 0.0
1.507040e+00 -6.314346e-02 0.0
1.552090e+00 -4.491584e-02 0.0
1.580699e+00 -2.847468e-02 0.0
1.595654e+00 -1.482081e-02 0.0
1.599724e+00 -3.935595e-03 0.0
1.595346e+00 4.512925e-03 0.0
1.584285e+00 1.119564e-02 0.0
1.567771e+00 1.664761e-02 0.0
1.546659e+00 2.124672e-02 0.0
1.521545e+00 2.524873e-02 0.0
1.492858e+00 2.882148e-02 0.0
1.460911e+00 3.208077e-02 0.0
1.425913e+00 3.513264e-02 0.0
1.387949e+00 3.809853e-02 0.0
1.347035e+00 4.104889e-02 0.0
1.303416e+00 4.375280e-02 0.0
1.258239e+00 4.531180e-02 0.0
1.214321e+00 4.405239e-02 0.0
1.176866e+00 3.758886e-02 0.0
1.153594e+00 2.340691e-02 0.0
1.153402e+00 3.266861e-04 0.0
1.183269e+00 -2.973268e-02 0.0
1.244886e+00 -6.148221e-02 0.0
1.331124e+00 -8.610453e-02 0.0
1.426789e+00 -9.552976e-02 0.0
1.514425e+00 -8.750179e-02 0.0
1.579249e+00 -6.468927e-02 0.0
1.613165e+00 -3.378216e-02 0.0
1.617525e+00 -4.225409e-03 0.0
1.599179e+00 1.848032e-02 0.0
1.564087e+00 3.522629e-02 0.0
1.516418e+00 4.780345e-02 0.0
1.458725e+00 5.782813e-02 0.0
1.392531e+00 6.632777e-02 0.0
1.318988e+00 7.367813e-02 0.0
1.239404e+00 7.971798e-02 0.0
1.155845e+00 8.369378e-02 0.0
1.071633e+00 8.434613e-02 0.0
9.911069e-01 8.066083e-02 0.0
9.193007e-01 7.194069e-02 0.0
8.611846e-01 5.825058e-02 0.0
8.206958e-01 4.062329e-02 0.0
7.999010e-01 2.092929e-02 0.0
7.985803e-01 1.455251e-03 0.0
8.146923e-01 -1.597760e-02 0.0
8.458708e-01 -3.104398e-02 0.0
8.895639e-01 -4.355861e-02 0.0
9.430705e-01 -5.337212e-02 0.0
1.003461e+00 -6.025596e-02 0.0
1.067607e+00 -6.401180e-02 0.0
1.132292e+00 -6.455020e-02 0.0
1.194444e+00 -6.201725e-02 0.0
1.251278e+00 -5.669928e-02 0.0
1.300344e+00 -4.893154e-02 0.0
1.339678e+00 -3.919965e-02 0.0
1.367972e+00 -2.816014e-02 0.0
1.384708e+00 -1.660055e-02 0.0
1.389952e+00 -5.110231e-03 0.0
1.383320e+00 6.766461e-03 0.0
1.363898e+00 1.955641e-02 0.0
1.330618e+00 3.341500e-02 0.0
1.282841e+00 4.791189e-02 0.0
1.221774e+00 6.120090e-02 0.0
1.152285e+00 6.962367e-02 0.0
1.083037e+00 6.938297e-02 0.0
1.023046e+00 6.012514e-02 0.0
9.782319e-01 4.494873e-02 0.0
9.509706e-01 2.739589e-02 0.0
9.405876e-01 1.051752e-02 0.0
9.443409e-01 -3.618730e-03 0.0
9.584794e-01 -1.400400e-02 0.0
9.795911e-01 -2.097716e-02 0.0
1.005019e+00 -2.529378e-02 0.0
1.032793e+00 -2.763894e-02 0.0
1.061442e+00 -2.851484e-02 0.0
1.089826e+00 -2.824864e-02 0.0
1.117029e+00 -2.706899e-02 0.0
1.142302e+00 -2.513822e-02 0.0
1.165023e+00 -2.258689e-02 0.0
1.184703e+00 -1.954512e-02 0.0
1.200994e+00 -1.615690e-02 0.0
1.213714e+00 -1.258532e-02 0.0
1.222861e+00 -9.011729e-03 0.0
1.228613e+00 -5.618293e-03 0.0
1.231277e+00 -2.529299e-03 0.0
1.231124e+00 2.879614e-04 0.0
1.228254e+00 3.004155e-03 0.0
1.222791e+00 5.598140e-03 0.0
1.215011e+00 7.914611e-03 0.0
1.205545e+00 9.600656e-03 0.0
1.195545e+00 1.013436e-02 0.0
1.189541e+00 6.138165e-03 0.0
0.000000e+00 6.652227e-03 0.0
1.000000e+00 -5.906583e-02 0.0
1.029845e+00 -5.889657e-02 0.0
1.062797e+00 -6.528046e-02 0.0
1.102261e+00 -7.814950e-02 0.0
1.151550e+00 -9.732507e-02 0.0
1.213827e+00 -1.221293e-01 0.0
1.289088e+00 -1.467764e-01 0.0
1.383110e+00 -1.777523e-01 0.0
1.467883e+00 -1.637809e-01 0.0
1.532185e+00 -1.274110e-01 0.0
1.576748e+00 -8.944333e-02 0.0
1.605060e+00 -5.675178e-02 0.0
1.620327e+00 -3.005251e-02 0.0
1.625252e+00 -8.825857e-03 0.0
1.622189e+00 7.611300e-03 0.0
1.612783e+00 2.063650e-02 0.0
1.598183e+00 3.128286e-02 0.0
1.579189e+00 4.027555e-02 0.0
1.556360e+00 4.811273e-02 0.0
1.530091e+00 5.512616e-02 0.0
1.500665e+00 6.154143e-02 0.0
1.468288e+00 6.754457e-02 0.0
1.433107e+00 7.331493e-02 0.0
1.395259e+00 7.893140e-02 0.0
1.354999e+00 8.404823e-02 0.0
1.313011e+00 8.733491e-02 0.0
1.271186e+00 8.591244e-02 0.0
1.233323e+00 7.548652e-02 0.0
1.205419e+00 5.134613e-02 0.0
1.194978e+00 1.080311e-02 0.0
1.207994e+00 -4.271414e-02 0.0
1.247287e+00 -1.007397e-01 0.0
1.311491e+00 -1.502736e-01 0.0
1.393403e+00 -1.774070e-01 0.0
1.480271e+00 -1.743344e-01 0.0
1.557884e+00 -1.422669e-01 0.0
1.612816e+00 -8.867911e-02 0.0
1.636809e+00 -2.818384e-02 0.0
1.632901e+00 2.242405e-02 0.0
1.608959e+00 5.920297e-02 0.0
1.570491e+00 8.630673e-02 0.0
1.521034e+00 1.073197e-01 0.0
1.462819e+00 1.245778e-01 0.0
1.397570e+00 1.389626e-01 0.0
1.327099e+00 1.502240e-01 0.0
1.253336e+00 1.574919e-01 0.0
1.178566e+00 1.591516e-01 0.0
1.106032e+00 1.532293e-01 0.0
1.039480e+00 1.385276e-01 0.0
9.826833e-01 1.150827e-01 0.0
9.389957e-01 8.434597e-02 0.0
9.108663e-01 4.909380e-02 0.0
8.993908e-01 1.296587e-02 0.0
9.037649e-01 -2.031664e-02 0.0
9.217985e-01 -4.904255e-02 0.0
9.510450e-01 -7.276997e-02 0.0
9.891254e-01 -9.141746e-02 0.0
1.033601e+00 -1.046963e-01 0.0
1.081947e+00 -1.123230e-01 0.0
1.131621e+00 -1.141893e-01 0.0
1.180145e+00 -1.105062e-01 0.0
1.225085e+00 -1.016035e-01 0.0
1.264227e+00 -8.803917e-02 0.0
1.295758e+00 -7.069474e-02 0.0
1.318368e+00 -5.073546e-02 0.0
1.331161e+00 -2.935874e-02 0.0
1.333157e+00 -7.070791e-03 0.0
1.323218e+00 1.673994e-02 0.0
1.300812e+00 4.199813e-02 0.0
1.266262e+00 6.799990e-02 0.0
1.221542e+00 9.266684e-02 0.0
1.170980e+00 1.117982e-01 0.0
1.120874e+00 1.197648e-01 0.0
1.077423e+00 1.128693e-01 0.0
1.044550e+00 9.303320e-02 0.0
1.023797e+00 6.573675e-02 0.0
1.014452e+00 3.677540e-02 0.0
1.014545e+00 1.046030e-02 0.0
1.021771e+00 -1.080966e-02 0.0
1.034253e+00 -2.645074e-02 0.0
1.050496e+00 -3.718528e-02 0.0
1.069357e+00 -4.412016e-02 0.0
1.089894e+00 -4.814012e-02 0.0
1.111267e+00 -4.985275e-02 0.0
1.132783e+00 -4.973019e-02 0.0
1.153846e+00 -4.809695e-02 0.0
1.173889e+00 -4.514570e-02 0.0
1.192389e+00 -4.105235e-02 0.0
1.208904e+00 -3.602417e-02 0.0
1.223094e+00 -3.031242e-02 0.0
1.234746e+00 -2.420158e-02 0.0
1.243746e+00 -1.797708e-02 0.0
1.250033e+00 -1.187034e-02 0.0
1.253528e+00 -5.988912e-03 0.0
1.254124e+00 -2.734009e-04 0.0
1.251805e+00 5.358772e-03 0.0
1.246711e+00 1.072689e-02 0.0
1.239235e+00 1.542554e-02 0.0
1.230148e+00 1.872350e-02 0.0
1.220430e+00 1.988755e-02 0.0
1.214173e+00 1.242950e-02 0.0
0.000000e+00 1.335927e-02 0.0
1.000000e+00 -8.544696e-02 0.0
1.026427e+00 -8.518960e-02 0.0
1.056060e+00 -9.487780e-02 0.0
1.092591e+00 -1.146456e-01 0.0
1.140110e+00 -1.448095e-01 0.0
1.203411e+00 -1.853945e-01 0.0
1.283748e+00 -2.270788e-01 0.0
1.398553e+00 -2.925224e-01 0.0
1.489600e+00 -2.547928e-01 0.0
1.550285e+00 -1.880607e-01 0.0
1.589329e+00 -1.284521e-01 0.0
1.613356e+00 -8.074339e-02 0.0
1.625881e+00 -4.254270e-02 0.0
1.629124e+00 -1.203368e-02 0.0
1.625202e+00 1.156839e-02 0.0
1.615508e+00 3.036496e-02 0.0
1.601041e+00 4.578553e-02 0.0
1.582515e+00 5.883575e-02 0.0
1.560426e+00 7.023742e-02 0.0
1.535103e+00 8.048368e-02 0.0
1.506781e+00 8.989865e-02 0.0
1.475646e+00 9.871481e-02 0.0
1.441882e+00 1.071140e-01 0.0
1.405709e+00 1.151393e-01 0.0
1.367431e+00 1.223612e-01 0.0
1.327579e+00 1.272220e-01 0.0
1.287283e+00 1.262434e-01 0.0
1.248606e+00 1.141991e-01 0.0
1.214172e+00 8.581515e-02 0.0
1.186840e+00 3.816992e-02 0.0
1.170901e+00 -2.674029e-02 0.0
1.170744e+00 -1.005475e-01 0.0
1.191030e+00 -1.705245e-01 0.0
1.237244e+00 -2.235854e-01 0.0
1.308513e+00 -2.455689e-01 0.0
1.393924e+00 -2.276426e-01 0.0
1.476742e+00 -1.714623e-01 0.0
1.537537e+00 -8.894309e-02 0.0
1.563547e+00 -3.551424e-03 0.0
1.561362e+00 6.142339e-02 0.0
1.539375e+00 1.083284e-01 0.0
1.503199e+00 1.435309e-01 0.0
1.456562e+00 1.712496e-01 0.0
1.402127e+00 1.934332e-01 0.0
1.341977e+00 2.104091e-01 0.0
1.278039e+00 2.214653e-01 0.0
1.212383e+00 2.248427e-01 0.0
1.147780e+00 2.178668e-01 0.0
1.087420e+00 1.989229e-01 0.0
1.034391e+00 1.681469e-01 0.0
9.914424e-01 1.273296e-01 0.0
9.606387e-01 7.993260e-02 0.0
9.431525e-01 3.048707e-02 0.0
9.389966e-01 -1.612560e-02 0.0
9.465165e-01 -5.652736e-02 0.0
9.636602e-01 -8.987860e-02 0.0
9.885550e-01 -1.162771e-01 0.0
1.019581e+00 -1.356871e-01 0.0
1.054890e+00 -1.475966e-01 0.0
1.092277e+00 -1.515413e-01 0.0
1.129371e+00 -1.475651e-01 0.0
1.163882e+00 -1.360803e-01 0.0
1.193754e+00 -1.178759e-01 0.0
1.217275e+00 -9.418026e-02 0.0
1.233106e+00 -6.653097e-02 0.0
1.240089e+00 -3.630701e-02 0.0
1.236813e+00 -3.759631e-03 0.0
1.222505e+00 3.108273e-02 0.0
1.197656e+00 6.688283e-02 0.0
1.164228e+00 1.014623e-01 0.0
1.126144e+00 1.307857e-01 0.0
1.089009e+00 1.489691e-01 0.0
1.058389e+00 1.504195e-01 0.0
1.036589e+00 1.347044e-01 0.0
1.023187e+00 1.064709e-01 0.0
1.016648e+00 7.230993e-02 0.0
1.015308e+00 3.815078e-02 0.0
1.017830e+00 7.973936e-03 0.0
1.023284e+00 -1.622901e-02 0.0
1.031298e+00 -3.442977e-02 0.0
1.041696e+00 -4.754842e-02 0.0
1.054221e+00 -5.660954e-02 0.0
1.068509e+00 -6.239276e-02 0.0
1.084107e+00 -6.541601e-02 0.0
1.100452e+00 -6.604032e-02 0.0
1.116964e+00 -6.457401e-02 0.0
1.133075e+00 -6.122146e-02 0.0
1.148249e+00 -5.619115e-02 0.0
1.162014e+00 -4.975438e-02 0.0
1.173990e+00 -4.225240e-02 0.0
1.183890e+00 -3.406732e-02 0.0
1.191511e+00 -2.556239e-02 0.0
1.196677e+00 -1.700128e-02 0.0
1.199196e+00 -8.472678e-03 0.0
1.198841e+00 1.164410e-04 0.0
1.195581e+00 8.653966e-03 0.0
1.189642e+00 1.670125e-02 0.0
1.181555e+00 2.354733e-02 0.0
1.172285e+00 2.802904e-02 0.0
1.163463e+00 2.874457e-02 0.0
1.157862e+00 1.806504e-02 0.0
0.000000e+00 1.923559e-02 0.0
1.000000e+00 -1.065926e-01 0.0
1.021194e+00 -1.062489e-01 0.0
1.045523e+00 -1.191719e-01 0.0
1.076933e+00 -1.460205e-01 0.0
1.120660e+00 -1.885014e-01 0.0
1.184197e+00 -2.488969e-01 0.0
1.273196e+00 -3.160423e-01 0.0
1.422111e+00 -4.414027e-01 0.0
1.510672e+00 -3.433186e-01 0.0
1.556321e+00 -2.336747e-01 0.0
1.582974e+00 -1.550702e-01 0.0
1.599668e+00 -9.740188e-02 0.0
1.608736e+00 -5.157564e-02 0.0
1.610636e+00 -1.389892e-02 0.0
1.606477e+00 1.576303e-02 0.0
1.597196e+00 3.968063e-02 0.0
1.583583e+00 5.943338e-02 0.0
1.566265e+00 7.618878e-02 0.0
1.545657e+00 9.088112e-02 0.0
1.521998e+00 1.041774e-01 0.0
1.495436e+00 1.164961e-01 0.0
1.466096e+00 1.280895e-01 0.0
1.434154e+00 1.390905e-01 0.0
1.399895e+00 1.494341e-01 0.0
1.363696e+00 1.585947e-01 0.0
1.325867e+00 1.650860e-01 0.0
1.286511e+00 1.656346e-01 0.0
1.245762e+00 1.549832e-01 0.0
1.203304e+00 1.283086e-01 0.0
1.157050e+00 8.445830e-02 0.0
1.104523e+00 2.582250e-02 0.0
1.049038e+00 -4.502720e-02 0.0
1.002044e+00 -1.234956e-01 0.0
9.832758e-01 -2.047825e-01 0.0
1.015378e+00 -2.776362e-01 0.0
1.093523e+00 -3.057525e-01 0.0
1.197018e+00 -2.749216e-01 0.0
1.300326e+00 -1.922165e-01 0.0
1.378613e+00 -8.180292e-02 0.0
1.417770e+00 2.230126e-02 0.0
1.427983e+00 9.815031e-02 0.0
1.417331e+00 1.542183e-01 0.0
1.391299e+00 1.973166e-01 0.0
1.353913e+00 2.308544e-01 0.0
1.308333e+00 2.560239e-01 0.0
1.257190e+00 2.726432e-01 0.0
1.202760e+00 2.793085e-01 0.0
1.147483e+00 2.731790e-01 0.0
1.094331e+00 2.521095e-01 0.0
1.046411e+00 2.161016e-01 0.0
1.006344e+00 1.674324e-01 0.0
9.758643e-01 1.104471e-01 0.0
9.557176e-01 5.066886e-02 0.0
9.460047e-01 -6.377615e-03 0.0
9.460052e-01 -5.649277e-02 0.0
9.547632e-01 -9.860155e-02 0.0
9.711266e-01 -1.326054e-01 0.0
9.935085e-01 -1.580339e-01 0.0
1.019989e+00 -1.740421e-01 0.0
1.048417e+00 -1.799341e-01 0.0
1.076548e+00 -1.756610e-01 0.0
1.102276e+00 -1.617728e-01 0.0
1.123767e+00 -1.393319e-01 0.0
1.139477e+00 -1.098554e-01 0.0
1.148054e+00 -7.507290e-02 0.0
1.148110e+00 -3.632747e-02 0.0
1.138251e+00 6.134275e-03 0.0
1.118946e+00 5.042209e-02 0.0
1.092131e+00 9.373291e-02 0.0
1.061410e+00 1.322185e-01 0.0
1.031873e+00 1.603580e-01 0.0
1.008724e+00 1.721533e-01 0.0
9.944125e-01 1.647662e-01 0.0
9.876555e-01 1.414965e-01 0.0
9.858717e-01 1.082897e-01 0.0
9.867180e-01 7.149877e-02 0.0
9.888159e-01 3.608802e-02 0.0
9.917575e-01 5.067411e-03 0.0
9.958579e-01 -2.029433e-02 0.0
1.001641e+00 -4.017747e-02 0.0
1.009402e+00 -5.527413e-02 0.0
1.019129e+00 -6.630164e-02 0.0
1.030582e+00 -7.381060e-02 0.0
1.043372e+00 -7.817117e-02 0.0
1.057001e+00 -7.963416e-02 0.0
1.070906e+00 -7.844442e-02 0.0
1.084540e+00 -7.482025e-02 0.0
1.097384e+00 -6.900020e-02 0.0
1.108974e+00 -6.130841e-02 0.0
1.118908e+00 -5.215221e-02 0.0
1.126852e+00 -4.197581e-02 0.0
1.132505e+00 -3.117976e-02 0.0
1.135566e+00 -2.002727e-02 0.0
1.135706e+00 -8.578384e-03 0.0
1.132684e+00 3.173547e-03 0.0
1.126699e+00 1.467403e-02 0.0
1.118276e+00 2.515996e-02 0.0
1.108325e+00 3.353299e-02 0.0
1.098235e+00 3.815441e-02 0.0
1.089958e+00 3.705629e-02 0.0
1.085183e+00 2.287569e-02 0.0
0.000000e+00 2.407987e-02 0.0
1.000000e+00 -1.206381e-01 0.0
1.014098e+00 -1.202123e-01 0.0
1.030776e+00 -1.358150e-01 0.0
1.053789e+00 -1.689981e-01 0.0
1.089345e+00 -2.240229e-01 0.0
1.148293e+00 -3.078095e-01 0.0
1.245795e+00 -4.135095e-01 0.0
1.435211e+00 -6.307835e-01 0.0
1.493117e+00 -4.011900e-01 0.0
1.503943e+00 -2.444656e-01 0.0
1.508039e+00 -1.591304e-01 0.0
1.513336e+00 -1.026646e-01 0.0
1.519303e+00 -5.750673e-02 0.0
1.522527e+00 -1.708786e-02 0.0
1.520976e+00 1.734876e-02 0.0
1.514963e+00 4.572850e-02 0.0
1.505000e+00 6.943121e-02 0.0
1.491657e+00 8.956765e-02 0.0
1.475275e+00 1.072978e-01 0.0
1.455971e+00 1.235163e-01 0.0
1.433743e+00 1.387589e-01 0.0
1.408572e+00 1.532958e-01 0.0
1.380501e+00 1.671973e-01 0.0
1.349697e+00 1.802731e-01 0.0
1.316419e+00 1.919074e-01 0.0
1.280675e+00 2.008650e-01 0.0
1.241262e+00 2.050824e-01 0.0
1.195710e+00 2.005700e-01 0.0
1.141624e+00 1.824306e-01 0.0
1.075625e+00 1.504920e-01 0.0
9.870741e-01 1.144083e-01 0.0
8.688514e-01 7.323064e-02 0.0
7.522099e-01 -6.819069e-03 0.0
6.889913e-01 -1.415288e-01 0.0
6.936564e-01 -2.822663e-01 0.0
7.620929e-01 -3.741539e-01 0.0
8.697027e-01 -3.824963e-01 0.0
9.916682e-01 -3.141469e-01 0.0
1.104798e+00 -1.948980e-01 0.0
1.188832e+00 -6.169727e-02 0.0
1.236990e+00 5.002702e-02 0.0
1.258990e+00 1.322539e-01 0.0
1.261001e+00 1.953407e-01 0.0
1.247573e+00 2.443171e-01 0.0
1.222441e+00 2.811912e-01 0.0
1.188841e+00 3.062783e-01 0.0
1.149569e+00 3.186152e-01 0.0
1.107081e+00 3.157019e-01 0.0
1.064332e+00 2.948942e-01 0.0
1.024262e+00 2.562064e-01 0.0
9.892234e-01 2.025059e-01 0.0
9.607323e-01 1.389733e-01 0.0
9.397248e-01 7.171149e-02 0.0
9.271442e-01 6.238034e-03 0.0
9.237158e-01 -5.302923e-02 0.0
9.290065e-01 -1.038572e-01 0.0
9.416001e-01 -1.451639e-01 0.0
9.595444e-01 -1.759431e-01 0.0
9.807169e-01 -1.951795e-01 0.0
1.002987e+00 -2.021694e-01 0.0
1.024257e+00 -1.968955e-01 0.0
1.042631e+00 -1.801117e-01 0.0
1.056544e+00 -1.532096e-01 0.0
1.064674e+00 -1.179504e-01 0.0
1.065756e+00 -7.611961e-02 0.0
1.058458e+00 -2.899517e-02 0.0
1.042519e+00 2.210857e-02 0.0
1.019855e+00 7.312102e-02 0.0
9.937394e-01 1.198839e-01 0.0
9.687324e-01 1.572606e-01 0.0
9.496226e-01 1.795029e-01 0.0
9.392908e-01 1.825202e-01 0.0
9.365339e-01 1.675581e-01 0.0
9.383843e-01 1.396813e-01 0.0
9.419256e-01 1.047835e-01 0.0
9.453443e-01 6.811517e-02 0.0
9.481428e-01 3.332462e-02 0.0
9.508055e-01 2.439837e-03 0.0
9.542996e-01 -2.375334e-02 0.0
9.594157e-01 -4.525852e-02 0.0
9.664836e-01 -6.230688e-02 0.0
9.754250e-01 -7.520790e-02 0.0
9.859087e-01 -8.425925e-02 0.0
9.974840e-01 -8.971133e-02 0.0
1.009655e+00 -9.177051e-02 0.0
1.021890e+00 -9.064355e-02 0.0
1.033666e+00 -8.656197e-02 0.0
1.044508e+00 -7.980619e-02 0.0
1.053978e+00 -7.074330e-02 0.0
1.061676e+00 -5.981585e-02 0.0
1.067223e+00 -4.748690e-02 0.0
1.070232e+00 -3.415455e-02 0.0
1.070306e+00 -2.006527e-02 0.0
1.067075e+00 -5.312841e-03 0.0
1.060671e+00 9.613127e-03 0.0
1.051731e+00 2.364854e-02 0.0
1.041277e+00 3.564966e-02 0.0
1.030704e+00 4.414062e-02 0.0
1.021715e+00 4.717810e-02 0.0
1.015713e+00 4.309402e-02 0.0
1.012348e+00 2.627585e-02 0.0
0.000000e+00 2.735504e-02 0.0
1.000000e+00 -1.259573e-01 0.0
1.005380e+00 -1.254581e-01 0.0
1.011932e+00 -1.423313e-01 0.0
1.022061e+00 -1.790926e-01 0.0
1.041210e+00 -2.431370e-01 0.0
1.081702e+00 -3.482664e-01 0.0
1.171384e+00 -5.031558e-01 0.0
1.390603e+00 -8.499682e-01 0.0
1.365014e+00 -3.755652e-01 0.0
1.308338e+00 -1.877552e-01 0.0
1.275505e+00 -1.262618e-01 0.0
1.263084e+00 -9.020921e-02 0.0
1.266203e+00 -6.059028e-02 0.0
1.278123e+00 -2.897333e-02 0.0
1.287386e+00 8.121226e-03 0.0
1.291864e+00 4.128525e-02 0.0
1.292336e+00 6.899472e-02 0.0
1.289552e+00 9.238611e-02 0.0
1.283821e+00 1.130641e-01 0.0
1.275042e+00 1.323310e-01 0.0
1.262926e+00 1.509097e-01 0.0
1.247158e+00 1.690984e-01 0.0
1.227476e+00 1.869147e-01 0.0
1.203713e+00 2.040709e-01 0.0
1.175691e+00 2.199653e-01 0.0
1.142566e+00 2.340250e-01 0.0
1.101057e+00 2.466260e-01 0.0
1.040937e+00 2.607255e-01 0.0
9.423697e-01 2.810327e-01 0.0
7.851535e-01 3.077433e-01 0.0
6.009857e-01 2.986111e-01 0.0
4.909990e-01 1.832525e-01 0.0
4.796287e-01 4.586294e-03 0.0
5.064832e-01 -1.683482e-01 0.0
5.390053e-01 -3.147533e-01 0.0
5.861184e-01 -4.212319e-01 0.0
6.637284e-01 -4.600713e-01 0.0
7.637027e-01 -4.140862e-01 0.0
8.703980e-01 -3.015582e-01 0.0
9.668295e-01 -1.580937e-01 0.0
1.036822e+00 -1.992999e-02 0.0
1.080619e+00 8.849208e-02 0.0
1.103663e+00 1.723311e-01 0.0
1.110046e+00 2.379697e-01 0.0
1.103216e+00 2.880561e-01 0.0
1.086315e+00 3.232143e-01 0.0
1.062260e+00 3.427049e-01 0.0
1.033365e+00 3.446326e-01 0.0
1.002088e+00 3.262063e-01 0.0
9.708129e-01 2.875164e-01 0.0
9.415868e-01 2.317671e-01 0.0
9.163921e-01 1.642030e-01 0.0
8.974708e-01 9.066788e-02 0.0
8.869987e-01 1.674524e-02 0.0
8.862033e-01 -5.219876e-02 0.0
8.940103e-01 -1.116291e-01 0.0
9.079467e-01 -1.590652e-01 0.0
9.254221e-01 -1.933834e-01 0.0
9.442170e-01 -2.139394e-01 0.0
9.624190e-01 -2.203363e-01 0.0
9.782585e-01 -2.126999e-01 0.0
9.901980e-01 -1.920162e-01 0.0
9.970107e-01 -1.599872e-01 0.0
9.976672e-01 -1.185717e-01 0.0
9.912010e-01 -6.961834e-02 0.0
9.769774e-01 -1.473646e-02 0.0
9.566831e-01 4.243794e-02 0.0
9.333640e-01 9.647524e-02 0.0
9.110049e-01 1.422781e-01 0.0
8.938663e-01 1.744344e-01 0.0
8.848141e-01 1.885901e-01 0.0
8.834475e-01 1.839220e-01 0.0
8.867377e-01 1.643030e-01 0.0
8.916196e-01 1.348345e-01 0.0
8.959596e-01 1.004786e-01 0.0
8.990268e-01 6.508302e-02 0.0
9.012806e-01 3.110597e-02 0.0
9.038230e-01 -6.752823e-05 0.0
9.078244e-01 -2.771965e-02 0.0
9.139121e-01 -5.131109e-02 0.0
9.220974e-01 -7.045707e-02 0.0
9.319772e-01 -8.505264e-02 0.0
9.429676e-01 -9.521454e-02 0.0
9.544657e-01 -1.011743e-01 0.0
9.659277e-01 -1.031974e-01 0.0
9.768594e-01 -1.015402e-01 0.0
9.868108e-01 -9.647830e-02 0.0
9.953873e-01 -8.834755e-02 0.0
1.002221e+00 -7.754165e-02 0.0
1.006940e+00 -6.450007e-02 0.0
1.009154e+00 -4.966546e-02 0.0
1.008457e+00 -3.342226e-02 0.0
1.004514e+00 -1.608727e-02 0.0
9.973532e-01 1.882727e-03 0.0
9.878698e-01 1.913158e-02 0.0
9.772529e-01 3.430055e-02 0.0
9.669730e-01 4.596472e-02 0.0
9.585893e-01 5.255937e-02 0.0
9.533441e-01 5.245847e-02 0.0
9.511289e-01 4.534429e-02 0.0
9.495166e-01 2.792320e-02 0.0
0.000000e+00 2.883121e-02 0.0
1.000000e+00 -1.216863e-01 0.0
9.958041e-01 -1.211278e-01 0.0
9.903891e-01 -1.368812e-01 0.0
9.830064e-01 -1.716749e-01 0.0
9.741394e-01 -2.342349e-01 0.0
9.687281e-01 -3.428201e-01 0.0
9.928015e-01 -5.271941e-01 0.0
1.148144e+00 -1.005276e+00 0.0
9.731878e-01 -2.006729e-01 0.0
8.096092e-01 -2.424085e-02 0.0
7.334702e-01 -5.008771e-02 0.0
6.977269e-01 -5.443087e-02 0.0
6.961501e-01 -5.897838e-02 0.0
7.250778e-01 -5.786605e-02 0.0
7.706988e-01 -3.746463e-02 0.0
8.109255e-01 1.093608e-03 0.0
8.396999e-01 4.025534e-02 0.0
8.618783e-01 7.024274e-02 0.0
8.786668e-01 9.631069e-02 0.0
8.895534e-01 1.214795e-01 0.0
8.934646e-01 1.470335e-01 0.0
8.889200e-01 1.736781e-01 0.0
8.737784e-01 2.020914e-01 0.0
8.449656e-01 2.329188e-01 0.0
7.983140e-01 2.666519e-01 0.0
7.287601e-01 3.036140e-01 0.0
6.316770e-01 3.437442e-01 0.0
5.069207e-01 3.855168e-01 0.0
3.685208e-01 4.194677e-01 0.0
2.748858e-01 4.014133e-01 0.0
2.765625e-01 2.969695e-01 0.0
3.450704e-01 1.147796e-01 0.0
4.274647e-01 -7.777287e-02 0.0
4.929342e-01 -2.337827e-01 0.0
5.331275e-01 -3.549116e-01 0.0
5.564108e-01 -4.444801e-01 0.0
5.898926e-01 -4.935181e-01 0.0
6.479120e-01 -4.720705e-01 0.0
7.241354e-01 -3.777465e-01 0.0
8.052525e-01 -2.391757e-01 0.0
8.767670e-01 -9.140946e-02 0.0
9.276251e-01 3.766912e-02 0.0
9.601045e-01 1.398868e-01 0.0
9.770153e-01 2.210939e-01 0.0
9.811274e-01 2.839791e-01 0.0
9.751448e-01 3.292320e-01 0.0
9.616730e-01 3.562118e-01 0.0
9.427452e-01 3.635955e-01 0.0
9.198035e-01 3.491831e-01 0.0
8.945628e-01 3.127921e-01 0.0
8.696045e-01 2.567605e-01 0.0
8.488765e-01 1.849661e-01 0.0
8.366092e-01 1.029702e-01 0.0
8.351814e-01 1.820810e-02 0.0
8.438527e-01 -6.083490e-02 0.0
8.593702e-01 -1.271116e-01 0.0
8.781000e-01 -1.777599e-01 0.0
8.972570e-01 -2.125053e-01 0.0
9.150099e-01 -2.316573e-01 0.0
9.300398e-01 -2.353310e-01 0.0
9.411279e-01 -2.237529e-01 0.0
9.472199e-01 -1.980731e-01 0.0
9.474667e-01 -1.601988e-01 0.0
9.412159e-01 -1.122859e-01 0.0
9.281332e-01 -5.650055e-02 0.0
9.091105e-01 4.321374e-03 0.0
8.873659e-01 6.421765e-02 0.0
8.663772e-01 1.174989e-01 0.0
8.497967e-01 1.588937e-01 0.0
8.402958e-01 1.839704e-01 0.0
8.381254e-01 1.907957e-01 0.0
8.407226e-01 1.813598e-01 0.0
8.450923e-01 1.599684e-01 0.0
8.490075e-01 1.309544e-01 0.0
8.515615e-01 9.795961e-02 0.0
8.531320e-01 6.354767e-02 0.0
8.548835e-01 2.938954e-02 0.0
8.581678e-01 -3.316708e-03 0.0
8.639294e-01 -3.344616e-02 0.0
8.722943e-01 -5.964084e-02 0.0
8.827460e-01 -8.087370e-02 0.0
8.944589e-01 -9.673040e-02 0.0
9.065743e-01 -1.072948e-01 0.0
9.183529e-01 -1.129179e-01 0.0
9.292206e-01 -1.140300e-01 0.0
9.387210e-01 -1.110055e-01 0.0
9.465033e-01 -1.042255e-01 0.0
9.522856e-01 -9.409476e-02 0.0
9.557977e-01 -8.101857e-02 0.0
9.567457e-01 -6.541304e-02 0.0
9.548243e-01 -4.770890e-02 0.0
9.498215e-01 -2.838442e-02 0.0
9.418633e-01 -8.093901e-03 0.0
9.319817e-01 1.179938e-02 0.0
9.215896e-01 2.955882e-02 0.0
9.121724e-01 4.375280e-02 0.0
9.051376e-01 5.303463e-02 0.0
9.014570e-01 5.627512e-02 0.0
9.009642e-01 5.298640e-02 0.0
9.023017e-01 4.404183e-02 0.0
9.022059e-01 2.805412e-02 0.0
0.000000e+00 2.883026e-02 0.0
1.000000e+00 -1.083771e-01 0.0
9.867850e-01 -1.077784e-01 0.0
9.695974e-01 -1.196585e-01 0.0
9.433864e-01 -1.454289e-01 0.0
8.994966e-01 -1.903100e-01 0.0
8.210167e-01 -2.643051e-01 0.0
6.827395e-01 -3.888818e-01 0.0
2.004742e-01 -5.230750e-01 0.0
-9.752295e-01 5.245987e-01 0.0
0.000000e+00 -6.649024e-02 0.0
-1.389206e-01 6.472645e-02 0.0
-1.387951e-01 -5.452132e-02 0.0
-6.783069e-02 -1.299077e-01 0.0
5.140794e-02 -1.770696e-01 0.0
1.540271e-01 -1.400488e-01 0.0
2.433707e-01 -8.821487e-02 0.0
3.156988e-01 -3.203770e-02 0.0
3.678566e-01 1.811997e-02 0.0
4.058132e-01 5.838914e-02 0.0
4.301819e-01 9.714583e-02 0.0
4.410069e-01 1.362436e-01 0.0
4.378514e-01 1.768687e-01 0.0
4.194567e-01 2.205212e-01 0.0
3.837633e-01 2.686472e-01 0.0
3.287912e-01 3.216591e-01 0.0
2.550564e-01 3.773838e-01 0.0
1.695046e-01 4.293311e-01 0.0
9.077270e-02 4.642837e-01 0.0
6.338356e-02 4.468919e-01 0.0
1.082009e-01 3.566311e-01 0.0
2.135840e-01 1.916214e-01 0.0
3.468668e-01 -1.846804e-02 0.0
4.630107e-01 -1.938817e-01 0.0
5.491247e-01 -3.198616e-01 0.0
5.958348e-01 -4.015866e-01 0.0
6.058210e-01 -4.544312e-01 0.0
6.008383e-01 -4.885003e-01 0.0
6.145055e-01 -4.857025e-01 0.0
6.536502e-01 -4.168562e-01 0.0
7.082152e-01 -2.937057e-01 0.0
7.653461e-01 -1.485053e-01 0.0
8.124284e-01 -9.378118e-03 0.0
8.452291e-01 1.071213e-01 0.0
8.647493e-01 2.016088e-01 0.0
8.728430e-01 2.759205e-01 0.0
8.715190e-01 3.305910e-01 0.0
8.626322e-01 3.651337e-01 0.0
8.475756e-01 3.786871e-01 0.0
8.273440e-01 3.694498e-01 0.0
8.047003e-01 3.354709e-01 0.0
7.848140e-01 2.766818e-01 0.0
7.736384e-01 1.961768e-01 0.0
7.748026e-01 1.018411e-01 0.0
7.880849e-01 4.960906e-03 0.0
8.095219e-01 -8.223681e-02 0.0
8.342867e-01 -1.518414e-01 0.0
8.585081e-01 -2.019461e-01 0.0
8.796729e-01 -2.336351e-01 0.0
8.965214e-01 -2.484707e-01 0.0
9.084657e-01 -2.472402e-01 0.0
9.150246e-01 -2.302767e-01 0.0
9.157409e-01 -1.987543e-01 0.0
9.102073e-01 -1.546301e-01 0.0
8.982986e-01 -1.003421e-01 0.0
8.806801e-01 -3.884704e-02 0.0
8.600174e-01 2.501925e-02 0.0
8.397316e-01 8.453853e-02 0.0
8.229186e-01 1.343470e-01 0.0
8.119641e-01 1.698833e-01 0.0
8.074666e-01 1.885029e-01 0.0
8.077597e-01 1.905377e-01 0.0
8.100427e-01 1.791119e-01 0.0
8.121682e-01 1.578780e-01 0.0
8.131417e-01 1.300161e-01 0.0
8.132245e-01 9.791186e-02 0.0
8.135525e-01 6.325478e-02 0.0
8.155534e-01 2.742373e-02 0.0
8.204418e-01 -8.169975e-03 0.0
8.286827e-01 -4.165201e-02 0.0
8.398232e-01 -7.074617e-02 0.0
8.528430e-01 -9.385845e-02 0.0
8.665364e-01 -1.103887e-01 0.0
8.798005e-01 -1.205238e-01 0.0
8.917764e-01 -1.248587e-01 0.0
9.018588e-01 -1.240773e-01 0.0
9.096377e-01 -1.187492e-01 0.0
9.148796e-01 -1.094324e-01 0.0
9.174383e-01 -9.661829e-02 0.0
9.171980e-01 -8.074314e-02 0.0
9.140642e-01 -6.224418e-02 0.0
9.080536e-01 -4.166324e-02 0.0
8.995204e-01 -1.981608e-02 0.0
8.895093e-01 1.952305e-03 0.0
8.796309e-01 2.171284e-02 0.0
8.712721e-01 3.795275e-02 0.0
8.656009e-01 4.945916e-02 0.0
8.632968e-01 5.537382e-02 0.0
8.642182e-01 5.538880e-02 0.0
8.671442e-01 5.009546e-02 0.0
8.704613e-01 4.075990e-02 0.0
8.712783e-01 2.727216e-02 0.0
0.000000e+00 2.797854e-02 0.0
1.000000e+00 -8.827127e-02 0.0
9.800100e-01 -8.765399e-02 0.0
9.542565e-01 -9.386994e-02 0.0
9.150261e-01 -1.061634e-01 0.0
8.482587e-01 -1.235076e-01 0.0
7.248649e-01 -1.408762e-01 0.0
4.695369e-01 -1.335188e-01 0.0
-7.957889e-03 -4.564447e-02 0.0
1.041735e-04 0.000000e+00 0.0
0.000000e+00 -0.000000e+00 0.0
0.000000e+00 -1.209564e-01 0.0
-1.747451e-01 1.202589e-01 0.0
-1.768641e-01 -1.277538e-01 0.0
-1.441938e-01 -2.097049e-01 0.0
-1.153042e-01 -1.689033e-01 0.0
-7.436306e-02 -1.291209e-01 0.0
-2.476124e-02 -8.160446e-02 0.0
2.076293e-02 -2.736913e-02 0.0
5.235448e-02 2.683266e-02 0.0