# vtk DataFile Version 3.0
Vector Field
ASCII
DATASET RECTILINEAR_GRID
DIMENSIONS 102 22 1
X_COORDINATES 102 double
0.000000 0.100000 0.200000 0.300000 0.400000 0.500000 0.600000 0.700000 0.800000 0.900000 1.000000 1.100000 1.200000 1.300000 1.400000 1.500000 1.600000 1.700000 1.800000 1.900000 2.000000 2.100000 2.200000 2.300000 2.400000 2.500000 2.600000 2.700000 2.800000 2.900000 3.000000 3.100000 3.200000 3.300000 3.400000 3.500000 3.600000 3.700000 3.800000 3.900000 4.000000 4.100000 4.200000 4.300000 4.400000 4.500000 4.600000 4.700000 4.800000 4.900000 5.000000 5.100000 5.200000 5.300000 5.400000 5.500000 5.600000 5.700000 5.800000 5.900000 6.000000 6.100000 6.200000 6.300000 6.400000 6.500000 6.600000 6.700000 6.800000 6.900000 7.000000 7.100000 7.200000 7.300000 7.400000 7.500000 7.600000 7.700000 7.800000 7.900000 8.000000 8.100000 8.200000 8.300000 8.400000 8.500000 8.600000 8.700000 8.800000 8.900000 9.000000 9.100000 9.200000 9.300000 9.400000 9.500000 9.600000 9.700000 9.800000 9.900000 10.000000 10.100000 
Y_COORDINATES 22 double
0.000000 0.100000 0.200000 0.300000 0.400000 0.500000 0.600000 0.700000 0.800000 0.900000 1.000000 1.100000 1.200000 1.300000 1.400000 1.500000 1.600000 1.700000 1.800000 1.900000 2.000000 2.100000 
Z_COORDINATES 1 double
0.0
POINT_DATA 2244
VECTORS Velocity double
0.000000e+00 0.000000e+00 0.0
-1.024370e+00 0.000000e+00 0.0
-1.051696e+00 0.000000e+00 0.0
-1.084736e+00 0.000000e+00 0.0
-1.126132e+00 0.000000e+00 0.0
-1.177947e+00 0.000000e+00 0.0
-1.239847e+00 0.000000e+00 0.0
-1.311368e+00 0.000000e+00 0.0
-1.377292e+00 0.000000e+00 0.0
-1.428279e+00 0.000000e+00 0.0
-1.463562e+00 0.000000e+00 0.0
-1.486410e+00 0.000000e+00 0.0
-1.500970e+00 0.000000e+00 0.0
-1.511028e+00 0.000000e+00 0.0
-1.519858e+00 0.000000e+00 0.0
-1.530362e+00 0.000000e+00 0.0
-1.544977e+00 0.000000e+00 0.0
-1.564876e+00 0.000000e+00 0.0
-1.588789e+00 0.000000e+00 0.0
-1.612889e+00 0.000000e+00 0.0
-1.632480e+00 0.000000e+00 0.0
-1.644228e+00 0.000000e+00 0.0
-1.647365e+00 0.000000e+00 0.0
-1.642964e+00 0.000000e+00 0.0
-1.632356e+00 0.000000e+00 0.0
-1.616561e+00 0.000000e+00 0.0
-1.596068e+00 0.000000e+00 0.0
-1.570849e+00 0.000000e+00 0.0
-1.540496e+00 0.000000e+00 0.0
-1.504432e+00 0.000000e+00 0.0
-1.462148e+00 0.000000e+00 0.0
-1.413372e+00 0.000000e+00 0.0
-1.358172e+00 0.000000e+00 0.0
-1.296963e+00 0.000000e+00 0.0
-1.230446e+00 0.000000e+00 0.0
-1.159668e+00 0.000000e+00 0.0
-1.086410e+00 0.000000e+00 0.0
-1.013563e+00 0.000000e+00 0.0
-9.452967e-01 0.000000e+00 0.0
-8.870673e-01 0.000000e+00 0.0
-8.448617e-01 0.000000e+00 0.0
-8.237020e-01 0.000000e+00 0.0
-8.260164e-01 0.000000e+00 0.0
-8.517321e-01 0.000000e+00 0.0
-9.000555e-01 0.000000e+00 0.0
-9.698864e-01 0.000000e+00 0.0
-1.059093e+00 0.000000e+00 0.0
-1.163200e+00 0.000000e+00 0.0
-1.274779e+00 0.000000e+00 0.0
-1.384171e+00 0.000000e+00 0.0
-1.481140e+00 0.000000e+00 0.0
-1.556164e+00 0.000000e+00 0.0
-1.602516e+00 0.000000e+00 0.0
-1.618154e+00 0.000000e+00 0.0
-1.604714e+00 0.000000e+00 0.0
-1.563136e+00 0.000000e+00 0.0
-1.494560e+00 0.000000e+00 0.0
-1.401880e+00 0.000000e+00 0.0
-1.291960e+00 0.000000e+00 0.0
-1.176569e+00 0.000000e+00 0.0
-1.068980e+00 0.000000e+00 0.0
-9.796821e-01 0.000000e+00 0.0
-9.147347e-01 0.000000e+00 0.0
-8.757441e-01 0.000000e+00 0.0
-8.606632e-01 0.000000e+00 0.0
-8.650379e-01 0.000000e+00 0.0
-8.836922e-01 0.000000e+00 0.0
-9.121366e-01 0.000000e+00 0.0
-9.467189e-01 0.000000e+00 0.0
-9.845391e-01 0.000000e+00 0.0
-1.023333e+00 0.000000e+00 0.0
-1.061346e+00 0.000000e+00 0.0
-1.097245e+00 0.000000e+00 0.0
-1.130019e+00 0.000000e+00 0.0
-1.158909e+00 0.000000e+00 0.0
-1.183379e+00 0.000000e+00 0.0
-1.203105e+00 0.000000e+00 0.0
-1.217972e+00 0.000000e+00 0.0
-1.228070e+00 0.000000e+00 0.0
-1.233682e+00 0.000000e+00 0.0
-1.235160e+00 0.000000e+00 0.0
-1.232680e+00 0.000000e+00 0.0
-1.226334e+00 0.000000e+00 0.0
-1.216237e+00 0.000000e+00 0.0
-1.202604e+00 0.000000e+00 0.0
-1.185899e+00 0.000000e+00 0.0
-1.167044e+00 0.000000e+00 0.0
-1.147521e+00 0.000000e+00 0.0
-1.129147e+00 0.000000e+00 0.0
-1.113589e+00 0.000000e+00 0.0
-1.101906e+00 0.000000e+00 0.0
-1.094410e+00 0.000000e+00 0.0
-1.090752e+00 0.000000e+00 0.0
-1.090149e+00 0.000000e+00 0.0
-1.091650e+00 0.000000e+00 0.0
-1.094376e+00 0.000000e+00 0.0
-1.097636e+00 0.000000e+00 0.0
-1.100934e+00 0.000000e+00 0.0
-1.103939e+00 0.000000e+00 0.0
-1.106517e+00 0.000000e+00 0.0
-1.106517e+00 0.000000e+00 0.0
0.000000e+00 0.000000e+00 0.0
1.000000e+00 -2.458228e-02 0.0
1.024540e+00 -2.473629e-02 0.0
1.052035e+00 -2.760749e-02 0.0
1.085249e+00 -3.332734e-02 0.0
1.126824e+00 -4.168738e-02 0.0
1.178810e+00 -5.209968e-02 0.0
1.240854e+00 -6.215650e-02 0.0
1.312450e+00 -7.170866e-02 0.0
1.378293e+00 -6.595560e-02 0.0
1.428985e+00 -5.080517e-02 0.0
1.463743e+00 -3.487121e-02 0.0
1.485834e+00 -2.220319e-02 0.0
1.499397e+00 -1.367625e-02 0.0
1.508202e+00 -8.918247e-03 0.0
1.515500e+00 -7.410906e-03 0.0
1.524210e+00 -8.822663e-03 0.0
1.536931e+00 -1.283373e-02 0.0
1.555260e+00 -1.844219e-02 0.0
1.578524e+00 -2.337651e-02 0.0
1.603255e+00 -2.484436e-02 0.0
1.624593e+00 -2.145030e-02 0.0
1.638634e+00 -1.415421e-02 0.0
1.643993e+00 -5.472394e-03 0.0
1.641509e+00 2.371267e-03 0.0
1.632556e+00 8.840876e-03 0.0
1.618238e+00 1.420417e-02 0.0
1.599141e+00 1.898473e-02 0.0
1.575298e+00 2.373017e-02 0.0
1.546334e+00 2.885031e-02 0.0
1.511673e+00 3.454807e-02 0.0
1.470767e+00 4.079315e-02 0.0
1.423294e+00 4.736009e-02 0.0
1.369264e+00 5.391778e-02 0.0
1.309043e+00 6.010805e-02 0.0
1.243299e+00 6.563016e-02 0.0
1.173018e+00 7.016858e-02 0.0
1.099824e+00 7.308111e-02 0.0
1.026412e+00 7.329932e-02 0.0
9.566931e-01 6.960543e-02 0.0
8.958922e-01 6.068799e-02 0.0
8.499388e-01 4.584041e-02 0.0
8.241046e-01 2.572115e-02 0.0
8.213530e-01 2.638651e-03 0.0
8.418909e-01 -2.065091e-02 0.0
8.849812e-01 -4.320329e-02 0.0
9.495740e-01 -6.470585e-02 0.0
1.033895e+00 -8.443377e-02 0.0
1.134072e+00 -1.002905e-01 0.0
1.243548e+00 -1.095887e-01 0.0
1.353241e+00 -1.098063e-01 0.0
1.453279e+00 -1.001510e-01 0.0
1.534077e+00 -8.091091e-02 0.0
1.588178e+00 -5.421408e-02 0.0
1.612250e+00 -2.418514e-02 0.0
1.607219e+00 4.918055e-03 0.0
1.574188e+00 3.291846e-02 0.0
1.513905e+00 6.016976e-02 0.0
1.428361e+00 8.543081e-02 0.0
1.322914e+00 1.053334e-01 0.0
1.208059e+00 1.147427e-01 0.0
1.097362e+00 1.105833e-01 0.0
1.002505e+00 9.474447e-02 0.0
9.309112e-01 7.148050e-02 0.0
8.853351e-01 4.546301e-02 0.0
8.645353e-01 2.068671e-02 0.0
8.644967e-01 -7.449889e-05 0.0
8.799762e-01 -1.559268e-02 0.0
9.062323e-01 -2.636913e-02 0.0
9.393813e-01 -3.326212e-02 0.0
9.763416e-01 -3.707348e-02 0.0
1.014712e+00 -3.848336e-02 0.0
1.052638e+00 -3.803947e-02 0.0
1.088715e+00 -3.619025e-02 0.0
1.121883e+00 -3.328053e-02 0.0
1.151345e+00 -2.957569e-02 0.0
1.176534e+00 -2.530155e-02 0.0
1.197088e+00 -2.066764e-02 0.0
1.212853e+00 -1.587840e-02 0.0
1.223878e+00 -1.113786e-02 0.0
1.230406e+00 -6.640686e-03 0.0
1.232794e+00 -2.501068e-03 0.0
1.231270e+00 1.410173e-03 0.0
1.225938e+00 5.219356e-03 0.0
1.216908e+00 8.916388e-03 0.0
1.204368e+00 1.242700e-02 0.0
1.188703e+00 1.555213e-02 0.0
1.170690e+00 1.789943e-02 0.0
1.151644e+00 1.893317e-02 0.0
1.133277e+00 1.825408e-02 0.0
1.117272e+00 1.589099e-02 0.0
1.104821e+00 1.233849e-02 0.0
1.096390e+00 8.317253e-03 0.0
1.091788e+00 4.489393e-03 0.0
1.090333e+00 1.341651e-03 0.0
1.091131e+00 -9.111435e-04 0.0
1.093302e+00 -2.283701e-03 0.0
1.096134e+00 -2.946000e-03 0.0
1.099113e+00 -3.091964e-03 0.0
1.101888e+00 -2.888052e-03 0.0
1.104309e+00 -2.534014e-03 0.0
1.106517e+00 -2.321357e-03 0.0
0.000000e+00 -2.349423e-03 0.0
1.000000e+00 -4.942525e-02 0.0
1.024893e+00 -4.974228e-02 0.0
1.052770e+00 -5.551399e-02 0.0
1.086543e+00 -6.712937e-02 0.0
1.129196e+00 -8.436999e-02 0.0
1.183489e+00 -1.064221e-01 0.0
1.249340e+00 -1.280366e-01 0.0
1.330733e+00 -1.531317e-01 0.0
1.402257e+00 -1.375085e-01 0.0
1.454133e+00 -1.027107e-01 0.0
1.488280e+00 -6.904796e-02 0.0
1.509589e+00 -4.354173e-02 0.0
1.522715e+00 -2.683201e-02 0.0
1.531354e+00 -1.758582e-02 0.0
1.538395e+00 -1.448194e-02 0.0
1.546408e+00 -1.686526e-02 0.0
1.557962e+00 -2.441653e-02 0.0
1.575195e+00 -3.570542e-02 0.0
1.598315e+00 -4.652572e-02 0.0
1.624230e+00 -5.078888e-02 0.0
1.647885e+00 -4.513466e-02 0.0
1.664808e+00 -3.110633e-02 0.0
1.672944e+00 -1.363832e-02 0.0
1.672992e+00 2.293661e-03 0.0
1.666635e+00 1.516896e-02 0.0
1.655143e+00 2.566692e-02 0.0
1.639165e+00 3.493333e-02 0.0
1.618718e+00 4.414740e-02 0.0
1.593385e+00 5.415354e-02 0.0
1.562545e+00 6.535937e-02 0.0
1.525616e+00 7.769185e-02 0.0
1.482293e+00 9.065350e-02 0.0
1.432617e+00 1.035647e-01 0.0
1.377027e+00 1.156691e-01 0.0
1.316336e+00 1.262915e-01 0.0
1.251688e+00 1.347868e-01 0.0
1.184505e+00 1.402345e-01 0.0
1.116728e+00 1.410475e-01 0.0
1.051343e+00 1.349605e-01 0.0
9.923377e-01 1.196639e-01 0.0
9.443377e-01 9.381096e-02 0.0
9.117493e-01 5.828005e-02 0.0
8.975145e-01 1.684402e-02 0.0
9.019649e-01 -2.513080e-02 0.0
9.239256e-01 -6.519353e-02 0.0
9.624300e-01 -1.032397e-01 0.0
1.016759e+00 -1.387920e-01 0.0
1.085545e+00 -1.691060e-01 0.0
1.165094e+00 -1.891679e-01 0.0
1.249083e+00 -1.938249e-01 0.0
1.329745e+00 -1.808418e-01 0.0
1.399079e+00 -1.502744e-01 0.0
1.450144e+00 -1.053085e-01 0.0
1.478132e+00 -5.220249e-02 0.0
1.481029e+00 1.990892e-03 0.0
1.459986e+00 5.393260e-02 0.0
1.417964e+00 1.021621e-01 0.0
1.359601e+00 1.437639e-01 0.0
1.290783e+00 1.741222e-01 0.0
1.217553e+00 1.879436e-01 0.0
1.146392e+00 1.817145e-01 0.0
1.083645e+00 1.574613e-01 0.0
1.033361e+00 1.217357e-01 0.0
9.976997e-01 8.109449e-02 0.0
9.773806e-01 4.097628e-02 0.0
9.715310e-01 5.745665e-03 0.0
9.777520e-01 -2.184327e-02 0.0
9.930194e-01 -4.166604e-02 0.0
1.014561e+00 -5.483337e-02 0.0
1.039993e+00 -6.253509e-02 0.0
1.067283e+00 -6.580273e-02 0.0
1.094882e+00 -6.566786e-02 0.0
1.121624e+00 -6.296207e-02 0.0
1.146567e+00 -5.825307e-02 0.0
1.168963e+00 -5.200088e-02 0.0
1.188252e+00 -4.462016e-02 0.0
1.204060e+00 -3.650460e-02 0.0
1.216184e+00 -2.803225e-02 0.0
1.224566e+00 -1.954919e-02 0.0
1.229201e+00 -1.130505e-02 0.0
1.229961e+00 -3.291068e-03 0.0
1.226621e+00 4.720717e-03 0.0
1.219165e+00 1.264595e-02 0.0
1.207760e+00 2.029159e-02 0.0
1.192879e+00 2.727838e-02 0.0
1.175474e+00 3.292814e-02 0.0
1.157105e+00 3.623850e-02 0.0
1.139928e+00 3.608078e-02 0.0
1.126155e+00 3.199796e-02 0.0
1.117349e+00 2.466665e-02 0.0
1.114075e+00 1.558335e-02 0.0
1.115826e+00 6.536575e-03 0.0
1.121296e+00 -1.009772e-03 0.0
1.129022e+00 -6.414161e-03 0.0
1.137688e+00 -9.606345e-03 0.0
1.146279e+00 -1.090456e-02 0.0
1.154115e+00 -1.081122e-02 0.0
1.160813e+00 -9.819134e-03 0.0
1.166231e+00 -8.336302e-03 0.0
1.170369e+00 -6.701469e-03 0.0
1.172736e+00 -4.717601e-03 0.0
0.000000e+00 -4.685678e-03 0.0
1.000000e+00 -7.114813e-02 0.0
1.021767e+00 -7.162200e-02 0.0
1.046624e+00 -8.040060e-02 0.0
1.077782e+00 -9.831728e-02 0.0
1.119016e+00 -1.256327e-01 0.0
1.174721e+00 -1.621571e-01 0.0
1.246122e+00 -1.994667e-01 0.0
1.347955e+00 -2.549945e-01 0.0
1.426646e+00 -2.162286e-01 0.0
1.475564e+00 -1.516585e-01 0.0
1.503904e+00 -9.741727e-02 0.0
1.519649e+00 -5.931647e-02 0.0
1.528095e+00 -3.530694e-02 0.0
1.532583e+00 -2.210386e-02 0.0
1.535311e+00 -1.723906e-02 0.0
1.538047e+00 -1.963101e-02 0.0
1.542963e+00 -2.936143e-02 0.0
1.552949e+00 -4.572086e-02 0.0
1.570364e+00 -6.396989e-02 0.0
1.593947e+00 -7.440180e-02 0.0
1.618419e+00 -6.963603e-02 0.0
1.638158e+00 -5.087502e-02 0.0
1.649487e+00 -2.499651e-02 0.0
1.652079e+00 -3.277085e-04 0.0
1.648121e+00 1.909775e-02 0.0
1.639299e+00 3.445876e-02 0.0
1.626464e+00 4.773906e-02 0.0
1.609612e+00 6.097049e-02 0.0
1.588226e+00 7.550919e-02 0.0
1.561601e+00 9.195572e-02 0.0
1.529063e+00 1.102001e-01 0.0
1.490163e+00 1.295236e-01 0.0
1.444866e+00 1.488328e-01 0.0
1.393597e+00 1.669084e-01 0.0
1.337205e+00 1.826543e-01 0.0
1.276841e+00 1.951211e-01 0.0
1.213916e+00 2.031296e-01 0.0
1.150328e+00 2.046066e-01 0.0
1.088825e+00 1.964334e-01 0.0
1.032796e+00 1.756638e-01 0.0
9.855559e-01 1.410215e-01 0.0
9.496135e-01 9.419292e-02 0.0
9.266389e-01 3.978915e-02 0.0
9.177503e-01 -1.627165e-02 0.0
9.229759e-01 -7.044861e-02 0.0
9.430037e-01 -1.232969e-01 0.0
9.775185e-01 -1.733362e-01 0.0
1.024456e+00 -2.160725e-01 0.0
1.080513e+00 -2.452549e-01 0.0
1.141356e+00 -2.546970e-01 0.0
1.201301e+00 -2.408161e-01 0.0
1.254527e+00 -2.035309e-01 0.0
1.295721e+00 -1.465317e-01 0.0
1.320661e+00 -7.717212e-02 0.0
1.326898e+00 -4.275344e-03 0.0
1.315311e+00 6.549007e-02 0.0
1.289240e+00 1.282034e-01 0.0
1.253177e+00 1.797974e-01 0.0
1.211710e+00 2.155599e-01 0.0
1.168566e+00 2.310576e-01 0.0
1.126386e+00 2.238654e-01 0.0
1.087494e+00 1.963237e-01 0.0
1.054485e+00 1.547150e-01 0.0
1.029294e+00 1.062566e-01 0.0
1.012684e+00 5.755632e-02 0.0
1.004627e+00 1.377342e-02 0.0
1.004507e+00 -2.175239e-02 0.0
1.011042e+00 -4.823071e-02 0.0
1.022824e+00 -6.664505e-02 0.0
1.038475e+00 -7.821532e-02 0.0
1.056673e+00 -8.403024e-02 0.0
1.076076e+00 -8.510072e-02 0.0
1.095477e+00 -8.239302e-02 0.0
1.113854e+00 -7.665933e-02 0.0
1.130379e+00 -6.855470e-02 0.0
1.144424e+00 -5.869482e-02 0.0
1.155556e+00 -4.766650e-02 0.0
1.163509e+00 -3.601434e-02 0.0
1.168116e+00 -2.418564e-02 0.0
1.169160e+00 -1.237856e-02 0.0
1.166142e+00 -3.027370e-04 0.0
1.158842e+00 1.199104e-02 0.0
1.147381e+00 2.407762e-02 0.0
1.132276e+00 3.536697e-02 0.0
1.114657e+00 4.486735e-02 0.0
1.096459e+00 5.109720e-02 0.0
1.080374e+00 5.229327e-02 0.0
1.068908e+00 4.751764e-02 0.0
1.063273e+00 3.760336e-02 0.0
1.063424e+00 2.448589e-02 0.0
1.068275e+00 1.070300e-02 0.0
1.076152e+00 -1.370209e-03 0.0
1.085614e+00 -1.050129e-02 0.0
1.095508e+00 -1.633721e-02 0.0
1.104990e+00 -1.911815e-02 0.0
1.113559e+00 -1.950240e-02 0.0
1.120965e+00 -1.824710e-02 0.0
1.127089e+00 -1.597236e-02 0.0
1.131901e+00 -1.317818e-02 0.0
1.135422e+00 -1.025214e-02 0.0
1.137717e+00 -7.041618e-03 0.0
0.000000e+00 -6.942281e-03 0.0
1.000000e+00 -8.808436e-02 0.0
1.016971e+00 -8.870541e-02 0.0
1.036978e+00 -1.004370e-01 0.0
1.063504e+00 -1.248732e-01 0.0
1.101486e+00 -1.636447e-01 0.0
1.158084e+00 -2.187845e-01 0.0
1.238798e+00 -2.802093e-01 0.0
1.375745e+00 -3.919711e-01 0.0
1.455384e+00 -2.958974e-01 0.0
1.491245e+00 -1.875490e-01 0.0
1.506591e+00 -1.127930e-01 0.0
1.512307e+00 -6.506096e-02 0.0
1.512739e+00 -3.576888e-02 0.0
1.510044e+00 -1.943779e-02 0.0
1.505187e+00 -1.241203e-02 0.0
1.498541e+00 -1.301489e-02 0.0
1.490941e+00 -2.179044e-02 0.0
1.485309e+00 -4.011817e-02 0.0
1.487214e+00 -6.590460e-02 0.0
1.500455e+00 -8.767164e-02 0.0
1.521225e+00 -9.043622e-02 0.0
1.543233e+00 -7.291208e-02 0.0
1.560809e+00 -4.260208e-02 0.0
1.570140e+00 -9.687925e-03 0.0
1.572323e+00 1.688474e-02 0.0
1.569827e+00 3.692514e-02 0.0
1.563968e+00 5.356878e-02 0.0
1.554645e+00 7.026458e-02 0.0
1.541061e+00 8.906347e-02 0.0
1.522274e+00 1.107131e-01 0.0
1.497369e+00 1.350760e-01 0.0
1.465710e+00 1.611529e-01 0.0
1.427119e+00 1.873940e-01 0.0
1.381960e+00 2.120377e-01 0.0
1.331109e+00 2.334764e-01 0.0
1.275808e+00 2.503926e-01 0.0
1.217498e+00 2.614101e-01 0.0
1.157960e+00 2.641151e-01 0.0
1.099910e+00 2.544541e-01 0.0
1.046493e+00 2.290517e-01 0.0
9.999897e-01 1.874949e-01 0.0
9.611297e-01 1.330235e-01 0.0
9.306593e-01 7.022999e-02 0.0
9.117796e-01 2.578585e-03 0.0
9.077039e-01 -6.640241e-02 0.0
9.186853e-01 -1.343078e-01 0.0
9.425759e-01 -1.972564e-01 0.0
9.761275e-01 -2.496536e-01 0.0
1.015849e+00 -2.850059e-01 0.0
1.058231e+00 -2.971086e-01 0.0
1.099527e+00 -2.821416e-01 0.0
1.136053e+00 -2.400863e-01 0.0
1.164483e+00 -1.749908e-01 0.0
1.182001e+00 -9.472000e-02 0.0
1.186946e+00 -9.249722e-03 0.0
1.180184e+00 7.222280e-02 0.0
1.164635e+00 1.437227e-01 0.0
1.143801e+00 2.006017e-01 0.0
1.120776e+00 2.385554e-01 0.0
1.097616e+00 2.541880e-01 0.0
1.075141e+00 2.463112e-01 0.0
1.053871e+00 2.175644e-01 0.0
1.034683e+00 1.738729e-01 0.0
1.018470e+00 1.224401e-01 0.0
1.005974e+00 7.002310e-02 0.0
9.978821e-01 2.183602e-02 0.0
9.948580e-01 -1.875784e-02 0.0
9.969565e-01 -5.035872e-02 0.0
1.003712e+00 -7.342994e-02 0.0
1.014292e+00 -8.882494e-02 0.0
1.027611e+00 -9.737916e-02 0.0
1.042413e+00 -9.993152e-02 0.0
1.057442e+00 -9.745208e-02 0.0
1.071612e+00 -9.085859e-02 0.0
1.084040e+00 -8.101256e-02 0.0
1.094067e+00 -6.875141e-02 0.0
1.101230e+00 -5.485855e-02 0.0
1.105194e+00 -4.000786e-02 0.0
1.105613e+00 -2.463387e-02 0.0
1.101869e+00 -8.664300e-03 0.0
1.093407e+00 8.129377e-03 0.0
1.080432e+00 2.493662e-02 0.0
1.063652e+00 4.082783e-02 0.0
1.044524e+00 5.446541e-02 0.0
1.025408e+00 6.395426e-02 0.0
1.009388e+00 6.708749e-02 0.0
9.991297e-01 6.252230e-02 0.0
9.953360e-01 5.128176e-02 0.0
9.973570e-01 3.555283e-02 0.0
1.003656e+00 1.815738e-02 0.0
1.012389e+00 1.940867e-03 0.0
1.022229e+00 -1.123988e-02 0.0
1.032376e+00 -2.067762e-02 0.0
1.042288e+00 -2.627947e-02 0.0
1.051609e+00 -2.846828e-02 0.0
1.060111e+00 -2.803417e-02 0.0
1.067579e+00 -2.574424e-02 0.0
1.073874e+00 -2.229745e-02 0.0
1.078931e+00 -1.826438e-02 0.0
1.082753e+00 -1.410388e-02 0.0
1.085220e+00 -9.538163e-03 0.0
0.000000e+00 -9.364721e-03 0.0
1.000000e+00 -9.852854e-02 0.0
1.010464e+00 -9.928247e-02 0.0
1.023451e+00 -1.134528e-01 0.0
1.042298e+00 -1.437504e-01 0.0
1.072982e+00 -1.943582e-01 0.0
1.126217e+00 -2.720487e-01 0.0
1.217093e+00 -3.711145e-01 0.0
1.398812e+00 -5.737194e-01 0.0
1.454683e+00 -3.517976e-01 0.0
1.461074e+00 -1.939696e-01 0.0
1.454918e+00 -1.066668e-01 0.0
1.445752e+00 -5.592388e-02 0.0
1.434907e+00 -2.495406e-02 0.0
1.422443e+00 -7.003315e-03 0.0
1.407448e+00 2.554108e-03 0.0
1.388670e+00 5.733747e-03 0.0
1.363973e+00 2.876460e-03 0.0
1.333249e+00 -9.422768e-03 0.0
1.303865e+00 -3.655059e-02 0.0
1.289106e+00 -7.294246e-02 0.0
1.292808e+00 -9.416775e-02 0.0
1.309357e+00 -8.949015e-02 0.0
1.332986e+00 -6.626002e-02 0.0
1.357536e+00 -3.426826e-02 0.0
1.376106e+00 -1.714271e-03 0.0
1.389178e+00 2.382393e-02 0.0
1.399798e+00 4.291866e-02 0.0
1.407581e+00 6.245293e-02 0.0
1.411017e+00 8.559786e-02 0.0
1.408858e+00 1.128424e-01 0.0
1.399773e+00 1.441316e-01 0.0
1.382799e+00 1.780974e-01 0.0
1.357507e+00 2.126569e-01 0.0
1.324136e+00 2.453791e-01 0.0
1.283581e+00 2.740021e-01 0.0
1.237227e+00 2.967166e-01 0.0
1.186707e+00 3.119010e-01 0.0
1.133773e+00 3.170191e-01 0.0
1.080759e+00 3.074393e-01 0.0
1.030101e+00 2.796798e-01 0.0
9.830355e-01 2.345309e-01 0.0
9.401754e-01 1.758542e-01 0.0
9.043227e-01 1.060532e-01 0.0
8.812183e-01 2.565346e-02 0.0
8.755035e-01 -6.071702e-02 0.0
8.851145e-01 -1.439482e-01 0.0
9.048174e-01 -2.169888e-01 0.0
9.302413e-01 -2.751070e-01 0.0
9.585035e-01 -3.132976e-01 0.0
9.873205e-01 -3.259551e-01 0.0
1.014275e+00 -3.091257e-01 0.0
1.037221e+00 -2.630620e-01 0.0
1.054480e+00 -1.922785e-01 0.0
1.064710e+00 -1.049803e-01 0.0
1.067239e+00 -1.180770e-02 0.0
1.062980e+00 7.645264e-02 0.0
1.054160e+00 1.525128e-01 0.0
1.043185e+00 2.115471e-01 0.0
1.031943e+00 2.497681e-01 0.0
1.021391e+00 2.647100e-01 0.0
1.011414e+00 2.562588e-01 0.0
1.001562e+00 2.273872e-01 0.0
9.916784e-01 1.837270e-01 0.0
9.820044e-01 1.320845e-01 0.0
9.731949e-01 7.880312e-02 0.0
9.662932e-01 2.870824e-02 0.0
9.626171e-01 -1.511128e-02 0.0
9.631338e-01 -5.090489e-02 0.0
9.679817e-01 -7.830737e-02 0.0
9.765743e-01 -9.744699e-02 0.0
9.878536e-01 -1.086881e-01 0.0
1.000532e+00 -1.126393e-01 0.0
1.013266e+00 -1.102157e-01 0.0
1.024866e+00 -1.024879e-01 0.0
1.034390e+00 -9.056633e-02 0.0
1.041150e+00 -7.554121e-02 0.0
1.044646e+00 -5.838416e-02 0.0
1.044431e+00 -3.982214e-02 0.0
1.039881e+00 -2.011301e-02 0.0
1.030132e+00 1.054848e-03 0.0
1.015525e+00 2.270711e-02 0.0
9.970649e-01 4.336706e-02 0.0
9.765702e-01 6.129304e-02 0.0
9.567498e-01 7.425626e-02 0.0
9.408400e-01 7.983457e-02 0.0
9.314032e-01 7.649474e-02 0.0
9.285757e-01 6.532024e-02 0.0
9.311744e-01 4.865361e-02 0.0
9.373977e-01 2.929995e-02 0.0
9.454798e-01 1.004581e-02 0.0
9.542658e-01 -6.874721e-03 0.0
9.633922e-01 -2.039578e-02 0.0
9.727044e-01 -3.001930e-02 0.0
9.820689e-01 -3.567357e-02 0.0
9.912827e-01 -3.771161e-02 0.0
1.000032e+00 -3.681321e-02 0.0
1.007991e+00 -3.373297e-02 0.0
1.014900e+00 -2.923540e-02 0.0
1.020585e+00 -2.397921e-02 0.0
1.024981e+00 -1.852925e-02 0.0
1.027649e+00 -1.223523e-02 0.0
0.000000e+00 -1.197452e-02 0.0
1.000000e+00 -1.010051e-01 0.0
1.002476e+00 -1.018718e-01 0.0
1.006148e+00 -1.171534e-01 0.0
1.013101e+00 -1.507328e-01 0.0
1.028702e+00 -2.099886e-01 0.0
1.065488e+00 -3.088649e-01 0.0
1.151786e+00 -4.574421e-01 0.0
1.369404e+00 -7.913669e-01 0.0
1.355663e+00 -3.380860e-01 0.0
1.307481e+00 -1.458168e-01 0.0
1.271192e+00 -7.040688e-02 0.0
1.245478e+00 -3.024009e-02 0.0
1.223908e+00 -3.413243e-03 0.0
1.200168e+00 1.670697e-02 0.0
1.172252e+00 3.044070e-02 0.0
1.139729e+00 3.822809e-02 0.0
1.100177e+00 4.239876e-02 0.0
1.047129e+00 4.359536e-02 0.0
9.794229e-01 3.112631e-02 0.0
9.120338e-01 -5.582790e-03 0.0
8.734754e-01 -5.563886e-02 0.0
8.673835e-01 -8.342769e-02 0.0
8.862433e-01 -8.514922e-02 0.0
9.251733e-01 -7.322773e-02 0.0
9.779952e-01 -5.456570e-02 0.0
1.035131e+00 -3.334139e-02 0.0
1.086791e+00 -8.770926e-03 0.0
1.129982e+00 1.923304e-02 0.0
1.165320e+00 5.023020e-02 0.0
1.192941e+00 8.519151e-02 0.0
1.211238e+00 1.258055e-01 0.0
1.219085e+00 1.702211e-01 0.0
1.215865e+00 2.158476e-01 0.0
1.201774e+00 2.594403e-01 0.0
1.177829e+00 2.979180e-01 0.0
1.145709e+00 3.288070e-01 0.0
1.107549e+00 3.500313e-01 0.0
1.065372e+00 3.591667e-01 0.0
1.019965e+00 3.528170e-01 0.0
9.708068e-01 3.288084e-01 0.0
9.175880e-01 2.877201e-01 0.0
8.661953e-01 2.272174e-01 0.0
8.297836e-01 1.424354e-01 0.0
8.177091e-01 3.769850e-02 0.0
8.269672e-01 -7.000461e-02 0.0
8.473352e-01 -1.643457e-01 0.0
8.707567e-01 -2.404398e-01 0.0
8.934237e-01 -2.978034e-01 0.0
9.142292e-01 -3.341326e-01 0.0
9.327248e-01 -3.444802e-01 0.0
9.480973e-01 -3.245278e-01 0.0
9.596620e-01 -2.746562e-01 0.0
9.671929e-01 -1.998388e-01 0.0
9.706842e-01 -1.085010e-01 0.0
9.702937e-01 -1.144677e-02 0.0
9.668453e-01 7.987163e-02 0.0
9.617797e-01 1.575489e-01 0.0
9.565409e-01 2.167564e-01 0.0
9.521287e-01 2.541508e-01 0.0
9.487645e-01 2.680447e-01 0.0
9.457711e-01 2.592227e-01 0.0
9.421802e-01 2.309486e-01 0.0
9.373447e-01 1.885330e-01 0.0
9.312936e-01 1.381061e-01 0.0
9.248713e-01 8.519594e-02 0.0
9.195812e-01 3.396875e-02 0.0
9.171480e-01 -1.270758e-02 0.0
9.188767e-01 -5.266308e-02 0.0
9.249063e-01 -8.436644e-02 0.0
9.344334e-01 -1.070036e-01 0.0
9.461630e-01 -1.204472e-01 0.0
9.586594e-01 -1.251652e-01 0.0
9.705112e-01 -1.220971e-01 0.0
9.804823e-01 -1.124884e-01 0.0
9.876162e-01 -9.772976e-02 0.0
9.912090e-01 -7.916359e-02 0.0
9.906973e-01 -5.790196e-02 0.0
9.854713e-01 -3.462565e-02 0.0
9.747260e-01 -9.397250e-03 0.0
9.587493e-01 1.700205e-02 0.0
9.390235e-01 4.240344e-02 0.0
9.177123e-01 6.464869e-02 0.0
8.977103e-01 8.126553e-02 0.0
8.821225e-01 8.981460e-02 0.0
8.731420e-01 8.878556e-02 0.0
8.704745e-01 7.913264e-02 0.0
8.725415e-01 6.322377e-02 0.0
8.774667e-01 4.369883e-02 0.0
8.836627e-01 2.307450e-02 0.0
8.902814e-01 3.397572e-03 0.0
8.973509e-01 -1.397373e-02 0.0
9.051544e-01 -2.822883e-02 0.0
9.138190e-01 -3.871339e-02 0.0
9.232266e-01 -4.511069e-02 0.0
9.330140e-01 -4.752858e-02 0.0
9.426426e-01 -4.647129e-02 0.0
9.515840e-01 -4.270393e-02 0.0
9.594079e-01 -3.708878e-02 0.0
9.658210e-01 -3.042186e-02 0.0
9.706785e-01 -2.341633e-02 0.0
9.734295e-01 -1.501572e-02 0.0
0.000000e+00 -1.463909e-02 0.0
1.000000e+00 -9.476354e-02 0.0
9.937318e-01 -9.571649e-02 0.0
9.863899e-01 -1.098409e-01 0.0
9.770417e-01 -1.414142e-01 0.0
9.662950e-01 -1.992713e-01 0.0
9.595376e-01 -3.021368e-01 0.0
9.838731e-01 -4.818070e-01 0.0
1.143071e+00 -9.505943e-01 0.0
9.968750e-01 -1.918360e-01 0.0
8.676897e-01 -1.657758e-02 0.0
8.058313e-01 -8.577956e-03 0.0
7.680966e-01 7.465182e-03 0.0
7.349482e-01 2.970573e-02 0.0
6.965013e-01 5.512443e-02 0.0
6.449144e-01 8.199813e-02 0.0
5.768207e-01 1.062923e-01 0.0
4.964654e-01 1.227246e-01 0.0
4.227502e-01 1.172810e-01 0.0
3.669431e-01 8.690396e-02 0.0
3.205527e-01 4.077817e-02 0.0
2.813314e-01 -1.644696e-02 0.0
2.668890e-01 -6.901480e-02 0.0
2.856657e-01 -1.039554e-01 0.0
3.376190e-01 -1.252104e-01 0.0
4.201198e-01 -1.370960e-01 0.0
5.264543e-01 -1.397054e-01 0.0
6.442314e-01 -1.265775e-01 0.0
7.578148e-01 -9.437979e-02 0.0
8.507815e-01 -4.276593e-02 0.0
9.177332e-01 1.821027e-02 0.0
9.671861e-01 7.632322e-02 0.0
1.002122e+00 1.352556e-01 0.0
1.022636e+00 1.953040e-01 0.0
1.029085e+00 2.529617e-01 0.0
1.022601e+00 3.043733e-01 0.0
1.004939e+00 3.464388e-01 0.0
9.780867e-01 3.768545e-01 0.0
9.428801e-01 3.943438e-01 0.0
8.959393e-01 3.997283e-01 0.0
8.364703e-01 3.882478e-01 0.0
7.759980e-01 3.481630e-01 0.0
7.362318e-01 2.669541e-01 0.0
7.303797e-01 1.482580e-01 0.0
7.526199e-01 1.542885e-02 0.0
7.867074e-01 -1.041216e-01 0.0
8.210487e-01 -1.987166e-01 0.0
8.498665e-01 -2.692870e-01 0.0
8.713491e-01 -3.193155e-01 0.0
8.863395e-01 -3.491526e-01 0.0
8.963446e-01 -3.545147e-01 0.0
9.021970e-01 -3.304096e-01 0.0
9.043605e-01 -2.768492e-01 0.0
9.036039e-01 -1.991117e-01 0.0
9.009086e-01 -1.058353e-01 0.0
8.971004e-01 -7.667991e-03 0.0
8.929212e-01 8.402129e-02 0.0
8.891237e-01 1.613169e-01 0.0
8.863912e-01 2.194594e-01 0.0
8.850550e-01 2.554576e-01 0.0
8.847763e-01 2.682939e-01 0.0
8.844890e-01 2.594805e-01 0.0
8.829968e-01 2.324113e-01 0.0
8.796415e-01 1.918588e-01 0.0
8.747907e-01 1.429273e-01 0.0
8.698841e-01 9.007308e-02 0.0
8.669329e-01 3.689045e-02 0.0
8.677262e-01 -1.353044e-02 0.0
8.731337e-01 -5.810005e-02 0.0
8.826591e-01 -9.392139e-02 0.0
8.949753e-01 -1.193493e-01 0.0
9.085013e-01 -1.340027e-01 0.0
9.217128e-01 -1.384062e-01 0.0
9.332118e-01 -1.336256e-01 0.0
9.418086e-01 -1.211147e-01 0.0
9.465728e-01 -1.025235e-01 0.0
9.467757e-01 -7.939602e-02 0.0
9.417831e-01 -5.293888e-02 0.0
9.310022e-01 -2.387419e-02 0.0
9.145779e-01 6.997480e-03 0.0
8.944969e-01 3.705354e-02 0.0
8.731820e-01 6.368878e-02 0.0
8.535242e-01 8.427703e-02 0.0
8.383150e-01 9.644516e-02 0.0
8.292513e-01 9.884878e-02 0.0
8.258655e-01 9.214186e-02 0.0
8.264201e-01 7.854851e-02 0.0
8.291437e-01 6.047065e-02 0.0
8.327031e-01 4.010991e-02 0.0
8.365423e-01 1.920575e-02 0.0
8.409129e-01 -1.002517e-03 0.0
8.464980e-01 -1.958837e-02 0.0
8.537052e-01 -3.546548e-02 0.0
8.625381e-01 -4.757585e-02 0.0
8.726411e-01 -5.524319e-02 0.0
8.833975e-01 -5.831451e-02 0.0
8.940518e-01 -5.715510e-02 0.0
9.038858e-01 -5.256747e-02 0.0
9.123211e-01 -4.555366e-02 0.0
9.189744e-01 -3.710465e-02 0.0
9.236506e-01 -2.812206e-02 0.0
9.262146e-01 -1.760928e-02 0.0
0.000000e+00 -1.707835e-02 0.0
1.000000e+00 -8.039381e-02 0.0
9.855721e-01 -8.140145e-02 0.0
9.674431e-01 -9.174131e-02 0.0
9.405023e-01 -1.145028e-01 0.0
8.963140e-01 -1.551125e-01 0.0
8.179832e-01 -2.238354e-01 0.0
6.807328e-01 -3.445861e-01 0.0
1.920028e-01 -4.618103e-01 0.0
-9.951745e-01 4.593840e-01 0.0
0.000000e+00 -3.024637e-02 0.0
-5.694962e-02 3.168121e-02 0.0
-6.927730e-03 -4.258616e-02 0.0
4.843055e-02 -2.568200e-02 0.0
8.359209e-02 1.993345e-02 0.0
9.142778e-02 7.413299e-02 0.0
8.001968e-02 1.176710e-01 0.0
5.961870e-02 1.430962e-01 0.0
2.889693e-02 1.479734e-01 0.0
-1.282826e-02 1.285997e-01 0.0
-6.082421e-02 8.874467e-02 0.0
-1.113981e-01 3.409743e-02 0.0
-1.489356e-01 -3.150675e-02 0.0
-1.514847e-01 -1.014357e-01 0.0
-1.078878e-01 -1.688368e-01 0.0
-1.663057e-02 -2.283827e-01 0.0
1.104827e-01 -2.668481e-01 0.0
2.557094e-01 -2.718336e-01 0.0
4.053538e-01 -2.440537e-01 0.0
5.431494e-01 -1.805909e-01 0.0
6.555847e-01 -9.425457e-02 0.0
7.339607e-01 -2.082233e-03 0.0
7.888299e-01 8.035695e-02 0.0
8.251398e-01 1.589647e-01 0.0
8.442051e-01 2.338668e-01 0.0
8.470751e-01 3.014738e-01 0.0
8.345509e-01 3.589336e-01 0.0
8.065714e-01 4.048046e-01 0.0
7.620196e-01 4.388661e-01 0.0
7.039571e-01 4.577614e-01 0.0
6.477007e-01 4.444748e-01 0.0
6.168578e-01 3.789763e-01 0.0
6.238854e-01 2.598971e-01 0.0
6.618504e-01 1.102635e-01 0.0
7.142978e-01 -3.704801e-02 0.0
7.666887e-01 -1.565419e-01 0.0
8.114363e-01 -2.434938e-01 0.0
8.446667e-01 -3.025468e-01 0.0
8.652288e-01 -3.399071e-01 0.0
8.749712e-01 -3.589245e-01 0.0
8.773399e-01 -3.569129e-01 0.0
8.750988e-01 -3.281980e-01 0.0
8.696781e-01 -2.714579e-01 0.0
8.622597e-01 -1.917228e-01 0.0
8.542455e-01 -9.785057e-02 0.0
8.468738e-01 -3.257689e-04 0.0
8.408672e-01 8.999833e-02 0.0
8.364973e-01 1.656573e-01 0.0
8.338826e-01 2.220446e-01 0.0
8.328066e-01 2.565041e-01 0.0
8.324651e-01 2.686059e-01 0.0
8.315885e-01 2.603275e-01 0.0
8.291413e-01 2.348290e-01 0.0
8.250343e-01 1.959363e-01 0.0
8.204395e-01 1.474926e-01 0.0
8.174094e-01 9.307371e-02 0.0
8.180245e-01 3.624586e-02 0.0
8.235965e-01 -1.913200e-02 0.0
8.340217e-01 -6.855473e-02 0.0
8.479755e-01 -1.079047e-01 0.0
8.636337e-01 -1.350370e-01 0.0
8.792156e-01 -1.496141e-01 0.0
8.931918e-01 -1.524120e-01 0.0
9.042576e-01 -1.447208e-01 0.0
9.113565e-01 -1.282431e-01 0.0
9.136326e-01 -1.048292e-01 0.0
9.103871e-01 -7.618003e-02 0.0
9.011217e-01 -4.370299e-02 0.0
8.859758e-01 -8.757761e-03 0.0
8.669680e-01 2.597574e-02 0.0
8.467097e-01 5.728235e-02 0.0
8.279509e-01 8.241807e-02 0.0
8.131007e-01 9.909769e-02 0.0
8.034518e-01 1.060645e-01 0.0
7.985847e-01 1.036864e-01 0.0
7.968760e-01 9.382103e-02 0.0
7.968108e-01 7.858417e-02 0.0
7.973604e-01 5.989150e-02 0.0
7.982017e-01 3.923910e-02 0.0
7.996809e-01 1.769702e-02 0.0
8.025666e-01 -3.917716e-03 0.0
8.075538e-01 -2.460510e-02 0.0
8.148421e-01 -4.278332e-02 0.0
8.241777e-01 -5.694092e-02 0.0
8.349691e-01 -6.606419e-02 0.0
8.464137e-01 -6.978861e-02 0.0
8.576115e-01 -6.838241e-02 0.0
8.677220e-01 -6.270749e-02 0.0
8.760747e-01 -5.393591e-02 0.0
8.822408e-01 -4.330026e-02 0.0
8.860394e-01 -3.195013e-02 0.0
8.881529e-01 -1.975230e-02 0.0
0.000000e+00 -1.903600e-02 0.0
1.000000e+00 -6.008350e-02 0.0
9.795978e-01 -6.111209e-02 0.0
9.537789e-01 -6.595192e-02 0.0
9.148254e-01 -7.557865e-02 0.0
8.489305e-01 -8.924710e-02 0.0
7.265332e-01 -1.014675e-01 0.0
4.742089e-01 -9.229123e-02 0.0
-7.567648e-03 2.002018e-02 0.0
-9.019001e-05 0.000000e+00 0.0
0.000000e+00 -0.000000e+00 0.0
0.000000e+00 2.984299e-02 0.0
-1.611218e-02 -2.650343e-02 0.0
-5.475077e-02 1.292714e-02 0.0
-8.331025e-02 4.846348e-02 0.0
-1.164792e-01 1.072725e-01 0.0
-1.421274e-01 1.432897e-01 0.0
-1.628747e-01 1.638141e-01 0.0