# vtk DataFile Version 3.0
Vector Field
ASCII
DATASET RECTILINEAR_GRID
DIMENSIONS 102 22 1
X_COORDINATES 102 double
0.000000 0.100000 0.200000 0.300000 0.400000 0.500000 0.600000 0.700000 0.800000 0.900000 1.000000 1.100000 1.200000 1.300000 1.400000 1.500000 1.600000 1.700000 1.800000 1.900000 2.000000 2.100000 2.200000 2.300000 2.400000 2.500000 2.600000 2.700000 2.800000 2.900000 3.000000 3.100000 3.200000 3.300000 3.400000 3.500000 3.600000 3.700000 3.800000 3.900000 4.000000 4.100000 4.200000 4.300000 4.400000 4.500000 4.600000 4.700000 4.800000 4.900000 5.000000 5.100000 5.200000 5.300000 5.400000 5.500000 5.600000 5.700000 5.800000 5.900000 6.000000 6.100000 6.200000 6.300000 6.400000 6.500000 6.600000 6.700000 6.800000 6.900000 7.000000 7.100000 7.200000 7.300000 7.400000 7.500000 7.600000 7.700000 7.800000 7.900000 8.000000 8.100000 8.200000 8.300000 8.400000 8.500000 8.600000 8.700000 8.800000 8.900000 9.000000 9.100000 9.200000 9.300000 9.400000 9.500000 9.600000 9.700000 9.800000 9.900000 10.000000 10.100000 
Y_COORDINATES 22 double
0.000000 0.100000 0.200000 0.300000 0.400000 0.500000 0.600000 0.700000 0.800000 0.900000 1.000000 1.100000 1.200000 1.300000 1.400000 1.500000 1.600000 1.700000 1.800000 1.900000 2.000000 2.100000 
Z_COORDINATES 1 double
0.0
POINT_DATA 2244
VECTORS Velocity double
0.000000e+00 0.000000e+00 0.0
-1.032933e+00 0.000000e+00 0.0
-1.069015e+00 0.000000e+00 0.0
-1.111621e+00 0.000000e+00 0.0
-1.163764e+00 0.000000e+00 0.0
-1.227874e+00 0.000000e+00 0.0
-1.303381e+00 0.000000e+00 0.0
-1.390934e+00 0.000000e+00 0.0
-1.471525e+00 0.000000e+00 0.0
-1.532423e+00 0.000000e+00 0.0
-1.570976e+00 0.000000e+00 0.0
-1.589615e+00 0.000000e+00 0.0
-1.592234e+00 0.000000e+00 0.0
-1.582150e+00 0.000000e+00 0.0
-1.561618e+00 0.000000e+00 0.0
-1.532236e+00 0.000000e+00 0.0
-1.495304e+00 0.000000e+00 0.0
-1.451975e+00 0.000000e+00 0.0
-1.403236e+00 0.000000e+00 0.0
-1.349877e+00 0.000000e+00 0.0
-1.292758e+00 0.000000e+00 0.0
-1.233482e+00 0.000000e+00 0.0
-1.174904e+00 0.000000e+00 0.0
-1.120787e+00 0.000000e+00 0.0
-1.074670e+00 0.000000e+00 0.0
-1.038570e+00 0.000000e+00 0.0
-1.012456e+00 0.000000e+00 0.0
-9.947169e-01 0.000000e+00 0.0
-9.831071e-01 0.000000e+00 0.0
-9.755420e-01 0.000000e+00 0.0
-9.704606e-01 0.000000e+00 0.0
-9.668510e-01 0.000000e+00 0.0
-9.641238e-01 0.000000e+00 0.0
-9.619615e-01 0.000000e+00 0.0
-9.602026e-01 0.000000e+00 0.0
-9.587663e-01 0.000000e+00 0.0
-9.576108e-01 0.000000e+00 0.0
-9.567114e-01 0.000000e+00 0.0
-9.560500e-01 0.000000e+00 0.0
-9.556099e-01 0.000000e+00 0.0
-9.553741e-01 0.000000e+00 0.0
-9.553243e-01 0.000000e+00 0.0
-9.554405e-01 0.000000e+00 0.0
-9.556996e-01 0.000000e+00 0.0
-9.560779e-01 0.000000e+00 0.0
-9.565529e-01 0.000000e+00 0.0
-9.571040e-01 0.000000e+00 0.0
-9.577124e-01 0.000000e+00 0.0
-9.583614e-01 0.000000e+00 0.0
-9.590360e-01 0.000000e+00 0.0
-9.597237e-01 0.000000e+00 0.0
-9.604133e-01 0.000000e+00 0.0
-9.610956e-01 0.000000e+00 0.0
-9.617631e-01 0.000000e+00 0.0
-9.624099e-01 0.000000e+00 0.0
-9.630317e-01 0.000000e+00 0.0
-9.636253e-01 0.000000e+00 0.0
-9.641885e-01 0.000000e+00 0.0
-9.647201e-01 0.000000e+00 0.0
-9.652199e-01 0.000000e+00 0.0
-9.656877e-01 0.000000e+00 0.0
-9.661244e-01 0.000000e+00 0.0
-9.665308e-01 0.000000e+00 0.0
-9.669083e-01 0.000000e+00 0.0
-9.672582e-01 0.000000e+00 0.0
-9.675822e-01 0.000000e+00 0.0
-9.678818e-01 0.000000e+00 0.0
-9.681588e-01 0.000000e+00 0.0
-9.684147e-01 0.000000e+00 0.0
-9.686512e-01 0.000000e+00 0.0
-9.688701e-01 0.000000e+00 0.0
-9.690727e-01 0.000000e+00 0.0
-9.692607e-01 0.000000e+00 0.0
-9.694354e-01 0.000000e+00 0.0
-9.695978e-01 0.000000e+00 0.0
-9.697490e-01 0.000000e+00 0.0
-9.698899e-01 0.000000e+00 0.0
-9.700217e-01 0.000000e+00 0.0
-9.701450e-01 0.000000e+00 0.0
-9.702608e-01 0.000000e+00 0.0
-9.703699e-01 0.000000e+00 0.0
-9.704728e-01 0.000000e+00 0.0
-9.705703e-01 0.000000e+00 0.0
-9.706629e-01 0.000000e+00 0.0
-9.707512e-01 0.000000e+00 0.0
-9.708356e-01 0.000000e+00 0.0
-9.709167e-01 0.000000e+00 0.0
-9.709948e-01 0.000000e+00 0.0
-9.710705e-01 0.000000e+00 0.0
-9.711442e-01 0.000000e+00 0.0
-9.712165e-01 0.000000e+00 0.0
-9.712879e-01 0.000000e+00 0.0
-9.713595e-01 0.000000e+00 0.0
-9.714323e-01 0.000000e+00 0.0
-9.715085e-01 0.000000e+00 0.0
-9.715913e-01 0.000000e+00 0.0
-9.716870e-01 0.000000e+00 0.0
-9.718099e-01 0.000000e+00 0.0
-9.719937e-01 0.000000e+00 0.0
-9.723819e-01 0.000000e+00 0.0
-9.723819e-01 0.000000e+00 0.0
0.000000e+00 0.000000e+00 0.0
1.000000e+00 -3.264549e-02 0.0
1.032785e+00 -3.250585e-02 0.0
1.068723e+00 -3.577689e-02 0.0
1.111188e+00 -4.230507e-02 0.0
1.163205e+00 -5.185665e-02 0.0
1.227227e+00 -6.386056e-02 0.0
1.302715e+00 -7.532831e-02 0.0
1.390378e+00 -8.750226e-02 0.0
1.471304e+00 -8.076553e-02 0.0
1.532797e+00 -6.133159e-02 0.0
1.572149e+00 -3.919191e-02 0.0
1.591687e+00 -1.937764e-02 0.0
1.595225e+00 -3.376673e-03 0.0
1.586067e+00 9.318518e-03 0.0
1.566456e+00 1.977169e-02 0.0
1.537960e+00 2.865633e-02 0.0
1.501850e+00 3.627025e-02 0.0
1.459279e+00 4.273228e-02 0.0
1.411271e+00 4.816808e-02 0.0
1.358670e+00 5.276154e-02 0.0
1.302296e+00 5.653487e-02 0.0
1.243530e+00 5.892690e-02 0.0
1.184909e+00 5.878119e-02 0.0
1.129982e+00 5.508828e-02 0.0
1.082348e+00 4.779484e-02 0.0
1.044363e+00 3.814559e-02 0.0
1.016414e+00 2.810973e-02 0.0
9.971803e-01 1.939432e-02 0.0
9.845116e-01 1.282943e-02 0.0
9.762712e-01 8.401087e-03 0.0
9.707908e-01 5.641240e-03 0.0
9.669542e-01 3.997382e-03 0.0
9.640951e-01 3.019846e-03 0.0
9.618485e-01 2.407452e-03 0.0
9.600261e-01 1.983160e-03 0.0
9.585343e-01 1.652675e-03 0.0
9.573254e-01 1.369706e-03 0.0
9.563729e-01 1.113341e-03 0.0
9.556585e-01 8.753167e-04 0.0
9.551661e-01 6.532540e-04 0.0
9.548797e-01 4.473042e-04 0.0
9.547820e-01 2.585995e-04 0.0
9.548541e-01 8.881180e-05 0.0
9.550743e-01 -5.932699e-05 0.0
9.554192e-01 -1.839714e-04 0.0
9.558663e-01 -2.860962e-04 0.0
9.563946e-01 -3.673310e-04 0.0
9.569850e-01 -4.295039e-04 0.0
9.576206e-01 -4.745401e-04 0.0
9.582860e-01 -5.044079e-04 0.0
9.589680e-01 -5.210549e-04 0.0
9.596554e-01 -5.263047e-04 0.0
9.603382e-01 -5.218126e-04 0.0
9.610086e-01 -5.093463e-04 0.0
9.616602e-01 -4.905715e-04 0.0
9.622883e-01 -4.669694e-04 0.0
9.628892e-01 -4.398343e-04 0.0
9.634606e-01 -4.102801e-04 0.0
9.640009e-01 -3.792496e-04 0.0
9.645095e-01 -3.475269e-04 0.0
9.649864e-01 -3.157514e-04 0.0
9.654320e-01 -2.844330e-04 0.0
9.658471e-01 -2.539678e-04 0.0
9.662329e-01 -2.246538e-04 0.0
9.665908e-01 -1.967056e-04 0.0
9.669222e-01 -1.702679e-04 0.0
9.672289e-01 -1.454286e-04 0.0
9.675123e-01 -1.222289e-04 0.0
9.677742e-01 -1.006776e-04 0.0
9.680162e-01 -8.077131e-05 0.0
9.682399e-01 -6.250079e-05 0.0
9.684469e-01 -4.582889e-05 0.0
9.686389e-01 -3.066580e-05 0.0
9.688170e-01 -1.686442e-05 0.0
9.689825e-01 -4.249199e-06 0.0
9.691364e-01 7.326480e-06 0.0
9.692798e-01 1.789658e-05 0.0
9.694136e-01 2.750074e-05 0.0
9.695387e-01 3.619694e-05 0.0
9.696559e-01 4.404967e-05 0.0
9.697661e-01 5.112375e-05 0.0
9.698699e-01 5.748146e-05 0.0
9.699680e-01 6.318118e-05 0.0
9.700611e-01 6.827700e-05 0.0
9.701496e-01 7.281663e-05 0.0
9.702341e-01 7.684011e-05 0.0
9.703150e-01 8.037804e-05 0.0
9.703929e-01 8.344880e-05 0.0
9.704682e-01 8.605422e-05 0.0
9.705414e-01 8.817244e-05 0.0
9.706130e-01 8.974579e-05 0.0
9.706837e-01 9.065308e-05 0.0
9.707544e-01 9.067245e-05 0.0
9.708263e-01 8.943604e-05 0.0
9.709014e-01 8.624169e-05 0.0
9.709831e-01 7.970275e-05 0.0
9.710776e-01 6.682381e-05 0.0
9.711991e-01 3.984490e-05 0.0
9.713814e-01 -2.090644e-05 0.0
9.717673e-01 -2.245491e-04 0.0
9.723819e-01 -4.532120e-04 0.0
0.000000e+00 -4.513630e-04 0.0
1.000000e+00 -6.581606e-02 0.0
1.033186e+00 -6.553147e-02 0.0
1.069564e+00 -7.211323e-02 0.0
1.112658e+00 -8.535638e-02 0.0
1.165836e+00 -1.049936e-01 0.0
1.232304e+00 -1.302866e-01 0.0
1.311610e+00 -1.545922e-01 0.0
1.410336e+00 -1.861861e-01 0.0
1.497398e+00 -1.677859e-01 0.0
1.559984e+00 -1.238755e-01 0.0
1.598643e+00 -7.780861e-02 0.0
1.617545e+00 -3.823775e-02 0.0
1.621218e+00 -7.008427e-03 0.0
1.612965e+00 1.761325e-02 0.0
1.594769e+00 3.800963e-02 0.0
1.567941e+00 5.552685e-02 0.0
1.533544e+00 7.070905e-02 0.0
1.492566e+00 8.375218e-02 0.0
1.445937e+00 9.483916e-02 0.0
1.394547e+00 1.041933e-01 0.0
1.339417e+00 1.117063e-01 0.0
1.282044e+00 1.163417e-01 0.0
1.224847e+00 1.160203e-01 0.0
1.171190e+00 1.087879e-01 0.0
1.124421e+00 9.460489e-02 0.0
1.086730e+00 7.587919e-02 0.0
1.058509e+00 5.637206e-02 0.0
1.038582e+00 3.936338e-02 0.0
1.024975e+00 2.647832e-02 0.0
1.015706e+00 1.771199e-02 0.0
1.009226e+00 1.216307e-02 0.0
1.004493e+00 8.773005e-03 0.0
1.000875e+00 6.679700e-03 0.0
9.980184e-01 5.305864e-03 0.0
9.957307e-01 4.312819e-03 0.0
9.939045e-01 3.520904e-03 0.0
9.924741e-01 2.842038e-03 0.0
9.913935e-01 2.235849e-03 0.0
9.906253e-01 1.685562e-03 0.0
9.901352e-01 1.185249e-03 0.0
9.898909e-01 7.336211e-04 0.0
9.898602e-01 3.312753e-04 0.0
9.900118e-01 -2.082451e-05 0.0
9.903172e-01 -3.227158e-04 0.0
9.907508e-01 -5.756001e-04 0.0
9.912887e-01 -7.819515e-04 0.0
9.919083e-01 -9.449175e-04 0.0
9.925888e-01 -1.068087e-03 0.0
9.933117e-01 -1.155363e-03 0.0
9.940601e-01 -1.210854e-03 0.0
9.948198e-01 -1.238757e-03 0.0
9.955788e-01 -1.243295e-03 0.0
9.963276e-01 -1.228588e-03 0.0
9.970585e-01 -1.198252e-03 0.0
9.977655e-01 -1.155541e-03 0.0
9.984440e-01 -1.103392e-03 0.0
9.990906e-01 -1.044401e-03 0.0
9.997031e-01 -9.808161e-04 0.0
1.000280e+00 -9.145449e-04 0.0
1.000822e+00 -8.471719e-04 0.0
1.001328e+00 -7.799847e-04 0.0
1.001800e+00 -7.140044e-04 0.0
1.002238e+00 -6.500183e-04 0.0
1.002644e+00 -5.886120e-04 0.0
1.003020e+00 -5.302008e-04 0.0
1.003367e+00 -4.750580e-04 0.0
1.003686e+00 -4.233418e-04 0.0
1.003981e+00 -3.751184e-04 0.0
1.004253e+00 -3.303866e-04 0.0
1.004504e+00 -2.890975e-04 0.0
1.004734e+00 -2.511568e-04 0.0
1.004947e+00 -2.164192e-04 0.0
1.005143e+00 -1.846950e-04 0.0
1.005324e+00 -1.557703e-04 0.0
1.005491e+00 -1.294303e-04 0.0
1.005646e+00 -1.054781e-04 0.0
1.005790e+00 -8.374667e-05 0.0
1.005924e+00 -6.407743e-05 0.0
1.006048e+00 -4.631438e-05 0.0
1.006165e+00 -3.030613e-05 0.0
1.006274e+00 -1.590794e-05 0.0
1.006376e+00 -2.983689e-06 0.0
1.006473e+00 8.592278e-06 0.0
1.006564e+00 1.893299e-05 0.0
1.006651e+00 2.813836e-05 0.0
1.006734e+00 3.629278e-05 0.0
1.006813e+00 4.346179e-05 0.0
1.006889e+00 4.968716e-05 0.0
1.006962e+00 5.497872e-05 0.0
1.007033e+00 5.930126e-05 0.0
1.007102e+00 6.255341e-05 0.0
1.007170e+00 6.453764e-05 0.0
1.007238e+00 6.489145e-05 0.0
1.007307e+00 6.294150e-05 0.0
1.007377e+00 5.751700e-05 0.0
1.007453e+00 4.647563e-05 0.0
1.007536e+00 2.571007e-05 0.0
1.007631e+00 -1.318265e-05 0.0
1.007739e+00 -8.655472e-05 0.0
1.007789e+00 -2.322464e-04 0.0
1.007791e+00 -4.137834e-04 0.0
0.000000e+00 -4.115193e-04 0.0
1.000000e+00 -9.548102e-02 0.0
1.029681e+00 -9.505198e-02 0.0
1.062692e+00 -1.050822e-01 0.0
1.102887e+00 -1.255100e-01 0.0
1.154481e+00 -1.565458e-01 0.0
1.222407e+00 -1.981706e-01 0.0
1.307478e+00 -2.396214e-01 0.0
1.429105e+00 -3.077706e-01 0.0
1.523414e+00 -2.620529e-01 0.0
1.582480e+00 -1.828994e-01 0.0
1.615326e+00 -1.106133e-01 0.0
1.629328e+00 -5.219765e-02 0.0
1.629927e+00 -7.565790e-03 0.0
1.620208e+00 2.737446e-02 0.0
1.601537e+00 5.672224e-02 0.0
1.574692e+00 8.241406e-02 0.0
1.540366e+00 1.050769e-01 0.0
1.499311e+00 1.248485e-01 0.0
1.452376e+00 1.418162e-01 0.0
1.400542e+00 1.560698e-01 0.0
1.345002e+00 1.672884e-01 0.0
1.287363e+00 1.740224e-01 0.0
1.230045e+00 1.733796e-01 0.0
1.176249e+00 1.626264e-01 0.0
1.129058e+00 1.418374e-01 0.0
1.090462e+00 1.145170e-01 0.0
1.060872e+00 8.600481e-02 0.0
1.039333e+00 6.094380e-02 0.0
1.024169e+00 4.168434e-02 0.0
1.013608e+00 2.831553e-02 0.0
1.006166e+00 1.964614e-02 0.0
1.000793e+00 1.418861e-02 0.0
9.968112e-01 1.070318e-02 0.0
9.938121e-01 8.346929e-03 0.0
9.915504e-01 6.616473e-03 0.0
9.898740e-01 5.239287e-03 0.0
9.886803e-01 4.077714e-03 0.0
9.878937e-01 3.064376e-03 0.0
9.874533e-01 2.167942e-03 0.0
9.873064e-01 1.374187e-03 0.0
9.874058e-01 6.761299e-04 0.0
9.877090e-01 7.006191e-05 0.0
9.881792e-01 -4.490088e-04 0.0
9.887839e-01 -8.854694e-04 0.0
9.894941e-01 -1.243803e-03 0.0
9.902834e-01 -1.529265e-03 0.0
9.911283e-01 -1.747793e-03 0.0
9.920081e-01 -1.905846e-03 0.0
9.929049e-01 -2.010210e-03 0.0
9.938039e-01 -2.067803e-03 0.0
9.946926e-01 -2.085477e-03 0.0
9.955611e-01 -2.069833e-03 0.0
9.964016e-01 -2.027043e-03 0.0
9.972081e-01 -1.962702e-03 0.0
9.979764e-01 -1.881819e-03 0.0
9.987038e-01 -1.788807e-03 0.0
9.993889e-01 -1.687479e-03 0.0
1.000031e+00 -1.581072e-03 0.0
1.000631e+00 -1.472282e-03 0.0
1.001189e+00 -1.363309e-03 0.0
1.001707e+00 -1.255905e-03 0.0
1.002187e+00 -1.151430e-03 0.0
1.002630e+00 -1.050905e-03 0.0
1.003038e+00 -9.550649e-04 0.0
1.003414e+00 -8.644038e-04 0.0
1.003760e+00 -7.792195e-04 0.0
1.004079e+00 -6.996517e-04 0.0
1.004371e+00 -6.257162e-04 0.0
1.004640e+00 -5.573349e-04 0.0
1.004888e+00 -4.943580e-04 0.0
1.005115e+00 -4.365745e-04 0.0
1.005325e+00 -3.837212e-04 0.0
1.005518e+00 -3.355004e-04 0.0
1.005695e+00 -2.916007e-04 0.0
1.005860e+00 -2.517132e-04 0.0
1.006012e+00 -2.155406e-04 0.0
1.006153e+00 -1.828013e-04 0.0
1.006284e+00 -1.532265e-04 0.0
1.006407e+00 -1.265598e-04 0.0
1.006521e+00 -1.025584e-04 0.0
1.006628e+00 -8.099415e-05 0.0
1.006729e+00 -6.165518e-05 0.0
1.006824e+00 -4.434719e-05 0.0
1.006914e+00 -2.889488e-05 0.0
1.006999e+00 -1.514363e-05 0.0
1.007081e+00 -2.961943e-06 0.0
1.007158e+00 7.754467e-06 0.0
1.007233e+00 1.707606e-05 0.0
1.007305e+00 2.502912e-05 0.0
1.007375e+00 3.157885e-05 0.0
1.007443e+00 3.660273e-05 0.0
1.007510e+00 3.984714e-05 0.0
1.007576e+00 4.084677e-05 0.0
1.007642e+00 3.878853e-05 0.0
1.007709e+00 3.229863e-05 0.0
1.007779e+00 1.904093e-05 0.0
1.007852e+00 -4.975957e-06 0.0
1.007927e+00 -4.647564e-05 0.0
1.007998e+00 -1.157017e-04 0.0
1.008032e+00 -2.235870e-04 0.0
1.008023e+00 -3.624506e-04 0.0
0.000000e+00 -3.599717e-04 0.0
1.000000e+00 -1.197529e-01 0.0
1.024290e+00 -1.191816e-01 0.0
1.051892e+00 -1.326423e-01 0.0
1.086974e+00 -1.605497e-01 0.0
1.135001e+00 -2.045307e-01 0.0
1.203731e+00 -2.668589e-01 0.0
1.298640e+00 -3.344884e-01 0.0
1.457158e+00 -4.662466e-01 0.0
1.549665e+00 -3.545186e-01 0.0
1.593937e+00 -2.271297e-01 0.0
1.614735e+00 -1.313690e-01 0.0
1.621720e+00 -5.914107e-02 0.0
1.618906e+00 -4.709100e-03 0.0
1.608207e+00 3.811543e-02 0.0
1.589885e+00 7.508523e-02 0.0
1.563914e+00 1.084273e-01 0.0
1.530516e+00 1.385168e-01 0.0
1.490178e+00 1.652288e-01 0.0
1.443645e+00 1.883912e-01 0.0
1.391966e+00 2.077908e-01 0.0
1.336488e+00 2.228077e-01 0.0
1.278818e+00 2.317342e-01 0.0
1.221207e+00 2.310332e-01 0.0
1.166822e+00 2.170528e-01 0.0
1.118784e+00 1.899175e-01 0.0
1.079200e+00 1.541429e-01 0.0
1.048675e+00 1.165713e-01 0.0
1.026438e+00 8.322290e-02 0.0
1.010902e+00 5.726257e-02 0.0
1.000302e+00 3.895769e-02 0.0
9.931236e-01 2.686631e-02 0.0
9.882603e-01 1.909387e-02 0.0
9.849760e-01 1.402945e-02 0.0
9.828014e-01 1.056345e-02 0.0
9.814416e-01 8.018225e-03 0.0
9.807048e-01 6.018066e-03 0.0
9.804558e-01 4.368656e-03 0.0
9.805945e-01 2.967646e-03 0.0
9.810412e-01 1.763251e-03 0.0
9.817274e-01 7.299418e-04 0.0
9.825978e-01 -1.523216e-04 0.0
9.836090e-01 -8.991171e-04 0.0
9.847230e-01 -1.521062e-03 0.0
9.859066e-01 -2.027036e-03 0.0
9.871307e-01 -2.425958e-03 0.0
9.883708e-01 -2.727322e-03 0.0
9.896061e-01 -2.941141e-03 0.0
9.908200e-01 -3.077745e-03 0.0
9.919993e-01 -3.147494e-03 0.0
9.931340e-01 -3.160502e-03 0.0
9.942169e-01 -3.126400e-03 0.0
9.952432e-01 -3.054126e-03 0.0
9.962100e-01 -2.951823e-03 0.0
9.971161e-01 -2.826737e-03 0.0
9.979615e-01 -2.685194e-03 0.0
9.987473e-01 -2.532619e-03 0.0
9.994754e-01 -2.373579e-03 0.0
1.000148e+00 -2.211862e-03 0.0
1.000769e+00 -2.050537e-03 0.0
1.001339e+00 -1.892036e-03 0.0
1.001864e+00 -1.738233e-03 0.0
1.002345e+00 -1.590526e-03 0.0
1.002786e+00 -1.449907e-03 0.0
1.003190e+00 -1.317035e-03 0.0
1.003560e+00 -1.192291e-03 0.0
1.003898e+00 -1.075839e-03 0.0
1.004209e+00 -9.676685e-04 0.0
1.004493e+00 -8.676337e-04 0.0
1.004753e+00 -7.754900e-04 0.0
1.004991e+00 -6.909174e-04 0.0
1.005210e+00 -6.135379e-04 0.0
1.005412e+00 -5.429329e-04 0.0
1.005597e+00 -4.786619e-04 0.0
1.005768e+00 -4.202807e-04 0.0
1.005925e+00 -3.673533e-04 0.0
1.006071e+00 -3.194585e-04 0.0
1.006207e+00 -2.761945e-04 0.0
1.006333e+00 -2.371794e-04 0.0
1.006450e+00 -2.020533e-04 0.0
1.006560e+00 -1.704787e-04 0.0
1.006664e+00 -1.421418e-04 0.0
1.006761e+00 -1.167532e-04 0.0
1.006853e+00 -9.404866e-05 0.0
1.006940e+00 -7.378989e-05 0.0
1.007022e+00 -5.576644e-05 0.0
1.007101e+00 -3.979807e-05 0.0
1.007177e+00 -2.573911e-05 0.0
1.007249e+00 -1.348556e-05 0.0
1.007320e+00 -2.986556e-06 0.0
1.007388e+00 5.737411e-06 0.0
1.007454e+00 1.256541e-05 0.0
1.007518e+00 1.722954e-05 0.0
1.007582e+00 1.923823e-05 0.0
1.007645e+00 1.775820e-05 0.0
1.007708e+00 1.143641e-05 0.0
1.007771e+00 -1.871397e-06 0.0
1.007834e+00 -2.545483e-05 0.0
1.007893e+00 -6.400921e-05 0.0
1.007943e+00 -1.231700e-04 0.0
1.007967e+00 -2.052310e-04 0.0
1.007957e+00 -3.104608e-04 0.0
0.000000e+00 -3.078042e-04 0.0
1.000000e+00 -1.366566e-01 0.0
1.016929e+00 -1.359495e-01 0.0
1.036655e+00 -1.523272e-01 0.0
1.063212e+00 -1.870647e-01 0.0
1.103136e+00 -2.444127e-01 0.0
1.167633e+00 -3.313137e-01 0.0
1.272202e+00 -4.390159e-01 0.0
1.473401e+00 -6.674034e-01 0.0
1.534936e+00 -4.160117e-01 0.0
1.546089e+00 -2.382412e-01 0.0
1.547927e+00 -1.331651e-01 0.0
1.547269e+00 -5.844144e-02 0.0
1.543062e+00 -4.595035e-04 0.0
1.534617e+00 4.660164e-02 0.0
1.520325e+00 8.941930e-02 0.0
1.499008e+00 1.297867e-01 0.0
1.470395e+00 1.671715e-01 0.0
1.434696e+00 2.009692e-01 0.0
1.392481e+00 2.306488e-01 0.0
1.344734e+00 2.555792e-01 0.0
1.292836e+00 2.747477e-01 0.0
1.238324e+00 2.862878e-01 0.0
1.183202e+00 2.861976e-01 0.0
1.130756e+00 2.695411e-01 0.0
1.084373e+00 2.363425e-01 0.0
1.046415e+00 1.921430e-01 0.0
1.017618e+00 1.454103e-01 0.0
9.972076e-01 1.036747e-01 0.0
9.835434e-01 7.096872e-02 0.0
9.748263e-01 4.771674e-02 0.0
9.695422e-01 3.219232e-02 0.0
9.665954e-01 2.208265e-02 0.0
9.652536e-01 1.541320e-02 0.0
9.650236e-01 1.083537e-02 0.0
9.655772e-01 7.506621e-03 0.0
9.666912e-01 4.946039e-03 0.0
9.681949e-01 2.906901e-03 0.0
9.699582e-01 1.246324e-03 0.0
9.718870e-01 -1.236132e-04 0.0
9.739191e-01 -1.260177e-03 0.0
9.760057e-01 -2.196952e-03 0.0
9.781051e-01 -2.956510e-03 0.0
9.801821e-01 -3.556098e-03 0.0
9.822083e-01 -4.011222e-03 0.0
9.841614e-01 -4.337081e-03 0.0
9.860250e-01 -4.548915e-03 0.0
9.877877e-01 -4.661823e-03 0.0
9.894425e-01 -4.690553e-03 0.0
9.909862e-01 -4.649167e-03 0.0
9.924183e-01 -4.550688e-03 0.0
9.937410e-01 -4.407041e-03 0.0
9.949578e-01 -4.228925e-03 0.0
9.960737e-01 -4.025702e-03 0.0
9.970944e-01 -3.805418e-03 0.0
9.980261e-01 -3.574835e-03 0.0
9.988750e-01 -3.339566e-03 0.0
9.996477e-01 -3.104180e-03 0.0
1.000350e+00 -2.872313e-03 0.0
1.000988e+00 -2.646783e-03 0.0
1.001568e+00 -2.429708e-03 0.0
1.002095e+00 -2.222610e-03 0.0
1.002573e+00 -2.026518e-03 0.0
1.003007e+00 -1.842058e-03 0.0
1.003401e+00 -1.669523e-03 0.0
1.003760e+00 -1.508951e-03 0.0
1.004086e+00 -1.360173e-03 0.0
1.004384e+00 -1.222868e-03 0.0
1.004655e+00 -1.096601e-03 0.0
1.004902e+00 -9.808589e-04 0.0
1.005128e+00 -8.750703e-04 0.0
1.005335e+00 -7.786297e-04 0.0
1.005526e+00 -6.909134e-04 0.0
1.005700e+00 -6.112968e-04 0.0
1.005861e+00 -5.391678e-04 0.0
1.006010e+00 -4.739362e-04 0.0
1.006147e+00 -4.150387e-04 0.0
1.006275e+00 -3.619426e-04 0.0
1.006394e+00 -3.141469e-04 0.0
1.006506e+00 -2.711836e-04 0.0
1.006610e+00 -2.326183e-04 0.0
1.006708e+00 -1.980496e-04 0.0
1.006800e+00 -1.671097e-04 0.0
1.006888e+00 -1.394639e-04 0.0
1.006971e+00 -1.148112e-04 0.0
1.007050e+00 -9.288514e-05 0.0
1.007126e+00 -7.345567e-05 0.0
1.007198e+00 -5.633332e-05 0.0
1.007268e+00 -4.137574e-05 0.0
1.007336e+00 -2.849887e-05 0.0
1.007402e+00 -1.769457e-05 0.0
1.007465e+00 -9.058302e-06 0.0
1.007527e+00 -2.831809e-06 0.0
1.007588e+00 5.321464e-07 0.0
1.007648e+00 2.775058e-07 0.0
1.007706e+00 -4.779516e-06 0.0
1.007763e+00 -1.640029e-05 0.0
1.007816e+00 -3.703900e-05 0.0
1.007864e+00 -6.972153e-05 0.0
1.007900e+00 -1.173175e-04 0.0
1.007917e+00 -1.793950e-04 0.0
1.007906e+00 -2.579121e-04 0.0
0.000000e+00 -2.551091e-04 0.0
1.000000e+00 -1.444200e-01 0.0
1.007802e+00 -1.435908e-01 0.0
1.016992e+00 -1.614756e-01 0.0
1.030260e+00 -2.002908e-01 0.0
1.053385e+00 -2.674955e-01 0.0
1.099030e+00 -3.769176e-01 0.0
1.195799e+00 -5.357430e-01 0.0
1.427132e+00 -8.986940e-01 0.0
1.404014e+00 -3.928523e-01 0.0
1.351030e+00 -1.852153e-01 0.0
1.324408e+00 -1.065010e-01 0.0
1.318333e+00 -5.232376e-02 0.0
1.319536e+00 -1.621337e-03 0.0
1.322291e+00 4.388870e-02 0.0
1.321790e+00 8.996248e-02 0.0
1.314914e+00 1.367047e-01 0.0
1.300828e+00 1.812991e-01 0.0
1.279273e+00 2.225658e-01 0.0
1.250440e+00 2.595245e-01 0.0
1.215114e+00 2.909463e-01 0.0
1.174677e+00 3.152269e-01 0.0
1.130768e+00 3.302393e-01 0.0
1.085289e+00 3.317178e-01 0.0
1.041733e+00 3.131398e-01 0.0
1.003740e+00 2.743767e-01 0.0
9.737853e-01 2.221399e-01 0.0
9.525258e-01 1.667117e-01 0.0
9.390549e-01 1.171876e-01 0.0
9.316904e-01 7.837521e-02 0.0
9.287017e-01 5.074741e-02 0.0
9.286779e-01 3.225800e-02 0.0
9.305968e-01 2.020573e-02 0.0
9.337847e-01 1.226722e-02 0.0
9.377347e-01 6.927316e-03 0.0
9.420774e-01 3.205914e-03 0.0
9.465634e-01 5.019986e-04 0.0
9.510571e-01 -1.544822e-03 0.0
9.554766e-01 -3.131225e-03 0.0
9.597643e-01 -4.369279e-03 0.0
9.638742e-01 -5.328113e-03 0.0
9.677722e-01 -6.053016e-03 0.0
9.714346e-01 -6.576884e-03 0.0
9.748465e-01 -6.926059e-03 0.0
9.780012e-01 -7.123951e-03 0.0
9.808986e-01 -7.192484e-03 0.0
9.835442e-01 -7.152499e-03 0.0
9.859477e-01 -7.023335e-03 0.0
9.881219e-01 -6.822775e-03 0.0
9.900817e-01 -6.566921e-03 0.0
9.918431e-01 -6.270076e-03 0.0
9.934227e-01 -5.944669e-03 0.0
9.948371e-01 -5.601286e-03 0.0
9.961021e-01 -5.248670e-03 0.0
9.972326e-01 -4.893982e-03 0.0
9.982428e-01 -4.542978e-03 0.0
9.991454e-01 -4.200158e-03 0.0
9.999522e-01 -3.868943e-03 0.0
1.000674e+00 -3.551840e-03 0.0
1.001320e+00 -3.250587e-03 0.0
1.001898e+00 -2.966296e-03 0.0
1.002417e+00 -2.699561e-03 0.0
1.002883e+00 -2.450572e-03 0.0
1.003302e+00 -2.219192e-03 0.0
1.003680e+00 -2.005038e-03 0.0
1.004021e+00 -1.807542e-03 0.0
1.004329e+00 -1.625999e-03 0.0
1.004607e+00 -1.459611e-03 0.0
1.004860e+00 -1.307523e-03 0.0
1.005090e+00 -1.168847e-03 0.0
1.005300e+00 -1.042682e-03 0.0
1.005492e+00 -9.281339e-04 0.0
1.005667e+00 -8.243244e-04 0.0
1.005828e+00 -7.304057e-04 0.0
1.005977e+00 -6.455680e-04 0.0
1.006114e+00 -5.690452e-04 0.0
1.006241e+00 -5.001171e-04 0.0
1.006359e+00 -4.381108e-04 0.0
1.006470e+00 -3.824011e-04 0.0
1.006573e+00 -3.324092e-04 0.0
1.006670e+00 -2.876022e-04 0.0
1.006762e+00 -2.474916e-04 0.0
1.006848e+00 -2.116318e-04 0.0
1.006930e+00 -1.796192e-04 0.0
1.007009e+00 -1.510912e-04 0.0
1.007084e+00 -1.257261e-04 0.0
1.007156e+00 -1.032444e-04 0.0
1.007225e+00 -8.341125e-05 0.0
1.007291e+00 -6.604226e-05 0.0
1.007356e+00 -5.101267e-05 0.0
1.007419e+00 -3.827269e-05 0.0
1.007480e+00 -2.787089e-05 0.0
1.007539e+00 -1.998914e-05 0.0
1.007597e+00 -1.499210e-05 0.0
1.007652e+00 -1.349199e-05 0.0
1.007706e+00 -1.642365e-05 0.0
1.007757e+00 -2.510756e-05 0.0
1.007803e+00 -4.123643e-05 0.0
1.007842e+00 -6.663582e-05 0.0
1.007870e+00 -1.026404e-04 0.0
1.007880e+00 -1.480916e-04 0.0
1.007869e+00 -2.047891e-04 0.0
0.000000e+00 -2.018711e-04 0.0
1.000000e+00 -1.420223e-01 0.0
9.976634e-01 -1.410936e-01 0.0
9.942589e-01 -1.580292e-01 0.0
9.892417e-01 -1.952317e-01 0.0
9.833121e-01 -2.615240e-01 0.0
9.815829e-01 -3.751465e-01 0.0
1.010622e+00 -5.647399e-01 0.0
1.173474e+00 -1.061504e+00 0.0
9.973012e-01 -2.167568e-01 0.0
8.390332e-01 -2.702411e-02 0.0
7.759406e-01 -4.336662e-02 0.0
7.673241e-01 -4.366528e-02 0.0
7.940984e-01 -2.835381e-02 0.0
8.431676e-01 -5.138559e-03 0.0
8.862456e-01 4.692639e-02 0.0
9.181586e-01 1.048337e-01 0.0
9.405566e-01 1.589430e-01 0.0
9.534459e-01 2.097185e-01 0.0
9.566032e-01 2.564092e-01 0.0
9.504166e-01 2.971748e-01 0.0
9.362479e-01 3.294376e-01 0.0
9.163753e-01 3.501538e-01 0.0
8.937323e-01 3.544027e-01 0.0
8.721376e-01 3.347764e-01 0.0
8.551197e-01 2.914365e-01 0.0
8.446913e-01 2.326102e-01 0.0
8.410290e-01 1.704159e-01 0.0
8.430541e-01 1.152044e-01 0.0
8.492512e-01 7.222005e-02 0.0
8.581728e-01 4.186769e-02 0.0
8.686270e-01 2.184578e-02 0.0
8.795825e-01 9.292136e-03 0.0
8.903865e-01 1.505214e-03 0.0
9.008255e-01 -3.469711e-03 0.0
9.108310e-01 -6.757595e-03 0.0
9.203443e-01 -8.969372e-03 0.0
9.292972e-01 -1.045572e-02 0.0
9.376313e-01 -1.142336e-02 0.0
9.453089e-01 -1.200494e-02 0.0
9.523142e-01 -1.229145e-02 0.0
9.586521e-01 -1.234889e-02 0.0
9.643445e-01 -1.222734e-02 0.0
9.694255e-01 -1.196507e-02 0.0
9.739370e-01 -1.159345e-02 0.0
9.779251e-01 -1.113866e-02 0.0
9.814376e-01 -1.062297e-02 0.0
9.845221e-01 -1.006581e-02 0.0
9.872249e-01 -9.483628e-03 0.0
9.895900e-01 -8.890028e-03 0.0
9.916578e-01 -8.295872e-03 0.0
9.934650e-01 -7.709818e-03 0.0
9.950444e-01 -7.138706e-03 0.0
9.964255e-01 -6.587691e-03 0.0
9.976340e-01 -6.060523e-03 0.0
9.986928e-01 -5.559775e-03 0.0
9.996218e-01 -5.087060e-03 0.0
1.000438e+00 -4.643209e-03 0.0
1.001157e+00 -4.228433e-03 0.0
1.001791e+00 -3.842455e-03 0.0
1.002351e+00 -3.484625e-03 0.0
1.002847e+00 -3.154012e-03 0.0
1.003288e+00 -2.849482e-03 0.0
1.003681e+00 -2.569761e-03 0.0
1.004032e+00 -2.313485e-03 0.0
1.004345e+00 -2.079243e-03 0.0
1.004627e+00 -1.865604e-03 0.0
1.004881e+00 -1.671151e-03 0.0
1.005110e+00 -1.494492e-03 0.0
1.005317e+00 -1.334278e-03 0.0
1.005506e+00 -1.189215e-03 0.0
1.005678e+00 -1.058067e-03 0.0
1.005835e+00 -9.396632e-04 0.0
1.005980e+00 -8.329049e-04 0.0
1.006113e+00 -7.367637e-04 0.0
1.006236e+00 -6.502837e-04 0.0
1.006351e+00 -5.725794e-04 0.0
1.006457e+00 -5.028339e-04 0.0
1.006557e+00 -4.402958e-04 0.0
1.006651e+00 -3.842765e-04 0.0
1.006740e+00 -3.341468e-04 0.0
1.006824e+00 -2.893336e-04 0.0
1.006904e+00 -2.493173e-04 0.0
1.006980e+00 -2.136286e-04 0.0
1.007053e+00 -1.818465e-04 0.0
1.007123e+00 -1.535971e-04 0.0
1.007190e+00 -1.285529e-04 0.0
1.007255e+00 -1.064340e-04 0.0
1.007318e+00 -8.701172e-05 0.0
1.007379e+00 -7.011526e-05 0.0
1.007439e+00 -5.564309e-05 0.0
1.007497e+00 -4.358036e-05 0.0
1.007553e+00 -3.402422e-05 0.0
1.007607e+00 -2.721782e-05 0.0
1.007659e+00 -2.359083e-05 0.0
1.007709e+00 -2.379777e-05 0.0
1.007754e+00 -2.873070e-05 0.0
1.007795e+00 -3.945621e-05 0.0
1.007827e+00 -5.698536e-05 0.0
1.007848e+00 -8.183322e-05 0.0
1.007855e+00 -1.128233e-04 0.0
1.007844e+00 -1.510722e-04 0.0
0.000000e+00 -1.480721e-04 0.0
1.000000e+00 -1.298993e-01 0.0
9.879690e-01 -1.289021e-01 0.0
9.720009e-01 -1.420192e-01 0.0
9.471119e-01 -1.703008e-01 0.0
9.046919e-01 -2.190622e-01 0.0
8.279799e-01 -2.983926e-01 0.0
6.930050e-01 -4.297231e-01 0.0
2.165194e-01 -5.850950e-01 0.0
-1.000469e+00 5.879135e-01 0.0
0.000000e+00 -1.137524e-01 0.0
-1.827791e-01 1.125490e-01 0.0
-1.105618e-01 -1.158408e-01 0.0
-7.323205e-03 -1.315505e-01 0.0
1.896844e-01 -2.021043e-01 0.0
3.500347e-01 -1.133820e-01 0.0
4.564003e-01 -1.490088e-03 0.0
5.283875e-01 8.699767e-02 0.0
5.805204e-01 1.576275e-01 0.0
6.166879e-01 2.202835e-01 0.0
6.389018e-01 2.750028e-01 0.0
6.498902e-01 3.184911e-01 0.0
6.535821e-01 3.465038e-01 0.0
6.556160e-01 3.524108e-01 0.0
6.603315e-01 3.301028e-01 0.0
6.698817e-01 2.819282e-01 0.0
6.841625e-01 2.183714e-01 0.0
7.019550e-01 1.526654e-01 0.0
7.220184e-01 9.518287e-02 0.0
7.434003e-01 5.088013e-02 0.0
7.651645e-01 2.014540e-02 0.0
7.868318e-01 2.205139e-04 0.0
8.084210e-01 -1.225516e-02 0.0
8.297418e-01 -1.977366e-02 0.0
8.503322e-01 -2.401813e-02 0.0
8.697001e-01 -2.608357e-02 0.0
8.874912e-01 -2.671848e-02 0.0
9.035193e-01 -2.644182e-02 0.0
9.177383e-01 -2.560043e-02 0.0
9.302040e-01 -2.442870e-02 0.0
9.410367e-01 -2.308219e-02 0.0
9.503894e-01 -2.165955e-02 0.0
9.584252e-01 -2.022115e-02 0.0
9.653064e-01 -1.880431e-02 0.0
9.711863e-01 -1.743132e-02 0.0
9.762040e-01 -1.611445e-02 0.0
9.804830e-01 -1.485998e-02 0.0
9.841312e-01 -1.367196e-02 0.0
9.872420e-01 -1.255247e-02 0.0
9.898960e-01 -1.150204e-02 0.0
9.921622e-01 -1.052007e-02 0.0
9.940996e-01 -9.605155e-03 0.0
9.957582e-01 -8.755310e-03 0.0
9.971806e-01 -7.968086e-03 0.0
9.984028e-01 -7.240712e-03 0.0
9.994552e-01 -6.570202e-03 0.0
1.000364e+00 -5.953442e-03 0.0
1.001150e+00 -5.387259e-03 0.0
1.001832e+00 -4.868480e-03 0.0
1.002425e+00 -4.393976e-03 0.0
1.002943e+00 -3.960694e-03 0.0
1.003397e+00 -3.565679e-03 0.0
1.003796e+00 -3.206096e-03 0.0
1.004147e+00 -2.879242e-03 0.0
1.004458e+00 -2.582548e-03 0.0
1.004735e+00 -2.313589e-03 0.0
1.004981e+00 -2.070084e-03 0.0
1.005202e+00 -1.849892e-03 0.0
1.005401e+00 -1.651016e-03 0.0
1.005580e+00 -1.471595e-03 0.0
1.005743e+00 -1.309898e-03 0.0
1.005891e+00 -1.164322e-03 0.0
1.006027e+00 -1.033389e-03 0.0
1.006152e+00 -9.157338e-04 0.0
1.006267e+00 -8.101039e-04 0.0
1.006374e+00 -7.153515e-04 0.0
1.006474e+00 -6.304269e-04 0.0
1.006568e+00 -5.543723e-04 0.0
1.006656e+00 -4.863153e-04 0.0
1.006739e+00 -4.254632e-04 0.0
1.006818e+00 -3.710970e-04 0.0
1.006894e+00 -3.225659e-04 0.0
1.006966e+00 -2.792826e-04 0.0
1.007035e+00 -2.407186e-04 0.0
1.007102e+00 -2.064004e-04 0.0
1.007166e+00 -1.759065e-04 0.0
1.007228e+00 -1.488653e-04 0.0
1.007289e+00 -1.249542e-04 0.0
1.007348e+00 -1.039005e-04 0.0
1.007405e+00 -8.548488e-05 0.0
1.007461e+00 -6.954775e-05 0.0
1.007516e+00 -5.600006e-05 0.0
1.007569e+00 -4.483845e-05 0.0
1.007620e+00 -3.616502e-05 0.0
1.007669e+00 -3.020866e-05 0.0
1.007714e+00 -2.733985e-05 0.0
1.007756e+00 -2.806116e-05 0.0
1.007791e+00 -3.294156e-05 0.0
1.007819e+00 -4.244664e-05 0.0
1.007836e+00 -5.666581e-05 0.0
1.007840e+00 -7.466447e-05 0.0
1.007827e+00 -9.674458e-05 0.0
0.000000e+00 -9.369679e-05 0.0
1.000000e+00 -1.102603e-01 0.0
9.804883e-01 -1.092298e-01 0.0
9.551390e-01 -1.166280e-01 0.0
9.161799e-01 -1.312998e-01 0.0
8.494247e-01 -1.522651e-01 0.0
7.253110e-01 -1.742370e-01 0.0
4.680189e-01 -1.723891e-01 0.0
-8.363218e-03 -1.087897e-01 0.0
1.223134e-04 0.000000e+00 0.0
0.000000e+00 -0.000000e+00 0.0
0.000000e+00 -1.424911e-01 0.0
-2.583663e-01 1.425674e-01 0.0
-2.304360e-01 -1.594388e-01 0.0
-1.073336e-01 -3.251647e-01 0.0
9.313690e-03 -2.299874e-01 0.0