# vtk DataFile Version 3.0
Vector Field
ASCII
DATASET RECTILINEAR_GRID
DIMENSIONS 102 22 1
X_COORDINATES 102 double
0.000000 0.100000 0.200000 0.300000 0.400000 0.500000 0.600000 0.700000 0.800000 0.900000 1.000000 1.100000 1.200000 1.300000 1.400000 1.500000 1.600000 1.700000 1.800000 1.900000 2.000000 2.100000 2.200000 2.300000 2.400000 2.500000 2.600000 2.700000 2.800000 2.900000 3.000000 3.100000 3.200000 3.300000 3.400000 3.500000 3.600000 3.700000 3.800000 3.900000 4.000000 4.100000 4.200000 4.300000 4.400000 4.500000 4.600000 4.700000 4.800000 4.900000 5.000000 5.100000 5.200000 5.300000 5.400000 5.500000 5.600000 5.700000 5.800000 5.900000 6.000000 6.100000 6.200000 6.300000 6.400000 6.500000 6.600000 6.700000 6.800000 6.900000 7.000000 7.100000 7.200000 7.300000 7.400000 7.500000 7.600000 7.700000 7.800000 7.900000 8.000000 8.100000 8.200000 8.300000 8.400000 8.500000 8.600000 8.700000 8.800000 8.900000 9.000000 9.100000 9.200000 9.300000 9.400000 9.500000 9.600000 9.700000 9.800000 9.900000 10.000000 10.100000 
Y_COORDINATES 22 double
0.000000 0.100000 0.200000 0.300000 0.400000 0.500000 0.600000 0.700000 0.800000 0.900000 1.000000 1.100000 1.200000 1.300000 1.400000 1.500000 1.600000 1.700000 1.800000 1.900000 2.000000 2.100000 
Z_COORDINATES 1 double
0.0
POINT_DATA 2244
VECTORS Velocity double
0.000000e+00 0.000000e+00 0.0
-1.023295e+00 0.000000e+00 0.0
-1.049626e+00 0.000000e+00 0.0
-1.081816e+00 0.000000e+00 0.0
-1.122705e+00 0.000000e+00 0.0
-1.174709e+00 0.000000e+00 0.0
-1.237981e+00 0.000000e+00 0.0
-1.313205e+00 0.000000e+00 0.0
-1.386233e+00 0.000000e+00 0.0
-1.448193e+00 0.000000e+00 0.0
-1.498162e+00 0.000000e+00 0.0
-1.538855e+00 0.000000e+00 0.0
-1.573378e+00 0.000000e+00 0.0
-1.603862e+00 0.000000e+00 0.0
-1.630938e+00 0.000000e+00 0.0
-1.653730e+00 0.000000e+00 0.0
-1.670385e+00 0.000000e+00 0.0
-1.679185e+00 0.000000e+00 0.0
-1.679659e+00 0.000000e+00 0.0
-1.672470e+00 0.000000e+00 0.0
-1.658665e+00 0.000000e+00 0.0
-1.639329e+00 0.000000e+00 0.0
-1.615315e+00 0.000000e+00 0.0
-1.587096e+00 0.000000e+00 0.0
-1.554760e+00 0.000000e+00 0.0
-1.518109e+00 0.000000e+00 0.0
-1.476823e+00 0.000000e+00 0.0
-1.430637e+00 0.000000e+00 0.0
-1.379471e+00 0.000000e+00 0.0
-1.323476e+00 0.000000e+00 0.0
-1.262994e+00 0.000000e+00 0.0
-1.198577e+00 0.000000e+00 0.0
-1.131330e+00 0.000000e+00 0.0
-1.063497e+00 0.000000e+00 0.0
-9.988277e-01 0.000000e+00 0.0
-9.429631e-01 0.000000e+00 0.0
-9.031073e-01 0.000000e+00 0.0
-8.864964e-01 0.000000e+00 0.0
-8.978190e-01 0.000000e+00 0.0
-9.385223e-01 0.000000e+00 0.0
-1.008037e+00 0.000000e+00 0.0
-1.104140e+00 0.000000e+00 0.0
-1.221566e+00 0.000000e+00 0.0
-1.349627e+00 0.000000e+00 0.0
-1.473049e+00 0.000000e+00 0.0
-1.575420e+00 0.000000e+00 0.0
-1.642707e+00 0.000000e+00 0.0
-1.668509e+00 0.000000e+00 0.0
-1.656423e+00 0.000000e+00 0.0
-1.612479e+00 0.000000e+00 0.0
-1.542025e+00 0.000000e+00 0.0
-1.451004e+00 0.000000e+00 0.0
-1.346320e+00 0.000000e+00 0.0
-1.235677e+00 0.000000e+00 0.0
-1.126889e+00 0.000000e+00 0.0
-1.027429e+00 0.000000e+00 0.0
-9.435741e-01 0.000000e+00 0.0
-8.796924e-01 0.000000e+00 0.0
-8.377109e-01 0.000000e+00 0.0
-8.171060e-01 0.000000e+00 0.0
-8.153252e-01 0.000000e+00 0.0
-8.286442e-01 0.000000e+00 0.0
-8.537224e-01 0.000000e+00 0.0
-8.877403e-01 0.000000e+00 0.0
-9.283488e-01 0.000000e+00 0.0
-9.735071e-01 0.000000e+00 0.0
-1.021347e+00 0.000000e+00 0.0
-1.070130e+00 0.000000e+00 0.0
-1.118198e+00 0.000000e+00 0.0
-1.163996e+00 0.000000e+00 0.0
-1.206089e+00 0.000000e+00 0.0
-1.243225e+00 0.000000e+00 0.0
-1.274350e+00 0.000000e+00 0.0
-1.298675e+00 0.000000e+00 0.0
-1.315757e+00 0.000000e+00 0.0
-1.325541e+00 0.000000e+00 0.0
-1.328211e+00 0.000000e+00 0.0
-1.323609e+00 0.000000e+00 0.0
-1.311197e+00 0.000000e+00 0.0
-1.290246e+00 0.000000e+00 0.0
-1.259943e+00 0.000000e+00 0.0
-1.219804e+00 0.000000e+00 0.0
-1.170515e+00 0.000000e+00 0.0
-1.114876e+00 0.000000e+00 0.0
-1.057850e+00 0.000000e+00 0.0
-1.005013e+00 0.000000e+00 0.0
-9.608666e-01 0.000000e+00 0.0
-9.280731e-01 0.000000e+00 0.0
-9.073959e-01 0.000000e+00 0.0
-8.981210e-01 0.000000e+00 0.0
-8.985527e-01 0.000000e+00 0.0
-9.065321e-01 0.000000e+00 0.0
-9.201086e-01 0.000000e+00 0.0
-9.376939e-01 0.000000e+00 0.0
-9.579608e-01 0.000000e+00 0.0
-9.797089e-01 0.000000e+00 0.0
-1.001763e+00 0.000000e+00 0.0
-1.022931e+00 0.000000e+00 0.0
-1.041933e+00 0.000000e+00 0.0
-1.057523e+00 0.000000e+00 0.0
-1.057523e+00 0.000000e+00 0.0
0.000000e+00 0.000000e+00 0.0
1.000000e+00 -2.361149e-02 0.0
1.023224e+00 -2.354782e-02 0.0
1.049480e+00 -2.644181e-02 0.0
1.081575e+00 -3.228174e-02 0.0
1.122337e+00 -4.094794e-02 0.0
1.174161e+00 -5.201015e-02 0.0
1.237179e+00 -6.320396e-02 0.0
1.312016e+00 -7.502377e-02 0.0
1.384519e+00 -7.268913e-02 0.0
1.445839e+00 -6.150594e-02 0.0
1.495097e+00 -4.944467e-02 0.0
1.535084e+00 -4.017303e-02 0.0
1.569021e+00 -3.412247e-02 0.0
1.599194e+00 -3.035969e-02 0.0
1.626407e+00 -2.739883e-02 0.0
1.649897e+00 -2.367685e-02 0.0
1.667782e+00 -1.807054e-02 0.0
1.678113e+00 -1.051750e-02 0.0
1.680102e+00 -2.175694e-03 0.0
1.674266e+00 5.649855e-03 0.0
1.661613e+00 1.246743e-02 0.0
1.643245e+00 1.818102e-02 0.0
1.620073e+00 2.298564e-02 0.0
1.592637e+00 2.725013e-02 0.0
1.561076e+00 3.137514e-02 0.0
1.525217e+00 3.567215e-02 0.0
1.484739e+00 4.029242e-02 0.0
1.439341e+00 4.521088e-02 0.0
1.388903e+00 5.025230e-02 0.0
1.333538e+00 5.517862e-02 0.0
1.273568e+00 5.978377e-02 0.0
1.209510e+00 6.387173e-02 0.0
1.142340e+00 6.698318e-02 0.0
1.074067e+00 6.808716e-02 0.0
1.008118e+00 6.576242e-02 0.0
9.497419e-01 5.818997e-02 0.0
9.058514e-01 4.370413e-02 0.0
8.837494e-01 2.191565e-02 0.0
8.886884e-01 -5.125351e-03 0.0
9.225534e-01 -3.405133e-02 0.0
9.850575e-01 -6.269039e-02 0.0
1.074574e+00 -8.970287e-02 0.0
1.186801e+00 -1.124130e-01 0.0
1.312838e+00 -1.262235e-01 0.0
1.438472e+00 -1.258203e-01 0.0
1.547676e+00 -1.093909e-01 0.0
1.625562e+00 -7.807250e-02 0.0
1.663249e+00 -3.787306e-02 0.0
1.661655e+00 1.407465e-03 0.0
1.626759e+00 3.470992e-02 0.0
1.563629e+00 6.294375e-02 0.0
1.477782e+00 8.566051e-02 0.0
1.375787e+00 1.018084e-01 0.0
1.265392e+00 1.102088e-01 0.0
1.154737e+00 1.104683e-01 0.0
1.051733e+00 1.028172e-01 0.0
9.631906e-01 8.835626e-02 0.0
8.940442e-01 6.895994e-02 0.0
8.467843e-01 4.707343e-02 0.0
8.213575e-01 2.524028e-02 0.0
8.155608e-01 5.610216e-03 0.0
8.257122e-01 -1.033782e-02 0.0
8.483075e-01 -2.278180e-02 0.0
8.803807e-01 -3.225973e-02 0.0
9.194762e-01 -3.928195e-02 0.0
9.634995e-01 -4.420984e-02 0.0
1.010560e+00 -4.724661e-02 0.0
1.058910e+00 -4.853645e-02 0.0
1.106895e+00 -4.817151e-02 0.0
1.152957e+00 -4.624881e-02 0.0
1.195651e+00 -4.288036e-02 0.0
1.233696e+00 -3.823142e-02 0.0
1.266008e+00 -3.249894e-02 0.0
1.291743e+00 -2.592127e-02 0.0
1.310378e+00 -1.882212e-02 0.0
1.321774e+00 -1.158199e-02 0.0
1.326094e+00 -4.506900e-03 0.0
1.323313e+00 2.594497e-03 0.0
1.312967e+00 1.015917e-02 0.0
1.294384e+00 1.839657e-02 0.0
1.266767e+00 2.743095e-02 0.0
1.229496e+00 3.708422e-02 0.0
1.182856e+00 4.645292e-02 0.0
1.129000e+00 5.366948e-02 0.0
1.072334e+00 5.647958e-02 0.0
1.018382e+00 5.376592e-02 0.0
9.719694e-01 4.622550e-02 0.0
9.362558e-01 3.552707e-02 0.0
9.124866e-01 2.358251e-02 0.0
9.003135e-01 1.198657e-02 0.0
8.982873e-01 1.839540e-03 0.0
9.043244e-01 -6.223652e-03 0.0
9.163913e-01 -1.225354e-02 0.0
9.328058e-01 -1.660106e-02 0.0
9.521709e-01 -1.955177e-02 0.0
9.732414e-01 -2.125706e-02 0.0
9.948097e-01 -2.175488e-02 0.0
1.015649e+00 -2.102620e-02 0.0
1.034442e+00 -1.897919e-02 0.0
1.049912e+00 -1.565632e-02 0.0
1.057523e+00 -7.798045e-03 0.0
0.000000e+00 -7.919918e-03 0.0
1.000000e+00 -4.742517e-02 0.0
1.023560e+00 -4.729402e-02 0.0
1.050193e+00 -5.312323e-02 0.0
1.082836e+00 -6.497306e-02 0.0
1.124629e+00 -8.278962e-02 0.0
1.178629e+00 -1.060589e-01 0.0
1.245185e+00 -1.298091e-01 0.0
1.329376e+00 -1.592632e-01 0.0
1.407027e+00 -1.503879e-01 0.0
1.468960e+00 -1.234879e-01 0.0
1.516933e+00 -9.746630e-02 0.0
1.555416e+00 -7.870507e-02 0.0
1.588252e+00 -6.700648e-02 0.0
1.617982e+00 -6.013865e-02 0.0
1.645576e+00 -5.504119e-02 0.0
1.670365e+00 -4.851443e-02 0.0
1.690337e+00 -3.809079e-02 0.0
1.703136e+00 -2.336528e-02 0.0
1.707506e+00 -6.594413e-03 0.0
1.703948e+00 9.159271e-03 0.0
1.693591e+00 2.277558e-02 0.0
1.677644e+00 3.407985e-02 0.0
1.657083e+00 4.349752e-02 0.0
1.632479e+00 5.180626e-02 0.0
1.603963e+00 5.984176e-02 0.0
1.571341e+00 6.824622e-02 0.0
1.534265e+00 7.731973e-02 0.0
1.492414e+00 8.701356e-02 0.0
1.445649e+00 9.696790e-02 0.0
1.394102e+00 1.066776e-01 0.0
1.338182e+00 1.156554e-01 0.0
1.278578e+00 1.234272e-01 0.0
1.216273e+00 1.292387e-01 0.0
1.152732e+00 1.315799e-01 0.0
1.090589e+00 1.278570e-01 0.0
1.033931e+00 1.147989e-01 0.0
9.881701e-01 8.941689e-02 0.0
9.590994e-01 5.093769e-02 0.0
9.507030e-01 3.222397e-03 0.0
9.628088e-01 -4.620574e-02 0.0
9.934003e-01 -9.333046e-02 0.0
1.042797e+00 -1.391479e-01 0.0
1.112524e+00 -1.821888e-01 0.0
1.200860e+00 -2.146081e-01 0.0
1.299502e+00 -2.245112e-01 0.0
1.395874e+00 -2.058111e-01 0.0
1.476475e+00 -1.587221e-01 0.0
1.529985e+00 -9.143163e-02 0.0
1.550401e+00 -1.905750e-02 0.0
1.540710e+00 4.435183e-02 0.0
1.506563e+00 9.704234e-02 0.0
1.453516e+00 1.386587e-01 0.0
1.386665e+00 1.686105e-01 0.0
1.310484e+00 1.863421e-01 0.0
1.229978e+00 1.909248e-01 0.0
1.151245e+00 1.815021e-01 0.0
1.079731e+00 1.598217e-01 0.0
1.019680e+00 1.289619e-01 0.0
9.738892e-01 9.281587e-02 0.0
9.436182e-01 5.546258e-02 0.0
9.287807e-01 2.039909e-02 0.0
9.279939e-01 -9.599676e-03 0.0
9.386568e-01 -3.349336e-02 0.0
9.582395e-01 -5.189106e-02 0.0
9.846136e-01 -6.570475e-02 0.0
1.016011e+00 -7.565610e-02 0.0
1.050813e+00 -8.209653e-02 0.0
1.087500e+00 -8.527305e-02 0.0
1.124683e+00 -8.540294e-02 0.0
1.161074e+00 -8.268799e-02 0.0
1.195425e+00 -7.728034e-02 0.0
1.226544e+00 -6.939935e-02 0.0
1.253374e+00 -5.937728e-02 0.0
1.275081e+00 -4.767714e-02 0.0
1.291078e+00 -3.486767e-02 0.0
1.300949e+00 -2.150148e-02 0.0
1.304208e+00 -7.815095e-03 0.0
1.300103e+00 6.651573e-03 0.0
1.287993e+00 2.222054e-02 0.0
1.267408e+00 3.893284e-02 0.0
1.238344e+00 5.644552e-02 0.0
1.201758e+00 7.362171e-02 0.0
1.159965e+00 8.819751e-02 0.0
1.116502e+00 9.708422e-02 0.0
1.075311e+00 9.762159e-02 0.0
1.039538e+00 8.949050e-02 0.0
1.010883e+00 7.483133e-02 0.0
9.896183e-01 5.674326e-02 0.0
9.750945e-01 3.805763e-02 0.0
9.664030e-01 2.062938e-02 0.0
9.627037e-01 5.490112e-03 0.0
9.632950e-01 -6.863557e-03 0.0
9.675320e-01 -1.653924e-02 0.0
9.748621e-01 -2.397982e-02 0.0
9.847181e-01 -2.945652e-02 0.0
9.964438e-01 -3.303145e-02 0.0
1.009233e+00 -3.459319e-02 0.0
1.022168e+00 -3.400962e-02 0.0
1.034207e+00 -3.106652e-02 0.0
1.044121e+00 -2.561908e-02 0.0
1.049607e+00 -1.333298e-02 0.0
0.000000e+00 -1.361093e-02 0.0
1.000000e+00 -6.810700e-02 0.0
1.020435e+00 -6.791557e-02 0.0
1.044022e+00 -7.675829e-02 0.0
1.073965e+00 -9.496428e-02 0.0
1.114145e+00 -1.230186e-01 0.0
1.169170e+00 -1.611321e-01 0.0
1.240648e+00 -2.013361e-01 0.0
1.343836e+00 -2.624997e-01 0.0
1.426946e+00 -2.335469e-01 0.0
1.484297e+00 -1.808874e-01 0.0
1.524674e+00 -1.378917e-01 0.0
1.555701e+00 -1.097807e-01 0.0
1.582059e+00 -9.341275e-02 0.0
1.606585e+00 -8.471347e-02 0.0
1.630716e+00 -7.922084e-02 0.0
1.654202e+00 -7.204901e-02 0.0
1.674931e+00 -5.886822e-02 0.0
1.689741e+00 -3.822432e-02 0.0
1.696126e+00 -1.302731e-02 0.0
1.694178e+00 1.105857e-02 0.0
1.685271e+00 3.163399e-02 0.0
1.670832e+00 4.846974e-02 0.0
1.652010e+00 6.227139e-02 0.0
1.629466e+00 7.430170e-02 0.0
1.603358e+00 8.590092e-02 0.0
1.573459e+00 9.809689e-02 0.0
1.539324e+00 1.114063e-01 0.0
1.500522e+00 1.257666e-01 0.0
1.456821e+00 1.406206e-01 0.0
1.408307e+00 1.551432e-01 0.0
1.355422e+00 1.684917e-01 0.0
1.298914e+00 1.798858e-01 0.0
1.239807e+00 1.882977e-01 0.0
1.179618e+00 1.917202e-01 0.0
1.120860e+00 1.865659e-01 0.0
1.067059e+00 1.685515e-01 0.0
1.021825e+00 1.346022e-01 0.0
9.874348e-01 8.527938e-02 0.0
9.643898e-01 2.621873e-02 0.0
9.527016e-01 -3.456608e-02 0.0
9.541172e-01 -9.479470e-02 0.0
9.718747e-01 -1.569540e-01 0.0
1.008256e+00 -2.186186e-01 0.0
1.063281e+00 -2.696819e-01 0.0
1.133652e+00 -2.949305e-01 0.0
1.210339e+00 -2.825472e-01 0.0
1.282900e+00 -2.313317e-01 0.0
1.341149e+00 -1.497288e-01 0.0
1.377072e+00 -5.502889e-02 0.0
1.388419e+00 3.295566e-02 0.0
1.379177e+00 1.062360e-01 0.0
1.353598e+00 1.641890e-01 0.0
1.315567e+00 2.065929e-01 0.0
1.268564e+00 2.332959e-01 0.0
1.215770e+00 2.436706e-01 0.0
1.160666e+00 2.365573e-01 0.0
1.107579e+00 2.128605e-01 0.0
1.060412e+00 1.760798e-01 0.0
1.021830e+00 1.313492e-01 0.0
9.931316e-01 8.411252e-02 0.0
9.748732e-01 3.860879e-02 0.0
9.670777e-01 -1.852812e-03 0.0
9.686642e-01 -3.512847e-02 0.0
9.779810e-01 -6.125654e-02 0.0
9.934875e-01 -8.125987e-02 0.0
1.013918e+00 -9.613529e-02 0.0
1.038145e+00 -1.063726e-01 0.0
1.064996e+00 -1.121722e-01 0.0
1.093179e+00 -1.136349e-01 0.0
1.121404e+00 -1.109611e-01 0.0
1.148429e+00 -1.043543e-01 0.0
1.173095e+00 -9.411431e-02 0.0
1.194378e+00 -8.070893e-02 0.0
1.211433e+00 -6.478039e-02 0.0
1.223582e+00 -4.706609e-02 0.0
1.230203e+00 -2.817060e-02 0.0
1.230464e+00 -8.124748e-03 0.0
1.223467e+00 1.359978e-02 0.0
1.208838e+00 3.680052e-02 0.0
1.186767e+00 6.095597e-02 0.0
1.158339e+00 8.482494e-02 0.0
1.125855e+00 1.060561e-01 0.0
1.092693e+00 1.213115e-01 0.0
1.062417e+00 1.273115e-01 0.0
1.037258e+00 1.227321e-01 0.0
1.017343e+00 1.093569e-01 0.0
1.001712e+00 9.041368e-02 0.0
9.891731e-01 6.923313e-02 0.0
9.788626e-01 4.831942e-02 0.0
9.703448e-01 2.909856e-02 0.0
9.636070e-01 1.217918e-02 0.0
9.590112e-01 -2.316411e-03 0.0
9.569000e-01 -1.447676e-02 0.0
9.573295e-01 -2.445797e-02 0.0
9.601336e-01 -3.230931e-02 0.0
9.649652e-01 -3.791176e-02 0.0
9.713306e-01 -4.100722e-02 0.0
9.785083e-01 -4.123597e-02 0.0
9.856234e-01 -3.823035e-02 0.0
9.917526e-01 -3.179693e-02 0.0
9.955217e-01 -1.715072e-02 0.0
0.000000e+00 -1.757879e-02 0.0
1.000000e+00 -8.399413e-02 0.0
1.015651e+00 -8.375265e-02 0.0
1.034360e+00 -9.551551e-02 0.0
1.059550e+00 -1.202037e-01 0.0
1.096183e+00 -1.596996e-01 0.0
1.151449e+00 -2.164471e-01 0.0
1.231072e+00 -2.810077e-01 0.0
1.366082e+00 -3.975580e-01 0.0
1.446535e+00 -3.140483e-01 0.0
1.487390e+00 -2.217911e-01 0.0
1.511035e+00 -1.615854e-01 0.0
1.527127e+00 -1.259209e-01 0.0
1.540130e+00 -1.064651e-01 0.0
1.553005e+00 -9.763679e-02 0.0
1.568067e+00 -9.433130e-02 0.0
1.586430e+00 -9.046027e-02 0.0
1.606624e+00 -7.911153e-02 0.0
1.624940e+00 -5.658883e-02 0.0
1.636740e+00 -2.487579e-02 0.0
1.639427e+00 8.323685e-03 0.0
1.634677e+00 3.633521e-02 0.0
1.624302e+00 5.879566e-02 0.0
1.609735e+00 7.679013e-02 0.0
1.591790e+00 9.219813e-02 0.0
1.570606e+00 1.070365e-01 0.0
1.545845e+00 1.228087e-01 0.0
1.516897e+00 1.403057e-01 0.0
1.483137e+00 1.594786e-01 0.0
1.444156e+00 1.795526e-01 0.0
1.399936e+00 1.993147e-01 0.0
1.350921e+00 2.174580e-01 0.0
1.297982e+00 2.327765e-01 0.0
1.242273e+00 2.439575e-01 0.0
1.185258e+00 2.486867e-01 0.0
1.129335e+00 2.424402e-01 0.0
1.077585e+00 2.202529e-01 0.0
1.031778e+00 1.803613e-01 0.0
9.904116e-01 1.265969e-01 0.0
9.518993e-01 6.468238e-02 0.0
9.214047e-01 -4.120049e-03 0.0
9.065980e-01 -8.003661e-02 0.0
9.112366e-01 -1.616412e-01 0.0
9.334239e-01 -2.408546e-01 0.0
9.689884e-01 -3.052950e-01 0.0
1.014939e+00 -3.409300e-01 0.0
1.067612e+00 -3.352685e-01 0.0
1.121711e+00 -2.854796e-01 0.0
1.171034e+00 -1.991004e-01 0.0
1.209093e+00 -9.313625e-02 0.0
1.230812e+00 1.118765e-02 0.0
1.236991e+00 1.000088e-01 0.0
1.230071e+00 1.710607e-01 0.0
1.212660e+00 2.239553e-01 0.0
1.187305e+00 2.586014e-01 0.0
1.156365e+00 2.745625e-01 0.0
1.121910e+00 2.709637e-01 0.0
1.086529e+00 2.481930e-01 0.0
1.052810e+00 2.097495e-01 0.0
1.023017e+00 1.610945e-01 0.0
9.989817e-01 1.080987e-01 0.0
9.816757e-01 5.586613e-02 0.0
9.714584e-01 8.315834e-03 0.0
9.682676e-01 -3.198639e-02 0.0
9.715811e-01 -6.461867e-02 0.0
9.807068e-01 -9.043419e-02 0.0
9.947220e-01 -1.101992e-01 0.0
1.012569e+00 -1.242679e-01 0.0
1.033078e+00 -1.327296e-01 0.0
1.055009e+00 -1.356153e-01 0.0
1.077108e+00 -1.331088e-01 0.0
1.098200e+00 -1.254950e-01 0.0
1.117220e+00 -1.131823e-01 0.0
1.133226e+00 -9.676443e-02 0.0
1.145397e+00 -7.699995e-02 0.0
1.152963e+00 -5.468032e-02 0.0
1.155058e+00 -3.031477e-02 0.0
1.150565e+00 -3.680235e-03 0.0
1.139001e+00 2.511557e-02 0.0
1.120754e+00 5.499881e-02 0.0
1.097109e+00 8.455239e-02 0.0
1.070442e+00 1.114430e-01 0.0
1.044055e+00 1.323950e-01 0.0
1.021304e+00 1.440136e-01 0.0
1.004227e+00 1.443397e-01 0.0
9.922887e-01 1.346215e-01 0.0
9.836801e-01 1.179169e-01 0.0
9.765127e-01 9.753235e-02 0.0
9.695120e-01 7.618521e-02 0.0
9.621971e-01 5.558558e-02 0.0
9.547122e-01 3.653478e-02 0.0
9.475763e-01 1.926648e-02 0.0
9.414450e-01 3.766156e-03 0.0
9.368922e-01 -9.972605e-03 0.0
9.342064e-01 -2.182083e-02 0.0
9.334397e-01 -3.159131e-02 0.0
9.344472e-01 -3.896794e-02 0.0
9.369146e-01 -4.352332e-02 0.0
9.403545e-01 -4.472457e-02 0.0
9.441102e-01 -4.203472e-02 0.0
9.474837e-01 -3.521907e-02 0.0
9.498701e-01 -1.958578e-02 0.0
0.000000e+00 -2.013595e-02 0.0
1.000000e+00 -9.340739e-02 0.0
1.009189e+00 -9.312826e-02 0.0
1.020876e+00 -1.072508e-01 0.0
1.038271e+00 -1.376472e-01 0.0
1.067241e+00 -1.887181e-01 0.0
1.118253e+00 -2.675078e-01 0.0
1.206059e+00 -3.688621e-01 0.0
1.380719e+00 -5.722666e-01 0.0
1.432724e+00 -3.661021e-01 0.0
1.437521e+00 -2.266365e-01 0.0
1.431381e+00 -1.554936e-01 0.0
1.422489e+00 -1.170780e-01 0.0
1.412683e+00 -9.670681e-02 0.0
1.403841e+00 -8.884392e-02 0.0
1.399204e+00 -8.974311e-02 0.0
1.403291e+00 -9.459505e-02 0.0
1.417284e+00 -9.315360e-02 0.0
1.438396e+00 -7.774937e-02 0.0
1.461117e+00 -4.764540e-02 0.0
1.477111e+00 -7.719014e-03 0.0
1.484032e+00 2.936556e-02 0.0
1.484702e+00 5.807681e-02 0.0
1.481209e+00 8.023520e-02 0.0
1.474714e+00 9.864383e-02 0.0
1.465282e+00 1.164207e-01 0.0
1.452375e+00 1.356664e-01 0.0
1.435059e+00 1.575737e-01 0.0
1.412348e+00 1.821410e-01 0.0
1.383515e+00 2.083363e-01 0.0
1.348327e+00 2.344545e-01 0.0
1.307158e+00 2.585782e-01 0.0
1.260979e+00 2.789069e-01 0.0
1.211157e+00 2.937315e-01 0.0
1.159146e+00 3.006487e-01 0.0
1.106694e+00 2.948440e-01 0.0
1.055570e+00 2.713279e-01 0.0
1.005654e+00 2.302284e-01 0.0
9.544276e-01 1.777752e-01 0.0
9.033793e-01 1.156821e-01 0.0
8.641904e-01 3.502018e-02 0.0
8.498995e-01 -6.579428e-02 0.0
8.578544e-01 -1.696448e-01 0.0
8.782180e-01 -2.612668e-01 0.0
9.044129e-01 -3.315385e-01 0.0
9.341814e-01 -3.707472e-01 0.0
9.672000e-01 -3.683357e-01 0.0
1.002391e+00 -3.207195e-01 0.0
1.037637e+00 -2.343944e-01 0.0
1.069282e+00 -1.248306e-01 0.0
1.092595e+00 -1.217395e-02 0.0
1.105614e+00 8.694149e-02 0.0
1.109043e+00 1.675830e-01 0.0
1.104308e+00 2.286413e-01 0.0
1.093107e+00 2.697542e-01 0.0
1.077160e+00 2.904612e-01 0.0
1.057781e+00 2.902935e-01 0.0
1.036333e+00 2.695929e-01 0.0
1.014363e+00 2.316704e-01 0.0
9.934798e-01 1.819290e-01 0.0
9.750999e-01 1.264300e-01 0.0
9.603032e-01 7.061420e-02 0.0
9.500588e-01 1.851159e-02 0.0
9.453624e-01 -2.733867e-02 0.0
9.465518e-01 -6.585673e-02 0.0
9.532341e-01 -9.716511e-02 0.0
9.644881e-01 -1.215019e-01 0.0
9.791392e-01 -1.389677e-01 0.0
9.959399e-01 -1.495790e-01 0.0
1.013672e+00 -1.533965e-01 0.0
1.031159e+00 -1.506437e-01 0.0
1.047328e+00 -1.417132e-01 0.0
1.061253e+00 -1.271557e-01 0.0
1.072113e+00 -1.076731e-01 0.0
1.079126e+00 -8.406168e-02 0.0
1.081445e+00 -5.704844e-02 0.0
1.078058e+00 -2.697616e-02 0.0
1.068075e+00 6.254654e-03 0.0
1.052082e+00 4.105942e-02 0.0
1.031529e+00 7.550302e-02 0.0
1.008850e+00 1.071824e-01 0.0
9.872556e-01 1.329892e-01 0.0
9.699101e-01 1.496918e-01 0.0
9.586599e-01 1.552151e-01 0.0
9.528890e-01 1.500619e-01 0.0
9.503521e-01 1.371097e-01 0.0
9.487646e-01 1.194557e-01 0.0
9.464785e-01 9.976981e-02 0.0
9.427354e-01 7.987961e-02 0.0
9.375268e-01 6.074551e-02 0.0
9.312952e-01 4.271773e-02 0.0
9.246640e-01 2.584897e-02 0.0
9.182544e-01 1.012711e-02 0.0
9.126123e-01 -4.379179e-03 0.0
9.081350e-01 -1.739227e-02 0.0
9.050284e-01 -2.853338e-02 0.0
9.033375e-01 -3.732565e-02 0.0
9.029603e-01 -4.319487e-02 0.0
9.036581e-01 -4.547097e-02 0.0
9.049960e-01 -4.342135e-02 0.0
9.064564e-01 -3.672819e-02 0.0
9.077199e-01 -2.089793e-02 0.0
0.000000e+00 -2.153757e-02 0.0
1.000000e+00 -9.492485e-02 0.0
1.001307e+00 -9.462140e-02 0.0
1.003745e+00 -1.097378e-01 0.0
1.009207e+00 -1.431576e-01 0.0
1.022811e+00 -2.023708e-01 0.0
1.056571e+00 -3.013163e-01 0.0
1.137757e+00 -4.500962e-01 0.0
1.344314e+00 -7.788721e-01 0.0
1.319884e+00 -3.417214e-01 0.0
1.260329e+00 -1.671300e-01 0.0
1.212068e+00 -1.072812e-01 0.0
1.171156e+00 -7.621412e-02 0.0
1.131774e+00 -5.737333e-02 0.0
1.091504e+00 -4.862283e-02 0.0
1.052069e+00 -5.035709e-02 0.0
1.024593e+00 -6.716723e-02 0.0
1.019360e+00 -8.796911e-02 0.0
1.036001e+00 -9.443869e-02 0.0
1.069690e+00 -8.138321e-02 0.0
1.112670e+00 -5.074768e-02 0.0
1.151201e+00 -9.213950e-03 0.0
1.179103e+00 3.012575e-02 0.0
1.201014e+00 5.827554e-02 0.0
1.219681e+00 7.992818e-02 0.0
1.235030e+00 1.010238e-01 0.0
1.246365e+00 1.242826e-01 0.0
1.252224e+00 1.516657e-01 0.0
1.251067e+00 1.832497e-01 0.0
1.241696e+00 2.176588e-01 0.0
1.223586e+00 2.525159e-01 0.0
1.197029e+00 2.850866e-01 0.0
1.163174e+00 3.127138e-01 0.0
1.123975e+00 3.328819e-01 0.0
1.081472e+00 3.431031e-01 0.0
1.034959e+00 3.413082e-01 0.0
9.783191e-01 3.279189e-01 0.0
9.053008e-01 3.031981e-01 0.0
8.267579e-01 2.562694e-01 0.0
7.735044e-01 1.688870e-01 0.0
7.633991e-01 4.507683e-02 0.0
7.828944e-01 -8.533822e-02 0.0
8.109412e-01 -1.977402e-01 0.0
8.367470e-01 -2.871213e-01 0.0
8.582224e-01 -3.530625e-01 0.0
8.773112e-01 -3.898846e-01 0.0
8.964342e-01 -3.875073e-01 0.0
9.168324e-01 -3.411664e-01 0.0
9.388917e-01 -2.565023e-01 0.0
9.614267e-01 -1.474142e-01 0.0
9.812504e-01 -3.204623e-02 0.0
9.952222e-01 7.292098e-02 0.0
1.002781e+00 1.599758e-01 0.0
1.004419e+00 2.269549e-01 0.0
1.001152e+00 2.729720e-01 0.0
9.941711e-01 2.973936e-01 0.0
9.843508e-01 3.000651e-01 0.0
9.722798e-01 2.816153e-01 0.0
9.586684e-01 2.452333e-01 0.0
9.444452e-01 1.961035e-01 0.0
9.307944e-01 1.400321e-01 0.0
9.191904e-01 8.216956e-02 0.0
9.112772e-01 2.637614e-02 0.0
9.085339e-01 -2.464402e-02 0.0
9.115120e-01 -6.888347e-02 0.0
9.195521e-01 -1.052539e-01 0.0
9.313483e-01 -1.333467e-01 0.0
9.454628e-01 -1.531309e-01 0.0
9.605694e-01 -1.647342e-01 0.0
9.755142e-01 -1.683900e-01 0.0
9.892732e-01 -1.644514e-01 0.0
1.000962e+00 -1.534509e-01 0.0
1.009848e+00 -1.360905e-01 0.0
1.015268e+00 -1.131417e-01 0.0
1.016523e+00 -8.536466e-02 0.0
1.012795e+00 -5.336980e-02 0.0
1.003263e+00 -1.749244e-02 0.0
9.883457e-01 2.112322e-02 0.0
9.697768e-01 5.957968e-02 0.0
9.499957e-01 9.523546e-02 0.0
9.320055e-01 1.251239e-01 0.0
9.186533e-01 1.462926e-01 0.0
9.115166e-01 1.567798e-01 0.0
9.100789e-01 1.566041e-01 0.0
9.119565e-01 1.481356e-01 0.0
9.147540e-01 1.342636e-01 0.0
9.166770e-01 1.174839e-01 0.0
9.167771e-01 9.962108e-02 0.0
9.148642e-01 8.174378e-02 0.0
9.112327e-01 6.432839e-02 0.0
9.063845e-01 4.751727e-02 0.0
9.008450e-01 3.133973e-02 0.0
8.950754e-01 1.584810e-02 0.0
8.894612e-01 1.186287e-03 0.0
8.843504e-01 -1.233017e-02 0.0
8.800032e-01 -2.423480e-02 0.0
8.765940e-01 -3.396516e-02 0.0
8.742078e-01 -4.085731e-02 0.0
8.728317e-01 -4.414361e-02 0.0
8.722929e-01 -4.293118e-02 0.0
8.722562e-01 -3.674020e-02 0.0
8.725905e-01 -2.128087e-02 0.0
0.000000e+00 -2.197635e-02 0.0
1.000000e+00 -8.787301e-02 0.0
9.927502e-01 -8.755781e-02 0.0
9.843548e-01 -1.013909e-01 0.0
9.736591e-01 -1.325105e-01 0.0
9.609686e-01 -1.897289e-01 0.0
9.511096e-01 -2.915059e-01 0.0
9.701613e-01 -4.691965e-01 0.0
1.120301e+00 -9.290604e-01 0.0
9.584781e-01 -1.798094e-01 0.0
8.080766e-01 -1.663942e-02 0.0
7.244726e-01 -2.372573e-02 0.0
6.648400e-01 -1.663013e-02 0.0
6.074361e-01 -1.801965e-05 0.0
5.414446e-01 1.732011e-02 0.0
4.697740e-01 2.126494e-02 0.0
4.148614e-01 -1.230319e-02 0.0
3.978009e-01 -7.095724e-02 0.0
4.213792e-01 -1.180656e-01 0.0
4.710983e-01 -1.311509e-01 0.0
5.390814e-01 -1.187793e-01 0.0
6.186636e-01 -8.884473e-02 0.0
6.995749e-01 -5.083412e-02 0.0
7.701687e-01 -1.236683e-02 0.0
8.295775e-01 2.047072e-02 0.0
8.817717e-01 4.878106e-02 0.0
9.282197e-01 7.778605e-02 0.0
9.668433e-01 1.129935e-01 0.0
9.954677e-01 1.545767e-01 0.0
1.012309e+00 2.007688e-01 0.0
1.016449e+00 2.483273e-01 0.0
1.007783e+00 2.937037e-01 0.0
9.866975e-01 3.337511e-01 0.0
9.534012e-01 3.661296e-01 0.0
9.064881e-01 3.899676e-01 0.0
8.405269e-01 4.072207e-01 0.0
7.538119e-01 4.145853e-01 0.0
6.714772e-01 3.854843e-01 0.0
6.316557e-01 2.960423e-01 0.0
6.461276e-01 1.543665e-01 0.0
6.933734e-01 -2.217587e-03 0.0
7.448394e-01 -1.368528e-01 0.0
7.875756e-01 -2.405250e-01 0.0
8.171261e-01 -3.167204e-01 0.0
8.345440e-01 -3.705290e-01 0.0
8.446266e-01 -4.000157e-01 0.0
8.523837e-01 -3.953130e-01 0.0
8.607725e-01 -3.496038e-01 0.0
8.713119e-01 -2.670904e-01 0.0
8.842286e-01 -1.603795e-01 0.0
8.977413e-01 -4.560759e-02 0.0
9.088724e-01 6.174128e-02 0.0
9.162685e-01 1.525311e-01 0.0
9.197561e-01 2.234186e-01 0.0
9.198131e-01 2.728664e-01 0.0
9.171654e-01 2.999927e-01 0.0
9.123100e-01 3.048719e-01 0.0
9.052678e-01 2.886088e-01 0.0
8.961854e-01 2.542670e-01 0.0
8.857638e-01 2.064765e-01 0.0
8.755315e-01 1.502157e-01 0.0
8.676688e-01 8.998363e-02 0.0
8.643156e-01 2.968066e-02 0.0
8.667588e-01 -2.713584e-02 0.0
8.748084e-01 -7.698175e-02 0.0
8.869770e-01 -1.174711e-01 0.0
9.014009e-01 -1.478192e-01 0.0
9.164421e-01 -1.682208e-01 0.0
9.308377e-01 -1.791785e-01 0.0
9.436276e-01 -1.812285e-01 0.0
9.540147e-01 -1.748871e-01 0.0
9.613612e-01 -1.608461e-01 0.0
9.651554e-01 -1.399333e-01 0.0
9.649234e-01 -1.129582e-01 0.0
9.601528e-01 -8.064277e-02 0.0
9.503821e-01 -4.364782e-02 0.0
9.358009e-01 -2.959833e-03 0.0
9.184647e-01 3.841072e-02 0.0
9.007920e-01 7.720370e-02 0.0
8.854792e-01 1.104996e-01 0.0
8.749454e-01 1.356091e-01 0.0
8.704583e-01 1.507311e-01 0.0
8.715081e-01 1.556813e-01 0.0
8.759530e-01 1.521106e-01 0.0
8.814219e-01 1.426181e-01 0.0
8.861603e-01 1.294766e-01 0.0
8.891763e-01 1.144192e-01 0.0
8.901841e-01 9.856463e-02 0.0
8.893666e-01 8.251263e-02 0.0
8.871084e-01 6.653788e-02 0.0
8.838048e-01 5.077221e-02 0.0
8.797733e-01 3.532258e-02 0.0
8.752442e-01 2.032851e-02 0.0
8.703933e-01 5.988439e-03 0.0
8.654160e-01 -7.401537e-03 0.0
8.605332e-01 -1.940069e-02 0.0
8.559873e-01 -2.946785e-02 0.0
8.520238e-01 -3.694257e-02 0.0
8.488683e-01 -4.103678e-02 0.0
8.466595e-01 -4.077103e-02 0.0
8.453574e-01 -3.548678e-02 0.0
8.449035e-01 -2.087561e-02 0.0
0.000000e+00 -2.159762e-02 0.0
1.000000e+00 -7.292284e-02 0.0
9.848622e-01 -7.260615e-02 0.0
9.659858e-01 -8.256315e-02 0.0
9.380788e-01 -1.046520e-01 0.0
8.924835e-01 -1.441822e-01 0.0
8.118915e-01 -2.109625e-01 0.0
6.700370e-01 -3.273905e-01 0.0
1.800846e-01 -4.390190e-01 0.0
-9.567421e-01 4.395947e-01 0.0
0.000000e+00 -9.823262e-03 0.0
-5.070861e-02 1.015726e-02 0.0
-5.733987e-02 -1.004746e-02 0.0
-3.763341e-02 -1.977306e-02 0.0
-7.476097e-04 -1.961427e-02 0.0
2.321048e-02 -2.741733e-03 0.0
2.097821e-02 -1.011950e-02 0.0
1.324676e-03 -5.135228e-02 0.0
-9.733497e-03 -1.070560e-01 0.0
1.022862e-02 -1.511616e-01 0.0
6.041050e-02 -1.690098e-01 0.0
1.372679e-01 -1.657507e-01 0.0
2.326669e-01 -1.462818e-01 0.0
3.370106e-01 -1.167591e-01 0.0
4.412206e-01 -8.378785e-02 0.0
5.338536e-01 -4.390054e-02 0.0
6.091563e-01 2.434739e-03 0.0
6.709961e-01 5.110514e-02 0.0
7.198265e-01 1.056978e-01 0.0
7.533093e-01 1.672373e-01 0.0
7.698390e-01 2.317489e-01 0.0
7.682389e-01 2.952552e-01 0.0
7.471181e-01 3.548233e-01 0.0
7.045032e-01 4.086959e-01 0.0
6.389336e-01 4.554886e-01 0.0
5.577070e-01 4.883987e-01 0.0
4.940829e-01 4.781609e-01 0.0
4.789006e-01 4.006179e-01 0.0
5.168944e-01 2.579999e-01 0.0
5.891705e-01 8.204174e-02 0.0
6.670663e-01 -8.016199e-02 0.0
7.347850e-01 -2.046201e-01 0.0
7.864399e-01 -2.922284e-01 0.0
8.191684e-01 -3.494976e-01 0.0
8.336946e-01 -3.851038e-01 0.0
8.355756e-01 -4.019454e-01 0.0
8.328331e-01 -3.926191e-01 0.0
8.306519e-01 -3.474712e-01 0.0
8.310720e-01 -2.675592e-01 0.0
8.346729e-01 -1.640289e-01 0.0
8.406216e-01 -5.160498e-02 0.0
8.466664e-01 5.564785e-02 0.0
8.511744e-01 1.479744e-01 0.0
8.535163e-01 2.210281e-01 0.0
8.537104e-01 2.726237e-01 0.0
8.519892e-01 3.016653e-01 0.0
8.484217e-01 3.083907e-01 0.0
8.426846e-01 2.942972e-01 0.0
8.349378e-01 2.619653e-01 0.0
8.264137e-01 2.149519e-01 0.0
8.194296e-01 1.571512e-01 0.0
8.166104e-01 9.275419e-02 0.0
8.198582e-01 2.638416e-02 0.0
8.295513e-01 -3.687763e-02 0.0
8.442643e-01 -9.174331e-02 0.0
8.616540e-01 -1.349096e-01 0.0
8.794088e-01 -1.656226e-01 0.0
8.957982e-01 -1.846588e-01 0.0
9.097118e-01 -1.931407e-01 0.0
9.204508e-01 -1.920163e-01 0.0
9.275292e-01 -1.820142e-01 0.0
9.306090e-01 -1.639746e-01 0.0
9.294306e-01 -1.388036e-01 0.0
9.237997e-01 -1.073760e-01 0.0
9.136448e-01 -7.053655e-02 0.0
8.993740e-01 -2.942567e-02 0.0
8.828072e-01 1.355833e-02 0.0
8.665891e-01 5.458016e-02 0.0
8.530686e-01 9.067550e-02 0.0
8.442001e-01 1.193195e-01 0.0
8.409317e-01 1.388289e-01 0.0
8.427688e-01 1.488453e-01 0.0
8.479509e-01 1.504505e-01 0.0
8.542885e-01 1.457243e-01 0.0
8.601516e-01 1.367063e-01 0.0
8.646027e-01 1.249768e-01 0.0
8.673429e-01 1.116303e-01 0.0
8.685148e-01 9.734405e-02 0.0
8.684552e-01 8.252354e-02 0.0
8.674965e-01 6.744786e-02 0.0
8.658599e-01 5.236020e-02 0.0
8.636340e-01 3.749978e-02 0.0
8.608104e-01 2.310342e-02 0.0
8.573420e-01 9.408166e-03 0.0
8.532190e-01 -3.327255e-03 0.0
8.485325e-01 -1.476283e-02 0.0
8.434896e-01 -2.447363e-02 0.0
8.384109e-01 -3.191253e-02 0.0
8.337092e-01 -3.638383e-02 0.0
8.298512e-01 -3.696163e-02 0.0
8.272407e-01 -3.292503e-02 0.0
8.260700e-01 -1.975359e-02 0.0
0.000000e+00 -2.047010e-02 0.0
1.000000e+00 -5.231682e-02 0.0
9.792135e-01 -5.200586e-02 0.0
9.530376e-01 -5.643583e-02 0.0
9.136737e-01 -6.533661e-02 0.0
8.473254e-01 -7.788246e-02 0.0
7.247907e-01 -8.847635e-02 0.0
4.737442e-01 -7.639263e-02 0.0
-4.215528e-03 3.902982e-02 0.0
-1.346847e-04 0.000000e+00 0.0
0.000000e+00 -0.000000e+00 0.0
0.000000e+00 1.387541e-02 0.0
8.305861e-03 -1.840189e-02 0.0
-4.122549e-02 2.970971e-02 0.0
-9.115277e-02 3.026444e-02 0.0
-1.324355e-01 3.849246e-02 0.0
-1.639066e-01 2.130294e-02 0.0
-1.970342e-01 -1.827318e-02 0.0
-2.288285e-01 -7.531026e-02 0.0