# vtk DataFile Version 3.0
Vector Field
ASCII
DATASET RECTILINEAR_GRID
DIMENSIONS 102 22 1
X_COORDINATES 102 double
0.000000 0.100000 0.200000 0.300000 0.400000 0.500000 0.600000 0.700000 0.800000 0.900000 1.000000 1.100000 1.200000 1.300000 1.400000 1.500000 1.600000 1.700000 1.800000 1.900000 2.000000 2.100000 2.200000 2.300000 2.400000 2.500000 2.600000 2.700000 2.800000 2.900000 3.000000 3.100000 3.200000 3.300000 3.400000 3.500000 3.600000 3.700000 3.800000 3.900000 4.000000 4.100000 4.200000 4.300000 4.400000 4.500000 4.600000 4.700000 4.800000 4.900000 5.000000 5.100000 5.200000 5.300000 5.400000 5.500000 5.600000 5.700000 5.800000 5.900000 6.000000 6.100000 6.200000 6.300000 6.400000 6.500000 6.600000 6.700000 6.800000 6.900000 7.000000 7.100000 7.200000 7.300000 7.400000 7.500000 7.600000 7.700000 7.800000 7.900000 8.000000 8.100000 8.200000 8.300000 8.400000 8.500000 8.600000 8.700000 8.800000 8.900000 9.000000 9.100000 9.200000 9.300000 9.400000 9.500000 9.600000 9.700000 9.800000 9.900000 10.000000 10.100000 
Y_COORDINATES 22 double
0.000000 0.100000 0.200000 0.300000 0.400000 0.500000 0.600000 0.700000 0.800000 0.900000 1.000000 1.100000 1.200000 1.300000 1.400000 1.500000 1.600000 1.700000 1.800000 1.900000 2.000000 2.100000 
Z_COORDINATES 1 double
0.0
POINT_DATA 2244
VECTORS Velocity double
0.000000e+00 0.000000e+00 0.0
-1.024612e+00 0.000000e+00 0.0
-1.052214e+00 0.000000e+00 0.0
-1.085493e+00 0.000000e+00 0.0
-1.127046e+00 0.000000e+00 0.0
-1.178853e+00 0.000000e+00 0.0
-1.240471e+00 0.000000e+00 0.0
-1.311198e+00 0.000000e+00 0.0
-1.375569e+00 0.000000e+00 0.0
-1.424146e+00 0.000000e+00 0.0
-1.456265e+00 0.000000e+00 0.0
-1.475430e+00 0.000000e+00 0.0
-1.486049e+00 0.000000e+00 0.0
-1.492163e+00 0.000000e+00 0.0
-1.497283e+00 0.000000e+00 0.0
-1.504535e+00 0.000000e+00 0.0
-1.516541e+00 0.000000e+00 0.0
-1.534518e+00 0.000000e+00 0.0
-1.557103e+00 0.000000e+00 0.0
-1.580387e+00 0.000000e+00 0.0
-1.599729e+00 0.000000e+00 0.0
-1.611939e+00 0.000000e+00 0.0
-1.616236e+00 0.000000e+00 0.0
-1.613398e+00 0.000000e+00 0.0
-1.604251e+00 0.000000e+00 0.0
-1.589312e+00 0.000000e+00 0.0
-1.568830e+00 0.000000e+00 0.0
-1.542922e+00 0.000000e+00 0.0
-1.511704e+00 0.000000e+00 0.0
-1.475390e+00 0.000000e+00 0.0
-1.434347e+00 0.000000e+00 0.0
-1.389120e+00 0.000000e+00 0.0
-1.340449e+00 0.000000e+00 0.0
-1.289391e+00 0.000000e+00 0.0
-1.237466e+00 0.000000e+00 0.0
-1.186561e+00 0.000000e+00 0.0
-1.138703e+00 0.000000e+00 0.0
-1.095714e+00 0.000000e+00 0.0
-1.058860e+00 0.000000e+00 0.0
-1.028660e+00 0.000000e+00 0.0
-1.004900e+00 0.000000e+00 0.0
-9.868277e-01 0.000000e+00 0.0
-9.734157e-01 0.000000e+00 0.0
-9.635991e-01 0.000000e+00 0.0
-9.564312e-01 0.000000e+00 0.0
-9.511513e-01 0.000000e+00 0.0
-9.471901e-01 0.000000e+00 0.0
-9.441431e-01 0.000000e+00 0.0
-9.417328e-01 0.000000e+00 0.0
-9.397739e-01 0.000000e+00 0.0
-9.381449e-01 0.000000e+00 0.0
-9.367677e-01 0.000000e+00 0.0
-9.355927e-01 0.000000e+00 0.0
-9.345899e-01 0.000000e+00 0.0
-9.337413e-01 0.000000e+00 0.0
-9.330373e-01 0.000000e+00 0.0
-9.324725e-01 0.000000e+00 0.0
-9.320433e-01 0.000000e+00 0.0
-9.317452e-01 0.000000e+00 0.0
-9.315701e-01 0.000000e+00 0.0
-9.315062e-01 0.000000e+00 0.0
-9.315413e-01 0.000000e+00 0.0
-9.316638e-01 0.000000e+00 0.0
-9.318627e-01 0.000000e+00 0.0
-9.321273e-01 0.000000e+00 0.0
-9.324474e-01 0.000000e+00 0.0
-9.328136e-01 0.000000e+00 0.0
-9.332165e-01 0.000000e+00 0.0
-9.336479e-01 0.000000e+00 0.0
-9.340999e-01 0.000000e+00 0.0
-9.345653e-01 0.000000e+00 0.0
-9.350379e-01 0.000000e+00 0.0
-9.355118e-01 0.000000e+00 0.0
-9.359818e-01 0.000000e+00 0.0
-9.364434e-01 0.000000e+00 0.0
-9.368928e-01 0.000000e+00 0.0
-9.373272e-01 0.000000e+00 0.0
-9.377440e-01 0.000000e+00 0.0
-9.381414e-01 0.000000e+00 0.0
-9.385181e-01 0.000000e+00 0.0
-9.388732e-01 0.000000e+00 0.0
-9.392061e-01 0.000000e+00 0.0
-9.395165e-01 0.000000e+00 0.0
-9.398046e-01 0.000000e+00 0.0
-9.400705e-01 0.000000e+00 0.0
-9.403147e-01 0.000000e+00 0.0
-9.405378e-01 0.000000e+00 0.0
-9.407405e-01 0.000000e+00 0.0
-9.409234e-01 0.000000e+00 0.0
-9.410876e-01 0.000000e+00 0.0
-9.412339e-01 0.000000e+00 0.0
-9.413633e-01 0.000000e+00 0.0
-9.414770e-01 0.000000e+00 0.0
-9.415765e-01 0.000000e+00 0.0
-9.416639e-01 0.000000e+00 0.0
-9.417423e-01 0.000000e+00 0.0
-9.418179e-01 0.000000e+00 0.0
-9.419030e-01 0.000000e+00 0.0
-9.420264e-01 0.000000e+00 0.0
-9.422961e-01 0.000000e+00 0.0
-9.422961e-01 0.000000e+00 0.0
0.000000e+00 0.000000e+00 0.0
1.000000e+00 -2.493158e-02 0.0
1.024832e+00 -2.512998e-02 0.0
1.052653e+00 -2.799290e-02 0.0
1.086164e+00 -3.368184e-02 0.0
1.127960e+00 -4.196721e-02 0.0
1.180014e+00 -5.222617e-02 0.0
1.241861e+00 -6.201844e-02 0.0
1.312765e+00 -7.107510e-02 0.0
1.377152e+00 -6.455836e-02 0.0
1.425507e+00 -4.852630e-02 0.0
1.457137e+00 -3.180192e-02 0.0
1.475537e+00 -1.857113e-02 0.0
1.485100e+00 -9.735064e-03 0.0
1.489836e+00 -4.907142e-03 0.0
1.493213e+00 -3.548038e-03 0.0
1.498366e+00 -5.324621e-03 0.0
1.508095e+00 -9.901267e-03 0.0
1.524110e+00 -1.618562e-02 0.0
1.545729e+00 -2.179137e-02 0.0
1.569475e+00 -2.391685e-02 0.0
1.590549e+00 -2.124639e-02 0.0
1.605160e+00 -1.478239e-02 0.0
1.611875e+00 -6.886757e-03 0.0
1.611211e+00 4.929061e-04 0.0
1.604051e+00 6.988455e-03 0.0
1.590960e+00 1.291911e-02 0.0
1.572216e+00 1.857284e-02 0.0
1.547937e+00 2.410650e-02 0.0
1.518232e+00 2.953423e-02 0.0
1.483290e+00 3.476989e-02 0.0
1.443455e+00 3.966328e-02 0.0
1.399245e+00 4.403797e-02 0.0
1.351365e+00 4.770827e-02 0.0
1.300795e+00 5.039818e-02 0.0
1.248958e+00 5.166589e-02 0.0
1.197681e+00 5.110498e-02 0.0
1.148989e+00 4.852030e-02 0.0
1.104780e+00 4.403749e-02 0.0
1.066465e+00 3.814279e-02 0.0
1.034736e+00 3.155716e-02 0.0
1.009534e+00 2.503002e-02 0.0
9.902111e-01 1.915098e-02 0.0
9.757860e-01 1.425320e-02 0.0
9.651923e-01 1.042178e-02 0.0
9.574525e-01 7.567800e-03 0.0
9.517641e-01 5.516494e-03 0.0
9.475164e-01 4.075644e-03 0.0
9.442701e-01 3.074334e-03 0.0
9.417206e-01 2.377425e-03 0.0
9.396630e-01 1.885580e-03 0.0
9.379619e-01 1.529084e-03 0.0
9.365294e-01 1.260381e-03 0.0
9.353097e-01 1.047545e-03 0.0
9.342683e-01 8.693038e-04 0.0
9.333845e-01 7.116651e-04 0.0
9.326467e-01 5.656546e-04 0.0
9.320486e-01 4.258961e-04 0.0
9.315864e-01 2.899816e-04 0.0
9.312561e-01 1.581150e-04 0.0
9.310510e-01 3.286586e-05 0.0
9.309601e-01 -8.139589e-05 0.0
9.309712e-01 -1.833777e-04 0.0
9.310726e-01 -2.736066e-04 0.0
9.312529e-01 -3.526983e-04 0.0
9.315018e-01 -4.211413e-04 0.0
9.318088e-01 -4.793843e-04 0.0
9.321643e-01 -5.279045e-04 0.0
9.325592e-01 -5.672379e-04 0.0
9.329848e-01 -5.979838e-04 0.0
9.334332e-01 -6.207960e-04 0.0
9.338971e-01 -6.363666e-04 0.0
9.343701e-01 -6.453921e-04 0.0
9.348461e-01 -6.484931e-04 0.0
9.353198e-01 -6.461763e-04 0.0
9.357865e-01 -6.391753e-04 0.0
9.362423e-01 -6.282583e-04 0.0
9.366839e-01 -6.141290e-04 0.0
9.371088e-01 -5.974232e-04 0.0
9.375150e-01 -5.787101e-04 0.0
9.379010e-01 -5.584951e-04 0.0
9.382656e-01 -5.372231e-04 0.0
9.386083e-01 -5.152809e-04 0.0
9.389288e-01 -4.930010e-04 0.0
9.392268e-01 -4.706645e-04 0.0
9.395028e-01 -4.485054e-04 0.0
9.397569e-01 -4.267144e-04 0.0
9.399897e-01 -4.054442e-04 0.0
9.402019e-01 -3.848150e-04 0.0
9.403942e-01 -3.649223e-04 0.0
9.405674e-01 -3.458475e-04 0.0
9.407225e-01 -3.276731e-04 0.0
9.408603e-01 -3.105060e-04 0.0
9.409822e-01 -2.945156e-04 0.0
9.410895e-01 -2.800028e-04 0.0
9.411844e-01 -2.675396e-04 0.0
9.412701e-01 -2.582916e-04 0.0
9.413525e-01 -2.550888e-04 0.0
9.414443e-01 -2.644872e-04 0.0
9.415743e-01 -3.026516e-04 0.0
9.418511e-01 -4.494888e-04 0.0
9.422961e-01 -6.176432e-04 0.0
0.000000e+00 -6.224649e-04 0.0
1.000000e+00 -5.002556e-02 0.0
1.025134e+00 -5.043539e-02 0.0
1.053285e+00 -5.618884e-02 0.0
1.087303e+00 -6.774466e-02 0.0
1.130136e+00 -8.484492e-02 0.0
1.184475e+00 -1.066098e-01 0.0
1.250136e+00 -1.277239e-01 0.0
1.330900e+00 -1.518839e-01 0.0
1.401043e+00 -1.347459e-01 0.0
1.450630e+00 -9.815848e-02 0.0
1.481679e+00 -6.289534e-02 0.0
1.499351e+00 -3.628752e-02 0.0
1.508568e+00 -1.899754e-02 0.0
1.513254e+00 -9.637365e-03 0.0
1.516456e+00 -6.794522e-03 0.0
1.520901e+00 -9.815076e-03 0.0
1.529306e+00 -1.835036e-02 0.0
1.543879e+00 -3.080334e-02 0.0
1.564829e+00 -4.278634e-02 0.0
1.589179e+00 -4.831208e-02 0.0
1.612086e+00 -4.419813e-02 0.0
1.629274e+00 -3.201495e-02 0.0
1.638663e+00 -1.632101e-02 0.0
1.640526e+00 -1.414283e-03 0.0
1.635998e+00 1.147173e-02 0.0
1.625752e+00 2.312035e-02 0.0
1.610075e+00 3.420464e-02 0.0
1.589061e+00 4.507618e-02 0.0
1.562793e+00 5.575723e-02 0.0
1.531454e+00 6.606437e-02 0.0
1.495391e+00 7.568077e-02 0.0
1.455176e+00 8.420835e-02 0.0
1.411596e+00 9.124393e-02 0.0
1.365614e+00 9.633528e-02 0.0
1.318378e+00 9.885700e-02 0.0
1.271405e+00 9.803334e-02 0.0
1.226496e+00 9.338441e-02 0.0
1.185363e+00 8.512509e-02 0.0
1.149295e+00 7.416604e-02 0.0
1.118948e+00 6.185987e-02 0.0
1.094320e+00 4.961299e-02 0.0
1.074891e+00 3.853509e-02 0.0
1.059840e+00 2.925916e-02 0.0
1.048261e+00 2.195555e-02 0.0
1.039316e+00 1.646838e-02 0.0
1.032309e+00 1.247890e-02 0.0
1.026707e+00 9.632692e-03 0.0
1.022124e+00 7.612179e-03 0.0
1.018292e+00 6.164352e-03 0.0
1.015031e+00 5.101934e-03 0.0
1.012222e+00 4.293000e-03 0.0
1.009790e+00 3.647918e-03 0.0
1.007685e+00 3.107539e-03 0.0
1.005876e+00 2.633701e-03 0.0
1.004339e+00 2.202956e-03 0.0
1.003058e+00 1.802230e-03 0.0
1.002014e+00 1.425176e-03 0.0
1.001189e+00 1.070158e-03 0.0
1.000563e+00 7.383887e-04 0.0
1.000119e+00 4.321651e-04 0.0
9.998390e-01 1.536818e-04 0.0
9.997071e-01 -9.638330e-05 0.0
9.997071e-01 -3.185633e-04 0.0
9.998233e-01 -5.139129e-04 0.0
1.000041e+00 -6.834439e-04 0.0
1.000345e+00 -8.281862e-04 0.0
1.000721e+00 -9.492657e-04 0.0
1.001157e+00 -1.047945e-03 0.0
1.001639e+00 -1.125634e-03 0.0
1.002157e+00 -1.183880e-03 0.0
1.002700e+00 -1.224356e-03 0.0
1.003259e+00 -1.248846e-03 0.0
1.003825e+00 -1.259248e-03 0.0
1.004391e+00 -1.257537e-03 0.0
1.004952e+00 -1.245374e-03 0.0
1.005503e+00 -1.224275e-03 0.0
1.006040e+00 -1.195688e-03 0.0
1.006558e+00 -1.160975e-03 0.0
1.007056e+00 -1.121397e-03 0.0
1.007531e+00 -1.078101e-03 0.0
1.007980e+00 -1.032117e-03 0.0
1.008404e+00 -9.843514e-04 0.0
1.008802e+00 -9.355910e-04 0.0
1.009173e+00 -8.865045e-04 0.0
1.009517e+00 -8.376501e-04 0.0
1.009835e+00 -7.894833e-04 0.0
1.010127e+00 -7.423690e-04 0.0
1.010393e+00 -6.965954e-04 0.0
1.010636e+00 -6.523910e-04 0.0
1.010855e+00 -6.099470e-04 0.0
1.011052e+00 -5.694459e-04 0.0
1.011227e+00 -5.311022e-04 0.0
1.011383e+00 -4.952269e-04 0.0
1.011520e+00 -4.623356e-04 0.0
1.011641e+00 -4.333477e-04 0.0
1.011748e+00 -4.099747e-04 0.0
1.011843e+00 -3.952311e-04 0.0
1.011929e+00 -3.958190e-04 0.0
1.012006e+00 -4.244664e-04 0.0
1.012023e+00 -5.119697e-04 0.0
1.011984e+00 -6.240037e-04 0.0
0.000000e+00 -6.267568e-04 0.0
1.000000e+00 -7.200197e-02 0.0
1.022008e+00 -7.261447e-02 0.0
1.047145e+00 -8.137068e-02 0.0
1.078566e+00 -9.921107e-02 0.0
1.120018e+00 -1.263413e-01 0.0
1.175848e+00 -1.624844e-01 0.0
1.247176e+00 -1.990965e-01 0.0
1.348723e+00 -2.534756e-01 0.0
1.426400e+00 -2.124679e-01 0.0
1.473300e+00 -1.451033e-01 0.0
1.498732e+00 -8.837150e-02 0.0
1.511068e+00 -4.866841e-02 0.0
1.515907e+00 -2.388180e-02 0.0
1.516802e+00 -1.057678e-02 0.0
1.516024e+00 -6.061368e-03 0.0
1.515357e+00 -9.192354e-03 0.0
1.516965e+00 -2.000325e-02 0.0
1.523698e+00 -3.758139e-02 0.0
1.537847e+00 -5.698018e-02 0.0
1.558538e+00 -6.904720e-02 0.0
1.581153e+00 -6.685881e-02 0.0
1.600481e+00 -5.138735e-02 0.0
1.612895e+00 -2.877949e-02 0.0
1.617504e+00 -6.068642e-03 0.0
1.615688e+00 1.324374e-02 0.0
1.608404e+00 3.035955e-02 0.0
1.595972e+00 4.659138e-02 0.0
1.578402e+00 6.260101e-02 0.0
1.555699e+00 7.841623e-02 0.0
1.527983e+00 9.373525e-02 0.0
1.495573e+00 1.080456e-01 0.0
1.459008e+00 1.207292e-01 0.0
1.419035e+00 1.311715e-01 0.0
1.376569e+00 1.387563e-01 0.0
1.332663e+00 1.427184e-01 0.0
1.288660e+00 1.419919e-01 0.0
1.246205e+00 1.357940e-01 0.0
1.206889e+00 1.243965e-01 0.0
1.171901e+00 1.091094e-01 0.0
1.141836e+00 9.188000e-02 0.0
1.116687e+00 7.471662e-02 0.0
1.095995e+00 5.918289e-02 0.0
1.079060e+00 4.614894e-02 0.0
1.065146e+00 3.582486e-02 0.0
1.053602e+00 2.796723e-02 0.0
1.043918e+00 2.211792e-02 0.0
1.035721e+00 1.778489e-02 0.0
1.028748e+00 1.454069e-02 0.0
1.022812e+00 1.205564e-02 0.0
1.017775e+00 1.009377e-02 0.0
1.013529e+00 8.494085e-03 0.0
1.009982e+00 7.149911e-03 0.0
1.007053e+00 5.991311e-03 0.0
1.004670e+00 4.972303e-03 0.0
1.002765e+00 4.063287e-03 0.0
1.001276e+00 3.245588e-03 0.0
1.000149e+00 2.507034e-03 0.0
9.993344e-01 1.840317e-03 0.0
9.987866e-01 1.241220e-03 0.0
9.984678e-01 7.060356e-04 0.0
9.983448e-01 2.317939e-04 0.0
9.983894e-01 -1.859461e-04 0.0
9.985775e-01 -5.516223e-04 0.0
9.988871e-01 -8.684540e-04 0.0
9.992979e-01 -1.139275e-03 0.0
9.997916e-01 -1.366807e-03 0.0
1.000351e+00 -1.553797e-03 0.0
1.000961e+00 -1.703088e-03 0.0
1.001608e+00 -1.817640e-03 0.0
1.002280e+00 -1.900522e-03 0.0
1.002966e+00 -1.954877e-03 0.0
1.003656e+00 -1.983885e-03 0.0
1.004342e+00 -1.990703e-03 0.0
1.005018e+00 -1.978385e-03 0.0
1.005677e+00 -1.949763e-03 0.0
1.006315e+00 -1.907486e-03 0.0
1.006929e+00 -1.854015e-03 0.0
1.007514e+00 -1.791615e-03 0.0
1.008070e+00 -1.722331e-03 0.0
1.008595e+00 -1.647990e-03 0.0
1.009088e+00 -1.570194e-03 0.0
1.009549e+00 -1.490335e-03 0.0
1.009978e+00 -1.409601e-03 0.0
1.010376e+00 -1.328983e-03 0.0
1.010742e+00 -1.249295e-03 0.0
1.011079e+00 -1.171188e-03 0.0
1.011387e+00 -1.095173e-03 0.0
1.011667e+00 -1.021645e-03 0.0
1.011920e+00 -9.509021e-04 0.0
1.012148e+00 -8.831842e-04 0.0
1.012353e+00 -8.187044e-04 0.0
1.012534e+00 -7.577011e-04 0.0
1.012694e+00 -7.005124e-04 0.0
1.012835e+00 -6.476901e-04 0.0
1.012957e+00 -6.001890e-04 0.0
1.013061e+00 -5.596759e-04 0.0
1.013150e+00 -5.289937e-04 0.0
1.013222e+00 -5.131742e-04 0.0
1.013273e+00 -5.198508e-04 0.0
1.013274e+00 -5.579068e-04 0.0
1.013217e+00 -6.125635e-04 0.0
0.000000e+00 -6.133943e-04 0.0
1.000000e+00 -8.919302e-02 0.0
1.017209e+00 -8.999469e-02 0.0
1.037502e+00 -1.017083e-01 0.0
1.064316e+00 -1.260705e-01 0.0
1.102578e+00 -1.646474e-01 0.0
1.159432e+00 -2.193833e-01 0.0
1.240296e+00 -2.800056e-01 0.0
1.377751e+00 -3.909746e-01 0.0
1.457181e+00 -2.919428e-01 0.0
1.491664e+00 -1.796310e-01 0.0
1.504623e+00 -1.013757e-01 0.0
1.507433e+00 -5.152302e-02 0.0
1.505019e+00 -2.151244e-02 0.0
1.499561e+00 -5.163331e-03 0.0
1.491962e+00 1.492738e-03 0.0
1.482412e+00 3.133955e-04 0.0
1.471531e+00 -9.167174e-03 0.0
1.462055e+00 -2.815051e-02 0.0
1.459051e+00 -5.402095e-02 0.0
1.466798e+00 -7.683893e-02 0.0
1.483348e+00 -8.345340e-02 0.0
1.503286e+00 -7.136991e-02 0.0
1.521212e+00 -4.675043e-02 0.0
1.532871e+00 -1.777302e-02 0.0
1.537546e+00 8.523915e-03 0.0
1.536858e+00 3.100342e-02 0.0
1.531263e+00 5.214127e-02 0.0
1.520631e+00 7.318877e-02 0.0
1.504807e+00 9.419506e-02 0.0
1.483778e+00 1.147197e-01 0.0
1.457738e+00 1.340400e-01 0.0
1.427153e+00 1.512696e-01 0.0
1.392753e+00 1.655275e-01 0.0
1.355444e+00 1.760198e-01 0.0
1.316202e+00 1.819154e-01 0.0
1.276154e+00 1.819959e-01 0.0
1.236829e+00 1.750741e-01 0.0
1.199784e+00 1.613962e-01 0.0
1.166223e+00 1.426253e-01 0.0
1.136795e+00 1.212635e-01 0.0
1.111592e+00 9.987519e-02 0.0
1.090294e+00 8.043542e-02 0.0
1.072375e+00 6.402363e-02 0.0
1.057272e+00 5.088294e-02 0.0
1.044499e+00 4.069507e-02 0.0
1.033683e+00 3.288952e-02 0.0
1.024550e+00 2.687238e-02 0.0
1.016901e+00 2.214501e-02 0.0
1.010574e+00 1.833747e-02 0.0
1.005428e+00 1.519524e-02 0.0
1.001327e+00 1.254999e-02 0.0
9.981405e-01 1.029171e-02 0.0
9.957406e-01 8.346294e-03 0.0
9.940086e-01 6.659370e-03 0.0
9.928361e-01 5.190915e-03 0.0
9.921249e-01 3.911822e-03 0.0
9.917904e-01 2.796651e-03 0.0
9.917609e-01 1.824850e-03 0.0
9.919749e-01 9.822759e-04 0.0
9.923828e-01 2.532496e-04 0.0
9.929475e-01 -3.778351e-04 0.0
9.936387e-01 -9.221816e-04 0.0
9.944296e-01 -1.387420e-03 0.0
9.952960e-01 -1.779784e-03 0.0
9.962166e-01 -2.104899e-03 0.0
9.971729e-01 -2.368091e-03 0.0
9.981487e-01 -2.574547e-03 0.0
9.991301e-01 -2.729398e-03 0.0
1.000105e+00 -2.837742e-03 0.0
1.001064e+00 -2.904622e-03 0.0
1.001999e+00 -2.934966e-03 0.0
1.002904e+00 -2.933557e-03 0.0
1.003773e+00 -2.904949e-03 0.0
1.004603e+00 -2.853413e-03 0.0
1.005392e+00 -2.782912e-03 0.0
1.006136e+00 -2.697080e-03 0.0
1.006836e+00 -2.599209e-03 0.0
1.007492e+00 -2.492245e-03 0.0
1.008103e+00 -2.378790e-03 0.0
1.008671e+00 -2.261106e-03 0.0
1.009197e+00 -2.141143e-03 0.0
1.009683e+00 -2.020552e-03 0.0
1.010129e+00 -1.900706e-03 0.0
1.010537e+00 -1.782721e-03 0.0
1.010911e+00 -1.667482e-03 0.0
1.011250e+00 -1.555672e-03 0.0
1.011558e+00 -1.447802e-03 0.0
1.011835e+00 -1.344237e-03 0.0
1.012084e+00 -1.245228e-03 0.0
1.012307e+00 -1.150950e-03 0.0
1.012505e+00 -1.061540e-03 0.0
1.012679e+00 -9.771521e-04 0.0
1.012832e+00 -8.980267e-04 0.0
1.012964e+00 -8.245947e-04 0.0
1.013076e+00 -7.576256e-04 0.0
1.013170e+00 -6.984326e-04 0.0
1.013245e+00 -6.491234e-04 0.0
1.013300e+00 -6.128515e-04 0.0
1.013328e+00 -5.933037e-04 0.0
1.013317e+00 -5.923461e-04 0.0
1.013258e+00 -5.985809e-04 0.0
0.000000e+00 -5.975291e-04 0.0
1.000000e+00 -9.988823e-02 0.0
1.010693e+00 -1.008594e-01 0.0
1.023968e+00 -1.150272e-01 0.0
1.043132e+00 -1.452792e-01 0.0
1.074175e+00 -1.957356e-01 0.0
1.127854e+00 -2.731074e-01 0.0
1.219291e+00 -3.714869e-01 0.0
1.402766e+00 -5.744945e-01 0.0
1.459640e+00 -3.488612e-01 0.0
1.465839e+00 -1.858745e-01 0.0
1.458751e+00 -9.433321e-02 0.0
1.448113e+00 -4.092982e-02 0.0
1.436130e+00 -9.573578e-03 0.0
1.421858e+00 9.063558e-03 0.0
1.404928e+00 1.837810e-02 0.0
1.384461e+00 2.073522e-02 0.0
1.358127e+00 1.712207e-02 0.0
1.324360e+00 5.572399e-03 0.0
1.288761e+00 -1.846717e-02 0.0
1.264043e+00 -5.216507e-02 0.0
1.258782e+00 -7.823717e-02 0.0
1.269509e+00 -8.214248e-02 0.0
1.291605e+00 -6.889108e-02 0.0
1.318619e+00 -4.483165e-02 0.0
1.342120e+00 -1.502171e-02 0.0
1.358061e+00 1.501799e-02 0.0
1.368433e+00 4.172370e-02 0.0
1.373342e+00 6.823557e-02 0.0
1.372467e+00 9.502513e-02 0.0
1.365636e+00 1.215058e-01 0.0
1.352856e+00 1.467755e-01 0.0
1.334453e+00 1.696277e-01 0.0
1.311114e+00 1.888212e-01 0.0
1.283789e+00 2.033003e-01 0.0
1.253517e+00 2.121426e-01 0.0
1.221261e+00 2.142069e-01 0.0
1.188409e+00 2.078819e-01 0.0
1.156526e+00 1.932339e-01 0.0
1.126901e+00 1.722058e-01 0.0
1.100319e+00 1.478003e-01 0.0
1.077063e+00 1.230864e-01 0.0
1.057045e+00 1.004091e-01 0.0
1.039981e+00 8.104262e-02 0.0
1.025537e+00 6.528132e-02 0.0
1.013412e+00 5.277552e-02 0.0
1.003360e+00 4.289659e-02 0.0
9.951851e-01 3.500256e-02 0.0
9.887154e-01 2.856987e-02 0.0
9.837839e-01 2.322407e-02 0.0
9.802173e-01 1.871692e-02 0.0
9.778362e-01 1.488619e-02 0.0
9.764580e-01 1.162504e-02 0.0
9.759005e-01 8.858841e-03 0.0
9.759964e-01 6.518552e-03 0.0
9.765995e-01 4.542921e-03 0.0
9.775778e-01 2.888586e-03 0.0
9.788222e-01 1.507315e-03 0.0
9.802532e-01 3.489259e-04 0.0
9.818190e-01 -6.283875e-04 0.0
9.834802e-01 -1.452971e-03 0.0
9.852018e-01 -2.144322e-03 0.0
9.869520e-01 -2.717366e-03 0.0
9.887041e-01 -3.184410e-03 0.0
9.904356e-01 -3.556274e-03 0.0
9.921285e-01 -3.842811e-03 0.0
9.937686e-01 -4.053160e-03 0.0
9.953450e-01 -4.195854e-03 0.0
9.968495e-01 -4.278934e-03 0.0
9.982768e-01 -4.310021e-03 0.0
9.996235e-01 -4.296310e-03 0.0
1.000888e+00 -4.244474e-03 0.0
1.002070e+00 -4.160707e-03 0.0
1.003171e+00 -4.050741e-03 0.0
1.004192e+00 -3.919797e-03 0.0
1.005137e+00 -3.772549e-03 0.0
1.006008e+00 -3.613151e-03 0.0
1.006809e+00 -3.445251e-03 0.0
1.007544e+00 -3.271996e-03 0.0
1.008216e+00 -3.096090e-03 0.0
1.008830e+00 -2.919822e-03 0.0
1.009389e+00 -2.745093e-03 0.0
1.009897e+00 -2.573453e-03 0.0
1.010357e+00 -2.406131e-03 0.0
1.010773e+00 -2.244076e-03 0.0
1.011149e+00 -2.087989e-03 0.0
1.011487e+00 -1.938358e-03 0.0
1.011789e+00 -1.795492e-03 0.0
1.012059e+00 -1.659555e-03 0.0
1.012300e+00 -1.530598e-03 0.0
1.012512e+00 -1.408592e-03 0.0
1.012699e+00 -1.293474e-03 0.0
1.012862e+00 -1.185189e-03 0.0
1.013003e+00 -1.083755e-03 0.0
1.013123e+00 -9.893419e-04 0.0
1.013222e+00 -9.023724e-04 0.0
1.013303e+00 -8.236316e-04 0.0
1.013363e+00 -7.543438e-04 0.0
1.013401e+00 -6.960888e-04 0.0
1.013413e+00 -6.501022e-04 0.0
1.013391e+00 -6.160803e-04 0.0
1.013329e+00 -5.810825e-04 0.0
0.000000e+00 -5.782271e-04 0.0
1.000000e+00 -1.026010e-01 0.0
1.002684e+00 -1.037147e-01 0.0
1.006632e+00 -1.190202e-01 0.0
1.013919e+00 -1.526105e-01 0.0
1.029955e+00 -2.118166e-01 0.0
1.067369e+00 -3.105665e-01 0.0
1.154645e+00 -4.588067e-01 0.0
1.374870e+00 -7.947643e-01 0.0
1.364083e+00 -3.381194e-01 0.0
1.318124e+00 -1.399606e-01 0.0
1.283721e+00 -5.997446e-02 0.0
1.259373e+00 -1.662692e-02 0.0
1.236525e+00 1.323029e-02 0.0
1.211392e+00 3.415177e-02 0.0
1.181924e+00 4.780105e-02 0.0
1.147737e+00 5.487756e-02 0.0
1.106478e+00 5.833591e-02 0.0
1.052122e+00 5.988424e-02 0.0
9.818469e-01 5.176287e-02 0.0
9.049259e-01 2.471124e-02 0.0
8.456179e-01 -1.897395e-02 0.0
8.225065e-01 -5.907590e-02 0.0
8.357278e-01 -8.215711e-02 0.0
8.803754e-01 -8.952405e-02 0.0
9.458984e-01 -8.058944e-02 0.0
1.014827e+00 -5.395558e-02 0.0
1.069295e+00 -1.278918e-02 0.0
1.107050e+00 3.043648e-02 0.0
1.134024e+00 6.800569e-02 0.0
1.152102e+00 1.033828e-01 0.0
1.161730e+00 1.371032e-01 0.0
1.163339e+00 1.679735e-01 0.0
1.157766e+00 1.943495e-01 0.0
1.146191e+00 2.148303e-01 0.0
1.129965e+00 2.283241e-01 0.0
1.110307e+00 2.338202e-01 0.0
1.088362e+00 2.297818e-01 0.0
1.065689e+00 2.158624e-01 0.0
1.043637e+00 1.942129e-01 0.0
1.023146e+00 1.682459e-01 0.0
1.004756e+00 1.414320e-01 0.0
9.887098e-01 1.164105e-01 0.0
9.750743e-01 9.463328e-02 0.0
9.638180e-01 7.649271e-02 0.0
9.548554e-01 6.169328e-02 0.0
9.480697e-01 4.963745e-02 0.0
9.433171e-01 3.971024e-02 0.0
9.404245e-01 3.141765e-02 0.0
9.391866e-01 2.441707e-02 0.0
9.393665e-01 1.849207e-02 0.0
9.407137e-01 1.349416e-02 0.0
9.429763e-01 9.317511e-03 0.0
9.458928e-01 5.897450e-03 0.0
9.492294e-01 3.137012e-03 0.0
9.528158e-01 9.115646e-04 0.0
9.565502e-01 -8.906552e-04 0.0
9.603613e-01 -2.348789e-03 0.0
9.641831e-01 -3.517798e-03 0.0
9.679537e-01 -4.443886e-03 0.0
9.716209e-01 -5.165098e-03 0.0
9.751448e-01 -5.713227e-03 0.0
9.784973e-01 -6.114772e-03 0.0
9.816598e-01 -6.391883e-03 0.0
9.846220e-01 -6.563414e-03 0.0
9.873798e-01 -6.645574e-03 0.0
9.899341e-01 -6.652441e-03 0.0
9.922895e-01 -6.596185e-03 0.0
9.944529e-01 -6.487374e-03 0.0
9.964333e-01 -6.335384e-03 0.0
9.982406e-01 -6.148545e-03 0.0
9.998854e-01 -5.934274e-03 0.0
1.001379e+00 -5.699147e-03 0.0
1.002732e+00 -5.448951e-03 0.0
1.003956e+00 -5.188715e-03 0.0
1.005061e+00 -4.922714e-03 0.0
1.006058e+00 -4.654576e-03 0.0
1.006955e+00 -4.387378e-03 0.0
1.007761e+00 -4.123665e-03 0.0
1.008486e+00 -3.865512e-03 0.0
1.009135e+00 -3.614569e-03 0.0
1.009717e+00 -3.372110e-03 0.0
1.010238e+00 -3.139080e-03 0.0
1.010703e+00 -2.916136e-03 0.0
1.011118e+00 -2.703689e-03 0.0
1.011487e+00 -2.501938e-03 0.0
1.011814e+00 -2.310907e-03 0.0
1.012104e+00 -2.130476e-03 0.0
1.012360e+00 -1.960411e-03 0.0
1.012585e+00 -1.800393e-03 0.0
1.012781e+00 -1.650047e-03 0.0
1.012952e+00 -1.508979e-03 0.0
1.013098e+00 -1.376808e-03 0.0
1.013223e+00 -1.253216e-03 0.0
1.013326e+00 -1.138000e-03 0.0
1.013410e+00 -1.031133e-03 0.0
1.013474e+00 -9.328006e-04 0.0
1.013518e+00 -8.433812e-04 0.0
1.013540e+00 -7.632625e-04 0.0
1.013537e+00 -6.922224e-04 0.0
1.013505e+00 -6.293828e-04 0.0
1.013438e+00 -5.588603e-04 0.0
0.000000e+00 -5.543225e-04 0.0
1.000000e+00 -9.656357e-02 0.0
9.938990e-01 -9.778509e-02 0.0
9.868004e-01 -1.119664e-01 0.0
9.777713e-01 -1.436261e-01 0.0
9.674894e-01 -2.015795e-01 0.0
9.614487e-01 -3.045705e-01 0.0
9.868231e-01 -4.842258e-01 0.0
1.147411e+00 -9.553968e-01 0.0
1.006764e+00 -1.973907e-01 0.0
8.831149e-01 -1.622940e-02 0.0
8.234351e-01 -3.393728e-04 0.0
7.866629e-01 2.010055e-02 0.0
7.544678e-01 4.538059e-02 0.0
7.153012e-01 7.327368e-02 0.0
6.604413e-01 1.026162e-01 0.0
5.864494e-01 1.288247e-01 0.0
4.993013e-01 1.454393e-01 0.0
4.179981e-01 1.411426e-01 0.0
3.464029e-01 1.233133e-01 0.0
2.764041e-01 9.466531e-02 0.0
2.107392e-01 4.664618e-02 0.0
1.785796e-01 -2.696105e-02 0.0
2.093024e-01 -1.129247e-01 0.0
3.003617e-01 -1.806281e-01 0.0
4.259034e-01 -2.061760e-01 0.0
5.608603e-01 -1.889572e-01 0.0
6.841248e-01 -1.360985e-01 0.0
7.811343e-01 -6.661779e-02 0.0
8.470817e-01 2.013457e-03 0.0
8.931012e-01 5.731852e-02 0.0
9.255899e-01 1.045698e-01 0.0
9.467672e-01 1.467513e-01 0.0
9.582977e-01 1.827743e-01 0.0
9.618863e-01 2.111969e-01 0.0
9.593297e-01 2.308359e-01 0.0
9.523913e-01 2.407137e-01 0.0
9.423282e-01 2.398001e-01 0.0
9.305197e-01 2.276261e-01 0.0
9.181681e-01 2.065196e-01 0.0
9.062050e-01 1.801641e-01 0.0
8.953405e-01 1.522517e-01 0.0
8.861164e-01 1.255897e-01 0.0
8.789187e-01 1.017861e-01 0.0
8.739546e-01 8.141196e-02 0.0
8.712471e-01 6.435593e-02 0.0
8.706846e-01 5.015502e-02 0.0
8.720670e-01 3.828298e-02 0.0
8.751421e-01 2.829771e-02 0.0
8.796342e-01 1.988008e-02 0.0
8.852320e-01 1.284935e-02 0.0
8.916389e-01 7.042406e-03 0.0
8.986288e-01 2.282629e-03 0.0
9.060637e-01 -1.582291e-03 0.0
9.138202e-01 -4.664451e-03 0.0
9.217334e-01 -7.046495e-03 0.0
9.296197e-01 -8.821872e-03 0.0
9.373106e-01 -1.008465e-02 0.0
9.446741e-01 -1.092620e-02 0.0
9.516163e-01 -1.143104e-02 0.0
9.580792e-01 -1.167300e-02 0.0
9.640350e-01 -1.171391e-02 0.0
9.694786e-01 -1.160331e-02 0.0
9.744211e-01 -1.137939e-02 0.0
9.788846e-01 -1.107189e-02 0.0
9.828979e-01 -1.070379e-02 0.0
9.864932e-01 -1.029273e-02 0.0
9.897045e-01 -9.852465e-03 0.0
9.925660e-01 -9.393814e-03 0.0
9.951109e-01 -8.925274e-03 0.0
9.973709e-01 -8.453576e-03 0.0
9.993756e-01 -7.983935e-03 0.0
1.001152e+00 -7.520511e-03 0.0
1.002725e+00 -7.066709e-03 0.0
1.004116e+00 -6.625226e-03 0.0
1.005347e+00 -6.198142e-03 0.0
1.006434e+00 -5.787030e-03 0.0
1.007395e+00 -5.393035e-03 0.0
1.008243e+00 -5.016932e-03 0.0
1.008992e+00 -4.659182e-03 0.0
1.009652e+00 -4.319975e-03 0.0
1.010234e+00 -3.999277e-03 0.0
1.010747e+00 -3.696859e-03 0.0
1.011198e+00 -3.412334e-03 0.0
1.011595e+00 -3.145183e-03 0.0
1.011942e+00 -2.894782e-03 0.0
1.012247e+00 -2.660424e-03 0.0
1.012513e+00 -2.441338e-03 0.0
1.012744e+00 -2.236711e-03 0.0
1.012944e+00 -2.045702e-03 0.0
1.013117e+00 -1.867462e-03 0.0
1.013264e+00 -1.701153e-03 0.0
1.013388e+00 -1.545973e-03 0.0
1.013491e+00 -1.401182e-03 0.0
1.013574e+00 -1.266130e-03 0.0
1.013638e+00 -1.140283e-03 0.0
1.013683e+00 -1.023221e-03 0.0
1.013710e+00 -9.145763e-04 0.0
1.013715e+00 -8.138542e-04 0.0
1.013698e+00 -7.199463e-04 0.0
1.013655e+00 -6.319281e-04 0.0
1.013582e+00 -5.307348e-04 0.0
0.000000e+00 -5.246817e-04 0.0
1.000000e+00 -8.234571e-02 0.0
9.856779e-01 -8.363440e-02 0.0
9.677275e-01 -9.406078e-02 0.0
9.410383e-01 -1.169816e-01 0.0
8.972627e-01 -1.578486e-01 0.0
8.197269e-01 -2.270795e-01 0.0
6.845442e-01 -3.490879e-01 0.0
1.976441e-01 -4.684147e-01 0.0
-1.005046e+00 4.653093e-01 0.0
0.000000e+00 -3.358814e-02 0.0
-5.205063e-02 3.531038e-02 0.0
1.777165e-02 -4.976647e-02 0.0
8.383715e-02 -2.072966e-02 0.0
1.231210e-01 3.394510e-02 0.0
1.249436e-01 1.007489e-01 0.0
9.440687e-02 1.593166e-01 0.0
4.118057e-02 1.986208e-01 0.0
-3.117361e-02 2.134521e-01 0.0
-1.024588e-01 1.945538e-01 0.0
-1.573891e-01 1.495508e-01 0.0
-1.873965e-01 7.660881e-02 0.0
-1.839401e-01 -3.046221e-02 0.0
-1.380104e-01 -1.588992e-01 0.0
-4.064281e-02 -2.780405e-01 0.0
9.833140e-02 -3.451950e-01 0.0
2.479900e-01 -3.386605e-01 0.0
3.881646e-01 -2.763179e-01 0.0
5.073077e-01 -1.858057e-01 0.0
6.002097e-01 -9.093335e-02 0.0
6.642683e-01 -6.784902e-03 0.0
7.089250e-01 5.986834e-02 0.0
7.398114e-01 1.158201e-01 0.0
7.598371e-01 1.627037e-01 0.0
7.713518e-01 1.996374e-01 0.0
7.766384e-01 2.255045e-01 0.0
7.780200e-01 2.392873e-01 0.0
7.772737e-01 2.405015e-01 0.0
7.753443e-01 2.295107e-01 0.0
7.728377e-01 2.089814e-01 0.0
7.703194e-01 1.826376e-01 0.0
7.684143e-01 1.541119e-01 0.0
7.677387e-01 1.262205e-01 0.0
7.687812e-01 1.006988e-01 0.0
7.717913e-01 7.835700e-02 0.0
7.767423e-01 5.936008e-02 0.0
7.834915e-01 4.336087e-02 0.0
7.918717e-01 2.985792e-02 0.0
8.017212e-01 1.840335e-02 0.0
8.129411e-01 8.615290e-03 0.0
8.253240e-01 4.215663e-04 0.0
8.385838e-01 -6.262302e-03 0.0
8.523646e-01 -1.154309e-02 0.0
8.663023e-01 -1.556493e-02 0.0
8.800589e-01 -1.846593e-02 0.0
8.933655e-01 -2.039803e-02 0.0
9.060184e-01 -2.151970e-02 0.0
9.178741e-01 -2.198522e-02 0.0
9.288423e-01 -2.193941e-02 0.0
9.388780e-01 -2.151163e-02 0.0
9.479722e-01 -2.081214e-02 0.0
9.561440e-01 -1.993063e-02 0.0
9.634335e-01 -1.893781e-02 0.0
9.698971e-01 -1.788788e-02 0.0
9.756003e-01 -1.682004e-02 0.0
9.806130e-01 -1.576146e-02 0.0
9.850054e-01 -1.473015e-02 0.0
9.888454e-01 -1.373747e-02 0.0
9.921967e-01 -1.279003e-02 0.0
9.951176e-01 -1.189118e-02 0.0
9.976611e-01 -1.104204e-02 0.0
9.998745e-01 -1.024234e-02 0.0
1.001800e+00 -9.490958e-03 0.0
1.003475e+00 -8.786285e-03 0.0
1.004931e+00 -8.126437e-03 0.0
1.006197e+00 -7.509382e-03 0.0
1.007298e+00 -6.933033e-03 0.0
1.008255e+00 -6.395302e-03 0.0
1.009087e+00 -5.894128e-03 0.0
1.009811e+00 -5.427491e-03 0.0
1.010439e+00 -4.993422e-03 0.0
1.010985e+00 -4.590010e-03 0.0
1.011458e+00 -4.215398e-03 0.0
1.011869e+00 -3.867790e-03 0.0
1.012224e+00 -3.545443e-03 0.0
1.012531e+00 -3.246675e-03 0.0
1.012795e+00 -2.969860e-03 0.0
1.013022e+00 -2.713425e-03 0.0
1.013217e+00 -2.475854e-03 0.0
1.013381e+00 -2.255687e-03 0.0
1.013520e+00 -2.051519e-03 0.0
1.013636e+00 -1.862003e-03 0.0
1.013731e+00 -1.685859e-03 0.0
1.013807e+00 -1.521877e-03 0.0
1.013865e+00 -1.368926e-03 0.0
1.013905e+00 -1.225953e-03 0.0
1.013929e+00 -1.091962e-03 0.0
1.013935e+00 -9.659442e-04 0.0
1.013923e+00 -8.467471e-04 0.0
1.013891e+00 -7.326960e-04 0.0
1.013837e+00 -6.229899e-04 0.0
1.013757e+00 -4.955885e-04 0.0
0.000000e+00 -4.882359e-04 0.0
1.000000e+00 -6.211815e-02 0.0
9.796255e-01 -6.343129e-02 0.0
9.538921e-01 -6.837214e-02 0.0
9.150543e-01 -7.818851e-02 0.0
8.493248e-01 -9.216382e-02 0.0
7.270972e-01 -1.048966e-01 0.0
4.744286e-01 -9.646403e-02 0.0
-8.491125e-03 1.458702e-02 0.0
-1.359712e-04 0.000000e+00 0.0
0.000000e+00 -0.000000e+00 0.0
0.000000e+00 3.212468e-02 0.0
-2.272913e-02 -2.708208e-02 0.0
-5.123801e-02 7.734472e-03 0.0
-7.961969e-02 6.228205e-02 0.0
-1.234201e-01 1.445046e-01 0.0