# vtk DataFile Version 3.0
Vector Field
ASCII
DATASET RECTILINEAR_GRID
DIMENSIONS 102 22 1
X_COORDINATES 102 double
0.000000 0.100000 0.200000 0.300000 0.400000 0.500000 0.600000 0.700000 0.800000 0.900000 1.000000 1.100000 1.200000 1.300000 1.400000 1.500000 1.600000 1.700000 1.800000 1.900000 2.000000 2.100000 2.200000 2.300000 2.400000 2.500000 2.600000 2.700000 2.800000 2.900000 3.000000 3.100000 3.200000 3.300000 3.400000 3.500000 3.600000 3.700000 3.800000 3.900000 4.000000 4.100000 4.200000 4.300000 4.400000 4.500000 4.600000 4.700000 4.800000 4.900000 5.000000 5.100000 5.200000 5.300000 5.400000 5.500000 5.600000 5.700000 5.800000 5.900000 6.000000 6.100000 6.200000 6.300000 6.400000 6.500000 6.600000 6.700000 6.800000 6.900000 7.000000 7.100000 7.200000 7.300000 7.400000 7.500000 7.600000 7.700000 7.800000 7.900000 8.000000 8.100000 8.200000 8.300000 8.400000 8.500000 8.600000 8.700000 8.800000 8.900000 9.000000 9.100000 9.200000 9.300000 9.400000 9.500000 9.600000 9.700000 9.800000 9.900000 10.000000 10.100000 
Y_COORDINATES 22 double
0.000000 0.100000 0.200000 0.300000 0.400000 0.500000 0.600000 0.700000 0.800000 0.900000 1.000000 1.100000 1.200000 1.300000 1.400000 1.500000 1.600000 1.700000 1.800000 1.900000 2.000000 2.100000 
Z_COORDINATES 1 double
0.0
POINT_DATA 2244
VECTORS Velocity double
0.000000e+00 0.000000e+00 0.0
-1.027544e+00 0.000000e+00 0.0
-1.058058e+00 0.000000e+00 0.0
-1.094465e+00 0.000000e+00 0.0
-1.139414e+00 0.000000e+00 0.0
-1.194864e+00 0.000000e+00 0.0
-1.260171e+00 0.000000e+00 0.0
-1.334478e+00 0.000000e+00 0.0
-1.401064e+00 0.000000e+00 0.0
-1.449572e+00 0.000000e+00 0.0
-1.478962e+00 0.000000e+00 0.0
-1.492641e+00 0.000000e+00 0.0
-1.494909e+00 0.000000e+00 0.0
-1.489461e+00 0.000000e+00 0.0
-1.479091e+00 0.000000e+00 0.0
-1.465951e+00 0.000000e+00 0.0
-1.451983e+00 0.000000e+00 0.0
-1.439397e+00 0.000000e+00 0.0
-1.431151e+00 0.000000e+00 0.0
-1.430843e+00 0.000000e+00 0.0
-1.441414e+00 0.000000e+00 0.0
-1.463171e+00 0.000000e+00 0.0
-1.492573e+00 0.000000e+00 0.0
-1.523341e+00 0.000000e+00 0.0
-1.549320e+00 0.000000e+00 0.0
-1.566736e+00 0.000000e+00 0.0
-1.574672e+00 0.000000e+00 0.0
-1.574010e+00 0.000000e+00 0.0
-1.565749e+00 0.000000e+00 0.0
-1.550473e+00 0.000000e+00 0.0
-1.528561e+00 0.000000e+00 0.0
-1.500346e+00 0.000000e+00 0.0
-1.466226e+00 0.000000e+00 0.0
-1.426734e+00 0.000000e+00 0.0
-1.382566e+00 0.000000e+00 0.0
-1.334608e+00 0.000000e+00 0.0
-1.284050e+00 0.000000e+00 0.0
-1.232530e+00 0.000000e+00 0.0
-1.182002e+00 0.000000e+00 0.0
-1.134490e+00 0.000000e+00 0.0
-1.091754e+00 0.000000e+00 0.0
-1.054984e+00 0.000000e+00 0.0
-1.024650e+00 0.000000e+00 0.0
-1.000548e+00 0.000000e+00 0.0
-9.819833e-01 0.000000e+00 0.0
-9.680116e-01 0.000000e+00 0.0
-9.576460e-01 0.000000e+00 0.0
-9.499949e-01 0.000000e+00 0.0
-9.443253e-01 0.000000e+00 0.0
-9.400731e-01 0.000000e+00 0.0
-9.368241e-01 0.000000e+00 0.0
-9.342843e-01 0.000000e+00 0.0
-9.322500e-01 0.000000e+00 0.0
-9.305830e-01 0.000000e+00 0.0
-9.291912e-01 0.000000e+00 0.0
-9.280144e-01 0.000000e+00 0.0
-9.270147e-01 0.000000e+00 0.0
-9.261686e-01 0.000000e+00 0.0
-9.254628e-01 0.000000e+00 0.0
-9.248895e-01 0.000000e+00 0.0
-9.244442e-01 0.000000e+00 0.0
-9.241229e-01 0.000000e+00 0.0
-9.239210e-01 0.000000e+00 0.0
-9.238315e-01 0.000000e+00 0.0
-9.238447e-01 0.000000e+00 0.0
-9.239485e-01 0.000000e+00 0.0
-9.241316e-01 0.000000e+00 0.0
-9.243837e-01 0.000000e+00 0.0
-9.246951e-01 0.000000e+00 0.0
-9.250568e-01 0.000000e+00 0.0
-9.254602e-01 0.000000e+00 0.0
-9.258972e-01 0.000000e+00 0.0
-9.263602e-01 0.000000e+00 0.0
-9.268423e-01 0.000000e+00 0.0
-9.273371e-01 0.000000e+00 0.0
-9.278388e-01 0.000000e+00 0.0
-9.283422e-01 0.000000e+00 0.0
-9.288423e-01 0.000000e+00 0.0
-9.293351e-01 0.000000e+00 0.0
-9.298170e-01 0.000000e+00 0.0
-9.302850e-01 0.000000e+00 0.0
-9.307370e-01 0.000000e+00 0.0
-9.311710e-01 0.000000e+00 0.0
-9.315856e-01 0.000000e+00 0.0
-9.319797e-01 0.000000e+00 0.0
-9.323527e-01 0.000000e+00 0.0
-9.327042e-01 0.000000e+00 0.0
-9.330340e-01 0.000000e+00 0.0
-9.333422e-01 0.000000e+00 0.0
-9.336289e-01 0.000000e+00 0.0
-9.338946e-01 0.000000e+00 0.0
-9.341399e-01 0.000000e+00 0.0
-9.343656e-01 0.000000e+00 0.0
-9.345730e-01 0.000000e+00 0.0
-9.347639e-01 0.000000e+00 0.0
-9.349414e-01 0.000000e+00 0.0
-9.351116e-01 0.000000e+00 0.0
-9.352880e-01 0.000000e+00 0.0
-9.355010e-01 0.000000e+00 0.0
-9.358642e-01 0.000000e+00 0.0
-9.358642e-01 0.000000e+00 0.0
0.000000e+00 0.000000e+00 0.0
1.000000e+00 -2.750757e-02 0.0
1.027735e+00 -2.770562e-02 0.0
1.058448e+00 -3.069597e-02 0.0
1.095072e+00 -3.660774e-02 0.0
1.140261e+00 -4.517149e-02 0.0
1.195983e+00 -5.570493e-02 0.0
1.261601e+00 -6.560139e-02 0.0
1.336276e+00 -7.465814e-02 0.0
1.403182e+00 -6.688953e-02 0.0
1.451904e+00 -4.870509e-02 0.0
1.481371e+00 -2.944933e-02 0.0
1.494977e+00 -1.358960e-02 0.0
1.497020e+00 -2.025815e-03 0.0
1.491184e+00 5.852833e-03 0.0
1.480230e+00 1.097070e-02 0.0
1.466262e+00 1.398542e-02 0.0
1.451109e+00 1.516969e-02 0.0
1.436802e+00 1.432422e-02 0.0
1.426088e+00 1.072998e-02 0.0
1.422563e+00 3.542242e-03 0.0
1.429677e+00 -7.097160e-03 0.0
1.448776e+00 -1.908148e-02 0.0
1.477405e+00 -2.861216e-02 0.0
1.509649e+00 -3.222765e-02 0.0
1.538752e+00 -2.908629e-02 0.0
1.559871e+00 -2.110198e-02 0.0
1.571168e+00 -1.128014e-02 0.0
1.573176e+00 -1.990172e-03 0.0
1.567094e+00 6.098041e-03 0.0
1.553708e+00 1.340294e-02 0.0
1.533502e+00 2.022291e-02 0.0
1.506853e+00 2.666647e-02 0.0
1.474158e+00 3.271136e-02 0.0
1.435927e+00 3.824816e-02 0.0
1.392821e+00 4.312358e-02 0.0
1.345681e+00 4.715686e-02 0.0
1.295616e+00 5.008119e-02 0.0
1.244166e+00 5.146733e-02 0.0
1.193236e+00 5.094680e-02 0.0
1.144861e+00 4.839174e-02 0.0
1.100890e+00 4.398831e-02 0.0
1.062659e+00 3.824808e-02 0.0
1.030805e+00 3.187067e-02 0.0
1.005269e+00 2.555342e-02 0.0
9.854523e-01 1.983341e-02 0.0
9.704545e-01 1.501475e-02 0.0
9.592889e-01 1.118256e-02 0.0
9.510378e-01 8.268134e-03 0.0
9.449309e-01 6.123834e-03 0.0
9.403665e-01 4.581398e-03 0.0
9.368973e-01 3.486198e-03 0.0
9.342027e-01 2.711530e-03 0.0
9.320591e-01 2.160565e-03 0.0
9.303136e-01 1.762502e-03 0.0
9.288636e-01 1.467001e-03 0.0
9.276417e-01 1.238909e-03 0.0
9.266047e-01 1.053987e-03 0.0
9.257259e-01 8.957645e-04 0.0
9.249896e-01 7.533061e-04 0.0
9.243868e-01 6.197784e-04 0.0
9.239124e-01 4.914611e-04 0.0
9.235623e-01 3.670496e-04 0.0
9.233323e-01 2.470348e-04 0.0
9.232162e-01 1.331085e-04 0.0
9.232055e-01 2.773342e-05 0.0
9.232885e-01 -6.603417e-05 0.0
9.234536e-01 -1.481152e-04 0.0
9.236903e-01 -2.196268e-04 0.0
9.239887e-01 -2.813780e-04 0.0
9.243397e-01 -3.339530e-04 0.0
9.247345e-01 -3.778535e-04 0.0
9.251651e-01 -4.135755e-04 0.0
9.256238e-01 -4.416432e-04 0.0
9.261035e-01 -4.626195e-04 0.0
9.265976e-01 -4.770967e-04 0.0
9.271003e-01 -4.856671e-04 0.0
9.276062e-01 -4.888617e-04 0.0
9.281103e-01 -4.870754e-04 0.0
9.286082e-01 -4.809245e-04 0.0
9.290964e-01 -4.710874e-04 0.0
9.295716e-01 -4.581882e-04 0.0
9.300314e-01 -4.427906e-04 0.0
9.304739e-01 -4.253991e-04 0.0
9.308974e-01 -4.064620e-04 0.0
9.313008e-01 -3.863742e-04 0.0
9.316833e-01 -3.654803e-04 0.0
9.320444e-01 -3.440781e-04 0.0
9.323839e-01 -3.224238e-04 0.0
9.327017e-01 -3.007382e-04 0.0
9.329980e-01 -2.792166e-04 0.0
9.332730e-01 -2.580433e-04 0.0
9.335275e-01 -2.374154e-04 0.0
9.337621e-01 -2.175830e-04 0.0
9.339781e-01 -1.989242e-04 0.0
9.341773e-01 -1.820972e-04 0.0
9.343627e-01 -1.683855e-04 0.0
9.345405e-01 -1.607678e-04 0.0
9.347241e-01 -1.665624e-04 0.0
9.349442e-01 -2.030660e-04 0.0
9.353147e-01 -3.534008e-04 0.0
9.358642e-01 -5.324416e-04 0.0
0.000000e+00 -5.392880e-04 0.0
1.000000e+00 -5.539579e-02 0.0
1.028110e+00 -5.579881e-02 0.0
1.059215e+00 -6.179610e-02 0.0
1.096398e+00 -7.378689e-02 0.0
1.142668e+00 -9.143719e-02 0.0
1.200726e+00 -1.137587e-01 0.0
1.270164e+00 -1.350342e-01 0.0
1.354984e+00 -1.594745e-01 0.0
1.427707e+00 -1.396076e-01 0.0
1.477587e+00 -9.858109e-02 0.0
1.506435e+00 -5.829222e-02 0.0
1.519439e+00 -2.658952e-02 0.0
1.521527e+00 -4.109637e-03 0.0
1.516387e+00 1.099731e-02 0.0
1.506627e+00 2.073510e-02 0.0
1.494175e+00 2.644175e-02 0.0
1.480551e+00 2.879798e-02 0.0
1.467279e+00 2.760133e-02 0.0
1.456416e+00 2.159654e-02 0.0
1.450960e+00 9.003278e-03 0.0
1.454497e+00 -1.062981e-02 0.0
1.469599e+00 -3.417910e-02 0.0
1.495747e+00 -5.475566e-02 0.0
1.528264e+00 -6.474031e-02 0.0
1.560328e+00 -6.114611e-02 0.0
1.585991e+00 -4.676005e-02 0.0
1.601944e+00 -2.722860e-02 0.0
1.607804e+00 -7.845857e-03 0.0
1.605024e+00 8.881846e-03 0.0
1.594811e+00 2.362094e-02 0.0
1.577867e+00 3.717062e-02 0.0
1.554680e+00 4.985802e-02 0.0
1.525697e+00 6.169859e-02 0.0
1.491453e+00 7.249654e-02 0.0
1.452651e+00 8.193017e-02 0.0
1.410208e+00 8.960479e-02 0.0
1.365198e+00 9.509561e-02 0.0
1.318841e+00 9.782870e-02 0.0
1.272698e+00 9.709405e-02 0.0
1.228576e+00 9.251837e-02 0.0
1.188135e+00 8.443317e-02 0.0
1.152583e+00 7.380499e-02 0.0
1.122506e+00 6.195185e-02 0.0
1.097883e+00 5.018063e-02 0.0
1.078227e+00 3.949384e-02 0.0
1.062789e+00 3.045799e-02 0.0
1.050743e+00 2.323300e-02 0.0
1.041320e+00 1.769482e-02 0.0
1.033874e+00 1.357436e-02 0.0
1.027895e+00 1.056466e-02 0.0
1.023003e+00 8.383172e-03 0.0
1.018921e+00 6.797436e-03 0.0
1.015458e+00 5.628679e-03 0.0
1.012479e+00 4.745245e-03 0.0
1.009898e+00 4.053121e-03 0.0
1.007654e+00 3.486885e-03 0.0
1.005710e+00 3.002235e-03 0.0
1.004040e+00 2.570316e-03 0.0
1.002625e+00 2.173329e-03 0.0
1.001447e+00 1.801544e-03 0.0
1.000492e+00 1.450763e-03 0.0
9.997436e-01 1.120267e-03 0.0
9.991838e-01 8.112428e-04 0.0
9.987959e-01 5.254463e-04 0.0
9.985635e-01 2.646171e-04 0.0
9.984720e-01 2.993013e-05 0.0
9.985071e-01 -1.787939e-04 0.0
9.986546e-01 -3.626568e-04 0.0
9.989004e-01 -5.227329e-04 0.0
9.992309e-01 -6.600282e-04 0.0
9.996330e-01 -7.755770e-04 0.0
1.000094e+00 -8.705015e-04 0.0
1.000603e+00 -9.460349e-04 0.0
1.001149e+00 -1.003534e-03 0.0
1.001720e+00 -1.044476e-03 0.0
1.002310e+00 -1.070424e-03 0.0
1.002908e+00 -1.083053e-03 0.0
1.003510e+00 -1.084161e-03 0.0
1.004109e+00 -1.075244e-03 0.0
1.004700e+00 -1.057652e-03 0.0
1.005278e+00 -1.032675e-03 0.0
1.005842e+00 -1.001536e-03 0.0
1.006386e+00 -9.653722e-04 0.0
1.006909e+00 -9.252280e-04 0.0
1.007409e+00 -8.820434e-04 0.0
1.007885e+00 -8.366537e-04 0.0
1.008335e+00 -7.897906e-04 0.0
1.008759e+00 -7.420866e-04 0.0
1.009157e+00 -6.940866e-04 0.0
1.009529e+00 -6.462650e-04 0.0
1.009874e+00 -5.990539e-04 0.0
1.010194e+00 -5.528857e-04 0.0
1.010489e+00 -5.082632e-04 0.0
1.010761e+00 -4.658798e-04 0.0
1.011010e+00 -4.268374e-04 0.0
1.011239e+00 -3.930797e-04 0.0
1.011451e+00 -3.680335e-04 0.0
1.011647e+00 -3.586428e-04 0.0
1.011827e+00 -3.787585e-04 0.0
1.011940e+00 -4.615072e-04 0.0
1.011984e+00 -5.720034e-04 0.0
0.000000e+00 -5.760466e-04 0.0
1.000000e+00 -8.004338e-02 0.0
1.024858e+00 -8.064028e-02 0.0
1.052837e+00 -8.977064e-02 0.0
1.087339e+00 -1.082842e-01 0.0
1.132186e+00 -1.362798e-01 0.0
1.191771e+00 -1.733394e-01 0.0
1.266950e+00 -2.102090e-01 0.0
1.373357e+00 -2.658765e-01 0.0
1.453813e+00 -2.200593e-01 0.0
1.500987e+00 -1.457512e-01 0.0
1.524349e+00 -8.164988e-02 0.0
1.532509e+00 -3.474457e-02 0.0
1.531262e+00 -2.858344e-03 0.0
1.524030e+00 1.823328e-02 0.0
1.512979e+00 3.179112e-02 0.0
1.499714e+00 3.971139e-02 0.0
1.485439e+00 4.307731e-02 0.0
1.471027e+00 4.201712e-02 0.0
1.457252e+00 3.537651e-02 0.0
1.445382e+00 2.087746e-02 0.0
1.438280e+00 -3.523597e-03 0.0
1.440295e+00 -3.618942e-02 0.0
1.454980e+00 -6.943614e-02 0.0
1.481778e+00 -9.153376e-02 0.0
1.514646e+00 -9.401004e-02 0.0
1.545850e+00 -7.795934e-02 0.0
1.569127e+00 -5.050160e-02 0.0
1.581254e+00 -1.996851e-02 0.0
1.582945e+00 7.195596e-03 0.0
1.576521e+00 3.004874e-02 0.0
1.563242e+00 5.045482e-02 0.0
1.543839e+00 6.926493e-02 0.0
1.518822e+00 8.672031e-02 0.0
1.488712e+00 1.026109e-01 0.0
1.454180e+00 1.164663e-01 0.0
1.416057e+00 1.277327e-01 0.0
1.375312e+00 1.358449e-01 0.0
1.333044e+00 1.401010e-01 0.0
1.290616e+00 1.395265e-01 0.0
1.249655e+00 1.334835e-01 0.0
1.211679e+00 1.224137e-01 0.0
1.177779e+00 1.077098e-01 0.0
1.148469e+00 9.126628e-02 0.0
1.123715e+00 7.493927e-02 0.0
1.103086e+00 6.012679e-02 0.0
1.085955e+00 4.759387e-02 0.0
1.071662e+00 3.752984e-02 0.0
1.059627e+00 2.973390e-02 0.0
1.049390e+00 2.381669e-02 0.0
1.040607e+00 1.935121e-02 0.0
1.033038e+00 1.595693e-02 0.0
1.026509e+00 1.333111e-02 0.0
1.020893e+00 1.124921e-02 0.0
1.016090e+00 9.551976e-03 0.0
1.012018e+00 8.129650e-03 0.0
1.008602e+00 6.907929e-03 0.0
1.005771e+00 5.836937e-03 0.0
1.003463e+00 4.883367e-03 0.0
1.001615e+00 4.025665e-03 0.0
1.000171e+00 3.250286e-03 0.0
9.990777e-01 2.548213e-03 0.0
9.982889e-01 1.913505e-03 0.0
9.977621e-01 1.342403e-03 0.0
9.974606e-01 8.314123e-04 0.0
9.973522e-01 3.774642e-04 0.0
9.974094e-01 -2.284153e-05 0.0
9.976091e-01 -3.740086e-04 0.0
9.979301e-01 -6.792984e-04 0.0
9.983533e-01 -9.414451e-04 0.0
9.988607e-01 -1.163017e-03 0.0
9.994362e-01 -1.346560e-03 0.0
1.000065e+00 -1.494672e-03 0.0
1.000733e+00 -1.610038e-03 0.0
1.001430e+00 -1.695433e-03 0.0
1.002143e+00 -1.753695e-03 0.0
1.002865e+00 -1.787695e-03 0.0
1.003587e+00 -1.800294e-03 0.0
1.004301e+00 -1.794278e-03 0.0
1.005003e+00 -1.772232e-03 0.0
1.005686e+00 -1.736574e-03 0.0
1.006347e+00 -1.689563e-03 0.0
1.006984e+00 -1.633286e-03 0.0
1.007592e+00 -1.569642e-03 0.0
1.008172e+00 -1.500336e-03 0.0
1.008721e+00 -1.426871e-03 0.0
1.009239e+00 -1.350560e-03 0.0
1.009727e+00 -1.272533e-03 0.0
1.010183e+00 -1.193746e-03 0.0
1.010608e+00 -1.115009e-03 0.0
1.011003e+00 -1.037005e-03 0.0
1.011369e+00 -9.603340e-04 0.0
1.011706e+00 -8.855657e-04 0.0
1.012016e+00 -8.133225e-04 0.0
1.012299e+00 -7.444070e-04 0.0
1.012556e+00 -6.800106e-04 0.0
1.012790e+00 -6.220581e-04 0.0
1.013000e+00 -5.737190e-04 0.0
1.013186e+00 -5.403564e-04 0.0
1.013342e+00 -5.302426e-04 0.0
1.013438e+00 -5.533334e-04 0.0
1.013462e+00 -5.917605e-04 0.0
0.000000e+00 -5.931114e-04 0.0
1.000000e+00 -9.971372e-02 0.0
1.019865e+00 -1.004884e-01 0.0
1.042822e+00 -1.127236e-01 0.0
1.072578e+00 -1.380357e-01 0.0
1.114175e+00 -1.778717e-01 0.0
1.174869e+00 -2.340294e-01 0.0
1.259948e+00 -2.952839e-01 0.0
1.403539e+00 -4.094624e-01 0.0
1.485829e+00 -3.023454e-01 0.0
1.520789e+00 -1.807068e-01 0.0
1.532557e+00 -9.341316e-02 0.0
1.532772e+00 -3.495495e-02 0.0
1.526778e+00 3.139579e-03 0.0
1.516524e+00 2.849159e-02 0.0
1.503315e+00 4.500520e-02 0.0
1.488264e+00 5.476680e-02 0.0
1.472248e+00 5.909765e-02 0.0
1.455550e+00 5.871971e-02 0.0
1.437624e+00 5.330636e-02 0.0
1.417178e+00 4.132828e-02 0.0
1.393756e+00 1.990248e-02 0.0
1.371245e+00 -1.367403e-02 0.0
1.358650e+00 -5.683671e-02 0.0
1.363989e+00 -9.686844e-02 0.0
1.387634e+00 -1.176505e-01 0.0
1.421694e+00 -1.120148e-01 0.0
1.457081e+00 -8.588395e-02 0.0
1.484779e+00 -4.766280e-02 0.0
1.498853e+00 -6.873396e-03 0.0
1.501498e+00 2.740760e-02 0.0
1.495943e+00 5.601494e-02 0.0
1.483837e+00 8.137522e-02 0.0
1.465969e+00 1.045921e-01 0.0
1.442849e+00 1.257355e-01 0.0
1.415063e+00 1.442573e-01 0.0
1.383388e+00 1.594117e-01 0.0
1.348761e+00 1.704764e-01 0.0
1.312178e+00 1.766883e-01 0.0
1.274757e+00 1.769524e-01 0.0
1.237958e+00 1.702866e-01 0.0
1.203211e+00 1.571655e-01 0.0
1.171574e+00 1.393514e-01 0.0
1.143588e+00 1.192561e-01 0.0
1.119311e+00 9.922091e-02 0.0
1.098457e+00 8.098481e-02 0.0
1.080578e+00 6.547796e-02 0.0
1.065202e+00 5.290999e-02 0.0
1.051926e+00 4.301384e-02 0.0
1.040444e+00 3.530346e-02 0.0
1.030536e+00 2.926330e-02 0.0
1.022047e+00 2.445038e-02 0.0
1.014856e+00 2.052709e-02 0.0
1.008854e+00 1.725522e-02 0.0
1.003937e+00 1.447405e-02 0.0
9.999938e-01 1.207695e-02 0.0
9.969134e-01 9.992766e-03 0.0
9.945829e-01 8.171885e-03 0.0
9.928944e-01 6.576293e-03 0.0
9.917477e-01 5.176770e-03 0.0
9.910510e-01 3.951368e-03 0.0
9.907238e-01 2.879944e-03 0.0
9.906975e-01 1.944174e-03 0.0
9.909135e-01 1.130865e-03 0.0
9.913229e-01 4.264108e-04 0.0
9.918887e-01 -1.838953e-04 0.0
9.925818e-01 -7.114911e-04 0.0
9.933762e-01 -1.163954e-03 0.0
9.942487e-01 -1.547304e-03 0.0
9.951785e-01 -1.866901e-03 0.0
9.961478e-01 -2.127778e-03 0.0
9.971404e-01 -2.334787e-03 0.0
9.981429e-01 -2.492692e-03 0.0
9.991435e-01 -2.606199e-03 0.0
1.000132e+00 -2.679950e-03 0.0
1.001102e+00 -2.718477e-03 0.0
1.002045e+00 -2.726173e-03 0.0
1.002956e+00 -2.707239e-03 0.0
1.003832e+00 -2.665617e-03 0.0
1.004669e+00 -2.604973e-03 0.0
1.005466e+00 -2.528685e-03 0.0
1.006220e+00 -2.439827e-03 0.0
1.006933e+00 -2.341164e-03 0.0
1.007602e+00 -2.235151e-03 0.0
1.008231e+00 -2.123932e-03 0.0
1.008817e+00 -2.009362e-03 0.0
1.009364e+00 -1.893021e-03 0.0
1.009873e+00 -1.776233e-03 0.0
1.010343e+00 -1.660087e-03 0.0
1.010778e+00 -1.545471e-03 0.0
1.011179e+00 -1.433108e-03 0.0
1.011546e+00 -1.323597e-03 0.0
1.011883e+00 -1.217480e-03 0.0
1.012189e+00 -1.115318e-03 0.0
1.012467e+00 -1.017809e-03 0.0
1.012718e+00 -9.259498e-04 0.0
1.012941e+00 -8.412688e-04 0.0
1.013138e+00 -7.660902e-04 0.0
1.013306e+00 -7.037789e-04 0.0
1.013438e+00 -6.582487e-04 0.0
1.013521e+00 -6.318767e-04 0.0
1.013542e+00 -6.082106e-04 0.0
0.000000e+00 -6.069072e-04 0.0
1.000000e+00 -1.126093e-01 0.0
1.013068e+00 -1.135394e-01 0.0
1.028735e+00 -1.283858e-01 0.0
1.050598e+00 -1.598948e-01 0.0
1.084818e+00 -2.120873e-01 0.0
1.142344e+00 -2.915511e-01 0.0
1.238520e+00 -3.914555e-01 0.0
1.429094e+00 -6.000323e-01 0.0
1.488112e+00 -3.613582e-01 0.0
1.495390e+00 -1.879809e-01 0.0
1.489404e+00 -8.742242e-02 0.0
1.480273e+00 -2.581945e-02 0.0
1.468992e+00 1.442505e-02 0.0
1.455292e+00 4.219547e-02 0.0
1.439236e+00 6.106586e-02 0.0
1.421226e+00 7.278104e-02 0.0
1.401826e+00 7.850227e-02 0.0
1.380947e+00 7.960254e-02 0.0
1.357216e+00 7.704266e-02 0.0
1.327596e+00 7.095188e-02 0.0
1.288031e+00 5.947271e-02 0.0
1.235736e+00 3.862507e-02 0.0
1.176052e+00 2.851706e-03 0.0
1.128414e+00 -4.922630e-02 0.0
1.114367e+00 -1.035989e-01 0.0
1.135088e+00 -1.327318e-01 0.0
1.181054e+00 -1.318454e-01 0.0
1.237677e+00 -1.042811e-01 0.0
1.288300e+00 -5.749163e-02 0.0
1.319284e+00 -3.572555e-03 0.0
1.333864e+00 4.143987e-02 0.0
1.338515e+00 7.672874e-02 0.0
1.335817e+00 1.072939e-01 0.0
1.326781e+00 1.347765e-01 0.0
1.312050e+00 1.589921e-01 0.0
1.292403e+00 1.790638e-01 0.0
1.268815e+00 1.940682e-01 0.0
1.242347e+00 2.031611e-01 0.0
1.213950e+00 2.053539e-01 0.0
1.184874e+00 1.993670e-01 0.0
1.156466e+00 1.855776e-01 0.0
1.129791e+00 1.660314e-01 0.0
1.105479e+00 1.435724e-01 0.0
1.083760e+00 1.209438e-01 0.0
1.064588e+00 1.001618e-01 0.0
1.047777e+00 8.229287e-02 0.0
1.033116e+00 6.757563e-02 0.0
1.020420e+00 5.571461e-02 0.0
1.009548e+00 4.617967e-02 0.0
1.000393e+00 3.842214e-02 0.0
9.928606e-01 3.198765e-02 0.0
9.868467e-01 2.654540e-02 0.0
9.822318e-01 2.187454e-02 0.0
9.788765e-01 1.783386e-02 0.0
9.766270e-01 1.433086e-02 0.0
9.753217e-01 1.130249e-02 0.0
9.747965e-01 8.701506e-03 0.0
9.748977e-01 6.479592e-03 0.0
9.754896e-01 4.589239e-03 0.0
9.764502e-01 2.995263e-03 0.0
9.776752e-01 1.659365e-03 0.0
9.790876e-01 5.361823e-04 0.0
9.806357e-01 -4.127846e-04 0.0
9.822819e-01 -1.215391e-03 0.0
9.839927e-01 -1.890225e-03 0.0
9.857374e-01 -2.451714e-03 0.0
9.874895e-01 -2.911689e-03 0.0
9.892272e-01 -3.280529e-03 0.0
9.909324e-01 -3.567660e-03 0.0
9.925909e-01 -3.781789e-03 0.0
9.941915e-01 -3.931015e-03 0.0
9.957262e-01 -4.022907e-03 0.0
9.971890e-01 -4.064604e-03 0.0
9.985764e-01 -4.062834e-03 0.0
9.998862e-01 -4.023836e-03 0.0
1.001118e+00 -3.953383e-03 0.0
1.002272e+00 -3.856813e-03 0.0
1.003350e+00 -3.739011e-03 0.0
1.004354e+00 -3.604370e-03 0.0
1.005286e+00 -3.456800e-03 0.0
1.006150e+00 -3.299757e-03 0.0
1.006950e+00 -3.136239e-03 0.0
1.007688e+00 -2.968822e-03 0.0
1.008368e+00 -2.799699e-03 0.0
1.008994e+00 -2.630702e-03 0.0
1.009569e+00 -2.463329e-03 0.0
1.010096e+00 -2.298778e-03 0.0
1.010578e+00 -2.137981e-03 0.0
1.011019e+00 -1.981646e-03 0.0
1.011420e+00 -1.830292e-03 0.0
1.011786e+00 -1.684305e-03 0.0
1.012117e+00 -1.543990e-03 0.0
1.012415e+00 -1.409642e-03 0.0
1.012684e+00 -1.281641e-03 0.0
1.012923e+00 -1.160560e-03 0.0
1.013133e+00 -1.047289e-03 0.0
1.013315e+00 -9.431142e-04 0.0
1.013465e+00 -8.496257e-04 0.0
1.013579e+00 -7.679450e-04 0.0
1.013650e+00 -6.980338e-04 0.0
1.013666e+00 -6.200223e-04 0.0
0.000000e+00 -6.161329e-04 0.0
1.000000e+00 -1.171435e-01 0.0
1.004677e+00 -1.181999e-01 0.0
1.010622e+00 -1.343263e-01 0.0
1.020195e+00 -1.694631e-01 0.0
1.038998e+00 -2.308860e-01 0.0
1.079882e+00 -3.324310e-01 0.0
1.171877e+00 -4.834454e-01 0.0
1.398982e+00 -8.271335e-01 0.0
1.388058e+00 -3.504295e-01 0.0
1.343609e+00 -1.435272e-01 0.0
1.313785e+00 -5.759402e-02 0.0
1.295821e+00 -7.851541e-03 0.0
1.280954e+00 2.929670e-02 0.0
1.265423e+00 5.773101e-02 0.0
1.247186e+00 7.930778e-02 0.0
1.225395e+00 9.457564e-02 0.0
1.200212e+00 1.036898e-01 0.0
1.171711e+00 1.081084e-01 0.0
1.137527e+00 1.112304e-01 0.0
1.092452e+00 1.160319e-01 0.0
1.029160e+00 1.227693e-01 0.0
9.411751e-01 1.266140e-01 0.0
8.318018e-01 1.122295e-01 0.0
7.163935e-01 6.618639e-02 0.0
6.334041e-01 -2.060516e-02 0.0
6.275955e-01 -1.269188e-01 0.0
6.918254e-01 -1.960709e-01 0.0
7.903238e-01 -2.027751e-01 0.0
8.960533e-01 -1.632167e-01 0.0
9.888020e-01 -9.631689e-02 0.0
1.053567e+00 -2.332039e-02 0.0
1.093256e+00 3.704417e-02 0.0
1.118024e+00 8.253010e-02 0.0
1.132102e+00 1.207032e-01 0.0
1.137458e+00 1.536404e-01 0.0
1.135552e+00 1.809735e-01 0.0
1.127812e+00 2.018131e-01 0.0
1.115669e+00 2.153087e-01 0.0
1.100330e+00 2.206973e-01 0.0
1.082750e+00 2.169507e-01 0.0
1.064144e+00 2.041884e-01 0.0
1.045532e+00 1.846478e-01 0.0
1.027640e+00 1.614694e-01 0.0
1.010934e+00 1.376540e-01 0.0
9.957099e-01 1.153901e-01 0.0
9.821628e-01 9.584444e-02 0.0
9.704234e-01 7.931948e-02 0.0
9.605686e-01 6.557380e-02 0.0
9.526236e-01 5.412908e-02 0.0
9.465632e-01 4.448696e-02 0.0
9.423084e-01 3.624693e-02 0.0
9.397308e-01 2.912739e-02 0.0
9.386596e-01 2.295016e-02 0.0
9.388888e-01 1.760916e-02 0.0
9.401968e-01 1.302724e-02 0.0
9.423601e-01 9.143657e-03 0.0
9.451481e-01 5.917942e-03 0.0
9.483500e-01 3.282137e-03 0.0
9.518097e-01 1.133952e-03 0.0
9.554285e-01 -6.190567e-04 0.0
9.591401e-01 -2.047817e-03 0.0
9.628806e-01 -3.199926e-03 0.0
9.665894e-01 -4.117087e-03 0.0
9.702132e-01 -4.834769e-03 0.0
9.737106e-01 -5.383204e-03 0.0
9.770515e-01 -5.788151e-03 0.0
9.802156e-01 -6.071361e-03 0.0
9.831909e-01 -6.251418e-03 0.0
9.859720e-01 -6.344284e-03 0.0
9.885584e-01 -6.363760e-03 0.0
9.909536e-01 -6.321761e-03 0.0
9.931636e-01 -6.228500e-03 0.0
9.951964e-01 -6.092963e-03 0.0
9.970611e-01 -5.923070e-03 0.0
9.987675e-01 -5.725834e-03 0.0
1.000326e+00 -5.507470e-03 0.0
1.001747e+00 -5.273441e-03 0.0
1.003041e+00 -5.028504e-03 0.0
1.004218e+00 -4.776735e-03 0.0
1.005287e+00 -4.521570e-03 0.0
1.006258e+00 -4.265942e-03 0.0
1.007138e+00 -4.012293e-03 0.0
1.007936e+00 -3.762620e-03 0.0
1.008660e+00 -3.518520e-03 0.0
1.009315e+00 -3.281228e-03 0.0
1.009907e+00 -3.051664e-03 0.0
1.010444e+00 -2.830469e-03 0.0
1.010928e+00 -2.618044e-03 0.0
1.011366e+00 -2.414590e-03 0.0
1.011760e+00 -2.220143e-03 0.0
1.012115e+00 -2.034622e-03 0.0
1.012433e+00 -1.857873e-03 0.0
1.012717e+00 -1.689722e-03 0.0
1.012970e+00 -1.530036e-03 0.0
1.013193e+00 -1.378787e-03 0.0
1.013386e+00 -1.236097e-03 0.0
1.013550e+00 -1.102207e-03 0.0
1.013682e+00 -9.772790e-04 0.0
1.013779e+00 -8.606758e-04 0.0
1.013837e+00 -7.516518e-04 0.0
1.013847e+00 -6.254481e-04 0.0
0.000000e+00 -6.190886e-04 0.0
1.000000e+00 -1.124512e-01 0.0
9.954153e-01 -1.135983e-01 0.0
9.897840e-01 -1.286905e-01 0.0
9.824085e-01 -1.620833e-01 0.0
9.740978e-01 -2.225709e-01 0.0
9.704854e-01 -3.288142e-01 0.0
9.992073e-01 -5.121629e-01 0.0
1.164248e+00 -9.921698e-01 0.0
1.018234e+00 -2.044235e-01 0.0
8.934729e-01 -1.877437e-02 0.0
8.409536e-01 -5.070296e-03 0.0
8.181517e-01 1.495481e-02 0.0
8.059668e-01 4.148602e-02 0.0
7.940592e-01 6.964300e-02 0.0
7.748206e-01 9.855080e-02 0.0
7.422905e-01 1.271101e-01 0.0
6.933154e-01 1.526694e-01 0.0
6.273692e-01 1.740590e-01 0.0
5.459098e-01 1.926942e-01 0.0
4.487263e-01 2.132198e-01 0.0
3.389096e-01 2.325904e-01 0.0
2.289425e-01 2.365856e-01 0.0
1.415078e-01 1.996686e-01 0.0
9.922002e-02 1.084785e-01 0.0
1.095251e-01 -3.090583e-02 0.0
1.650423e-01 -1.824315e-01 0.0
2.643197e-01 -2.953439e-01 0.0
3.927314e-01 -3.311823e-01 0.0
5.262000e-01 -2.966809e-01 0.0
6.492008e-01 -2.193133e-01 0.0
7.519423e-01 -1.260574e-01 0.0
8.267761e-01 -3.778517e-02 0.0
8.768592e-01 3.245137e-02 0.0
9.113072e-01 8.625971e-02 0.0
9.339503e-01 1.310017e-01 0.0
9.471784e-01 1.677498e-01 0.0
9.530025e-01 1.959934e-01 0.0
9.532754e-01 2.150402e-01 0.0
9.496095e-01 2.243677e-01 0.0
9.429502e-01 2.236143e-01 0.0
9.342341e-01 2.129089e-01 0.0
9.242941e-01 1.945922e-01 0.0
9.138649e-01 1.719030e-01 0.0
9.036322e-01 1.478911e-01 0.0
8.942350e-01 1.247917e-01 0.0
8.862197e-01 1.038642e-01 0.0
8.799778e-01 8.556576e-02 0.0
8.757085e-01 6.984757e-02 0.0
8.734368e-01 5.640521e-02 0.0
8.730741e-01 4.485403e-02 0.0
8.744482e-01 3.487728e-02 0.0
8.773435e-01 2.623653e-02 0.0
8.815267e-01 1.877140e-02 0.0
8.867380e-01 1.240228e-02 0.0
8.927307e-01 7.038976e-03 0.0
8.993091e-01 2.569692e-03 0.0
9.063377e-01 -1.106178e-03 0.0
9.137067e-01 -4.082491e-03 0.0
9.212650e-01 -6.419834e-03 0.0
9.288417e-01 -8.191347e-03 0.0
9.362741e-01 -9.475801e-03 0.0
9.434314e-01 -1.035282e-02 0.0
9.502176e-01 -1.089879e-02 0.0
9.565698e-01 -1.118253e-02 0.0
9.624541e-01 -1.126304e-02 0.0
9.678593e-01 -1.118895e-02 0.0
9.727908e-01 -1.099844e-02 0.0
9.772655e-01 -1.072162e-02 0.0
9.813076e-01 -1.038199e-02 0.0
9.849460e-01 -9.997677e-03 0.0
9.882114e-01 -9.582742e-03 0.0
9.911355e-01 -9.148219e-03 0.0
9.937497e-01 -8.702680e-03 0.0
9.960839e-01 -8.252828e-03 0.0
9.981663e-01 -7.803805e-03 0.0
1.000023e+00 -7.359652e-03 0.0
1.001678e+00 -6.923651e-03 0.0
1.003152e+00 -6.498391e-03 0.0
1.004466e+00 -6.085865e-03 0.0
1.005636e+00 -5.687577e-03 0.0
1.006679e+00 -5.304624e-03 0.0
1.007609e+00 -4.937754e-03 0.0
1.008438e+00 -4.587414e-03 0.0
1.009178e+00 -4.253788e-03 0.0
1.009838e+00 -3.936839e-03 0.0
1.010427e+00 -3.636336e-03 0.0
1.010953e+00 -3.351886e-03 0.0
1.011422e+00 -3.082960e-03 0.0
1.011841e+00 -2.828919e-03 0.0
1.012214e+00 -2.589039e-03 0.0
1.012547e+00 -2.362533e-03 0.0
1.012842e+00 -2.148583e-03 0.0
1.013103e+00 -1.946369e-03 0.0
1.013333e+00 -1.755097e-03 0.0
1.013532e+00 -1.574021e-03 0.0
1.013703e+00 -1.402437e-03 0.0
1.013845e+00 -1.239608e-03 0.0
1.013957e+00 -1.084564e-03 0.0
1.014036e+00 -9.354952e-04 0.0
1.014080e+00 -7.914986e-04 0.0
1.014082e+00 -6.226216e-04 0.0
0.000000e+00 -6.139728e-04 0.0
1.000000e+00 -9.903788e-02 0.0
9.866556e-01 -1.002370e-01 0.0
9.695538e-01 -1.115843e-01 0.0
9.437276e-01 -1.362527e-01 0.0
9.008374e-01 -1.796762e-01 0.0
8.242781e-01 -2.522505e-01 0.0
6.901461e-01 -3.780265e-01 0.0
2.043985e-01 -5.064303e-01 0.0
-1.017942e+00 5.036677e-01 0.0
0.000000e+00 -5.222452e-02 0.0
-7.737729e-02 5.354952e-02 0.0
6.594390e-03 -6.901246e-02 0.0
1.063509e-01 -5.826606e-02 0.0
1.778677e-01 -1.869453e-03 0.0
2.106118e-01 6.581113e-02 0.0
2.059786e-01 1.317478e-01 0.0
1.662029e-01 1.924495e-01 0.0
9.763508e-02 2.426312e-01 0.0
1.514340e-02 2.751903e-01 0.0
-6.075494e-02 2.891225e-01 0.0
-1.163027e-01 2.881426e-01 0.0
-1.432198e-01 2.635071e-01 0.0
-1.428817e-01 1.993349e-01 0.0
-1.089153e-01 7.451657e-02 0.0
-4.943320e-02 -9.038356e-02 0.0
2.688927e-02 -2.587496e-01 0.0
1.106102e-01 -3.790604e-01 0.0
2.109844e-01 -4.315521e-01 0.0
3.213846e-01 -4.070767e-01 0.0
4.308280e-01 -3.287524e-01 0.0
5.303672e-01 -2.255922e-01 0.0
6.133138e-01 -1.207274e-01 0.0
6.743746e-01 -2.860496e-02 0.0
7.168627e-01 4.377604e-02 0.0
7.463326e-01 1.015362e-01 0.0
7.658996e-01 1.481872e-01 0.0
7.779587e-01 1.839388e-01 0.0
7.846130e-01 2.083902e-01 0.0
7.877442e-01 2.212409e-01 0.0
7.885561e-01 2.228069e-01 0.0
7.876155e-01 2.138540e-01 0.0
7.853742e-01 1.968379e-01 0.0
7.824185e-01 1.748631e-01 0.0
7.794898e-01 1.508242e-01 0.0
7.773467e-01 1.269393e-01 0.0
7.766123e-01 1.046030e-01 0.0
7.776720e-01 8.451053e-02 0.0
7.806349e-01 6.688908e-02 0.0
7.854045e-01 5.164003e-02 0.0
7.918596e-01 3.840335e-02 0.0
7.998440e-01 2.689735e-02 0.0
8.092057e-01 1.687929e-02 0.0
8.198383e-01 8.143166e-03 0.0
8.315327e-01 7.123353e-04 0.0
8.440060e-01 -5.429855e-03 0.0
8.569250e-01 -1.034490e-02 0.0
8.699643e-01 -1.414101e-02 0.0
8.828336e-01 -1.694737e-02 0.0
8.953056e-01 -1.888737e-02 0.0
9.072033e-01 -2.008465e-02 0.0
9.183991e-01 -2.066720e-02 0.0
9.288105e-01 -2.075978e-02 0.0
9.383923e-01 -2.047613e-02 0.0
9.471305e-01 -1.991626e-02 0.0
9.550354e-01 -1.916351e-02 0.0
9.621360e-01 -1.828510e-02 0.0
9.684761e-01 -1.733416e-02 0.0
9.741095e-01 -1.635058e-02 0.0
9.790951e-01 -1.536309e-02 0.0
9.834935e-01 -1.439163e-02 0.0
9.873646e-01 -1.344944e-02 0.0
9.907656e-01 -1.254483e-02 0.0
9.937499e-01 -1.168254e-02 0.0
9.963664e-01 -1.086484e-02 0.0
9.986593e-01 -1.009229e-02 0.0
1.000668e+00 -9.364379e-03 0.0
1.002429e+00 -8.679976e-03 0.0
1.003973e+00 -8.037530e-03 0.0
1.005327e+00 -7.435264e-03 0.0
1.006515e+00 -6.871281e-03 0.0
1.007558e+00 -6.343640e-03 0.0
1.008475e+00 -5.850398e-03 0.0
1.009282e+00 -5.389626e-03 0.0
1.009992e+00 -4.959427e-03 0.0
1.010618e+00 -4.557937e-03 0.0
1.011169e+00 -4.183333e-03 0.0
1.011656e+00 -3.833825e-03 0.0
1.012085e+00 -3.507662e-03 0.0
1.012463e+00 -3.203126e-03 0.0
1.012797e+00 -2.918535e-03 0.0
1.013091e+00 -2.652239e-03 0.0
1.013350e+00 -2.402628e-03 0.0
1.013576e+00 -2.168124e-03 0.0
1.013773e+00 -1.947191e-03 0.0
1.013941e+00 -1.738315e-03 0.0
1.014083e+00 -1.539973e-03 0.0
1.014199e+00 -1.350541e-03 0.0
1.014287e+00 -1.168139e-03 0.0
1.014346e+00 -9.901212e-04 0.0
1.014374e+00 -8.155858e-04 0.0
1.014366e+00 -6.096274e-04 0.0
0.000000e+00 -5.989496e-04 0.0
1.000000e+00 -7.906919e-02 0.0
9.800619e-01 -8.028204e-02 0.0
9.545672e-01 -8.608521e-02 0.0
9.158350e-01 -9.751609e-02 0.0
8.499616e-01 -1.137984e-01 0.0
7.274273e-01 -1.297119e-01 0.0
4.722253e-01 -1.228201e-01 0.0
-1.049680e-02 -2.371627e-02 0.0
-2.411864e-06 0.000000e+00 0.0
0.000000e+00 -0.000000e+00 0.0
0.000000e+00 -5.043187e-02 0.0
-1.258297e-01 5.682165e-02 0.0
-9.598667e-02 -8.810468e-02 0.0
-7.103369e-02 -2.681802e-02 0.0
-7.687585e-02 7.165769e-02 0.0
-9.457678e-02 1.494531e-01 0.0
-1.217453e-01 2.196224e-01 0.0