# vtk DataFile Version 3.0
Vector Field
ASCII
DATASET RECTILINEAR_GRID
DIMENSIONS 102 22 1
X_COORDINATES 102 double
0.000000 0.100000 0.200000 0.300000 0.400000 0.500000 0.600000 0.700000 0.800000 0.900000 1.000000 1.100000 1.200000 1.300000 1.400000 1.500000 1.600000 1.700000 1.800000 1.900000 2.000000 2.100000 2.200000 2.300000 2.400000 2.500000 2.600000 2.700000 2.800000 2.900000 3.000000 3.100000 3.200000 3.300000 3.400000 3.500000 3.600000 3.700000 3.800000 3.900000 4.000000 4.100000 4.200000 4.300000 4.400000 4.500000 4.600000 4.700000 4.800000 4.900000 5.000000 5.100000 5.200000 5.300000 5.400000 5.500000 5.600000 5.700000 5.800000 5.900000 6.000000 6.100000 6.200000 6.300000 6.400000 6.500000 6.600000 6.700000 6.800000 6.900000 7.000000 7.100000 7.200000 7.300000 7.400000 7.500000 7.600000 7.700000 7.800000 7.900000 8.000000 8.100000 8.200000 8.300000 8.400000 8.500000 8.600000 8.700000 8.800000 8.900000 9.000000 9.100000 9.200000 9.300000 9.400000 9.500000 9.600000 9.700000 9.800000 9.900000 10.000000 10.100000 
Y_COORDINATES 22 double
0.000000 0.100000 0.200000 0.300000 0.400000 0.500000 0.600000 0.700000 0.800000 0.900000 1.000000 1.100000 1.200000 1.300000 1.400000 1.500000 1.600000 1.700000 1.800000 1.900000 2.000000 2.100000 
Z_COORDINATES 1 double
0.0
POINT_DATA 2244
VECTORS Velocity double
0.000000e+00 0.000000e+00 0.0
-1.030450e+00 0.000000e+00 0.0
-1.064802e+00 0.000000e+00 0.0
-1.105293e+00 0.000000e+00 0.0
-1.153601e+00 0.000000e+00 0.0
-1.209570e+00 0.000000e+00 0.0
-1.269619e+00 0.000000e+00 0.0
-1.324605e+00 0.000000e+00 0.0
-1.354139e+00 0.000000e+00 0.0
-1.352512e+00 0.000000e+00 0.0
-1.326152e+00 0.000000e+00 0.0
-1.285436e+00 0.000000e+00 0.0
-1.239620e+00 0.000000e+00 0.0
-1.195078e+00 0.000000e+00 0.0
-1.155340e+00 0.000000e+00 0.0
-1.121728e+00 0.000000e+00 0.0
-1.094234e+00 0.000000e+00 0.0
-1.072223e+00 0.000000e+00 0.0
-1.054857e+00 0.000000e+00 0.0
-1.041310e+00 0.000000e+00 0.0
-1.030854e+00 0.000000e+00 0.0
-1.022884e+00 0.000000e+00 0.0
-1.016903e+00 0.000000e+00 0.0
-1.012503e+00 0.000000e+00 0.0
-1.009352e+00 0.000000e+00 0.0
-1.007175e+00 0.000000e+00 0.0
-1.005750e+00 0.000000e+00 0.0
-1.004892e+00 0.000000e+00 0.0
-1.004454e+00 0.000000e+00 0.0
-1.004319e+00 0.000000e+00 0.0
-1.004393e+00 0.000000e+00 0.0
-1.004607e+00 0.000000e+00 0.0
-1.004904e+00 0.000000e+00 0.0
-1.005247e+00 0.000000e+00 0.0
-1.005604e+00 0.000000e+00 0.0
-1.005956e+00 0.000000e+00 0.0
-1.006288e+00 0.000000e+00 0.0
-1.006591e+00 0.000000e+00 0.0
-1.006859e+00 0.000000e+00 0.0
-1.007090e+00 0.000000e+00 0.0
-1.007283e+00 0.000000e+00 0.0
-1.007439e+00 0.000000e+00 0.0
-1.007558e+00 0.000000e+00 0.0
-1.007644e+00 0.000000e+00 0.0
-1.007698e+00 0.000000e+00 0.0
-1.007723e+00 0.000000e+00 0.0
-1.007722e+00 0.000000e+00 0.0
-1.007697e+00 0.000000e+00 0.0
-1.007650e+00 0.000000e+00 0.0
-1.007585e+00 0.000000e+00 0.0
-1.007502e+00 0.000000e+00 0.0
-1.007405e+00 0.000000e+00 0.0
-1.007294e+00 0.000000e+00 0.0
-1.007171e+00 0.000000e+00 0.0
-1.007038e+00 0.000000e+00 0.0
-1.006896e+00 0.000000e+00 0.0
-1.006746e+00 0.000000e+00 0.0
-1.006589e+00 0.000000e+00 0.0
-1.006426e+00 0.000000e+00 0.0
-1.006258e+00 0.000000e+00 0.0
-1.006085e+00 0.000000e+00 0.0
-1.005907e+00 0.000000e+00 0.0
-1.005727e+00 0.000000e+00 0.0
-1.005543e+00 0.000000e+00 0.0
-1.005357e+00 0.000000e+00 0.0
-1.005168e+00 0.000000e+00 0.0
-1.004977e+00 0.000000e+00 0.0
-1.004784e+00 0.000000e+00 0.0
-1.004590e+00 0.000000e+00 0.0
-1.004395e+00 0.000000e+00 0.0
-1.004198e+00 0.000000e+00 0.0
-1.004000e+00 0.000000e+00 0.0
-1.003802e+00 0.000000e+00 0.0
-1.003602e+00 0.000000e+00 0.0
-1.003402e+00 0.000000e+00 0.0
-1.003202e+00 0.000000e+00 0.0
-1.003001e+00 0.000000e+00 0.0
-1.002799e+00 0.000000e+00 0.0
-1.002597e+00 0.000000e+00 0.0
-1.002394e+00 0.000000e+00 0.0
-1.002191e+00 0.000000e+00 0.0
-1.001988e+00 0.000000e+00 0.0
-1.001785e+00 0.000000e+00 0.0
-1.001581e+00 0.000000e+00 0.0
-1.001377e+00 0.000000e+00 0.0
-1.001172e+00 0.000000e+00 0.0
-1.000968e+00 0.000000e+00 0.0
-1.000763e+00 0.000000e+00 0.0
-1.000559e+00 0.000000e+00 0.0
-1.000354e+00 0.000000e+00 0.0
-1.000150e+00 0.000000e+00 0.0
-9.999469e-01 0.000000e+00 0.0
-9.997448e-01 0.000000e+00 0.0
-9.995448e-01 0.000000e+00 0.0
-9.993483e-01 0.000000e+00 0.0
-9.991578e-01 0.000000e+00 0.0
-9.989780e-01 0.000000e+00 0.0
-9.988191e-01 0.000000e+00 0.0
-9.987062e-01 0.000000e+00 0.0
-9.987392e-01 0.000000e+00 0.0
-9.987392e-01 0.000000e+00 0.0
0.000000e+00 0.000000e+00 0.0
1.000000e+00 -3.164585e-02 0.0
1.030490e+00 -3.162042e-02 0.0
1.064896e+00 -3.505557e-02 0.0
1.105609e+00 -4.136394e-02 0.0
1.154492e+00 -4.953234e-02 0.0
1.211621e+00 -5.777886e-02 0.0
1.273710e+00 -6.273914e-02 0.0
1.332160e+00 -5.910039e-02 0.0
1.365317e+00 -3.380745e-02 0.0
1.365945e+00 -1.277464e-03 0.0
1.339929e+00 2.536572e-02 0.0
1.297955e+00 4.132422e-02 0.0
1.249993e+00 4.731130e-02 0.0
1.203079e+00 4.626420e-02 0.0
1.161177e+00 4.125157e-02 0.0
1.125821e+00 3.470653e-02 0.0
1.097018e+00 2.815234e-02 0.0
1.074063e+00 2.230527e-02 0.0
1.056017e+00 1.739586e-02 0.0
1.041965e+00 1.340191e-02 0.0
1.031116e+00 1.019884e-02 0.0
1.022823e+00 7.642527e-03 0.0
1.016568e+00 5.605180e-03 0.0
1.011933e+00 3.984523e-03 0.0
1.008582e+00 2.701254e-03 0.0
1.006238e+00 1.693343e-03 0.0
1.004677e+00 9.109176e-04 0.0
1.003714e+00 3.127858e-04 0.0
1.003199e+00 -1.352119e-04 0.0
1.003010e+00 -4.618584e-04 0.0
1.003053e+00 -6.925818e-04 0.0
1.003251e+00 -8.485960e-04 0.0
1.003548e+00 -9.472706e-04 0.0
1.003900e+00 -1.002693e-03 0.0
1.004276e+00 -1.026156e-03 0.0
1.004652e+00 -1.026559e-03 0.0
1.005013e+00 -1.010853e-03 0.0
1.005347e+00 -9.844198e-04 0.0
1.005648e+00 -9.513242e-04 0.0
1.005912e+00 -9.145828e-04 0.0
1.006138e+00 -8.763892e-04 0.0
1.006326e+00 -8.382987e-04 0.0
1.006476e+00 -8.013779e-04 0.0
1.006592e+00 -7.663240e-04 0.0
1.006675e+00 -7.335595e-04 0.0
1.006728e+00 -7.033060e-04 0.0
1.006753e+00 -6.756411e-04 0.0
1.006753e+00 -6.505412e-04 0.0
1.006730e+00 -6.279153e-04 0.0
1.006687e+00 -6.076287e-04 0.0
1.006626e+00 -5.895216e-04 0.0
1.006549e+00 -5.734215e-04 0.0
1.006458e+00 -5.591525e-04 0.0
1.006353e+00 -5.465416e-04 0.0
1.006238e+00 -5.354229e-04 0.0
1.006113e+00 -5.256402e-04 0.0
1.005979e+00 -5.170486e-04 0.0
1.005838e+00 -5.095147e-04 0.0
1.005690e+00 -5.029175e-04 0.0
1.005537e+00 -4.971473e-04 0.0
1.005378e+00 -4.921056e-04 0.0
1.005215e+00 -4.877044e-04 0.0
1.005048e+00 -4.838652e-04 0.0
1.004877e+00 -4.805184e-04 0.0
1.004704e+00 -4.776024e-04 0.0
1.004528e+00 -4.750626e-04 0.0
1.004350e+00 -4.728510e-04 0.0
1.004170e+00 -4.709255e-04 0.0
1.003989e+00 -4.692488e-04 0.0
1.003806e+00 -4.677883e-04 0.0
1.003621e+00 -4.665154e-04 0.0
1.003436e+00 -4.654050e-04 0.0
1.003249e+00 -4.644349e-04 0.0
1.003062e+00 -4.635857e-04 0.0
1.002873e+00 -4.628405e-04 0.0
1.002685e+00 -4.621843e-04 0.0
1.002495e+00 -4.616038e-04 0.0
1.002305e+00 -4.610876e-04 0.0
1.002115e+00 -4.606256e-04 0.0
1.001924e+00 -4.602092e-04 0.0
1.001733e+00 -4.598311e-04 0.0
1.001541e+00 -4.594857e-04 0.0
1.001349e+00 -4.591690e-04 0.0
1.001157e+00 -4.588793e-04 0.0
1.000965e+00 -4.586179e-04 0.0
1.000772e+00 -4.583901e-04 0.0
1.000579e+00 -4.582071e-04 0.0
1.000386e+00 -4.580887e-04 0.0
1.000193e+00 -4.580674e-04 0.0
9.999999e-01 -4.581939e-04 0.0
9.998073e-01 -4.585479e-04 0.0
9.996154e-01 -4.592539e-04 0.0
9.994248e-01 -4.605105e-04 0.0
9.992363e-01 -4.626445e-04 0.0
9.990513e-01 -4.662240e-04 0.0
9.988725e-01 -4.723204e-04 0.0
9.987046e-01 -4.831976e-04 0.0
9.985579e-01 -5.044716e-04 0.0
9.984580e-01 -5.513155e-04 0.0
9.985084e-01 -7.015649e-04 0.0
9.987392e-01 -8.818988e-04 0.0
0.000000e+00 -8.996074e-04 0.0
1.000000e+00 -6.222770e-02 0.0
1.029986e+00 -6.225625e-02 0.0
1.063797e+00 -6.903666e-02 0.0
1.103943e+00 -8.167898e-02 0.0
1.152697e+00 -9.845603e-02 0.0
1.211034e+00 -1.162852e-01 0.0
1.276906e+00 -1.287806e-01 0.0
1.347304e+00 -1.296687e-01 0.0
1.388545e+00 -7.521815e-02 0.0
1.391137e+00 -4.039054e-03 0.0
1.363022e+00 5.331151e-02 0.0
1.317005e+00 8.717193e-02 0.0
1.264537e+00 9.960929e-02 0.0
1.213522e+00 9.710955e-02 0.0
1.168440e+00 8.616469e-02 0.0
1.130939e+00 7.203740e-02 0.0
1.100867e+00 5.805509e-02 0.0
1.077290e+00 4.571226e-02 0.0
1.059058e+00 3.545856e-02 0.0
1.045090e+00 2.719997e-02 0.0
1.034484e+00 2.063558e-02 0.0
1.026518e+00 1.543834e-02 0.0
1.020626e+00 1.132753e-02 0.0
1.016359e+00 8.082645e-03 0.0
1.013356e+00 5.534283e-03 0.0
1.011329e+00 3.550331e-03 0.0
1.010046e+00 2.024865e-03 0.0
1.009318e+00 8.708597e-04 0.0
1.008997e+00 1.593950e-05 0.0
1.008966e+00 -6.007042e-04 0.0
1.009135e+00 -1.030405e-03 0.0
1.009432e+00 -1.315483e-03 0.0
1.009805e+00 -1.490383e-03 0.0
1.010216e+00 -1.582834e-03 0.0
1.010635e+00 -1.614898e-03 0.0
1.011043e+00 -1.603953e-03 0.0
1.011426e+00 -1.563444e-03 0.0
1.011775e+00 -1.503599e-03 0.0
1.012086e+00 -1.432105e-03 0.0
1.012356e+00 -1.354639e-03 0.0
1.012586e+00 -1.275298e-03 0.0
1.012775e+00 -1.196959e-03 0.0
1.012925e+00 -1.121569e-03 0.0
1.013039e+00 -1.050375e-03 0.0
1.013120e+00 -9.841052e-04 0.0
1.013170e+00 -9.231138e-04 0.0
1.013193e+00 -8.674866e-04 0.0
1.013189e+00 -8.171246e-04 0.0
1.013164e+00 -7.718061e-04 0.0
1.013117e+00 -7.312326e-04 0.0
1.013053e+00 -6.950623e-04 0.0
1.012973e+00 -6.629340e-04 0.0
1.012879e+00 -6.344843e-04 0.0
1.012772e+00 -6.093590e-04 0.0
1.012654e+00 -5.872203e-04 0.0
1.012526e+00 -5.677519e-04 0.0
1.012390e+00 -5.506613e-04 0.0
1.012246e+00 -5.356804e-04 0.0
1.012096e+00 -5.225660e-04 0.0
1.011940e+00 -5.110985e-04 0.0
1.011780e+00 -5.010810e-04 0.0
1.011614e+00 -4.923375e-04 0.0
1.011445e+00 -4.847117e-04 0.0
1.011273e+00 -4.780646e-04 0.0
1.011098e+00 -4.722733e-04 0.0
1.010920e+00 -4.672296e-04 0.0
1.010741e+00 -4.628380e-04 0.0
1.010559e+00 -4.590144e-04 0.0
1.010375e+00 -4.556850e-04 0.0
1.010191e+00 -4.527849e-04 0.0
1.010005e+00 -4.502574e-04 0.0
1.009817e+00 -4.480523e-04 0.0
1.009629e+00 -4.461260e-04 0.0
1.009440e+00 -4.444399e-04 0.0
1.009251e+00 -4.429601e-04 0.0
1.009060e+00 -4.416571e-04 0.0
1.008869e+00 -4.405046e-04 0.0
1.008678e+00 -4.394797e-04 0.0
1.008486e+00 -4.385624e-04 0.0
1.008294e+00 -4.377355e-04 0.0
1.008101e+00 -4.369845e-04 0.0
1.007908e+00 -4.362978e-04 0.0
1.007715e+00 -4.356673e-04 0.0
1.007521e+00 -4.350890e-04 0.0
1.007327e+00 -4.345647e-04 0.0
1.007133e+00 -4.341037e-04 0.0
1.006938e+00 -4.337268e-04 0.0
1.006744e+00 -4.334702e-04 0.0
1.006549e+00 -4.333937e-04 0.0
1.006355e+00 -4.335924e-04 0.0
1.006161e+00 -4.342138e-04 0.0
1.005967e+00 -4.354867e-04 0.0
1.005775e+00 -4.377705e-04 0.0
1.005584e+00 -4.416414e-04 0.0
1.005396e+00 -4.480585e-04 0.0
1.005212e+00 -4.587004e-04 0.0
1.005036e+00 -4.766871e-04 0.0
1.004870e+00 -5.081510e-04 0.0
1.004714e+00 -5.652490e-04 0.0
1.004512e+00 -6.701523e-04 0.0
1.004260e+00 -7.994623e-04 0.0
0.000000e+00 -8.159534e-04 0.0
1.000000e+00 -8.891276e-02 0.0
1.026123e+00 -8.902972e-02 0.0
1.056092e+00 -9.917439e-02 0.0
1.092721e+00 -1.184778e-01 0.0
1.139208e+00 -1.451127e-01 0.0
1.198411e+00 -1.756574e-01 0.0
1.269360e+00 -1.999000e-01 0.0
1.365118e+00 -2.255960e-01 0.0
1.421621e+00 -1.318908e-01 0.0
1.427354e+00 -9.941602e-03 0.0
1.394913e+00 8.558336e-02 0.0
1.340707e+00 1.412083e-01 0.0
1.278930e+00 1.612166e-01 0.0
1.219370e+00 1.565003e-01 0.0
1.167681e+00 1.376840e-01 0.0
1.125865e+00 1.136838e-01 0.0
1.093483e+00 9.026697e-02 0.0
1.069048e+00 6.997735e-02 0.0
1.050866e+00 5.347163e-02 0.0
1.037455e+00 4.044067e-02 0.0
1.027660e+00 3.026151e-02 0.0
1.020606e+00 2.232292e-02 0.0
1.015633e+00 1.613048e-02 0.0
1.012237e+00 1.130946e-02 0.0
1.010024e+00 7.577069e-03 0.0
1.008690e+00 4.714728e-03 0.0
1.007997e+00 2.548712e-03 0.0
1.007760e+00 9.380919e-04 0.0
1.007839e+00 -2.325013e-04 0.0
1.008127e+00 -1.058755e-03 0.0
1.008546e+00 -1.618802e-03 0.0
1.009036e+00 -1.975764e-03 0.0
1.009557e+00 -2.180214e-03 0.0
1.010076e+00 -2.272292e-03 0.0
1.010575e+00 -2.283507e-03 0.0
1.011040e+00 -2.238297e-03 0.0
1.011462e+00 -2.155352e-03 0.0
1.011838e+00 -2.048747e-03 0.0
1.012165e+00 -1.928922e-03 0.0
1.012444e+00 -1.803471e-03 0.0
1.012677e+00 -1.677785e-03 0.0
1.012866e+00 -1.555569e-03 0.0
1.013014e+00 -1.439259e-03 0.0
1.013124e+00 -1.330348e-03 0.0
1.013200e+00 -1.229637e-03 0.0
1.013244e+00 -1.137431e-03 0.0
1.013261e+00 -1.053689e-03 0.0
1.013252e+00 -9.781355e-04 0.0
1.013221e+00 -9.103420e-04 0.0
1.013170e+00 -8.497911e-04 0.0
1.013101e+00 -7.959191e-04 0.0
1.013016e+00 -7.481480e-04 0.0
1.012918e+00 -7.059070e-04 0.0
1.012808e+00 -6.686473e-04 0.0
1.012686e+00 -6.358508e-04 0.0
1.012556e+00 -6.070359e-04 0.0
1.012417e+00 -5.817596e-04 0.0
1.012271e+00 -5.596181e-04 0.0
1.012119e+00 -5.402462e-04 0.0
1.011962e+00 -5.233154e-04 0.0
1.011799e+00 -5.085316e-04 0.0
1.011633e+00 -4.956328e-04 0.0
1.011463e+00 -4.843861e-04 0.0
1.011290e+00 -4.745855e-04 0.0
1.011114e+00 -4.660488e-04 0.0
1.010935e+00 -4.586155e-04 0.0
1.010755e+00 -4.521442e-04 0.0
1.010572e+00 -4.465108e-04 0.0
1.010388e+00 -4.416060e-04 0.0
1.010203e+00 -4.373342e-04 0.0
1.010017e+00 -4.336114e-04 0.0
1.009829e+00 -4.303638e-04 0.0
1.009641e+00 -4.275269e-04 0.0
1.009452e+00 -4.250438e-04 0.0
1.009262e+00 -4.228648e-04 0.0
1.009071e+00 -4.209458e-04 0.0
1.008880e+00 -4.192484e-04 0.0
1.008688e+00 -4.177386e-04 0.0
1.008496e+00 -4.163869e-04 0.0
1.008304e+00 -4.151675e-04 0.0
1.008111e+00 -4.140587e-04 0.0
1.007918e+00 -4.130428e-04 0.0
1.007725e+00 -4.121071e-04 0.0
1.007531e+00 -4.112445e-04 0.0
1.007337e+00 -4.104556e-04 0.0
1.007143e+00 -4.097518e-04 0.0
1.006948e+00 -4.091594e-04 0.0
1.006754e+00 -4.087262e-04 0.0
1.006559e+00 -4.085317e-04 0.0
1.006364e+00 -4.087018e-04 0.0
1.006170e+00 -4.094316e-04 0.0
1.005975e+00 -4.110202e-04 0.0
1.005782e+00 -4.139274e-04 0.0
1.005589e+00 -4.188663e-04 0.0
1.005398e+00 -4.269602e-04 0.0
1.005209e+00 -4.400124e-04 0.0
1.005024e+00 -4.609517e-04 0.0
1.004840e+00 -4.944393e-04 0.0
1.004652e+00 -5.470957e-04 0.0
1.004436e+00 -6.236513e-04 0.0
1.004183e+00 -7.160771e-04 0.0
0.000000e+00 -7.317338e-04 0.0
1.000000e+00 -1.097746e-01 0.0
1.020347e+00 -1.100264e-01 0.0
1.044396e+00 -1.233931e-01 0.0
1.075284e+00 -1.495359e-01 0.0
1.117561e+00 -1.875589e-01 0.0
1.177431e+00 -2.356967e-01 0.0
1.255863e+00 -2.785019e-01 0.0
1.393728e+00 -3.636303e-01 0.0
1.466496e+00 -2.048284e-01 0.0
1.475314e+00 -1.892977e-02 0.0
1.439139e+00 1.215888e-01 0.0
1.375487e+00 2.046912e-01 0.0
1.300746e+00 2.357875e-01 0.0
1.227826e+00 2.292514e-01 0.0
1.165117e+00 2.002234e-01 0.0
1.116009e+00 1.626215e-01 0.0
1.079951e+00 1.261558e-01 0.0
1.054465e+00 9.529394e-02 0.0
1.036789e+00 7.097778e-02 0.0
1.024678e+00 5.238197e-02 0.0
1.016516e+00 3.825392e-02 0.0
1.011171e+00 2.749838e-02 0.0
1.007838e+00 1.929358e-02 0.0
1.005934e+00 1.304435e-02 0.0
1.005028e+00 8.313392e-03 0.0
1.004804e+00 4.768585e-03 0.0
1.005032e+00 2.151426e-03 0.0
1.005543e+00 2.575713e-04 0.0
1.006218e+00 -1.077232e-03 0.0
1.006974e+00 -1.984620e-03 0.0
1.007754e+00 -2.568429e-03 0.0
1.008519e+00 -2.910505e-03 0.0
1.009244e+00 -3.075049e-03 0.0
1.009914e+00 -3.111998e-03 0.0
1.010521e+00 -3.059795e-03 0.0
1.011061e+00 -2.947692e-03 0.0
1.011533e+00 -2.797652e-03 0.0
1.011941e+00 -2.625915e-03 0.0
1.012287e+00 -2.444285e-03 0.0
1.012575e+00 -2.261145e-03 0.0
1.012809e+00 -2.082278e-03 0.0
1.012996e+00 -1.911510e-03 0.0
1.013138e+00 -1.751212e-03 0.0
1.013241e+00 -1.602695e-03 0.0
1.013308e+00 -1.466506e-03 0.0
1.013343e+00 -1.342654e-03 0.0
1.013351e+00 -1.230786e-03 0.0
1.013333e+00 -1.130312e-03 0.0
1.013293e+00 -1.040495e-03 0.0
1.013234e+00 -9.605253e-04 0.0
1.013158e+00 -8.895652e-04 0.0
1.013067e+00 -8.267825e-04 0.0
1.012963e+00 -7.713739e-04 0.0
1.012847e+00 -7.225793e-04 0.0
1.012721e+00 -6.796900e-04 0.0
1.012586e+00 -6.420531e-04 0.0
1.012444e+00 -6.090724e-04 0.0
1.012295e+00 -5.802081e-04 0.0
1.012140e+00 -5.549740e-04 0.0
1.011980e+00 -5.329345e-04 0.0
1.011815e+00 -5.137011e-04 0.0
1.011647e+00 -4.969285e-04 0.0
1.011475e+00 -4.823108e-04 0.0
1.011300e+00 -4.695773e-04 0.0
1.011123e+00 -4.584897e-04 0.0
1.010943e+00 -4.488380e-04 0.0
1.010761e+00 -4.404375e-04 0.0
1.010578e+00 -4.331261e-04 0.0
1.010394e+00 -4.267617e-04 0.0
1.010208e+00 -4.212195e-04 0.0
1.010021e+00 -4.163901e-04 0.0
1.009833e+00 -4.121778e-04 0.0
1.009644e+00 -4.084984e-04 0.0
1.009454e+00 -4.052781e-04 0.0
1.009264e+00 -4.024520e-04 0.0
1.009073e+00 -3.999632e-04 0.0
1.008882e+00 -3.977613e-04 0.0
1.008690e+00 -3.958021e-04 0.0
1.008498e+00 -3.940470e-04 0.0
1.008305e+00 -3.924620e-04 0.0
1.008112e+00 -3.910183e-04 0.0
1.007919e+00 -3.896919e-04 0.0
1.007726e+00 -3.884647e-04 0.0
1.007532e+00 -3.873254e-04 0.0
1.007338e+00 -3.862717e-04 0.0
1.007144e+00 -3.853137e-04 0.0
1.006949e+00 -3.844788e-04 0.0
1.006754e+00 -3.838192e-04 0.0
1.006559e+00 -3.834233e-04 0.0
1.006364e+00 -3.834315e-04 0.0
1.006169e+00 -3.840611e-04 0.0
1.005974e+00 -3.856414e-04 0.0
1.005779e+00 -3.886671e-04 0.0
1.005584e+00 -3.938770e-04 0.0
1.005389e+00 -4.023693e-04 0.0
1.005195e+00 -4.157568e-04 0.0
1.005001e+00 -4.363313e-04 0.0
1.004803e+00 -4.670625e-04 0.0
1.004597e+00 -5.108874e-04 0.0
1.004371e+00 -5.673478e-04 0.0
1.004119e+00 -6.334233e-04 0.0
0.000000e+00 -6.485307e-04 0.0
1.000000e+00 -1.229373e-01 0.0
1.012701e+00 -1.233772e-01 0.0
1.028514e+00 -1.393763e-01 0.0
1.050532e+00 -1.717232e-01 0.0
1.084689e+00 -2.218852e-01 0.0
1.141961e+00 -2.931385e-01 0.0
1.234376e+00 -3.710868e-01 0.0
1.431264e+00 -5.606872e-01 0.0
1.501337e+00 -2.750712e-01 0.0
1.507537e+00 -2.529941e-02 0.0
1.475072e+00 1.538840e-01 0.0
1.411110e+00 2.684842e-01 0.0
1.327181e+00 3.195462e-01 0.0
1.238608e+00 3.176554e-01 0.0
1.159643e+00 2.790180e-01 0.0
1.098906e+00 2.231893e-01 0.0
1.057379e+00 1.675133e-01 0.0
1.031019e+00 1.214845e-01 0.0
1.014971e+00 8.685569e-02 0.0
1.005558e+00 6.162544e-02 0.0
1.000391e+00 4.325111e-02 0.0
9.979501e-01 2.977006e-02 0.0
9.972422e-01 1.983180e-02 0.0
9.976078e-01 1.250920e-02 0.0
9.986035e-01 7.148055e-03 0.0
9.999349e-01 3.267504e-03 0.0
1.001408e+00 5.086363e-04 0.0
1.002900e+00 -1.404488e-03 0.0
1.004339e+00 -2.684940e-03 0.0
1.005680e+00 -3.495294e-03 0.0
1.006901e+00 -3.959805e-03 0.0
1.007995e+00 -4.173789e-03 0.0
1.008960e+00 -4.210037e-03 0.0
1.009802e+00 -4.123705e-03 0.0
1.010529e+00 -3.956169e-03 0.0
1.011150e+00 -3.738117e-03 0.0
1.011674e+00 -3.491982e-03 0.0
1.012113e+00 -3.233890e-03 0.0
1.012474e+00 -2.975177e-03 0.0
1.012767e+00 -2.723574e-03 0.0
1.012999e+00 -2.484130e-03 0.0
1.013178e+00 -2.259917e-03 0.0
1.013309e+00 -2.052576e-03 0.0
1.013400e+00 -1.862727e-03 0.0
1.013454e+00 -1.690277e-03 0.0
1.013476e+00 -1.534657e-03 0.0
1.013470e+00 -1.394985e-03 0.0
1.013440e+00 -1.270199e-03 0.0
1.013389e+00 -1.159143e-03 0.0
1.013320e+00 -1.060631e-03 0.0
1.013234e+00 -9.734947e-04 0.0
1.013134e+00 -8.966073e-04 0.0
1.013022e+00 -8.289073e-04 0.0
1.012899e+00 -7.694064e-04 0.0
1.012767e+00 -7.171958e-04 0.0
1.012626e+00 -6.714464e-04 0.0
1.012479e+00 -6.314080e-04 0.0
1.012325e+00 -5.964056e-04 0.0
1.012166e+00 -5.658346e-04 0.0
1.012003e+00 -5.391561e-04 0.0
1.011835e+00 -5.158912e-04 0.0
1.011664e+00 -4.956156e-04 0.0
1.011490e+00 -4.779546e-04 0.0
1.011313e+00 -4.625776e-04 0.0
1.011134e+00 -4.491938e-04 0.0
1.010953e+00 -4.375473e-04 0.0
1.010770e+00 -4.274139e-04 0.0
1.010586e+00 -4.185967e-04 0.0
1.010400e+00 -4.109233e-04 0.0
1.010213e+00 -4.042426e-04 0.0
1.010026e+00 -3.984222e-04 0.0
1.009837e+00 -3.933462e-04 0.0
1.009648e+00 -3.889128e-04 0.0
1.009457e+00 -3.850329e-04 0.0
1.009267e+00 -3.816279e-04 0.0
1.009076e+00 -3.786290e-04 0.0
1.008884e+00 -3.759752e-04 0.0
1.008692e+00 -3.736130e-04 0.0
1.008500e+00 -3.714950e-04 0.0
1.008307e+00 -3.695798e-04 0.0
1.008114e+00 -3.678315e-04 0.0
1.007920e+00 -3.662197e-04 0.0
1.007727e+00 -3.647203e-04 0.0
1.007533e+00 -3.633165e-04 0.0
1.007339e+00 -3.620008e-04 0.0
1.007145e+00 -3.607787e-04 0.0
1.006950e+00 -3.596732e-04 0.0
1.006755e+00 -3.587329e-04 0.0
1.006560e+00 -3.580431e-04 0.0
1.006364e+00 -3.577413e-04 0.0
1.006168e+00 -3.580404e-04 0.0
1.005972e+00 -3.592608e-04 0.0
1.005775e+00 -3.618734e-04 0.0
1.005578e+00 -3.665571e-04 0.0
1.005380e+00 -3.742657e-04 0.0
1.005181e+00 -3.862849e-04 0.0
1.004979e+00 -4.042193e-04 0.0
1.004772e+00 -4.297495e-04 0.0
1.004555e+00 -4.638738e-04 0.0
1.004322e+00 -5.048808e-04 0.0
1.004071e+00 -5.515602e-04 0.0
0.000000e+00 -5.663672e-04 0.0
1.000000e+00 -1.268218e-01 0.0
1.003477e+00 -1.275038e-01 0.0
1.008663e+00 -1.447322e-01 0.0
1.017533e+00 -1.807625e-01 0.0
1.035965e+00 -2.404869e-01 0.0
1.077933e+00 -3.352762e-01 0.0
1.175686e+00 -4.690100e-01 0.0
1.423054e+00 -8.082242e-01 0.0
1.451623e+00 -3.038098e-01 0.0
1.444455e+00 -1.830138e-02 0.0
1.428289e+00 1.698806e-01 0.0
1.394434e+00 3.021694e-01 0.0
1.330902e+00 3.829092e-01 0.0
1.239987e+00 4.084004e-01 0.0
1.143853e+00 3.749821e-01 0.0
1.067445e+00 2.994277e-01 0.0
1.019435e+00 2.153542e-01 0.0
9.939638e-01 1.467860e-01 0.0
9.823101e-01 9.833976e-02 0.0
9.783367e-01 6.542925e-02 0.0
9.784978e-01 4.292039e-02 0.0
9.807831e-01 2.731512e-02 0.0
9.840432e-01 1.640209e-02 0.0
9.876297e-01 8.753067e-03 0.0
9.911785e-01 3.429568e-03 0.0
9.944984e-01 -2.220314e-04 0.0
9.975006e-01 -2.663170e-03 0.0
1.000157e+00 -4.230703e-03 0.0
1.002472e+00 -5.169052e-03 0.0
1.004464e+00 -5.657452e-03 0.0
1.006163e+00 -5.828784e-03 0.0
1.007602e+00 -5.781687e-03 0.0
1.008811e+00 -5.588928e-03 0.0
1.009821e+00 -5.303815e-03 0.0
1.010661e+00 -4.964932e-03 0.0
1.011353e+00 -4.599841e-03 0.0
1.011919e+00 -4.227863e-03 0.0
1.012377e+00 -3.862211e-03 0.0
1.012744e+00 -3.511595e-03 0.0
1.013032e+00 -3.181442e-03 0.0
1.013253e+00 -2.874811e-03 0.0
1.013417e+00 -2.593074e-03 0.0
1.013531e+00 -2.336429e-03 0.0
1.013603e+00 -2.104270e-03 0.0
1.013638e+00 -1.895474e-03 0.0
1.013642e+00 -1.708594e-03 0.0
1.013620e+00 -1.542012e-03 0.0
1.013574e+00 -1.394037e-03 0.0
1.013508e+00 -1.262983e-03 0.0
1.013425e+00 -1.147212e-03 0.0
1.013327e+00 -1.045170e-03 0.0
1.013216e+00 -9.554028e-04 0.0
1.013094e+00 -8.765674e-04 0.0
1.012962e+00 -8.074351e-04 0.0
1.012822e+00 -7.468907e-04 0.0
1.012675e+00 -6.939281e-04 0.0
1.012521e+00 -6.476445e-04 0.0
1.012362e+00 -6.072337e-04 0.0
1.012199e+00 -5.719780e-04 0.0
1.012031e+00 -5.412408e-04 0.0
1.011860e+00 -5.144590e-04 0.0
1.011685e+00 -4.911356e-04 0.0
1.011508e+00 -4.708327e-04 0.0
1.011329e+00 -4.531653e-04 0.0
1.011148e+00 -4.377954e-04 0.0
1.010965e+00 -4.244265e-04 0.0
1.010781e+00 -4.127986e-04 0.0
1.010595e+00 -4.026844e-04 0.0
1.010408e+00 -3.938847e-04 0.0
1.010220e+00 -3.862253e-04 0.0
1.010032e+00 -3.795535e-04 0.0
1.009842e+00 -3.737360e-04 0.0
1.009652e+00 -3.686556e-04 0.0
1.009461e+00 -3.642098e-04 0.0
1.009270e+00 -3.603083e-04 0.0
1.009079e+00 -3.568716e-04 0.0
1.008887e+00 -3.538296e-04 0.0
1.008694e+00 -3.511203e-04 0.0
1.008502e+00 -3.486889e-04 0.0
1.008309e+00 -3.464869e-04 0.0
1.008116e+00 -3.444715e-04 0.0
1.007922e+00 -3.426061e-04 0.0
1.007728e+00 -3.408600e-04 0.0
1.007534e+00 -3.392096e-04 0.0
1.007340e+00 -3.376401e-04 0.0
1.007146e+00 -3.361486e-04 0.0
1.006951e+00 -3.347488e-04 0.0
1.006756e+00 -3.334776e-04 0.0
1.006560e+00 -3.324050e-04 0.0
1.006364e+00 -3.316487e-04 0.0
1.006168e+00 -3.313933e-04 0.0
1.005971e+00 -3.319162e-04 0.0
1.005773e+00 -3.336199e-04 0.0
1.005573e+00 -3.370679e-04 0.0
1.005372e+00 -3.430140e-04 0.0
1.005168e+00 -3.524001e-04 0.0
1.004961e+00 -3.662662e-04 0.0
1.004746e+00 -3.854772e-04 0.0
1.004523e+00 -4.101688e-04 0.0
1.004287e+00 -4.386627e-04 0.0
1.004036e+00 -4.704062e-04 0.0
0.000000e+00 -4.850876e-04 0.0
1.000000e+00 -1.206331e-01 0.0
9.934496e-01 -1.216035e-01 0.0
9.862309e-01 -1.376831e-01 0.0
9.774041e-01 -1.721053e-01 0.0
9.687122e-01 -2.319646e-01 0.0
9.678331e-01 -3.345666e-01 0.0
1.008981e+00 -5.103275e-01 0.0
1.192973e+00 -9.923860e-01 0.0
1.118696e+00 -2.292213e-01 0.0
1.095582e+00 5.123448e-03 0.0
1.121438e+00 1.438544e-01 0.0
1.156044e+00 2.673942e-01 0.0
1.174806e+00 3.639771e-01 0.0
1.162974e+00 4.200629e-01 0.0
1.107796e+00 4.299911e-01 0.0
1.029930e+00 3.771234e-01 0.0
9.689304e-01 2.761846e-01 0.0
9.408849e-01 1.746619e-01 0.0
9.360251e-01 1.030300e-01 0.0
9.416571e-01 5.962755e-02 0.0
9.507419e-01 3.366606e-02 0.0
9.602729e-01 1.761446e-02 0.0
9.691063e-01 7.399033e-03 0.0
9.768834e-01 8.064269e-04 0.0
9.835503e-01 -3.406965e-03 0.0
9.891745e-01 -6.015937e-03 0.0
9.938727e-01 -7.530968e-03 0.0
9.977675e-01 -8.295101e-03 0.0
1.000976e+00 -8.547496e-03 0.0
1.003607e+00 -8.457587e-03 0.0
1.005754e+00 -8.145984e-03 0.0
1.007501e+00 -7.698345e-03 0.0
1.008918e+00 -7.174876e-03 0.0
1.010062e+00 -6.617423e-03 0.0
1.010981e+00 -6.054519e-03 0.0
1.011717e+00 -5.505114e-03 0.0
1.012301e+00 -4.981315e-03 0.0
1.012759e+00 -4.490368e-03 0.0
1.013114e+00 -4.036101e-03 0.0
1.013383e+00 -3.619971e-03 0.0
1.013580e+00 -3.241815e-03 0.0
1.013718e+00 -2.900398e-03 0.0
1.013806e+00 -2.593805e-03 0.0
1.013851e+00 -2.319722e-03 0.0
1.013862e+00 -2.075635e-03 0.0
1.013842e+00 -1.858968e-03 0.0
1.013798e+00 -1.667178e-03 0.0
1.013732e+00 -1.497821e-03 0.0
1.013648e+00 -1.348589e-03 0.0
1.013548e+00 -1.217332e-03 0.0
1.013435e+00 -1.102073e-03 0.0
1.013311e+00 -1.001005e-03 0.0
1.013177e+00 -9.124931e-04 0.0
1.013035e+00 -8.350631e-04 0.0
1.012886e+00 -7.673943e-04 0.0
1.012731e+00 -7.083077e-04 0.0
1.012570e+00 -6.567548e-04 0.0
1.012405e+00 -6.118057e-04 0.0
1.012236e+00 -5.726383e-04 0.0
1.012063e+00 -5.385269e-04 0.0
1.011888e+00 -5.088327e-04 0.0
1.011710e+00 -4.829939e-04 0.0
1.011530e+00 -4.605173e-04 0.0
1.011348e+00 -4.409706e-04 0.0
1.011164e+00 -4.239749e-04 0.0
1.010979e+00 -4.091989e-04 0.0
1.010793e+00 -3.963525e-04 0.0
1.010606e+00 -3.851825e-04 0.0
1.010417e+00 -3.754672e-04 0.0
1.010228e+00 -3.670131e-04 0.0
1.010039e+00 -3.596510e-04 0.0
1.009848e+00 -3.532326e-04 0.0
1.009657e+00 -3.476283e-04 0.0
1.009466e+00 -3.427244e-04 0.0
1.009274e+00 -3.384209e-04 0.0
1.009082e+00 -3.346296e-04 0.0
1.008890e+00 -3.312727e-04 0.0
1.008697e+00 -3.282812e-04 0.0
1.008504e+00 -3.255937e-04 0.0
1.008311e+00 -3.231553e-04 0.0
1.008118e+00 -3.209175e-04 0.0
1.007924e+00 -3.188369e-04 0.0
1.007730e+00 -3.168761e-04 0.0
1.007536e+00 -3.150039e-04 0.0
1.007342e+00 -3.131961e-04 0.0
1.007147e+00 -3.114388e-04 0.0
1.006952e+00 -3.097309e-04 0.0
1.006757e+00 -3.080904e-04 0.0
1.006561e+00 -3.065620e-04 0.0
1.006365e+00 -3.052284e-04 0.0
1.006168e+00 -3.042257e-04 0.0
1.005970e+00 -3.037622e-04 0.0
1.005771e+00 -3.041409e-04 0.0
1.005570e+00 -3.057796e-04 0.0
1.005366e+00 -3.092196e-04 0.0
1.005159e+00 -3.150983e-04 0.0
1.004947e+00 -3.240520e-04 0.0
1.004728e+00 -3.364986e-04 0.0
1.004500e+00 -3.522941e-04 0.0
1.004262e+00 -3.701956e-04 0.0
1.004011e+00 -3.897978e-04 0.0
0.000000e+00 -4.044489e-04 0.0
1.000000e+00 -1.049964e-01 0.0
9.840311e-01 -1.062846e-01 0.0
9.645872e-01 -1.184088e-01 0.0
9.364998e-01 -1.441875e-01 0.0
8.928332e-01 -1.884675e-01 0.0
8.202006e-01 -2.621036e-01 0.0
7.046044e-01 -3.949009e-01 0.0
2.301822e-01 -5.176529e-01 0.0
-1.127187e+00 5.110205e-01 0.0
0.000000e+00 1.214985e-01 0.0
2.618317e-01 -1.135039e-01 0.0
4.906584e-01 3.839787e-02 0.0
6.442257e-01 2.102402e-01 0.0
7.238573e-01 3.402618e-01 0.0
7.535355e-01 4.001432e-01 0.0
7.666250e-01 3.638643e-01 0.0
7.919716e-01 2.506683e-01 0.0
8.277562e-01 1.387077e-01 0.0
8.635271e-01 6.708954e-02 0.0
8.940805e-01 2.890457e-02 0.0
9.188814e-01 8.695550e-03 0.0
9.386774e-01 -2.351188e-03 0.0
9.544525e-01 -8.545725e-03 0.0
9.670101e-01 -1.192077e-02 0.0
9.770102e-01 -1.357670e-02 0.0
9.849696e-01 -1.414495e-02 0.0
9.912944e-01 -1.402545e-02 0.0
9.963112e-01 -1.348149e-02 0.0
1.000284e+00 -1.268982e-02 0.0
1.003425e+00 -1.176860e-02 0.0
1.005906e+00 -1.079630e-02 0.0
1.007862e+00 -9.824034e-03 0.0
1.009401e+00 -8.883910e-03 0.0
1.010609e+00 -7.995131e-03 0.0
1.011553e+00 -7.168214e-03 0.0
1.012286e+00 -6.407885e-03 0.0
1.012851e+00 -5.715065e-03 0.0
1.013279e+00 -5.088229e-03 0.0
1.013597e+00 -4.524328e-03 0.0
1.013827e+00 -4.019422e-03 0.0
1.013985e+00 -3.569113e-03 0.0
1.014083e+00 -3.168832e-03 0.0
1.014134e+00 -2.814035e-03 0.0
1.014145e+00 -2.500331e-03 0.0
1.014123e+00 -2.223555e-03 0.0
1.014074e+00 -1.979822e-03 0.0
1.014003e+00 -1.765544e-03 0.0
1.013913e+00 -1.577439e-03 0.0
1.013807e+00 -1.412525e-03 0.0
1.013688e+00 -1.268111e-03 0.0
1.013558e+00 -1.141781e-03 0.0
1.013419e+00 -1.031371e-03 0.0
1.013271e+00 -9.349570e-04 0.0
1.013117e+00 -8.508260e-04 0.0
1.012958e+00 -7.774622e-04 0.0
1.012793e+00 -7.135257e-04 0.0
1.012624e+00 -6.578348e-04 0.0
1.012452e+00 -6.093492e-04 0.0
1.012277e+00 -5.671544e-04 0.0
1.012099e+00 -5.304478e-04 0.0
1.011919e+00 -4.985260e-04 0.0
1.011737e+00 -4.707729e-04 0.0
1.011553e+00 -4.466494e-04 0.0
1.011368e+00 -4.256844e-04 0.0
1.011182e+00 -4.074662e-04 0.0
1.010994e+00 -3.916353e-04 0.0
1.010806e+00 -3.778781e-04 0.0
1.010617e+00 -3.659208e-04 0.0
1.010427e+00 -3.555243e-04 0.0
1.010237e+00 -3.464800e-04 0.0
1.010046e+00 -3.386058e-04 0.0
1.009855e+00 -3.317425e-04 0.0
1.009663e+00 -3.257506e-04 0.0
1.009471e+00 -3.205080e-04 0.0
1.009279e+00 -3.159072e-04 0.0
1.009086e+00 -3.118536e-04 0.0
1.008893e+00 -3.082632e-04 0.0
1.008700e+00 -3.050615e-04 0.0
1.008507e+00 -3.021818e-04 0.0
1.008314e+00 -2.995642e-04 0.0
1.008120e+00 -2.971545e-04 0.0
1.007926e+00 -2.949037e-04 0.0
1.007732e+00 -2.927673e-04 0.0
1.007538e+00 -2.907059e-04 0.0
1.007344e+00 -2.886849e-04 0.0
1.007149e+00 -2.866765e-04 0.0
1.006954e+00 -2.846616e-04 0.0
1.006759e+00 -2.826333e-04 0.0
1.006563e+00 -2.806025e-04 0.0
1.006367e+00 -2.786055e-04 0.0
1.006169e+00 -2.767142e-04 0.0
1.005971e+00 -2.750493e-04 0.0
1.005770e+00 -2.737944e-04 0.0
1.005568e+00 -2.732079e-04 0.0
1.005362e+00 -2.736243e-04 0.0
1.005153e+00 -2.754298e-04 0.0
1.004938e+00 -2.789920e-04 0.0
1.004716e+00 -2.845236e-04 0.0
1.004486e+00 -2.918951e-04 0.0
1.004246e+00 -3.004057e-04 0.0
1.003996e+00 -3.095311e-04 0.0
0.000000e+00 -3.241765e-04 0.0
1.000000e+00 -8.225422e-02 0.0
9.769307e-01 -8.386529e-02 0.0
9.484406e-01 -9.008826e-02 0.0
9.064220e-01 -1.023384e-01 0.0
8.379003e-01 -1.201154e-01 0.0
7.151686e-01 -1.395414e-01 0.0
4.671417e-01 -1.470435e-01 0.0
-1.210057e-02 -3.809980e-02 0.0
-5.084305e-04 0.000000e+00 0.0
0.000000e+00 -0.000000e+00 0.0
0.000000e+00 1.161049e-01 0.0