# vtk DataFile Version 3.0
Vector Field
ASCII
DATASET RECTILINEAR_GRID
DIMENSIONS 102 22 1
X_COORDINATES 102 double
0.000000 0.100000 0.200000 0.300000 0.400000 0.500000 0.600000 0.700000 0.800000 0.900000 1.000000 1.100000 1.200000 1.300000 1.400000 1.500000 1.600000 1.700000 1.800000 1.900000 2.000000 2.100000 2.200000 2.300000 2.400000 2.500000 2.600000 2.700000 2.800000 2.900000 3.000000 3.100000 3.200000 3.300000 3.400000 3.500000 3.600000 3.700000 3.800000 3.900000 4.000000 4.100000 4.200000 4.300000 4.400000 4.500000 4.600000 4.700000 4.800000 4.900000 5.000000 5.100000 5.200000 5.300000 5.400000 5.500000 5.600000 5.700000 5.800000 5.900000 6.000000 6.100000 6.200000 6.300000 6.400000 6.500000 6.600000 6.700000 6.800000 6.900000 7.000000 7.100000 7.200000 7.300000 7.400000 7.500000 7.600000 7.700000 7.800000 7.900000 8.000000 8.100000 8.200000 8.300000 8.400000 8.500000 8.600000 8.700000 8.800000 8.900000 9.000000 9.100000 9.200000 9.300000 9.400000 9.500000 9.600000 9.700000 9.800000 9.900000 10.000000 10.100000 
Y_COORDINATES 22 double
0.000000 0.100000 0.200000 0.300000 0.400000 0.500000 0.600000 0.700000 0.800000 0.900000 1.000000 1.100000 1.200000 1.300000 1.400000 1.500000 1.600000 1.700000 1.800000 1.900000 2.000000 2.100000 
Z_COORDINATES 1 double
0.0
POINT_DATA 2244
VECTORS Velocity double
0.000000e+00 0.000000e+00 0.0
-1.032934e+00 0.000000e+00 0.0
-1.069016e+00 0.000000e+00 0.0
-1.111622e+00 0.000000e+00 0.0
-1.163765e+00 0.000000e+00 0.0
-1.227876e+00 0.000000e+00 0.0
-1.303382e+00 0.000000e+00 0.0
-1.390935e+00 0.000000e+00 0.0
-1.471525e+00 0.000000e+00 0.0
-1.532422e+00 0.000000e+00 0.0
-1.570974e+00 0.000000e+00 0.0
-1.589612e+00 0.000000e+00 0.0
-1.592230e+00 0.000000e+00 0.0
-1.582145e+00 0.000000e+00 0.0
-1.561612e+00 0.000000e+00 0.0
-1.532230e+00 0.000000e+00 0.0
-1.495298e+00 0.000000e+00 0.0
-1.451969e+00 0.000000e+00 0.0
-1.403231e+00 0.000000e+00 0.0
-1.349876e+00 0.000000e+00 0.0
-1.292762e+00 0.000000e+00 0.0
-1.233492e+00 0.000000e+00 0.0
-1.174923e+00 0.000000e+00 0.0
-1.120817e+00 0.000000e+00 0.0
-1.074709e+00 0.000000e+00 0.0
-1.038617e+00 0.000000e+00 0.0
-1.012509e+00 0.000000e+00 0.0
-9.947729e-01 0.000000e+00 0.0
-9.831638e-01 0.000000e+00 0.0
-9.755977e-01 0.000000e+00 0.0
-9.705144e-01 0.000000e+00 0.0
-9.669025e-01 0.000000e+00 0.0
-9.641727e-01 0.000000e+00 0.0
-9.620079e-01 0.000000e+00 0.0
-9.602467e-01 0.000000e+00 0.0
-9.588083e-01 0.000000e+00 0.0
-9.576508e-01 0.000000e+00 0.0
-9.567497e-01 0.000000e+00 0.0
-9.560867e-01 0.000000e+00 0.0
-9.556452e-01 0.000000e+00 0.0
-9.554080e-01 0.000000e+00 0.0
-9.553569e-01 0.000000e+00 0.0
-9.554718e-01 0.000000e+00 0.0
-9.557297e-01 0.000000e+00 0.0
-9.561068e-01 0.000000e+00 0.0
-9.565807e-01 0.000000e+00 0.0
-9.571307e-01 0.000000e+00 0.0
-9.577380e-01 0.000000e+00 0.0
-9.583858e-01 0.000000e+00 0.0
-9.590593e-01 0.000000e+00 0.0
-9.597459e-01 0.000000e+00 0.0
-9.604343e-01 0.000000e+00 0.0
-9.611155e-01 0.000000e+00 0.0
-9.617818e-01 0.000000e+00 0.0
-9.624275e-01 0.000000e+00 0.0
-9.630481e-01 0.000000e+00 0.0
-9.636404e-01 0.000000e+00 0.0
-9.642024e-01 0.000000e+00 0.0
-9.647329e-01 0.000000e+00 0.0
-9.652313e-01 0.000000e+00 0.0
-9.656979e-01 0.000000e+00 0.0
-9.661333e-01 0.000000e+00 0.0
-9.665385e-01 0.000000e+00 0.0
-9.669147e-01 0.000000e+00 0.0
-9.672633e-01 0.000000e+00 0.0
-9.675859e-01 0.000000e+00 0.0
-9.678842e-01 0.000000e+00 0.0
-9.681599e-01 0.000000e+00 0.0
-9.684145e-01 0.000000e+00 0.0
-9.686497e-01 0.000000e+00 0.0
-9.688672e-01 0.000000e+00 0.0
-9.690686e-01 0.000000e+00 0.0
-9.692553e-01 0.000000e+00 0.0
-9.694287e-01 0.000000e+00 0.0
-9.695898e-01 0.000000e+00 0.0
-9.697396e-01 0.000000e+00 0.0
-9.698793e-01 0.000000e+00 0.0
-9.700098e-01 0.000000e+00 0.0
-9.701319e-01 0.000000e+00 0.0
-9.702464e-01 0.000000e+00 0.0
-9.703542e-01 0.000000e+00 0.0
-9.704559e-01 0.000000e+00 0.0
-9.705521e-01 0.000000e+00 0.0
-9.706435e-01 0.000000e+00 0.0
-9.707306e-01 0.000000e+00 0.0
-9.708139e-01 0.000000e+00 0.0
-9.708938e-01 0.000000e+00 0.0
-9.709708e-01 0.000000e+00 0.0
-9.710454e-01 0.000000e+00 0.0
-9.711180e-01 0.000000e+00 0.0
-9.711892e-01 0.000000e+00 0.0
-9.712597e-01 0.000000e+00 0.0
-9.713302e-01 0.000000e+00 0.0
-9.714021e-01 0.000000e+00 0.0
-9.714773e-01 0.000000e+00 0.0
-9.715592e-01 0.000000e+00 0.0
-9.716541e-01 0.000000e+00 0.0
-9.717762e-01 0.000000e+00 0.0
-9.719592e-01 0.000000e+00 0.0
-9.723466e-01 0.000000e+00 0.0
-9.723466e-01 0.000000e+00 0.0
0.000000e+00 0.000000e+00 0.0
1.000000e+00 -3.264566e-02 0.0
1.032785e+00 -3.250604e-02 0.0
1.068723e+00 -3.577712e-02 0.0
1.111189e+00 -4.230527e-02 0.0
1.163206e+00 -5.185676e-02 0.0
1.227227e+00 -6.386054e-02 0.0
1.302716e+00 -7.532813e-02 0.0
1.390379e+00 -8.750183e-02 0.0
1.471304e+00 -8.076481e-02 0.0
1.532795e+00 -6.133060e-02 0.0
1.572147e+00 -3.919076e-02 0.0
1.591684e+00 -1.937648e-02 0.0
1.595220e+00 -3.375603e-03 0.0
1.586061e+00 9.319480e-03 0.0
1.566449e+00 1.977250e-02 0.0
1.537953e+00 2.865689e-02 0.0
1.501843e+00 3.627040e-02 0.0
1.459272e+00 4.273181e-02 0.0
1.411266e+00 4.816673e-02 0.0
1.358668e+00 5.275896e-02 0.0
1.302298e+00 5.653061e-02 0.0
1.243538e+00 5.892052e-02 0.0
1.184926e+00 5.877270e-02 0.0
1.130008e+00 5.507833e-02 0.0
1.082384e+00 4.778471e-02 0.0
1.044408e+00 3.813674e-02 0.0
1.016465e+00 2.810327e-02 0.0
9.972351e-01 1.939061e-02 0.0
9.845676e-01 1.282814e-02 0.0
9.763267e-01 8.401548e-03 0.0
9.708446e-01 5.642799e-03 0.0
9.670057e-01 3.999523e-03 0.0
9.641442e-01 3.022206e-03 0.0
9.618950e-01 2.409802e-03 0.0
9.600703e-01 1.985372e-03 0.0
9.585763e-01 1.654691e-03 0.0
9.573654e-01 1.371512e-03 0.0
9.564111e-01 1.114951e-03 0.0
9.556951e-01 8.767558e-04 0.0
9.552012e-01 6.545540e-04 0.0
9.549134e-01 4.484969e-04 0.0
9.548143e-01 2.597129e-04 0.0
9.548851e-01 8.986470e-05 0.0
9.551042e-01 -5.833712e-05 0.0
9.554479e-01 -1.830343e-04 0.0
9.558938e-01 -2.851999e-04 0.0
9.564209e-01 -3.664651e-04 0.0
9.570103e-01 -4.286601e-04 0.0
9.576447e-01 -4.737114e-04 0.0
9.583090e-01 -5.035889e-04 0.0
9.589899e-01 -5.202411e-04 0.0
9.596761e-01 -5.254926e-04 0.0
9.603578e-01 -5.209997e-04 0.0
9.610271e-01 -5.085308e-04 0.0
9.616775e-01 -4.897520e-04 0.0
9.623044e-01 -4.661451e-04 0.0
9.629041e-01 -4.390047e-04 0.0
9.634743e-01 -4.094452e-04 0.0
9.640134e-01 -3.784095e-04 0.0
9.645208e-01 -3.466821e-04 0.0
9.649965e-01 -3.149025e-04 0.0
9.654408e-01 -2.835806e-04 0.0
9.658546e-01 -2.531129e-04 0.0
9.662392e-01 -2.237974e-04 0.0
9.665958e-01 -1.958487e-04 0.0
9.669259e-01 -1.694118e-04 0.0
9.672312e-01 -1.445744e-04 0.0
9.675134e-01 -1.213779e-04 0.0
9.677739e-01 -9.983202e-05 0.0
9.680146e-01 -7.993489e-05 0.0
9.682371e-01 -6.167782e-05 0.0
9.684428e-01 -4.502223e-05 0.0
9.686335e-01 -2.987344e-05 0.0
9.688103e-01 -1.607965e-05 0.0
9.689745e-01 -3.469271e-06 0.0
9.691272e-01 8.101745e-06 0.0
9.692693e-01 1.866248e-05 0.0
9.694018e-01 2.825441e-05 0.0
9.695257e-01 3.693638e-05 0.0
9.696417e-01 4.477328e-05 0.0
9.697506e-01 5.183011e-05 0.0
9.698532e-01 5.816925e-05 0.0
9.699501e-01 6.384916e-05 0.0
9.700420e-01 6.892405e-05 0.0
9.701293e-01 7.344165e-05 0.0
9.702127e-01 7.744204e-05 0.0
9.702925e-01 8.095583e-05 0.0
9.703693e-01 8.400139e-05 0.0
9.704435e-01 8.658055e-05 0.0
9.705156e-01 8.867148e-05 0.0
9.705861e-01 9.021642e-05 0.0
9.706558e-01 9.109367e-05 0.0
9.707255e-01 9.108227e-05 0.0
9.707965e-01 8.981392e-05 0.0
9.708707e-01 8.658626e-05 0.0
9.709515e-01 8.001230e-05 0.0
9.710452e-01 6.709614e-05 0.0
9.711659e-01 4.007732e-05 0.0
9.713474e-01 -2.071816e-05 0.0
9.717326e-01 -2.243824e-04 0.0
9.723466e-01 -4.532859e-04 0.0
0.000000e+00 -4.514974e-04 0.0
1.000000e+00 -6.581634e-02 0.0
1.033186e+00 -6.553181e-02 0.0
1.069565e+00 -7.211355e-02 0.0
1.112658e+00 -8.535662e-02 0.0
1.165837e+00 -1.049937e-01 0.0
1.232305e+00 -1.302865e-01 0.0
1.311610e+00 -1.545918e-01 0.0
1.410336e+00 -1.861853e-01 0.0
1.497397e+00 -1.677844e-01 0.0
1.559982e+00 -1.238734e-01 0.0
1.598639e+00 -7.780613e-02 0.0
1.617540e+00 -3.823520e-02 0.0
1.621212e+00 -7.006065e-03 0.0
1.612958e+00 1.761542e-02 0.0
1.594761e+00 3.801153e-02 0.0
1.567931e+00 5.552829e-02 0.0
1.533534e+00 7.070974e-02 0.0
1.492556e+00 8.375181e-02 0.0
1.445927e+00 9.483737e-02 0.0
1.394538e+00 1.041897e-01 0.0
1.339410e+00 1.117004e-01 0.0
1.282040e+00 1.163330e-01 0.0
1.224845e+00 1.160089e-01 0.0
1.171191e+00 1.087747e-01 0.0
1.124426e+00 9.459173e-02 0.0
1.086736e+00 7.586816e-02 0.0
1.058517e+00 5.636463e-02 0.0
1.038590e+00 3.935989e-02 0.0
1.024981e+00 2.647810e-02 0.0
1.015711e+00 1.771382e-02 0.0
1.009230e+00 1.216587e-02 0.0
1.004495e+00 8.776140e-03 0.0
1.000877e+00 6.682797e-03 0.0
9.980195e-01 5.308739e-03 0.0
9.957314e-01 4.315401e-03 0.0
9.939048e-01 3.523187e-03 0.0
9.924742e-01 2.844048e-03 0.0
9.913934e-01 2.237623e-03 0.0
9.906250e-01 1.687140e-03 0.0
9.901348e-01 1.186669e-03 0.0
9.898903e-01 7.349167e-04 0.0
9.898594e-01 3.324720e-04 0.0
9.900109e-01 -1.970901e-05 0.0
9.903162e-01 -3.216700e-04 0.0
9.907497e-01 -5.746105e-04 0.0
9.912874e-01 -7.810055e-04 0.0
9.919069e-01 -9.440047e-04 0.0
9.925873e-01 -1.067198e-03 0.0
9.933100e-01 -1.154493e-03 0.0
9.940584e-01 -1.209996e-03 0.0
9.948179e-01 -1.237907e-03 0.0
9.955768e-01 -1.242450e-03 0.0
9.963255e-01 -1.227745e-03 0.0
9.970563e-01 -1.197408e-03 0.0
9.977632e-01 -1.154696e-03 0.0
9.984415e-01 -1.102545e-03 0.0
9.990880e-01 -1.043551e-03 0.0
9.997004e-01 -9.799635e-04 0.0
1.000278e+00 -9.136898e-04 0.0
1.000819e+00 -8.463146e-04 0.0
1.001325e+00 -7.791259e-04 0.0
1.001797e+00 -7.131448e-04 0.0
1.002235e+00 -6.491587e-04 0.0
1.002641e+00 -5.877534e-04 0.0
1.003016e+00 -5.293441e-04 0.0
1.003363e+00 -4.742044e-04 0.0
1.003683e+00 -4.224924e-04 0.0
1.003978e+00 -3.742747e-04 0.0
1.004249e+00 -3.295508e-04 0.0
1.004499e+00 -2.882723e-04 0.0
1.004730e+00 -2.503442e-04 0.0
1.004943e+00 -2.156193e-04 0.0
1.005139e+00 -1.839061e-04 0.0
1.005319e+00 -1.549901e-04 0.0
1.005487e+00 -1.286586e-04 0.0
1.005641e+00 -1.047155e-04 0.0
1.005785e+00 -8.299524e-05 0.0
1.005918e+00 -6.333892e-05 0.0
1.006043e+00 -4.559037e-05 0.0
1.006159e+00 -2.959806e-05 0.0
1.006268e+00 -1.521710e-05 0.0
1.006371e+00 -2.311296e-06 0.0
1.006467e+00 9.245070e-06 0.0
1.006558e+00 1.956506e-05 0.0
1.006645e+00 2.874861e-05 0.0
1.006728e+00 3.688014e-05 0.0
1.006807e+00 4.402520e-05 0.0
1.006882e+00 5.022554e-05 0.0
1.006955e+00 5.549099e-05 0.0
1.007026e+00 5.978633e-05 0.0
1.007095e+00 6.301026e-05 0.0
1.007163e+00 6.496565e-05 0.0
1.007231e+00 6.528867e-05 0.0
1.007299e+00 6.330616e-05 0.0
1.007370e+00 5.784707e-05 0.0
1.007445e+00 4.676861e-05 0.0
1.007528e+00 2.596261e-05 0.0
1.007623e+00 -1.297534e-05 0.0
1.007731e+00 -8.640109e-05 0.0
1.007781e+00 -2.321601e-04 0.0
1.007783e+00 -4.138619e-04 0.0
0.000000e+00 -4.116598e-04 0.0
1.000000e+00 -9.548141e-02 0.0
1.029681e+00 -9.505244e-02 0.0
1.062692e+00 -1.050826e-01 0.0
1.102888e+00 -1.255103e-01 0.0
1.154482e+00 -1.565459e-01 0.0
1.222408e+00 -1.981705e-01 0.0
1.307479e+00 -2.396210e-01 0.0
1.429105e+00 -3.077694e-01 0.0
1.523413e+00 -2.620507e-01 0.0
1.582478e+00 -1.828962e-01 0.0
1.615323e+00 -1.106093e-01 0.0
1.629323e+00 -5.219357e-02 0.0
1.629921e+00 -7.562032e-03 0.0
1.620200e+00 2.737797e-02 0.0
1.601528e+00 5.672544e-02 0.0
1.574682e+00 8.241666e-02 0.0
1.540355e+00 1.050785e-01 0.0
1.499300e+00 1.248488e-01 0.0
1.452365e+00 1.418147e-01 0.0
1.400530e+00 1.560662e-01 0.0
1.344990e+00 1.672823e-01 0.0
1.287352e+00 1.740133e-01 0.0
1.230035e+00 1.733675e-01 0.0
1.176239e+00 1.626125e-01 0.0
1.129049e+00 1.418236e-01 0.0
1.090454e+00 1.145057e-01 0.0
1.060863e+00 8.599728e-02 0.0
1.039324e+00 6.094010e-02 0.0
1.024161e+00 4.168360e-02 0.0
1.013600e+00 2.831660e-02 0.0
1.006160e+00 1.964808e-02 0.0
1.000787e+00 1.419083e-02 0.0
9.968062e-01 1.070538e-02 0.0
9.938079e-01 8.348979e-03 0.0
9.915469e-01 6.618335e-03 0.0
9.898710e-01 5.240968e-03 0.0
9.886778e-01 4.079237e-03 0.0
9.878915e-01 3.065766e-03 0.0
9.874514e-01 2.169224e-03 0.0
9.873046e-01 1.375382e-03 0.0
9.874041e-01 6.772526e-04 0.0
9.877074e-01 7.112571e-05 0.0
9.881776e-01 -4.479923e-04 0.0
9.887823e-01 -8.844926e-04 0.0
9.894925e-01 -1.242858e-03 0.0
9.902818e-01 -1.528345e-03 0.0
9.911266e-01 -1.746893e-03 0.0
9.920063e-01 -1.904959e-03 0.0
9.929030e-01 -2.009334e-03 0.0
9.938019e-01 -2.066934e-03 0.0
9.946905e-01 -2.084613e-03 0.0
9.955590e-01 -2.068973e-03 0.0
9.963993e-01 -2.026185e-03 0.0
9.972057e-01 -1.961845e-03 0.0
9.979739e-01 -1.880962e-03 0.0
9.987012e-01 -1.787950e-03 0.0
9.993862e-01 -1.686623e-03 0.0
1.000028e+00 -1.580217e-03 0.0
1.000628e+00 -1.471427e-03 0.0
1.001186e+00 -1.362455e-03 0.0
1.001704e+00 -1.255053e-03 0.0
1.002183e+00 -1.150580e-03 0.0
1.002626e+00 -1.050059e-03 0.0
1.003035e+00 -9.542226e-04 0.0
1.003411e+00 -8.635661e-04 0.0
1.003757e+00 -7.783873e-04 0.0
1.004075e+00 -6.988262e-04 0.0
1.004368e+00 -6.248986e-04 0.0
1.004637e+00 -5.565268e-04 0.0
1.004884e+00 -4.935611e-04 0.0
1.005111e+00 -4.357896e-04 0.0
1.005320e+00 -3.829480e-04 0.0
1.005513e+00 -3.347380e-04 0.0
1.005691e+00 -2.908484e-04 0.0
1.005855e+00 -2.509713e-04 0.0
1.006007e+00 -2.148098e-04 0.0
1.006148e+00 -1.820828e-04 0.0
1.006279e+00 -1.525215e-04 0.0
1.006402e+00 -1.258696e-04 0.0
1.006516e+00 -1.018841e-04 0.0
1.006623e+00 -8.033681e-05 0.0
1.006724e+00 -6.101595e-05 0.0
1.006819e+00 -4.372711e-05 0.0
1.006908e+00 -2.829496e-05 0.0
1.006994e+00 -1.456488e-05 0.0
1.007075e+00 -2.405381e-06 0.0
1.007153e+00 8.287823e-06 0.0
1.007227e+00 1.758517e-05 0.0
1.007299e+00 2.551292e-05 0.0
1.007369e+00 3.203626e-05 0.0
1.007437e+00 3.703268e-05 0.0
1.007503e+00 4.024851e-05 0.0
1.007569e+00 4.121779e-05 0.0
1.007635e+00 3.912720e-05 0.0
1.007703e+00 3.260259e-05 0.0
1.007772e+00 1.930714e-05 0.0
1.007845e+00 -4.751617e-06 0.0
1.007920e+00 -4.629925e-05 0.0
1.007991e+00 -1.155833e-04 0.0
1.008024e+00 -2.235419e-04 0.0
1.008015e+00 -3.625256e-04 0.0
0.000000e+00 -3.601061e-04 0.0
1.000000e+00 -1.197534e-01 0.0
1.024290e+00 -1.191821e-01 0.0
1.051892e+00 -1.326428e-01 0.0
1.086974e+00 -1.605502e-01 0.0
1.135001e+00 -2.045310e-01 0.0
1.203731e+00 -2.668589e-01 0.0
1.298640e+00 -3.344880e-01 0.0
1.457158e+00 -4.662455e-01 0.0
1.549666e+00 -3.545160e-01 0.0
1.593937e+00 -2.271255e-01 0.0
1.614733e+00 -1.313636e-01 0.0
1.621717e+00 -5.913529e-02 0.0
1.618900e+00 -4.703846e-03 0.0
1.608200e+00 3.812039e-02 0.0
1.589877e+00 7.508994e-02 0.0
1.563904e+00 1.084313e-01 0.0
1.530505e+00 1.385198e-01 0.0
1.490166e+00 1.652302e-01 0.0
1.443632e+00 1.883906e-01 0.0
1.391952e+00 2.077879e-01 0.0
1.336474e+00 2.228021e-01 0.0
1.278803e+00 2.317256e-01 0.0
1.221191e+00 2.310216e-01 0.0
1.166807e+00 2.170390e-01 0.0
1.118768e+00 1.899036e-01 0.0
1.079185e+00 1.541310e-01 0.0
1.048662e+00 1.165627e-01 0.0
1.026426e+00 8.321772e-02 0.0
1.010891e+00 5.726014e-02 0.0
1.000293e+00 3.895706e-02 0.0
9.931160e-01 2.686668e-02 0.0
9.882540e-01 1.909472e-02 0.0
9.849708e-01 1.403048e-02 0.0
9.827972e-01 1.056452e-02 0.0
9.814382e-01 8.019293e-03 0.0
9.807019e-01 6.019112e-03 0.0
9.804534e-01 4.369680e-03 0.0
9.805924e-01 2.968649e-03 0.0
9.810393e-01 1.764235e-03 0.0
9.817257e-01 7.309077e-04 0.0
9.825963e-01 -1.513699e-04 0.0
9.836075e-01 -8.981759e-04 0.0
9.847216e-01 -1.520130e-03 0.0
9.859051e-01 -2.026113e-03 0.0
9.871292e-01 -2.425043e-03 0.0
9.883692e-01 -2.726414e-03 0.0
9.896045e-01 -2.940239e-03 0.0
9.908183e-01 -3.076848e-03 0.0
9.919975e-01 -3.146601e-03 0.0
9.931321e-01 -3.159613e-03 0.0
9.942149e-01 -3.125515e-03 0.0
9.952411e-01 -3.053244e-03 0.0
9.962078e-01 -2.950945e-03 0.0
9.971137e-01 -2.825862e-03 0.0
9.979590e-01 -2.684323e-03 0.0
9.987447e-01 -2.531751e-03 0.0
9.994727e-01 -2.372716e-03 0.0
1.000145e+00 -2.211003e-03 0.0
1.000766e+00 -2.049682e-03 0.0
1.001336e+00 -1.891186e-03 0.0
1.001861e+00 -1.737389e-03 0.0
1.002342e+00 -1.589688e-03 0.0
1.002783e+00 -1.449075e-03 0.0
1.003186e+00 -1.316209e-03 0.0
1.003556e+00 -1.191473e-03 0.0
1.003895e+00 -1.075029e-03 0.0
1.004205e+00 -9.668673e-04 0.0
1.004489e+00 -8.668424e-04 0.0
1.004749e+00 -7.747096e-04 0.0
1.004987e+00 -6.901487e-04 0.0
1.005206e+00 -6.127813e-04 0.0
1.005407e+00 -5.421881e-04 0.0
1.005593e+00 -4.779286e-04 0.0
1.005763e+00 -4.195587e-04 0.0
1.005921e+00 -3.666429e-04 0.0
1.006067e+00 -3.187604e-04 0.0
1.006202e+00 -2.755094e-04 0.0
1.006328e+00 -2.365083e-04 0.0
1.006446e+00 -2.013971e-04 0.0
1.006555e+00 -1.698384e-04 0.0
1.006659e+00 -1.415184e-04 0.0
1.006756e+00 -1.161476e-04 0.0
1.006847e+00 -9.346166e-05 0.0
1.006934e+00 -7.322248e-05 0.0
1.007017e+00 -5.521954e-05 0.0
1.007096e+00 -3.927262e-05 0.0
1.007171e+00 -2.523608e-05 0.0
1.007244e+00 -1.300593e-05 0.0
1.007314e+00 -2.531367e-06 0.0
1.007381e+00 6.167084e-06 0.0
1.007447e+00 1.296843e-05 0.0
1.007512e+00 1.760457e-05 0.0
1.007576e+00 1.958352e-05 0.0
1.007639e+00 1.807165e-05 0.0
1.007701e+00 1.171547e-05 0.0
1.007764e+00 -1.629997e-06 0.0
1.007827e+00 -2.525550e-05 0.0
1.007886e+00 -6.385810e-05 0.0
1.007936e+00 -1.230761e-04 0.0
1.007959e+00 -2.052058e-04 0.0
1.007949e+00 -3.105307e-04 0.0
0.000000e+00 -3.079292e-04 0.0
1.000000e+00 -1.366572e-01 0.0
1.016929e+00 -1.359502e-01 0.0
1.036656e+00 -1.523279e-01 0.0
1.063213e+00 -1.870653e-01 0.0
1.103137e+00 -2.444131e-01 0.0
1.167634e+00 -3.313140e-01 0.0
1.272203e+00 -4.390158e-01 0.0
1.473403e+00 -6.674030e-01 0.0
1.534938e+00 -4.160093e-01 0.0
1.546091e+00 -2.382365e-01 0.0
1.547928e+00 -1.331585e-01 0.0
1.547268e+00 -5.843399e-02 0.0
1.543059e+00 -4.525595e-04 0.0
1.534613e+00 4.660823e-02 0.0
1.520319e+00 8.942588e-02 0.0
1.498999e+00 1.297927e-01 0.0
1.470385e+00 1.671764e-01 0.0
1.434684e+00 2.009724e-01 0.0
1.392467e+00 2.306498e-01 0.0
1.344719e+00 2.555778e-01 0.0
1.292820e+00 2.747434e-01 0.0
1.238307e+00 2.862804e-01 0.0
1.183183e+00 2.861868e-01 0.0
1.130737e+00 2.695275e-01 0.0
1.084355e+00 2.363279e-01 0.0
1.046398e+00 1.921295e-01 0.0
1.017603e+00 1.453995e-01 0.0
9.971957e-01 1.036671e-01 0.0
9.835338e-01 7.096393e-02 0.0
9.748187e-01 4.771408e-02 0.0
9.695362e-01 3.219103e-02 0.0
9.665907e-01 2.208217e-02 0.0
9.652499e-01 1.541319e-02 0.0
9.650207e-01 1.083563e-02 0.0
9.655748e-01 7.507070e-03 0.0
9.666892e-01 4.946615e-03 0.0
9.681933e-01 2.907566e-03 0.0
9.699568e-01 1.247055e-03 0.0
9.718857e-01 -1.228309e-04 0.0
9.739179e-01 -1.259352e-03 0.0
9.760046e-01 -2.196093e-03 0.0
9.781039e-01 -2.955625e-03 0.0
9.801809e-01 -3.555193e-03 0.0
9.822070e-01 -4.010304e-03 0.0
9.841601e-01 -4.336154e-03 0.0
9.860235e-01 -4.547983e-03 0.0
9.877861e-01 -4.660889e-03 0.0
9.894408e-01 -4.689620e-03 0.0
9.909844e-01 -4.648237e-03 0.0
9.924164e-01 -4.549762e-03 0.0
9.937390e-01 -4.406120e-03 0.0
9.949557e-01 -4.228011e-03 0.0
9.960714e-01 -4.024794e-03 0.0
9.970920e-01 -3.804518e-03 0.0
9.980236e-01 -3.573944e-03 0.0
9.988724e-01 -3.338683e-03 0.0
9.996449e-01 -3.103306e-03 0.0
1.000347e+00 -2.871448e-03 0.0
1.000985e+00 -2.645927e-03 0.0
1.001565e+00 -2.428861e-03 0.0
1.002091e+00 -2.221772e-03 0.0
1.002569e+00 -2.025691e-03 0.0
1.003003e+00 -1.841240e-03 0.0
1.003398e+00 -1.668715e-03 0.0
1.003756e+00 -1.508153e-03 0.0
1.004083e+00 -1.359385e-03 0.0
1.004380e+00 -1.222091e-03 0.0
1.004651e+00 -1.095837e-03 0.0
1.004898e+00 -9.801066e-04 0.0
1.005124e+00 -8.743306e-04 0.0
1.005331e+00 -7.779026e-04 0.0
1.005521e+00 -6.901988e-04 0.0
1.005696e+00 -6.105944e-04 0.0
1.005857e+00 -5.384777e-04 0.0
1.006005e+00 -4.732586e-04 0.0
1.006143e+00 -4.143742e-04 0.0
1.006271e+00 -3.612917e-04 0.0
1.006390e+00 -3.135102e-04 0.0
1.006501e+00 -2.705621e-04 0.0
1.006605e+00 -2.320125e-04 0.0
1.006703e+00 -1.974604e-04 0.0
1.006795e+00 -1.665379e-04 0.0
1.006882e+00 -1.389103e-04 0.0
1.006965e+00 -1.142766e-04 0.0
1.007044e+00 -9.237032e-05 0.0
1.007120e+00 -7.296153e-05 0.0
1.007193e+00 -5.586076e-05 0.0
1.007263e+00 -4.092569e-05 0.0
1.007330e+00 -2.807231e-05 0.0
1.007395e+00 -1.729257e-05 0.0
1.007459e+00 -8.682041e-06 0.0
1.007521e+00 -2.482688e-06 0.0
1.007582e+00 8.523914e-07 0.0
1.007641e+00 5.667721e-07 0.0
1.007699e+00 -4.523808e-06 0.0
1.007756e+00 -1.618140e-05 0.0
1.007809e+00 -3.686116e-05 0.0
1.007857e+00 -6.959029e-05 0.0
1.007893e+00 -1.172402e-04 0.0
1.007909e+00 -1.793792e-04 0.0
1.007899e+00 -2.579756e-04 0.0
0.000000e+00 -2.552231e-04 0.0
1.000000e+00 -1.444207e-01 0.0
1.007802e+00 -1.435916e-01 0.0
1.016992e+00 -1.614764e-01 0.0
1.030261e+00 -2.002915e-01 0.0
1.053385e+00 -2.674961e-01 0.0
1.099031e+00 -3.769181e-01 0.0
1.195801e+00 -5.357434e-01 0.0
1.427135e+00 -8.986950e-01 0.0
1.404019e+00 -3.928513e-01 0.0
1.351036e+00 -1.852116e-01 0.0
1.324414e+00 -1.064946e-01 0.0
1.318337e+00 -5.231560e-02 0.0
1.319539e+00 -1.611942e-03 0.0
1.322291e+00 4.389724e-02 0.0
1.321788e+00 8.997162e-02 0.0
1.314909e+00 1.367133e-01 0.0
1.300821e+00 1.813066e-01 0.0
1.279263e+00 2.225717e-01 0.0
1.250427e+00 2.595282e-01 0.0
1.215099e+00 2.909472e-01 0.0
1.174660e+00 3.152247e-01 0.0
1.130749e+00 3.302337e-01 0.0
1.085269e+00 3.317080e-01 0.0
1.041713e+00 3.131260e-01 0.0
1.003722e+00 2.743605e-01 0.0
9.737696e-01 2.221237e-01 0.0
9.525133e-01 1.666976e-01 0.0
9.390456e-01 1.171767e-01 0.0
9.316838e-01 7.836767e-02 0.0
9.286972e-01 5.074258e-02 0.0
9.286750e-01 3.225512e-02 0.0
9.305949e-01 2.020414e-02 0.0
9.337836e-01 1.226648e-02 0.0
9.377340e-01 6.927128e-03 0.0
9.420769e-01 3.206083e-03 0.0
9.465630e-01 5.023992e-04 0.0
9.510567e-01 -1.544259e-03 0.0
9.554763e-01 -3.130544e-03 0.0
9.597639e-01 -4.368507e-03 0.0
9.638737e-01 -5.327271e-03 0.0
9.677716e-01 -6.052117e-03 0.0
9.714339e-01 -6.575944e-03 0.0
9.748457e-01 -6.925088e-03 0.0
9.780003e-01 -7.122960e-03 0.0
9.808975e-01 -7.191480e-03 0.0
9.835429e-01 -7.151489e-03 0.0
9.859463e-01 -7.022325e-03 0.0
9.881204e-01 -6.821769e-03 0.0
9.900800e-01 -6.565923e-03 0.0
9.918412e-01 -6.269088e-03 0.0
9.934207e-01 -5.943693e-03 0.0
9.948349e-01 -5.600324e-03 0.0
9.960998e-01 -5.247722e-03 0.0
9.972303e-01 -4.893049e-03 0.0
9.982403e-01 -4.542060e-03 0.0
9.991428e-01 -4.199255e-03 0.0
9.999495e-01 -3.868055e-03 0.0
1.000671e+00 -3.550966e-03 0.0
1.001317e+00 -3.249729e-03 0.0
1.001895e+00 -2.965451e-03 0.0
1.002414e+00 -2.698731e-03 0.0
1.002880e+00 -2.449755e-03 0.0
1.003299e+00 -2.218389e-03 0.0
1.003677e+00 -2.004248e-03 0.0
1.004017e+00 -1.806765e-03 0.0
1.004325e+00 -1.625235e-03 0.0
1.004604e+00 -1.458861e-03 0.0
1.004857e+00 -1.306786e-03 0.0
1.005086e+00 -1.168123e-03 0.0
1.005296e+00 -1.041973e-03 0.0
1.005488e+00 -9.274378e-04 0.0
1.005663e+00 -8.236414e-04 0.0
1.005824e+00 -7.297358e-04 0.0
1.005972e+00 -6.449112e-04 0.0
1.006109e+00 -5.684017e-04 0.0
1.006236e+00 -4.994871e-04 0.0
1.006355e+00 -4.374949e-04 0.0
1.006465e+00 -3.817997e-04 0.0
1.006568e+00 -3.318228e-04 0.0
1.006665e+00 -2.870315e-04 0.0
1.006756e+00 -2.469372e-04 0.0
1.006843e+00 -2.110943e-04 0.0
1.006925e+00 -1.790994e-04 0.0
1.007003e+00 -1.505896e-04 0.0
1.007078e+00 -1.252436e-04 0.0
1.007150e+00 -1.027818e-04 0.0
1.007219e+00 -8.296931e-05 0.0
1.007286e+00 -6.562186e-05 0.0
1.007350e+00 -5.061475e-05 0.0
1.007413e+00 -3.789827e-05 0.0
1.007473e+00 -2.752115e-05 0.0
1.007533e+00 -1.966546e-05 0.0
1.007590e+00 -1.469616e-05 0.0
1.007646e+00 -1.322583e-05 0.0
1.007699e+00 -1.618973e-05 0.0
1.007750e+00 -2.490893e-05 0.0
1.007796e+00 -4.107689e-05 0.0
1.007835e+00 -6.652004e-05 0.0
1.007862e+00 -1.025741e-04 0.0
1.007873e+00 -1.480797e-04 0.0
1.007862e+00 -2.048456e-04 0.0
0.000000e+00 -2.019737e-04 0.0
1.000000e+00 -1.420230e-01 0.0
9.976635e-01 -1.410945e-01 0.0
9.942591e-01 -1.580301e-01 0.0
9.892421e-01 -1.952326e-01 0.0
9.833127e-01 -2.615249e-01 0.0
9.815839e-01 -3.751474e-01 0.0
1.010623e+00 -5.647409e-01 0.0
1.173476e+00 -1.061506e+00 0.0
9.973065e-01 -2.167584e-01 0.0
8.390423e-01 -2.702428e-02 0.0
7.759524e-01 -4.336273e-02 0.0
7.673386e-01 -4.365991e-02 0.0
7.941132e-01 -2.834466e-02 0.0
8.431770e-01 -5.124643e-03 0.0
8.862488e-01 4.694170e-02 0.0
9.181577e-01 1.048463e-01 0.0
9.405521e-01 1.589540e-01 0.0
9.534378e-01 2.097280e-01 0.0
9.565915e-01 2.564164e-01 0.0
9.504016e-01 2.971789e-01 0.0
9.362302e-01 3.294380e-01 0.0
9.163559e-01 3.501499e-01 0.0
8.937122e-01 3.543936e-01 0.0
8.721186e-01 3.347615e-01 0.0
8.551033e-01 2.914177e-01 0.0
8.446783e-01 2.325906e-01 0.0
8.410194e-01 1.703984e-01 0.0
8.430474e-01 1.151906e-01 0.0
8.492467e-01 7.221027e-02 0.0
8.581700e-01 4.186123e-02 0.0
8.686253e-01 2.184173e-02 0.0
8.795816e-01 9.289711e-03 0.0
8.903862e-01 1.503829e-03 0.0
9.008257e-01 -3.470413e-03 0.0
9.108314e-01 -6.757798e-03 0.0
9.203450e-01 -8.969196e-03 0.0
9.292979e-01 -1.045526e-02 0.0
9.376319e-01 -1.142267e-02 0.0
9.453094e-01 -1.200408e-02 0.0
9.523145e-01 -1.229047e-02 0.0
9.586522e-01 -1.234783e-02 0.0
9.643443e-01 -1.222622e-02 0.0
9.694251e-01 -1.196392e-02 0.0
9.739363e-01 -1.159229e-02 0.0
9.779243e-01 -1.113750e-02 0.0
9.814365e-01 -1.062182e-02 0.0
9.845208e-01 -1.006467e-02 0.0
9.872235e-01 -9.482505e-03 0.0
9.895884e-01 -8.888928e-03 0.0
9.916560e-01 -8.294795e-03 0.0
9.934630e-01 -7.708767e-03 0.0
9.950423e-01 -7.137680e-03 0.0
9.964232e-01 -6.586692e-03 0.0
9.976316e-01 -6.059548e-03 0.0
9.986903e-01 -5.558825e-03 0.0
9.996191e-01 -5.086133e-03 0.0
1.000435e+00 -4.642305e-03 0.0
1.001154e+00 -4.227551e-03 0.0
1.001788e+00 -3.841594e-03 0.0
1.002348e+00 -3.483784e-03 0.0
1.002844e+00 -3.153190e-03 0.0
1.003285e+00 -2.848678e-03 0.0
1.003678e+00 -2.568975e-03 0.0
1.004028e+00 -2.312715e-03 0.0
1.004342e+00 -2.078489e-03 0.0
1.004623e+00 -1.864866e-03 0.0
1.004877e+00 -1.670428e-03 0.0
1.005106e+00 -1.493784e-03 0.0
1.005313e+00 -1.333586e-03 0.0
1.005502e+00 -1.188537e-03 0.0
1.005673e+00 -1.057403e-03 0.0
1.005831e+00 -9.390138e-04 0.0
1.005975e+00 -8.322693e-04 0.0
1.006108e+00 -7.361419e-04 0.0
1.006232e+00 -6.496756e-04 0.0
1.006346e+00 -5.719853e-04 0.0
1.006453e+00 -5.022540e-04 0.0
1.006553e+00 -4.397304e-04 0.0
1.006647e+00 -3.837261e-04 0.0
1.006735e+00 -3.336118e-04 0.0
1.006819e+00 -2.888145e-04 0.0
1.006899e+00 -2.488146e-04 0.0
1.006974e+00 -2.131429e-04 0.0
1.007047e+00 -1.813785e-04 0.0
1.007117e+00 -1.531474e-04 0.0
1.007184e+00 -1.281221e-04 0.0
1.007249e+00 -1.060229e-04 0.0
1.007312e+00 -8.662108e-05 0.0
1.007373e+00 -6.974599e-05 0.0
1.007433e+00 -5.529616e-05 0.0
1.007490e+00 -4.325688e-05 0.0
1.007546e+00 -3.372552e-05 0.0
1.007601e+00 -2.694548e-05 0.0
1.007653e+00 -2.334674e-05 0.0
1.007702e+00 -2.358418e-05 0.0
1.007748e+00 -2.855034e-05 0.0
1.007788e+00 -3.931235e-05 0.0
1.007820e+00 -5.688181e-05 0.0
1.007841e+00 -8.177432e-05 0.0
1.007848e+00 -1.128127e-04 0.0
1.007836e+00 -1.511216e-04 0.0
0.000000e+00 -1.481633e-04 0.0
1.000000e+00 -1.299001e-01 0.0
9.879691e-01 -1.289031e-01 0.0
9.720011e-01 -1.420202e-01 0.0
9.471122e-01 -1.703017e-01 0.0
9.046924e-01 -2.190632e-01 0.0
8.279807e-01 -2.983938e-01 0.0
6.930065e-01 -4.297247e-01 0.0
2.165209e-01 -5.850973e-01 0.0
-1.000475e+00 5.879156e-01 0.0
0.000000e+00 -1.137512e-01 0.0
-1.827747e-01 1.125483e-01 0.0
-1.105472e-01 -1.158455e-01 0.0
-7.299903e-03 -1.315500e-01 0.0
1.897069e-01 -2.020895e-01 0.0
3.500503e-01 -1.133598e-01 0.0
4.564052e-01 -1.466713e-03 0.0
5.283859e-01 8.701519e-02 0.0
5.805133e-01 1.576425e-01 0.0
6.166758e-01 2.202958e-01 0.0
6.388855e-01 2.750112e-01 0.0
6.498708e-01 3.184946e-01 0.0
6.535611e-01 3.465015e-01 0.0
6.555958e-01 3.524009e-01 0.0
6.603139e-01 3.300853e-01 0.0
6.698678e-01 2.819058e-01 0.0
6.841522e-01 2.183481e-01 0.0
7.019479e-01 1.526446e-01 0.0
7.220141e-01 9.516634e-02 0.0
7.433980e-01 5.086826e-02 0.0
7.651637e-01 2.013738e-02 0.0
7.868321e-01 2.152274e-04 0.0
8.084224e-01 -1.225863e-02 0.0
8.297440e-01 -1.977581e-02 0.0
8.503347e-01 -2.401928e-02 0.0
8.697028e-01 -2.608393e-02 0.0
8.874937e-01 -2.671824e-02 0.0
9.035215e-01 -2.644114e-02 0.0
9.177402e-01 -2.559944e-02 0.0
9.302055e-01 -2.442750e-02 0.0
9.410378e-01 -2.308086e-02 0.0
9.503901e-01 -2.165815e-02 0.0
9.584255e-01 -2.021971e-02 0.0
9.653063e-01 -1.880287e-02 0.0
9.711859e-01 -1.742989e-02 0.0
9.762033e-01 -1.611305e-02 0.0
9.804821e-01 -1.485862e-02 0.0
9.841300e-01 -1.367064e-02 0.0
9.872406e-01 -1.255119e-02 0.0
9.898944e-01 -1.150081e-02 0.0
9.921604e-01 -1.051888e-02 0.0
9.940975e-01 -9.604014e-03 0.0
9.957560e-01 -8.754212e-03 0.0
9.971783e-01 -7.967028e-03 0.0
9.984003e-01 -7.239692e-03 0.0
9.994527e-01 -6.569218e-03 0.0
1.000361e+00 -5.952492e-03 0.0
1.001147e+00 -5.386340e-03 0.0
1.001829e+00 -4.867591e-03 0.0
1.002422e+00 -4.393115e-03 0.0
1.002940e+00 -3.959858e-03 0.0
1.003394e+00 -3.564867e-03 0.0
1.003793e+00 -3.205308e-03 0.0
1.004144e+00 -2.878475e-03 0.0
1.004455e+00 -2.581801e-03 0.0
1.004731e+00 -2.312861e-03 0.0
1.004978e+00 -2.069373e-03 0.0
1.005198e+00 -1.849200e-03 0.0
1.005397e+00 -1.650341e-03 0.0
1.005576e+00 -1.470935e-03 0.0
1.005739e+00 -1.309254e-03 0.0
1.005887e+00 -1.163694e-03 0.0
1.006023e+00 -1.032775e-03 0.0
1.006148e+00 -9.151343e-04 0.0
1.006263e+00 -8.095187e-04 0.0
1.006370e+00 -7.147804e-04 0.0
1.006470e+00 -6.298699e-04 0.0
1.006563e+00 -5.538295e-04 0.0
1.006651e+00 -4.857870e-04 0.0
1.006734e+00 -4.249497e-04 0.0
1.006813e+00 -3.705985e-04 0.0
1.006889e+00 -3.220829e-04 0.0
1.006960e+00 -2.788154e-04 0.0
1.007030e+00 -2.402677e-04 0.0
1.007096e+00 -2.059663e-04 0.0
1.007160e+00 -1.754898e-04 0.0
1.007223e+00 -1.484666e-04 0.0
1.007283e+00 -1.245742e-04 0.0
1.007342e+00 -1.035398e-04 0.0
1.007399e+00 -8.514430e-05 0.0
1.007455e+00 -6.922822e-05 0.0
1.007510e+00 -5.570262e-05 0.0
1.007562e+00 -4.456432e-05 0.0
1.007613e+00 -3.591565e-05 0.0
1.007662e+00 -2.998575e-05 0.0
1.007707e+00 -2.714539e-05 0.0
1.007749e+00 -2.789752e-05 0.0
1.007784e+00 -3.281145e-05 0.0
1.007812e+00 -4.235316e-05 0.0
1.007828e+00 -5.661236e-05 0.0
1.007832e+00 -7.465383e-05 0.0
1.007820e+00 -9.678727e-05 0.0
0.000000e+00 -9.377738e-05 0.0
1.000000e+00 -1.102611e-01 0.0
9.804884e-01 -1.092308e-01 0.0
9.551391e-01 -1.166290e-01 0.0
9.161801e-01 -1.313008e-01 0.0
8.494249e-01 -1.522662e-01 0.0
7.253113e-01 -1.742383e-01 0.0
4.680190e-01 -1.723906e-01 0.0
-8.363551e-03 -1.087916e-01 0.0
1.223885e-04 0.000000e+00 0.0
0.000000e+00 -0.000000e+00 0.0
0.000000e+00 -1.424911e-01 0.0
-2.583705e-01 1.425669e-01 0.0
-2.304381e-01 -1.594406e-01 0.0
-1.073204e-01 -3.251653e-01 0.0
9.331648e-03 -2.299699e-01 0.0