# vtk DataFile Version 3.0
Vector Field
ASCII
DATASET RECTILINEAR_GRID
DIMENSIONS 102 22 1
X_COORDINATES 102 double
0.000000 0.100000 0.200000 0.300000 0.400000 0.500000 0.600000 0.700000 0.800000 0.900000 1.000000 1.100000 1.200000 1.300000 1.400000 1.500000 1.600000 1.700000 1.800000 1.900000 2.000000 2.100000 2.200000 2.300000 2.400000 2.500000 2.600000 2.700000 2.800000 2.900000 3.000000 3.100000 3.200000 3.300000 3.400000 3.500000 3.600000 3.700000 3.800000 3.900000 4.000000 4.100000 4.200000 4.300000 4.400000 4.500000 4.600000 4.700000 4.800000 4.900000 5.000000 5.100000 5.200000 5.300000 5.400000 5.500000 5.600000 5.700000 5.800000 5.900000 6.000000 6.100000 6.200000 6.300000 6.400000 6.500000 6.600000 6.700000 6.800000 6.900000 7.000000 7.100000 7.200000 7.300000 7.400000 7.500000 7.600000 7.700000 7.800000 7.900000 8.000000 8.100000 8.200000 8.300000 8.400000 8.500000 8.600000 8.700000 8.800000 8.900000 9.000000 9.100000 9.200000 9.300000 9.400000 9.500000 9.600000 9.700000 9.800000 9.900000 10.000000 10.100000 
Y_COORDINATES 22 double
0.000000 0.100000 0.200000 0.300000 0.400000 0.500000 0.600000 0.700000 0.800000 0.900000 1.000000 1.100000 1.200000 1.300000 1.400000 1.500000 1.600000 1.700000 1.800000 1.900000 2.000000 2.100000 
Z_COORDINATES 1 double
0.0
POINT_DATA 2244
VECTORS Velocity double
0.000000e+00 0.000000e+00 0.0
-1.022570e+00 0.000000e+00 0.0
-1.048173e+00 0.000000e+00 0.0
-1.079429e+00 0.000000e+00 0.0
-1.119027e+00 0.000000e+00 0.0
-1.169170e+00 0.000000e+00 0.0
-1.229792e+00 0.000000e+00 0.0
-1.300979e+00 0.000000e+00 0.0
-1.368544e+00 0.000000e+00 0.0
-1.423857e+00 0.000000e+00 0.0
-1.466474e+00 0.000000e+00 0.0
-1.499813e+00 0.000000e+00 0.0
-1.527938e+00 0.000000e+00 0.0
-1.554123e+00 0.000000e+00 0.0
-1.580194e+00 0.000000e+00 0.0
-1.606071e+00 0.000000e+00 0.0
-1.629686e+00 0.000000e+00 0.0
-1.647860e+00 0.000000e+00 0.0
-1.657973e+00 0.000000e+00 0.0
-1.659300e+00 0.000000e+00 0.0
-1.652549e+00 0.000000e+00 0.0
-1.638759e+00 0.000000e+00 0.0
-1.618929e+00 0.000000e+00 0.0
-1.593825e+00 0.000000e+00 0.0
-1.563943e+00 0.000000e+00 0.0
-1.529570e+00 0.000000e+00 0.0
-1.490905e+00 0.000000e+00 0.0
-1.448190e+00 0.000000e+00 0.0
-1.401790e+00 0.000000e+00 0.0
-1.352265e+00 0.000000e+00 0.0
-1.300488e+00 0.000000e+00 0.0
-1.247802e+00 0.000000e+00 0.0
-1.195976e+00 0.000000e+00 0.0
-1.147022e+00 0.000000e+00 0.0
-1.102858e+00 0.000000e+00 0.0
-1.064919e+00 0.000000e+00 0.0
-1.033881e+00 0.000000e+00 0.0
-1.009617e+00 0.000000e+00 0.0
-9.913632e-01 0.000000e+00 0.0
-9.780161e-01 0.000000e+00 0.0
-9.684091e-01 0.000000e+00 0.0
-9.615047e-01 0.000000e+00 0.0
-9.564799e-01 0.000000e+00 0.0
-9.527324e-01 0.000000e+00 0.0
-9.498471e-01 0.000000e+00 0.0
-9.475498e-01 0.000000e+00 0.0
-9.456647e-01 0.000000e+00 0.0
-9.440817e-01 0.000000e+00 0.0
-9.427333e-01 0.000000e+00 0.0
-9.415787e-01 0.000000e+00 0.0
-9.405942e-01 0.000000e+00 0.0
-9.397661e-01 0.000000e+00 0.0
-9.390872e-01 0.000000e+00 0.0
-9.385536e-01 0.000000e+00 0.0
-9.381618e-01 0.000000e+00 0.0
-9.379048e-01 0.000000e+00 0.0
-9.377707e-01 0.000000e+00 0.0
-9.377470e-01 0.000000e+00 0.0
-9.378209e-01 0.000000e+00 0.0
-9.379802e-01 0.000000e+00 0.0
-9.382128e-01 0.000000e+00 0.0
-9.385073e-01 0.000000e+00 0.0
-9.388528e-01 0.000000e+00 0.0
-9.392389e-01 0.000000e+00 0.0
-9.396560e-01 0.000000e+00 0.0
-9.400955e-01 0.000000e+00 0.0
-9.405494e-01 0.000000e+00 0.0
-9.410106e-01 0.000000e+00 0.0
-9.414727e-01 0.000000e+00 0.0
-9.419300e-01 0.000000e+00 0.0
-9.423776e-01 0.000000e+00 0.0
-9.428117e-01 0.000000e+00 0.0
-9.432290e-01 0.000000e+00 0.0
-9.436271e-01 0.000000e+00 0.0
-9.440040e-01 0.000000e+00 0.0
-9.443585e-01 0.000000e+00 0.0
-9.446897e-01 0.000000e+00 0.0
-9.449972e-01 0.000000e+00 0.0
-9.452808e-01 0.000000e+00 0.0
-9.455407e-01 0.000000e+00 0.0
-9.457775e-01 0.000000e+00 0.0
-9.459916e-01 0.000000e+00 0.0
-9.461840e-01 0.000000e+00 0.0
-9.463554e-01 0.000000e+00 0.0
-9.465068e-01 0.000000e+00 0.0
-9.466393e-01 0.000000e+00 0.0
-9.467537e-01 0.000000e+00 0.0
-9.468512e-01 0.000000e+00 0.0
-9.469328e-01 0.000000e+00 0.0
-9.469994e-01 0.000000e+00 0.0
-9.470522e-01 0.000000e+00 0.0
-9.470922e-01 0.000000e+00 0.0
-9.471207e-01 0.000000e+00 0.0
-9.471392e-01 0.000000e+00 0.0
-9.471496e-01 0.000000e+00 0.0
-9.471552e-01 0.000000e+00 0.0
-9.471617e-01 0.000000e+00 0.0
-9.471810e-01 0.000000e+00 0.0
-9.472400e-01 0.000000e+00 0.0
-9.474440e-01 0.000000e+00 0.0
-9.474440e-01 0.000000e+00 0.0
0.000000e+00 0.000000e+00 0.0
1.000000e+00 -2.309158e-02 0.0
1.022651e+00 -2.316466e-02 0.0
1.048331e+00 -2.597521e-02 0.0
1.079655e+00 -3.161924e-02 0.0
1.119299e+00 -3.994014e-02 0.0
1.169444e+00 -5.044015e-02 0.0
1.229991e+00 -6.084209e-02 0.0
1.300947e+00 -7.125204e-02 0.0
1.368049e+00 -6.739738e-02 0.0
1.422629e+00 -5.487454e-02 0.0
1.464246e+00 -4.191320e-02 0.0
1.496363e+00 -3.241254e-02 0.0
1.523135e+00 -2.706672e-02 0.0
1.548000e+00 -2.516065e-02 0.0
1.573050e+00 -2.534532e-02 0.0
1.598528e+00 -2.577346e-02 0.0
1.622602e+00 -2.436931e-02 0.0
1.642070e+00 -1.976347e-02 0.0
1.653983e+00 -1.220882e-02 0.0
1.657182e+00 -3.494067e-03 0.0
1.652206e+00 4.680717e-03 0.0
1.640054e+00 1.185634e-02 0.0
1.621728e+00 1.803049e-02 0.0
1.598014e+00 2.341838e-02 0.0
1.569426e+00 2.829200e-02 0.0
1.536263e+00 3.286783e-02 0.0
1.498722e+00 3.724519e-02 0.0
1.457028e+00 4.139903e-02 0.0
1.411520e+00 4.521221e-02 0.0
1.362717e+00 4.850795e-02 0.0
1.311417e+00 5.100444e-02 0.0
1.258862e+00 5.225888e-02 0.0
1.206750e+00 5.181648e-02 0.0
1.157066e+00 4.938923e-02 0.0
1.111778e+00 4.499233e-02 0.0
1.072448e+00 3.903434e-02 0.0
1.039922e+00 3.223016e-02 0.0
1.014235e+00 2.539124e-02 0.0
9.947430e-01 1.919661e-02 0.0
9.803966e-01 1.405083e-02 0.0
9.700314e-01 1.006955e-02 0.0
9.625783e-01 7.157463e-03 0.0
9.571691e-01 5.113574e-03 0.0
9.531574e-01 3.716073e-03 0.0
9.500913e-01 2.770498e-03 0.0
9.476688e-01 2.126896e-03 0.0
9.456944e-01 1.678654e-03 0.0
9.440449e-01 1.353842e-03 0.0
9.426438e-01 1.105456e-03 0.0
9.414447e-01 9.034167e-04 0.0
9.404201e-01 7.289211e-04 0.0
9.395542e-01 5.702597e-04 0.0
9.388383e-01 4.201859e-04 0.0
9.382680e-01 2.745666e-04 0.0
9.378401e-01 1.321859e-04 0.0
9.375488e-01 -4.472680e-06 0.0
9.373833e-01 -1.302268e-04 0.0
9.373310e-01 -2.434472e-04 0.0
9.373793e-01 -3.440733e-04 0.0
9.375160e-01 -4.323854e-04 0.0
9.377289e-01 -5.087279e-04 0.0
9.380067e-01 -5.735231e-04 0.0
9.383382e-01 -6.272932e-04 0.0
9.387130e-01 -6.706606e-04 0.0
9.391216e-01 -7.043351e-04 0.0
9.395549e-01 -7.290928e-04 0.0
9.400048e-01 -7.457502e-04 0.0
9.404641e-01 -7.551241e-04 0.0
9.409262e-01 -7.579442e-04 0.0
9.413852e-01 -7.548468e-04 0.0
9.418361e-01 -7.466963e-04 0.0
9.422746e-01 -7.343587e-04 0.0
9.426974e-01 -7.186249e-04 0.0
9.431017e-01 -7.002073e-04 0.0
9.434856e-01 -6.797419e-04 0.0
9.438475e-01 -6.577908e-04 0.0
9.441865e-01 -6.348458e-04 0.0
9.445019e-01 -6.113326e-04 0.0
9.447936e-01 -5.876142e-04 0.0
9.450618e-01 -5.639964e-04 0.0
9.453066e-01 -5.407317e-04 0.0
9.455287e-01 -5.180239e-04 0.0
9.457288e-01 -4.960326e-04 0.0
9.459078e-01 -4.748766e-04 0.0
9.460665e-01 -4.546391e-04 0.0
9.462060e-01 -4.353724e-04 0.0
9.463272e-01 -4.171042e-04 0.0
9.464311e-01 -3.998456e-04 0.0
9.465188e-01 -3.835997e-04 0.0
9.465912e-01 -3.683727e-04 0.0
9.466495e-01 -3.541883e-04 0.0
9.466946e-01 -3.411075e-04 0.0
9.467280e-01 -3.292629e-04 0.0
9.467509e-01 -3.189202e-04 0.0
9.467656e-01 -3.106048e-04 0.0
9.467751e-01 -3.054601e-04 0.0
9.467853e-01 -3.060928e-04 0.0
9.468079e-01 -3.185678e-04 0.0
9.468700e-01 -3.580772e-04 0.0
9.470769e-01 -5.028315e-04 0.0
9.474440e-01 -6.629873e-04 0.0
0.000000e+00 -6.647711e-04 0.0
1.000000e+00 -4.622985e-02 0.0
1.022920e+00 -4.638040e-02 0.0
1.048911e+00 -5.204340e-02 0.0
1.080732e+00 -6.351641e-02 0.0
1.121392e+00 -8.067727e-02 0.0
1.173754e+00 -1.028793e-01 0.0
1.237987e+00 -1.251520e-01 0.0
1.318434e+00 -1.517764e-01 0.0
1.390944e+00 -1.399842e-01 0.0
1.446407e+00 -1.104152e-01 0.0
1.486940e+00 -8.252272e-02 0.0
1.517584e+00 -6.313407e-02 0.0
1.543017e+00 -5.257618e-02 0.0
1.566781e+00 -4.900189e-02 0.0
1.591128e+00 -4.976967e-02 0.0
1.616633e+00 -5.135584e-02 0.0
1.641682e+00 -4.949538e-02 0.0
1.662974e+00 -4.113240e-02 0.0
1.677120e+00 -2.643186e-02 0.0
1.682481e+00 -8.931772e-03 0.0
1.679640e+00 7.444172e-03 0.0
1.669774e+00 2.164552e-02 0.0
1.653980e+00 3.374722e-02 0.0
1.633060e+00 4.426137e-02 0.0
1.607497e+00 5.377781e-02 0.0
1.577541e+00 6.274692e-02 0.0
1.543353e+00 7.135648e-02 0.0
1.505148e+00 7.952698e-02 0.0
1.463310e+00 8.697245e-02 0.0
1.418425e+00 9.331595e-02 0.0
1.371286e+00 9.806622e-02 0.0
1.322902e+00 1.005661e-01 0.0
1.274665e+00 9.997588e-02 0.0
1.228338e+00 9.563995e-02 0.0
1.185709e+00 8.754402e-02 0.0
1.148232e+00 7.643420e-02 0.0
1.116740e+00 6.364492e-02 0.0
1.091347e+00 5.070709e-02 0.0
1.071549e+00 3.891728e-02 0.0
1.056460e+00 2.906342e-02 0.0
1.045064e+00 2.138805e-02 0.0
1.036416e+00 1.572872e-02 0.0
1.029737e+00 1.171491e-02 0.0
1.024446e+00 8.929748e-03 0.0
1.020136e+00 7.003832e-03 0.0
1.016535e+00 5.650325e-03 0.0
1.013472e+00 4.664815e-03 0.0
1.010839e+00 3.910156e-03 0.0
1.008569e+00 3.298138e-03 0.0
1.006621e+00 2.773816e-03 0.0
1.004968e+00 2.305060e-03 0.0
1.003587e+00 1.873643e-03 0.0
1.002461e+00 1.469892e-03 0.0
1.001568e+00 1.090011e-03 0.0
1.000889e+00 7.342858e-04 0.0
1.000402e+00 4.052956e-04 0.0
1.000088e+00 1.059096e-04 0.0
9.999307e-01 -1.628001e-04 0.0
9.999107e-01 -4.012319e-04 0.0
1.000011e+00 -6.103381e-04 0.0
1.000217e+00 -7.911331e-04 0.0
1.000511e+00 -9.447296e-04 0.0
1.000879e+00 -1.072393e-03 0.0
1.001306e+00 -1.175565e-03 0.0
1.001781e+00 -1.255866e-03 0.0
1.002290e+00 -1.315074e-03 0.0
1.002822e+00 -1.355100e-03 0.0
1.003367e+00 -1.377974e-03 0.0
1.003918e+00 -1.385846e-03 0.0
1.004467e+00 -1.380901e-03 0.0
1.005008e+00 -1.364982e-03 0.0
1.005536e+00 -1.339798e-03 0.0
1.006048e+00 -1.306967e-03 0.0
1.006538e+00 -1.267997e-03 0.0
1.007006e+00 -1.224274e-03 0.0
1.007448e+00 -1.177046e-03 0.0
1.007863e+00 -1.127420e-03 0.0
1.008251e+00 -1.076365e-03 0.0
1.008611e+00 -1.024713e-03 0.0
1.008943e+00 -9.731628e-04 0.0
1.009247e+00 -9.222937e-04 0.0
1.009524e+00 -8.725692e-04 0.0
1.009776e+00 -8.243503e-04 0.0
1.010001e+00 -7.779065e-04 0.0
1.010203e+00 -7.334289e-04 0.0
1.010381e+00 -6.910442e-04 0.0
1.010538e+00 -6.508290e-04 0.0
1.010674e+00 -6.128243e-04 0.0
1.010790e+00 -5.770514e-04 0.0
1.010888e+00 -5.435301e-04 0.0
1.010969e+00 -5.123024e-04 0.0
1.011034e+00 -4.834677e-04 0.0
1.011085e+00 -4.572393e-04 0.0
1.011123e+00 -4.340427e-04 0.0
1.011150e+00 -4.147017e-04 0.0
1.011168e+00 -4.007331e-04 0.0
1.011179e+00 -3.950400e-04 0.0
1.011188e+00 -4.041024e-04 0.0
1.011192e+00 -4.399152e-04 0.0
1.011145e+00 -5.321342e-04 0.0
1.011052e+00 -6.475339e-04 0.0
0.000000e+00 -6.480861e-04 0.0
1.000000e+00 -6.631073e-02 0.0
1.019863e+00 -6.653882e-02 0.0
1.042890e+00 -7.514703e-02 0.0
1.072122e+00 -9.282590e-02 0.0
1.111336e+00 -1.199685e-01 0.0
1.164984e+00 -1.566040e-01 0.0
1.234532e+00 -1.947770e-01 0.0
1.334564e+00 -2.518860e-01 0.0
1.413468e+00 -2.189653e-01 0.0
1.465165e+00 -1.621887e-01 0.0
1.498692e+00 -1.161268e-01 0.0
1.522085e+00 -8.660473e-02 0.0
1.540636e+00 -7.120460e-02 0.0
1.557773e+00 -6.621585e-02 0.0
1.576064e+00 -6.813769e-02 0.0
1.597101e+00 -7.246915e-02 0.0
1.620042e+00 -7.251397e-02 0.0
1.641560e+00 -6.272709e-02 0.0
1.657402e+00 -4.235133e-02 0.0
1.664618e+00 -1.622432e-02 0.0
1.663396e+00 8.588649e-03 0.0
1.655294e+00 2.967032e-02 0.0
1.641602e+00 4.736242e-02 0.0
1.623143e+00 6.264278e-02 0.0
1.600336e+00 7.650814e-02 0.0
1.573315e+00 8.969123e-02 0.0
1.542146e+00 1.024478e-01 0.0
1.506987e+00 1.146094e-01 0.0
1.468171e+00 1.257113e-01 0.0
1.426261e+00 1.351480e-01 0.0
1.382008e+00 1.422426e-01 0.0
1.336327e+00 1.461701e-01 0.0
1.290448e+00 1.457782e-01 0.0
1.245991e+00 1.400196e-01 0.0
1.204650e+00 1.288074e-01 0.0
1.167807e+00 1.132000e-01 0.0
1.136250e+00 9.512534e-02 0.0
1.110087e+00 7.679281e-02 0.0
1.088869e+00 6.005868e-02 0.0
1.071824e+00 4.603088e-02 0.0
1.058107e+00 3.502800e-02 0.0
1.046962e+00 2.679656e-02 0.0
1.037796e+00 2.080376e-02 0.0
1.030179e+00 1.646996e-02 0.0
1.023809e+00 1.329657e-02 0.0
1.018474e+00 1.090747e-02 0.0
1.014020e+00 9.041734e-03 0.0
1.010326e+00 7.527868e-03 0.0
1.007290e+00 6.256414e-03 0.0
1.004829e+00 5.158165e-03 0.0
1.002866e+00 4.190164e-03 0.0
1.001337e+00 3.325709e-03 0.0
1.000182e+00 2.547608e-03 0.0
9.993494e-01 1.845794e-03 0.0
9.987916e-01 1.214965e-03 0.0
9.984684e-01 6.513717e-04 0.0
9.983448e-01 1.523243e-04 0.0
9.983917e-01 -2.868441e-04 0.0
9.985837e-01 -6.704204e-04 0.0
9.988979e-01 -1.001652e-03 0.0
9.993131e-01 -1.283489e-03 0.0
9.998100e-01 -1.518828e-03 0.0
1.000371e+00 -1.710651e-03 0.0
1.000980e+00 -1.862083e-03 0.0
1.001624e+00 -1.976407e-03 0.0
1.002289e+00 -2.057039e-03 0.0
1.002964e+00 -2.107477e-03 0.0
1.003640e+00 -2.131258e-03 0.0
1.004309e+00 -2.131879e-03 0.0
1.004963e+00 -2.112702e-03 0.0
1.005598e+00 -2.076840e-03 0.0
1.006208e+00 -2.027196e-03 0.0
1.006791e+00 -1.966449e-03 0.0
1.007342e+00 -1.897044e-03 0.0
1.007862e+00 -1.821172e-03 0.0
1.008349e+00 -1.740767e-03 0.0
1.008802e+00 -1.657518e-03 0.0
1.009221e+00 -1.572875e-03 0.0
1.009607e+00 -1.488065e-03 0.0
1.009961e+00 -1.404100e-03 0.0
1.010283e+00 -1.321800e-03 0.0
1.010575e+00 -1.241811e-03 0.0
1.010838e+00 -1.164622e-03 0.0
1.011074e+00 -1.090588e-03 0.0
1.011283e+00 -1.019952e-03 0.0
1.011468e+00 -9.528629e-04 0.0
1.011629e+00 -8.893982e-04 0.0
1.011769e+00 -8.295820e-04 0.0
1.011888e+00 -7.734065e-04 0.0
1.011988e+00 -7.208558e-04 0.0
1.012070e+00 -6.719365e-04 0.0
1.012136e+00 -6.267207e-04 0.0
1.012187e+00 -5.854119e-04 0.0
1.012225e+00 -5.484498e-04 0.0
1.012249e+00 -5.166840e-04 0.0
1.012263e+00 -4.916506e-04 0.0
1.012267e+00 -4.760994e-04 0.0
1.012261e+00 -4.749275e-04 0.0
1.012239e+00 -4.955126e-04 0.0
1.012176e+00 -5.464250e-04 0.0
1.012067e+00 -6.160369e-04 0.0
0.000000e+00 -6.154489e-04 0.0
1.000000e+00 -8.170243e-02 0.0
1.015173e+00 -8.200760e-02 0.0
1.033438e+00 -9.348842e-02 0.0
1.058081e+00 -1.175462e-01 0.0
1.093995e+00 -1.559598e-01 0.0
1.148301e+00 -2.109865e-01 0.0
1.226619e+00 -2.731728e-01 0.0
1.360023e+00 -3.853667e-01 0.0
1.438429e+00 -2.974484e-01 0.0
1.475395e+00 -1.992313e-01 0.0
1.493491e+00 -1.343001e-01 0.0
1.503034e+00 -9.622461e-02 0.0
1.508409e+00 -7.665682e-02 0.0
1.512136e+00 -7.001949e-02 0.0
1.516812e+00 -7.289101e-02 0.0
1.526012e+00 -8.174617e-02 0.0
1.541387e+00 -8.796666e-02 0.0
1.560457e+00 -8.187399e-02 0.0
1.578492e+00 -6.046370e-02 0.0
1.590387e+00 -2.819560e-02 0.0
1.593619e+00 5.279046e-03 0.0
1.590078e+00 3.313460e-02 0.0
1.581456e+00 5.590726e-02 0.0
1.568549e+00 7.547216e-02 0.0
1.551642e+00 9.333857e-02 0.0
1.530611e+00 1.106455e-01 0.0
1.505286e+00 1.276957e-01 0.0
1.475650e+00 1.441678e-01 0.0
1.441951e+00 1.593330e-01 0.0
1.404725e+00 1.722968e-01 0.0
1.364722e+00 1.821693e-01 0.0
1.322793e+00 1.880219e-01 0.0
1.279969e+00 1.885245e-01 0.0
1.237781e+00 1.821311e-01 0.0
1.197934e+00 1.685773e-01 0.0
1.161866e+00 1.491901e-01 0.0
1.130444e+00 1.264711e-01 0.0
1.103875e+00 1.032841e-01 0.0
1.081841e+00 8.201531e-02 0.0
1.063727e+00 6.406857e-02 0.0
1.048846e+00 4.983176e-02 0.0
1.036591e+00 3.897414e-02 0.0
1.026487e+00 3.083089e-02 0.0
1.018181e+00 2.469897e-02 0.0
1.011409e+00 1.999127e-02 0.0
1.005961e+00 1.627788e-02 0.0
1.001658e+00 1.326745e-02 0.0
9.983384e-01 1.077069e-02 0.0
9.958529e-01 8.664791e-03 0.0
9.940684e-01 6.865554e-03 0.0
9.928664e-01 5.315021e-03 0.0
9.921419e-01 3.973076e-03 0.0
9.918053e-01 2.807029e-03 0.0
9.917814e-01 1.792533e-03 0.0
9.920055e-01 9.137843e-04 0.0
9.924258e-01 1.538388e-04 0.0
9.930044e-01 -5.034371e-04 0.0
9.937097e-01 -1.069230e-03 0.0
9.945134e-01 -1.551310e-03 0.0
9.953907e-01 -1.956124e-03 0.0
9.963196e-01 -2.289552e-03 0.0
9.972809e-01 -2.557235e-03 0.0
9.982578e-01 -2.764730e-03 0.0
9.992361e-01 -2.917592e-03 0.0
1.000204e+00 -3.021378e-03 0.0
1.001151e+00 -3.081600e-03 0.0
1.002070e+00 -3.103658e-03 0.0
1.002955e+00 -3.092785e-03 0.0
1.003800e+00 -3.053945e-03 0.0
1.004601e+00 -2.991792e-03 0.0
1.005358e+00 -2.910618e-03 0.0
1.006068e+00 -2.814339e-03 0.0
1.006731e+00 -2.706477e-03 0.0
1.007347e+00 -2.590160e-03 0.0
1.007917e+00 -2.468122e-03 0.0
1.008441e+00 -2.342730e-03 0.0
1.008923e+00 -2.216000e-03 0.0
1.009362e+00 -2.089626e-03 0.0
1.009762e+00 -1.964998e-03 0.0
1.010124e+00 -1.843234e-03 0.0
1.010450e+00 -1.725208e-03 0.0
1.010743e+00 -1.611577e-03 0.0
1.011004e+00 -1.502811e-03 0.0
1.011235e+00 -1.399225e-03 0.0
1.011439e+00 -1.300998e-03 0.0
1.011617e+00 -1.208206e-03 0.0
1.011771e+00 -1.120840e-03 0.0
1.011903e+00 -1.038832e-03 0.0
1.012015e+00 -9.620788e-04 0.0
1.012107e+00 -8.904648e-04 0.0
1.012182e+00 -8.239001e-04 0.0
1.012240e+00 -7.623627e-04 0.0
1.012284e+00 -7.059632e-04 0.0
1.012313e+00 -6.550381e-04 0.0
1.012330e+00 -6.102886e-04 0.0
1.012334e+00 -5.729769e-04 0.0
1.012326e+00 -5.452026e-04 0.0
1.012304e+00 -5.301327e-04 0.0
1.012262e+00 -5.315470e-04 0.0
1.012190e+00 -5.512939e-04 0.0
1.012079e+00 -5.824916e-04 0.0
0.000000e+00 -5.807919e-04 0.0
1.000000e+00 -9.074905e-02 0.0
1.008826e+00 -9.112883e-02 0.0
1.020211e+00 -1.049506e-01 0.0
1.037267e+00 -1.346796e-01 0.0
1.065857e+00 -1.846270e-01 0.0
1.116520e+00 -2.617259e-01 0.0
1.204103e+00 -3.608328e-01 0.0
1.380028e+00 -5.613693e-01 0.0
1.433294e+00 -3.507915e-01 0.0
1.437858e+00 -2.038724e-01 0.0
1.429613e+00 -1.261323e-01 0.0
1.417411e+00 -8.409967e-02 0.0
1.402567e+00 -6.188950e-02 0.0
1.385121e+00 -5.265098e-02 0.0
1.365949e+00 -5.379561e-02 0.0
1.350028e+00 -6.590277e-02 0.0
1.345497e+00 -8.351255e-02 0.0
1.353814e+00 -9.026791e-02 0.0
1.371074e+00 -7.780081e-02 0.0
1.391484e+00 -4.868235e-02 0.0
1.407087e+00 -1.040136e-02 0.0
1.415543e+00 2.460196e-02 0.0
1.419725e+00 5.164740e-02 0.0
1.420254e+00 7.486646e-02 0.0
1.417224e+00 9.629166e-02 0.0
1.409960e+00 1.178326e-01 0.0
1.397823e+00 1.397557e-01 0.0
1.380460e+00 1.614536e-01 0.0
1.357926e+00 1.817902e-01 0.0
1.330695e+00 1.994503e-01 0.0
1.299557e+00 2.132303e-01 0.0
1.265440e+00 2.220614e-01 0.0
1.229259e+00 2.246283e-01 0.0
1.192431e+00 2.188819e-01 0.0
1.156755e+00 2.041765e-01 0.0
1.123823e+00 1.820453e-01 0.0
1.094672e+00 1.555444e-01 0.0
1.069702e+00 1.281777e-01 0.0
1.048794e+00 1.028453e-01 0.0
1.031542e+00 8.124443e-02 0.0
1.017442e+00 6.385433e-02 0.0
1.006030e+00 5.030867e-02 0.0
9.969240e-01 3.985991e-02 0.0
9.898174e-01 3.172846e-02 0.0
9.844534e-01 2.527819e-02 0.0
9.805989e-01 2.005518e-02 0.0
9.780339e-01 1.575533e-02 0.0
9.765467e-01 1.218082e-02 0.0
9.759329e-01 9.201428e-03 0.0
9.760092e-01 6.712054e-03 0.0
9.766178e-01 4.629299e-03 0.0
9.776167e-01 2.897061e-03 0.0
9.788896e-01 1.457000e-03 0.0
9.803522e-01 2.528024e-04 0.0
9.819501e-01 -7.612466e-04 0.0
9.836419e-01 -1.615140e-03 0.0
9.853907e-01 -2.329452e-03 0.0
9.871640e-01 -2.919693e-03 0.0
9.889342e-01 -3.398613e-03 0.0
9.906784e-01 -3.777453e-03 0.0
9.923782e-01 -4.066501e-03 0.0
9.940191e-01 -4.275377e-03 0.0
9.955904e-01 -4.413131e-03 0.0
9.970840e-01 -4.488366e-03 0.0
9.984947e-01 -4.509286e-03 0.0
9.998196e-01 -4.483646e-03 0.0
1.001057e+00 -4.418650e-03 0.0
1.002208e+00 -4.320999e-03 0.0
1.003274e+00 -4.196882e-03 0.0
1.004257e+00 -4.051905e-03 0.0
1.005160e+00 -3.891064e-03 0.0
1.005988e+00 -3.718776e-03 0.0
1.006743e+00 -3.538882e-03 0.0
1.007430e+00 -3.354678e-03 0.0
1.008054e+00 -3.168975e-03 0.0
1.008618e+00 -2.984126e-03 0.0
1.009127e+00 -2.802064e-03 0.0
1.009585e+00 -2.624347e-03 0.0
1.009995e+00 -2.452194e-03 0.0
1.010361e+00 -2.286530e-03 0.0
1.010686e+00 -2.128020e-03 0.0
1.010975e+00 -1.977110e-03 0.0
1.011229e+00 -1.834057e-03 0.0
1.011451e+00 -1.698964e-03 0.0
1.011645e+00 -1.571809e-03 0.0
1.011812e+00 -1.452469e-03 0.0
1.011955e+00 -1.340746e-03 0.0
1.012075e+00 -1.236390e-03 0.0
1.012175e+00 -1.139121e-03 0.0
1.012256e+00 -1.048656e-03 0.0
1.012319e+00 -9.647422e-04 0.0
1.012367e+00 -8.871936e-04 0.0
1.012400e+00 -8.159499e-04 0.0
1.012419e+00 -7.511475e-04 0.0
1.012424e+00 -6.932167e-04 0.0
1.012417e+00 -6.429915e-04 0.0
1.012397e+00 -6.018043e-04 0.0
1.012361e+00 -5.714056e-04 0.0
1.012305e+00 -5.533535e-04 0.0
1.012224e+00 -5.474100e-04 0.0
1.012111e+00 -5.463228e-04 0.0
0.000000e+00 -5.435659e-04 0.0
1.000000e+00 -9.203822e-02 0.0
1.001062e+00 -9.248640e-02 0.0
1.003352e+00 -1.073172e-01 0.0
1.008708e+00 -1.401130e-01 0.0
1.022328e+00 -1.983239e-01 0.0
1.056462e+00 -2.959371e-01 0.0
1.138789e+00 -4.432363e-01 0.0
1.349385e+00 -7.720430e-01 0.0
1.331809e+00 -3.332926e-01 0.0
1.278369e+00 -1.505089e-01 0.0
1.234030e+00 -8.187039e-02 0.0
1.196567e+00 -4.671377e-02 0.0
1.159910e+00 -2.530971e-02 0.0
1.119573e+00 -1.239114e-02 0.0
1.071644e+00 -5.943702e-03 0.0
1.015532e+00 -9.867517e-03 0.0
9.673768e-01 -3.543476e-02 0.0
9.464681e-01 -6.943632e-02 0.0
9.514527e-01 -8.286251e-02 0.0
9.771009e-01 -7.440761e-02 0.0
1.017037e+00 -5.041444e-02 0.0
1.059374e+00 -1.781220e-02 0.0
1.095396e+00 1.554857e-02 0.0
1.125747e+00 4.443843e-02 0.0
1.151858e+00 7.010375e-02 0.0
1.172102e+00 9.751076e-02 0.0
1.185327e+00 1.264540e-01 0.0
1.190883e+00 1.558199e-01 0.0
1.188719e+00 1.838772e-01 0.0
1.179387e+00 2.087055e-01 0.0
1.163889e+00 2.286516e-01 0.0
1.143481e+00 2.423919e-01 0.0
1.119396e+00 2.486363e-01 0.0
1.092925e+00 2.452754e-01 0.0
1.065994e+00 2.310309e-01 0.0
1.040364e+00 2.075983e-01 0.0
1.017263e+00 1.785678e-01 0.0
9.973222e-01 1.480415e-01 0.0
9.807010e-01 1.193894e-01 0.0
9.672768e-01 9.459152e-02 0.0
9.567962e-01 7.425776e-02 0.0
9.489711e-01 5.805667e-02 0.0
9.435214e-01 4.523250e-02 0.0
9.401817e-01 3.499104e-02 0.0
9.386873e-01 2.669548e-02 0.0
9.387574e-01 1.990789e-02 0.0
9.401045e-01 1.433114e-02 0.0
9.424450e-01 9.763109e-03 0.0
9.454843e-01 6.085027e-03 0.0
9.489613e-01 3.157916e-03 0.0
9.526868e-01 8.267153e-04 0.0
9.565497e-01 -1.042984e-03 0.0
9.604736e-01 -2.544058e-03 0.0
9.643903e-01 -3.741121e-03 0.0
9.682379e-01 -4.685997e-03 0.0
9.719654e-01 -5.419704e-03 0.0
9.755343e-01 -5.975517e-03 0.0
9.789179e-01 -6.380530e-03 0.0
9.820994e-01 -6.657212e-03 0.0
9.850695e-01 -6.824674e-03 0.0
9.878252e-01 -6.899423e-03 0.0
9.903686e-01 -6.895925e-03 0.0
9.927051e-01 -6.826768e-03 0.0
9.948426e-01 -6.703033e-03 0.0
9.967908e-01 -6.534640e-03 0.0
9.985604e-01 -6.330474e-03 0.0
1.000163e+00 -6.098473e-03 0.0
1.001611e+00 -5.845674e-03 0.0
1.002915e+00 -5.578258e-03 0.0
1.004087e+00 -5.301573e-03 0.0
1.005139e+00 -5.020135e-03 0.0
1.006081e+00 -4.737778e-03 0.0
1.006923e+00 -4.457711e-03 0.0
1.007673e+00 -4.182568e-03 0.0
1.008342e+00 -3.914465e-03 0.0
1.008935e+00 -3.655063e-03 0.0
1.009462e+00 -3.405623e-03 0.0
1.009927e+00 -3.167060e-03 0.0
1.010338e+00 -2.939989e-03 0.0
1.010699e+00 -2.724769e-03 0.0
1.011015e+00 -2.521546e-03 0.0
1.011291e+00 -2.330289e-03 0.0
1.011531e+00 -2.150820e-03 0.0
1.011738e+00 -1.982847e-03 0.0
1.011914e+00 -1.825987e-03 0.0
1.012065e+00 -1.679791e-03 0.0
1.012190e+00 -1.543761e-03 0.0
1.012294e+00 -1.417375e-03 0.0
1.012378e+00 -1.300098e-03 0.0
1.012444e+00 -1.191412e-03 0.0
1.012492e+00 -1.090837e-03 0.0
1.012526e+00 -9.979617e-04 0.0
1.012545e+00 -9.124905e-04 0.0
1.012551e+00 -8.342896e-04 0.0
1.012544e+00 -7.634463e-04 0.0
1.012524e+00 -7.003156e-04 0.0
1.012491e+00 -6.455141e-04 0.0
1.012442e+00 -5.997471e-04 0.0
1.012375e+00 -5.632780e-04 0.0
1.012286e+00 -5.353095e-04 0.0
1.012169e+00 -5.067807e-04 0.0
0.000000e+00 -5.030503e-04 0.0
1.000000e+00 -8.488808e-02 0.0
9.926114e-01 -8.539324e-02 0.0
9.842041e-01 -9.898688e-02 0.0
9.736118e-01 -1.295978e-01 0.0
9.612816e-01 -1.860708e-01 0.0
9.523535e-01 -2.870860e-01 0.0
9.733002e-01 -4.642600e-01 0.0
1.127463e+00 -9.262832e-01 0.0
9.784744e-01 -1.841625e-01 0.0
8.432602e-01 -1.515349e-02 0.0
7.703275e-01 -9.014740e-03 0.0
7.176061e-01 5.930633e-03 0.0
6.630425e-01 2.917677e-02 0.0
5.954625e-01 5.511174e-02 0.0
5.136490e-01 7.579282e-02 0.0
4.322577e-01 7.144663e-02 0.0
3.693102e-01 2.743568e-02 0.0
3.335259e-01 -3.372907e-02 0.0
3.331458e-01 -8.255954e-02 0.0
3.657979e-01 -1.071368e-01 0.0
4.302383e-01 -1.149319e-01 0.0
5.217957e-01 -1.094467e-01 0.0
6.260393e-01 -8.877206e-02 0.0
7.222015e-01 -5.180092e-02 0.0
7.975011e-01 -5.272948e-03 0.0
8.547678e-01 4.016703e-02 0.0
8.993166e-01 8.182816e-02 0.0
9.319791e-01 1.230803e-01 0.0
9.532706e-01 1.625086e-01 0.0
9.642461e-01 1.976529e-01 0.0
9.664106e-01 2.264100e-01 0.0
9.615623e-01 2.471632e-01 0.0
9.516890e-01 2.584325e-01 0.0
9.384445e-01 2.584428e-01 0.0
9.237635e-01 2.456347e-01 0.0
9.093175e-01 2.219672e-01 0.0
8.962655e-01 1.915426e-01 0.0
8.852991e-01 1.589309e-01 0.0
8.767898e-01 1.278216e-01 0.0
8.709000e-01 1.004042e-01 0.0
8.676154e-01 7.746531e-02 0.0
8.667801e-01 5.881480e-02 0.0
8.681441e-01 4.379142e-02 0.0
8.714093e-01 3.164865e-02 0.0
8.762543e-01 2.177339e-02 0.0
8.823084e-01 1.377665e-02 0.0
8.892055e-01 7.356927e-03 0.0
8.966733e-01 2.218213e-03 0.0
9.045602e-01 -1.879043e-03 0.0
9.127367e-01 -5.095755e-03 0.0
9.210296e-01 -7.543349e-03 0.0
9.292464e-01 -9.336929e-03 0.0
9.372143e-01 -1.058909e-02 0.0
9.448014e-01 -1.140531e-02 0.0
9.519172e-01 -1.187901e-02 0.0
9.585093e-01 -1.208894e-02 0.0
9.645560e-01 -1.209936e-02 0.0
9.700585e-01 -1.196018e-02 0.0
9.750335e-01 -1.170937e-02 0.0
9.795079e-01 -1.137620e-02 0.0
9.835145e-01 -1.098316e-02 0.0
9.870889e-01 -1.054755e-02 0.0
9.902680e-01 -1.008303e-02 0.0
9.930883e-01 -9.600456e-03 0.0
9.955850e-01 -9.108481e-03 0.0
9.977914e-01 -8.614059e-03 0.0
9.997384e-01 -8.122645e-03 0.0
1.001454e+00 -7.638633e-03 0.0
1.002964e+00 -7.165637e-03 0.0
1.004292e+00 -6.706510e-03 0.0
1.005458e+00 -6.263443e-03 0.0
1.006481e+00 -5.838078e-03 0.0
1.007378e+00 -5.431589e-03 0.0
1.008163e+00 -5.044744e-03 0.0
1.008849e+00 -4.677971e-03 0.0
1.009449e+00 -4.331411e-03 0.0
1.009971e+00 -4.004965e-03 0.0
1.010425e+00 -3.698337e-03 0.0
1.010819e+00 -3.411068e-03 0.0
1.011159e+00 -3.142569e-03 0.0
1.011453e+00 -2.892150e-03 0.0
1.011704e+00 -2.659043e-03 0.0
1.011919e+00 -2.442425e-03 0.0
1.012100e+00 -2.241435e-03 0.0
1.012252e+00 -2.055189e-03 0.0
1.012378e+00 -1.882797e-03 0.0
1.012480e+00 -1.723369e-03 0.0
1.012562e+00 -1.576029e-03 0.0
1.012624e+00 -1.439928e-03 0.0
1.012670e+00 -1.314254e-03 0.0
1.012700e+00 -1.198250e-03 0.0
1.012716e+00 -1.091238e-03 0.0
1.012719e+00 -9.926374e-04 0.0
1.012710e+00 -9.020032e-04 0.0
1.012688e+00 -8.190487e-04 0.0
1.012654e+00 -7.436559e-04 0.0
1.012607e+00 -6.758288e-04 0.0
1.012546e+00 -6.155263e-04 0.0
1.012468e+00 -5.622576e-04 0.0
1.012370e+00 -5.151878e-04 0.0
1.012250e+00 -4.631736e-04 0.0
0.000000e+00 -4.585828e-04 0.0
1.000000e+00 -6.994316e-02 0.0
9.847999e-01 -7.048858e-02 0.0
9.660020e-01 -8.026595e-02 0.0
9.383190e-01 -1.019919e-01 0.0
8.932328e-01 -1.410617e-01 0.0
8.137558e-01 -2.076861e-01 0.0
6.742611e-01 -3.248423e-01 0.0
1.845992e-01 -4.364800e-01 0.0
-9.759418e-01 4.350875e-01 0.0
0.000000e+00 -1.179143e-02 0.0
-3.762550e-02 1.316185e-02 0.0
-1.097305e-02 -2.079888e-02 0.0
2.238118e-02 -4.254534e-03 0.0
5.232676e-02 2.508908e-02 0.0
5.852065e-02 6.952186e-02 0.0
3.664737e-02 9.324283e-02 0.0
-1.775447e-02 8.176044e-02 0.0
-8.344443e-02 3.188381e-02 0.0
-1.305372e-01 -3.554389e-02 0.0
-1.288041e-01 -1.089469e-01 0.0
-6.405644e-02 -1.797566e-01 0.0
5.691017e-02 -2.304904e-01 0.0
2.036923e-01 -2.356312e-01 0.0
3.482323e-01 -1.964180e-01 0.0
4.746554e-01 -1.317732e-01 0.0
5.710224e-01 -5.627705e-02 0.0
6.381352e-01 1.463833e-02 0.0
6.871285e-01 7.400989e-02 0.0
7.217597e-01 1.278003e-01 0.0
7.442440e-01 1.750916e-01 0.0
7.567875e-01 2.137893e-01 0.0
7.618521e-01 2.420215e-01 0.0
7.622562e-01 2.579514e-01 0.0
7.605908e-01 2.600311e-01 0.0
7.583675e-01 2.477809e-01 0.0
7.563962e-01 2.238615e-01 0.0
7.551638e-01 1.926979e-01 0.0
7.550863e-01 1.589313e-01 0.0
7.565734e-01 1.262574e-01 0.0
7.599583e-01 9.694216e-02 0.0
7.653411e-01 7.200543e-02 0.0
7.726114e-01 5.146734e-02 0.0
7.815654e-01 3.476034e-02 0.0
7.920242e-01 2.111267e-02 0.0
8.039138e-01 9.806684e-03 0.0
8.170549e-01 5.584279e-04 0.0
8.311860e-01 -6.851275e-03 0.0
8.459343e-01 -1.260725e-02 0.0
8.608867e-01 -1.690855e-02 0.0
8.756530e-01 -1.993922e-02 0.0
8.899175e-01 -2.188500e-02 0.0
9.034390e-01 -2.293557e-02 0.0
9.160519e-01 -2.327912e-02 0.0
9.276574e-01 -2.308795e-02 0.0
9.382111e-01 -2.250986e-02 0.0
9.477117e-01 -2.166673e-02 0.0
9.561900e-01 -2.065473e-02 0.0
9.637003e-01 -1.954767e-02 0.0
9.703137e-01 -1.839998e-02 0.0
9.761099e-01 -1.724948e-02 0.0
9.811708e-01 -1.612128e-02 0.0
9.855773e-01 -1.503116e-02 0.0
9.894055e-01 -1.398846e-02 0.0
9.927260e-01 -1.299809e-02 0.0
9.956024e-01 -1.206206e-02 0.0
9.980917e-01 -1.118053e-02 0.0
1.000244e+00 -1.035247e-02 0.0
1.002105e+00 -9.576256e-03 0.0
1.003712e+00 -8.849885e-03 0.0
1.005099e+00 -8.171184e-03 0.0
1.006297e+00 -7.537890e-03 0.0
1.007329e+00 -6.947723e-03 0.0
1.008219e+00 -6.398423e-03 0.0
1.008985e+00 -5.887770e-03 0.0
1.009643e+00 -5.413600e-03 0.0
1.010208e+00 -4.973810e-03 0.0
1.010692e+00 -4.566362e-03 0.0
1.011106e+00 -4.189286e-03 0.0
1.011459e+00 -3.840682e-03 0.0
1.011758e+00 -3.518721e-03 0.0
1.012010e+00 -3.221643e-03 0.0
1.012221e+00 -2.947760e-03 0.0
1.012397e+00 -2.695457e-03 0.0
1.012542e+00 -2.463187e-03 0.0
1.012659e+00 -2.249475e-03 0.0
1.012752e+00 -2.052914e-03 0.0
1.012823e+00 -1.872165e-03 0.0
1.012876e+00 -1.705957e-03 0.0
1.012912e+00 -1.553085e-03 0.0
1.012933e+00 -1.412416e-03 0.0
1.012941e+00 -1.282890e-03 0.0
1.012936e+00 -1.163534e-03 0.0
1.012919e+00 -1.053464e-03 0.0
1.012892e+00 -9.519057e-04 0.0
1.012854e+00 -8.581967e-04 0.0
1.012805e+00 -7.717787e-04 0.0
1.012744e+00 -6.921457e-04 0.0
1.012670e+00 -6.187210e-04 0.0
1.012581e+00 -5.505637e-04 0.0
1.012476e+00 -4.869840e-04 0.0
1.012350e+00 -4.148824e-04 0.0
0.000000e+00 -4.095731e-04 0.0
1.000000e+00 -4.941048e-02 0.0
9.791920e-01 -4.997595e-02 0.0
9.531209e-01 -5.427188e-02 0.0
9.139730e-01 -6.292111e-02 0.0
8.479405e-01 -7.510629e-02 0.0
7.259261e-01 -8.574867e-02 0.0
4.748901e-01 -7.388346e-02 0.0
-4.822928e-03 4.337436e-02 0.0
-2.218194e-04 0.000000e+00 0.0
0.000000e+00 -0.000000e+00 0.0
0.000000e+00 5.702066e-02 0.0
3.698364e-02 -5.785959e-02 0.0
-2.592358e-02 5.857562e-02 0.0
-9.218901e-02 9.127743e-02 0.0
-1.556301e-01 1.328859e-01 0.0