# vtk DataFile Version 3.0
Vector Field
ASCII
DATASET RECTILINEAR_GRID
DIMENSIONS 102 22 1
X_COORDINATES 102 double
0.000000 0.100000 0.200000 0.300000 0.400000 0.500000 0.600000 0.700000 0.800000 0.900000 1.000000 1.100000 1.200000 1.300000 1.400000 1.500000 1.600000 1.700000 1.800000 1.900000 2.000000 2.100000 2.200000 2.300000 2.400000 2.500000 2.600000 2.700000 2.800000 2.900000 3.000000 3.100000 3.200000 3.300000 3.400000 3.500000 3.600000 3.700000 3.800000 3.900000 4.000000 4.100000 4.200000 4.300000 4.400000 4.500000 4.600000 4.700000 4.800000 4.900000 5.000000 5.100000 5.200000 5.300000 5.400000 5.500000 5.600000 5.700000 5.800000 5.900000 6.000000 6.100000 6.200000 6.300000 6.400000 6.500000 6.600000 6.700000 6.800000 6.900000 7.000000 7.100000 7.200000 7.300000 7.400000 7.500000 7.600000 7.700000 7.800000 7.900000 8.000000 8.100000 8.200000 8.300000 8.400000 8.500000 8.600000 8.700000 8.800000 8.900000 9.000000 9.100000 9.200000 9.300000 9.400000 9.500000 9.600000 9.700000 9.800000 9.900000 10.000000 10.100000 
Y_COORDINATES 22 double
0.000000 0.100000 0.200000 0.300000 0.400000 0.500000 0.600000 0.700000 0.800000 0.900000 1.000000 1.100000 1.200000 1.300000 1.400000 1.500000 1.600000 1.700000 1.800000 1.900000 2.000000 2.100000 
Z_COORDINATES 1 double
0.0
POINT_DATA 2244
VECTORS Velocity double
0.000000e+00 0.000000e+00 0.0
-1.030445e+00 0.000000e+00 0.0
-1.063959e+00 0.000000e+00 0.0
-1.103809e+00 0.000000e+00 0.0
-1.152921e+00 0.000000e+00 0.0
-1.213624e+00 0.000000e+00 0.0
-1.285516e+00 0.000000e+00 0.0
-1.368720e+00 0.000000e+00 0.0
-1.445613e+00 0.000000e+00 0.0
-1.504722e+00 0.000000e+00 0.0
-1.543955e+00 0.000000e+00 0.0
-1.565728e+00 0.000000e+00 0.0
-1.573661e+00 0.000000e+00 0.0
-1.571124e+00 0.000000e+00 0.0
-1.560539e+00 0.000000e+00 0.0
-1.543528e+00 0.000000e+00 0.0
-1.521206e+00 0.000000e+00 0.0
-1.494396e+00 0.000000e+00 0.0
-1.463756e+00 0.000000e+00 0.0
-1.429832e+00 0.000000e+00 0.0
-1.393061e+00 0.000000e+00 0.0
-1.353815e+00 0.000000e+00 0.0
-1.312666e+00 0.000000e+00 0.0
-1.270976e+00 0.000000e+00 0.0
-1.231771e+00 0.000000e+00 0.0
-1.200816e+00 0.000000e+00 0.0
-1.186920e+00 0.000000e+00 0.0
-1.199774e+00 0.000000e+00 0.0
-1.245163e+00 0.000000e+00 0.0
-1.319207e+00 0.000000e+00 0.0
-1.406755e+00 0.000000e+00 0.0
-1.488607e+00 0.000000e+00 0.0
-1.549732e+00 0.000000e+00 0.0
-1.583283e+00 0.000000e+00 0.0
-1.591302e+00 0.000000e+00 0.0
-1.580639e+00 0.000000e+00 0.0
-1.557545e+00 0.000000e+00 0.0
-1.526301e+00 0.000000e+00 0.0
-1.489357e+00 0.000000e+00 0.0
-1.447927e+00 0.000000e+00 0.0
-1.402632e+00 0.000000e+00 0.0
-1.353990e+00 0.000000e+00 0.0
-1.302783e+00 0.000000e+00 0.0
-1.250313e+00 0.000000e+00 0.0
-1.198328e+00 0.000000e+00 0.0
-1.148748e+00 0.000000e+00 0.0
-1.103336e+00 0.000000e+00 0.0
-1.063386e+00 0.000000e+00 0.0
-1.029558e+00 0.000000e+00 0.0
-1.001884e+00 0.000000e+00 0.0
-9.799091e-01 0.000000e+00 0.0
-9.628760e-01 0.000000e+00 0.0
-9.499149e-01 0.000000e+00 0.0
-9.401755e-01 0.000000e+00 0.0
-9.329063e-01 0.000000e+00 0.0
-9.274859e-01 0.000000e+00 0.0
-9.234240e-01 0.000000e+00 0.0
-9.203473e-01 0.000000e+00 0.0
-9.179792e-01 0.000000e+00 0.0
-9.161196e-01 0.000000e+00 0.0
-9.146271e-01 0.000000e+00 0.0
-9.134042e-01 0.000000e+00 0.0
-9.123853e-01 0.000000e+00 0.0
-9.115278e-01 0.000000e+00 0.0
-9.108049e-01 0.000000e+00 0.0
-9.102007e-01 0.000000e+00 0.0
-9.097058e-01 0.000000e+00 0.0
-9.093148e-01 0.000000e+00 0.0
-9.090246e-01 0.000000e+00 0.0
-9.088322e-01 0.000000e+00 0.0
-9.087344e-01 0.000000e+00 0.0
-9.087272e-01 0.000000e+00 0.0
-9.088054e-01 0.000000e+00 0.0
-9.089616e-01 0.000000e+00 0.0
-9.091855e-01 0.000000e+00 0.0
-9.094673e-01 0.000000e+00 0.0
-9.097981e-01 0.000000e+00 0.0
-9.101701e-01 0.000000e+00 0.0
-9.105763e-01 0.000000e+00 0.0
-9.110099e-01 0.000000e+00 0.0
-9.114648e-01 0.000000e+00 0.0
-9.119353e-01 0.000000e+00 0.0
-9.124161e-01 0.000000e+00 0.0
-9.129023e-01 0.000000e+00 0.0
-9.133893e-01 0.000000e+00 0.0
-9.138726e-01 0.000000e+00 0.0
-9.143482e-01 0.000000e+00 0.0
-9.148126e-01 0.000000e+00 0.0
-9.152628e-01 0.000000e+00 0.0
-9.156960e-01 0.000000e+00 0.0
-9.161101e-01 0.000000e+00 0.0
-9.165030e-01 0.000000e+00 0.0
-9.168734e-01 0.000000e+00 0.0
-9.172204e-01 0.000000e+00 0.0
-9.175439e-01 0.000000e+00 0.0
-9.178455e-01 0.000000e+00 0.0
-9.181302e-01 0.000000e+00 0.0
-9.184115e-01 0.000000e+00 0.0
-9.187221e-01 0.000000e+00 0.0
-9.191793e-01 0.000000e+00 0.0
-9.191793e-01 0.000000e+00 0.0
0.000000e+00 0.000000e+00 0.0
1.000000e+00 -3.018186e-02 0.0
1.030421e+00 -3.016212e-02 0.0
1.063916e+00 -3.334609e-02 0.0
1.103756e+00 -3.969116e-02 0.0
1.152879e+00 -4.897441e-02 0.0
1.213632e+00 -6.060401e-02 0.0
1.285636e+00 -7.185571e-02 0.0
1.369073e+00 -8.328769e-02 0.0
1.446349e+00 -7.712748e-02 0.0
1.505987e+00 -5.948954e-02 0.0
1.545846e+00 -3.971000e-02 0.0
1.568264e+00 -2.226939e-02 0.0
1.576788e+00 -8.375426e-03 0.0
1.574759e+00 2.177621e-03 0.0
1.564603e+00 1.030488e-02 0.0
1.547944e+00 1.680810e-02 0.0
1.525891e+00 2.220197e-02 0.0
1.499253e+00 2.678694e-02 0.0
1.468672e+00 3.072933e-02 0.0
1.434687e+00 3.413440e-02 0.0
1.397732e+00 3.710299e-02 0.0
1.358165e+00 3.971609e-02 0.0
1.316456e+00 4.185844e-02 0.0
1.273720e+00 4.288460e-02 0.0
1.232539e+00 4.132972e-02 0.0
1.198057e+00 3.463037e-02 0.0
1.178622e+00 1.958414e-02 0.0
1.184331e+00 -5.560012e-03 0.0
1.222573e+00 -3.809289e-02 0.0
1.292273e+00 -6.955187e-02 0.0
1.380499e+00 -8.807661e-02 0.0
1.467802e+00 -8.715448e-02 0.0
1.537281e+00 -6.933012e-02 0.0
1.579420e+00 -4.198994e-02 0.0
1.594018e+00 -1.444920e-02 0.0
1.587455e+00 6.712169e-03 0.0
1.566661e+00 2.094208e-02 0.0
1.536640e+00 3.017050e-02 0.0
1.500419e+00 3.636959e-02 0.0
1.459554e+00 4.101420e-02 0.0
1.414793e+00 4.490971e-02 0.0
1.366639e+00 4.830231e-02 0.0
1.315763e+00 5.102513e-02 0.0
1.263309e+00 5.260309e-02 0.0
1.210926e+00 5.253221e-02 0.0
1.160507e+00 5.056796e-02 0.0
1.113875e+00 4.677997e-02 0.0
1.072454e+00 4.157045e-02 0.0
1.037056e+00 3.554655e-02 0.0
1.007857e+00 2.934798e-02 0.0
9.845022e-01 2.350393e-02 0.0
9.662923e-01 1.835878e-02 0.0
9.523733e-01 1.406791e-02 0.0
9.418831e-01 1.063916e-02 0.0
9.340428e-01 7.989195e-03 0.0
9.281985e-01 5.993242e-03 0.0
9.238283e-01 4.519215e-03 0.0
9.205308e-01 3.446452e-03 0.0
9.180063e-01 2.673362e-03 0.0
9.160367e-01 2.118619e-03 0.0
9.144663e-01 1.719317e-03 0.0
9.131872e-01 1.428057e-03 0.0
9.121262e-01 1.209954e-03 0.0
9.112353e-01 1.039926e-03 0.0
9.104839e-01 9.003824e-04 0.0
9.098535e-01 7.793719e-04 0.0
9.093333e-01 6.691417e-04 0.0
9.089173e-01 5.650336e-04 0.0
9.086016e-01 4.646065e-04 0.0
9.083837e-01 3.669635e-04 0.0
9.082604e-01 2.722537e-04 0.0
9.082282e-01 1.811969e-04 0.0
9.082824e-01 9.483312e-05 0.0
9.084165e-01 1.488155e-05 0.0
9.086209e-01 -5.546225e-05 0.0
9.088855e-01 -1.155976e-04 0.0
9.092012e-01 -1.666907e-04 0.0
9.095600e-01 -2.097666e-04 0.0
9.099546e-01 -2.455650e-04 0.0
9.103783e-01 -2.746479e-04 0.0
9.108248e-01 -2.974796e-04 0.0
9.112883e-01 -3.144862e-04 0.0
9.117634e-01 -3.260890e-04 0.0
9.122451e-01 -3.327041e-04 0.0
9.127288e-01 -3.346480e-04 0.0
9.132099e-01 -3.320618e-04 0.0
9.136843e-01 -3.253450e-04 0.0
9.141482e-01 -3.149641e-04 0.0
9.145986e-01 -3.013597e-04 0.0
9.150326e-01 -2.849410e-04 0.0
9.154477e-01 -2.660974e-04 0.0
9.158420e-01 -2.452237e-04 0.0
9.162138e-01 -2.227664e-04 0.0
9.165622e-01 -1.993107e-04 0.0
9.168870e-01 -1.757553e-04 0.0
9.171897e-01 -1.537020e-04 0.0
9.174752e-01 -1.364164e-04 0.0
9.177569e-01 -1.326795e-04 0.0
9.180676e-01 -1.616809e-04 0.0
9.185243e-01 -3.076893e-04 0.0
9.191793e-01 -5.059090e-04 0.0
0.000000e+00 -5.032332e-04 0.0
1.000000e+00 -6.089908e-02 0.0
1.030842e+00 -6.085569e-02 0.0
1.064788e+00 -6.725256e-02 0.0
1.105243e+00 -8.010768e-02 0.0
1.155479e+00 -9.917174e-02 0.0
1.218560e+00 -1.236465e-01 0.0
1.294262e+00 -1.475189e-01 0.0
1.388080e+00 -1.770668e-01 0.0
1.471131e+00 -1.601395e-01 0.0
1.531837e+00 -1.201569e-01 0.0
1.571131e+00 -7.896434e-02 0.0
1.593052e+00 -4.415240e-02 0.0
1.601697e+00 -1.698090e-02 0.0
1.600481e+00 3.431694e-03 0.0
1.591665e+00 1.915961e-02 0.0
1.576709e+00 3.180355e-02 0.0
1.556610e+00 4.233938e-02 0.0
1.532108e+00 5.132818e-02 0.0
1.503799e+00 5.907720e-02 0.0
1.472205e+00 6.576722e-02 0.0
1.437798e+00 7.154901e-02 0.0
1.401013e+00 7.653989e-02 0.0
1.362306e+00 8.060374e-02 0.0
1.322407e+00 8.282266e-02 0.0
1.283050e+00 8.072526e-02 0.0
1.247919e+00 6.980051e-02 0.0
1.223618e+00 4.392361e-02 0.0
1.219138e+00 -1.041481e-03 0.0
1.241615e+00 -6.053080e-02 0.0
1.292938e+00 -1.208361e-01 0.0
1.366873e+00 -1.619730e-01 0.0
1.449328e+00 -1.695698e-01 0.0
1.524929e+00 -1.448931e-01 0.0
1.581226e+00 -9.824774e-02 0.0
1.611359e+00 -4.454320e-02 0.0
1.616806e+00 1.303657e-03 0.0
1.605172e+00 3.261504e-02 0.0
1.582535e+00 5.284664e-02 0.0
1.552665e+00 6.627859e-02 0.0
1.517651e+00 7.606661e-02 0.0
1.478647e+00 8.395221e-02 0.0
1.436467e+00 9.052124e-02 0.0
1.391929e+00 9.560213e-02 0.0
1.345982e+00 9.858864e-02 0.0
1.299871e+00 9.868293e-02 0.0
1.255199e+00 9.527881e-02 0.0
1.213555e+00 8.846237e-02 0.0
1.176187e+00 7.897750e-02 0.0
1.143816e+00 6.795653e-02 0.0
1.116615e+00 5.658779e-02 0.0
1.094309e+00 4.584845e-02 0.0
1.076336e+00 3.637019e-02 0.0
1.062007e+00 2.843590e-02 0.0
1.050626e+00 2.205898e-02 0.0
1.041566e+00 1.708842e-02 0.0
1.034298e+00 1.329973e-02 0.0
1.028400e+00 1.045641e-02 0.0
1.023543e+00 8.342779e-03 0.0
1.019478e+00 6.776969e-03 0.0
1.016023e+00 5.612566e-03 0.0
1.013046e+00 4.735354e-03 0.0
1.010454e+00 4.058523e-03 0.0
1.008185e+00 3.517857e-03 0.0
1.006196e+00 3.067377e-03 0.0
1.004460e+00 2.675432e-03 0.0
1.002957e+00 2.321302e-03 0.0
1.001673e+00 1.992401e-03 0.0
1.000595e+00 1.681965e-03 0.0
9.997110e-01 1.387031e-03 0.0
9.990100e-01 1.106905e-03 0.0
9.984787e-01 8.423872e-04 0.0
9.981039e-01 5.949043e-04 0.0
9.978716e-01 3.659778e-04 0.0
9.977680e-01 1.573284e-04 0.0
9.977811e-01 -2.966028e-05 0.0
9.978995e-01 -1.951055e-04 0.0
9.981117e-01 -3.400755e-04 0.0
9.984064e-01 -4.655492e-04 0.0
9.987721e-01 -5.723827e-04 0.0
9.991977e-01 -6.614431e-04 0.0
9.996728e-01 -7.336224e-04 0.0
1.000187e+00 -7.898686e-04 0.0
1.000731e+00 -8.311972e-04 0.0
1.001296e+00 -8.587058e-04 0.0
1.001874e+00 -8.736535e-04 0.0
1.002458e+00 -8.774689e-04 0.0
1.003043e+00 -8.712553e-04 0.0
1.003623e+00 -8.559948e-04 0.0
1.004193e+00 -8.326315e-04 0.0
1.004749e+00 -8.020812e-04 0.0
1.005287e+00 -7.652440e-04 0.0
1.005804e+00 -7.230359e-04 0.0
1.006296e+00 -6.764539e-04 0.0
1.006762e+00 -6.267058e-04 0.0
1.007201e+00 -5.754644e-04 0.0
1.007612e+00 -5.253637e-04 0.0
1.007995e+00 -4.810131e-04 0.0
1.008351e+00 -4.500344e-04 0.0
1.008677e+00 -4.484448e-04 0.0
1.008922e+00 -5.138918e-04 0.0
1.009078e+00 -6.232494e-04 0.0
0.000000e+00 -6.176881e-04 0.0
1.000000e+00 -8.818951e-02 0.0
1.027413e+00 -8.811986e-02 0.0
1.058044e+00 -9.784466e-02 0.0
1.095607e+00 -1.176316e-01 0.0
1.144175e+00 -1.477009e-01 0.0
1.208486e+00 -1.879191e-01 0.0
1.289584e+00 -2.285778e-01 0.0
1.404955e+00 -2.923995e-01 0.0
1.494871e+00 -2.500166e-01 0.0
1.552234e+00 -1.774813e-01 0.0
1.586032e+00 -1.127237e-01 0.0
1.603358e+00 -6.143942e-02 0.0
1.608857e+00 -2.244057e-02 0.0
1.605900e+00 6.426771e-03 0.0
1.596321e+00 2.877748e-02 0.0
1.581227e+00 4.693686e-02 0.0
1.561405e+00 6.220001e-02 0.0
1.537463e+00 7.530871e-02 0.0
1.509911e+00 8.666865e-02 0.0
1.479223e+00 9.649385e-02 0.0
1.445882e+00 1.049288e-01 0.0
1.410383e+00 1.120777e-01 0.0
1.373228e+00 1.177971e-01 0.0
1.335008e+00 1.210818e-01 0.0
1.296709e+00 1.190629e-01 0.0
1.260105e+00 1.064432e-01 0.0
1.227973e+00 7.609496e-02 0.0
1.204989e+00 2.198108e-02 0.0
1.198436e+00 -5.393901e-02 0.0
1.214268e+00 -1.366290e-01 0.0
1.255753e+00 -2.034193e-01 0.0
1.319944e+00 -2.337215e-01 0.0
1.394810e+00 -2.197211e-01 0.0
1.466599e+00 -1.699970e-01 0.0
1.521559e+00 -9.946463e-02 0.0
1.550301e+00 -2.739998e-02 0.0
1.555276e+00 2.767925e-02 0.0
1.544866e+00 6.329588e-02 0.0
1.524533e+00 8.664975e-02 0.0
1.497531e+00 1.031072e-01 0.0
1.465780e+00 1.157428e-01 0.0
1.430541e+00 1.257986e-01 0.0
1.392808e+00 1.333743e-01 0.0
1.353481e+00 1.379544e-01 0.0
1.313593e+00 1.386100e-01 0.0
1.274497e+00 1.344137e-01 0.0
1.237574e+00 1.254239e-01 0.0
1.203913e+00 1.126775e-01 0.0
1.174132e+00 9.777604e-02 0.0
1.148369e+00 8.238978e-02 0.0
1.126385e+00 6.787108e-02 0.0
1.107723e+00 5.507110e-02 0.0
1.091850e+00 4.434793e-02 0.0
1.078258e+00 3.568970e-02 0.0
1.066518e+00 2.886778e-02 0.0
1.056291e+00 2.356504e-02 0.0
1.047327e+00 1.945938e-02 0.0
1.039442e+00 1.626632e-02 0.0
1.032505e+00 1.375363e-02 0.0
1.026415e+00 1.174074e-02 0.0
1.021098e+00 1.009188e-02 0.0
1.016487e+00 8.707710e-03 0.0
1.012527e+00 7.517418e-03 0.0
1.009161e+00 6.472076e-03 0.0
1.006336e+00 5.538863e-03 0.0
1.004000e+00 4.696142e-03 0.0
1.002102e+00 3.929898e-03 0.0
1.000591e+00 3.231409e-03 0.0
9.994221e-01 2.594845e-03 0.0
9.985522e-01 2.015655e-03 0.0
9.979426e-01 1.490813e-03 0.0
9.975584e-01 1.018024e-03 0.0
9.973685e-01 5.946761e-04 0.0
9.973458e-01 2.189285e-04 0.0
9.974673e-01 -1.122402e-04 0.0
9.977133e-01 -4.023073e-04 0.0
9.980660e-01 -6.538795e-04 0.0
9.985086e-01 -8.692221e-04 0.0
9.990255e-01 -1.050461e-03 0.0
9.996027e-01 -1.199696e-03 0.0
1.000227e+00 -1.319044e-03 0.0
1.000887e+00 -1.410663e-03 0.0
1.001571e+00 -1.476754e-03 0.0
1.002271e+00 -1.519558e-03 0.0
1.002977e+00 -1.541341e-03 0.0
1.003683e+00 -1.544318e-03 0.0
1.004381e+00 -1.530527e-03 0.0
1.005066e+00 -1.501860e-03 0.0
1.005732e+00 -1.460097e-03 0.0
1.006376e+00 -1.406910e-03 0.0
1.006994e+00 -1.343872e-03 0.0
1.007582e+00 -1.272496e-03 0.0
1.008139e+00 -1.194306e-03 0.0
1.008662e+00 -1.110973e-03 0.0
1.009150e+00 -1.024568e-03 0.0
1.009601e+00 -9.379724e-04 0.0
1.010015e+00 -8.555431e-04 0.0
1.010387e+00 -7.839230e-04 0.0
1.010711e+00 -7.334965e-04 0.0
1.010955e+00 -7.182395e-04 0.0
1.011093e+00 -7.227461e-04 0.0
0.000000e+00 -7.139906e-04 0.0
1.000000e+00 -1.102222e-01 0.0
1.022152e+00 -1.101231e-01 0.0
1.047475e+00 -1.231291e-01 0.0
1.079963e+00 -1.500809e-01 0.0
1.124884e+00 -1.925823e-01 0.0
1.189756e+00 -2.527527e-01 0.0
1.280120e+00 -3.189031e-01 0.0
1.431125e+00 -4.433659e-01 0.0
1.519748e+00 -3.386003e-01 0.0
1.562958e+00 -2.206525e-01 0.0
1.584943e+00 -1.346698e-01 0.0
1.595244e+00 -7.170170e-02 0.0
1.597033e+00 -2.419045e-02 0.0
1.592497e+00 1.100123e-02 0.0
1.582592e+00 3.872133e-02 0.0
1.567901e+00 6.166685e-02 0.0
1.548942e+00 8.119782e-02 0.0
1.526152e+00 9.813703e-02 0.0
1.499910e+00 1.129492e-01 0.0
1.470597e+00 1.258457e-01 0.0
1.438660e+00 1.369054e-01 0.0
1.404637e+00 1.461387e-01 0.0
1.369097e+00 1.533760e-01 0.0
1.332416e+00 1.578019e-01 0.0
1.294620e+00 1.568973e-01 0.0
1.255399e+00 1.457035e-01 0.0
1.213650e+00 1.178828e-01 0.0
1.167566e+00 6.810393e-02 0.0
1.119713e+00 -6.047394e-03 0.0
1.080257e+00 -9.713391e-02 0.0
1.062958e+00 -1.860817e-01 0.0
1.084267e+00 -2.549916e-01 0.0
1.141748e+00 -2.771628e-01 0.0
1.220377e+00 -2.485879e-01 0.0
1.302249e+00 -1.812976e-01 0.0
1.369594e+00 -9.470564e-02 0.0
1.409038e+00 -1.172677e-02 0.0
1.424514e+00 4.785944e-02 0.0
1.424445e+00 8.675756e-02 0.0
1.413776e+00 1.138148e-01 0.0
1.395585e+00 1.339729e-01 0.0
1.371973e+00 1.494495e-01 0.0
1.344530e+00 1.608557e-01 0.0
1.314543e+00 1.679799e-01 0.0
1.283105e+00 1.700877e-01 0.0
1.251430e+00 1.661273e-01 0.0
1.220777e+00 1.561160e-01 0.0
1.192135e+00 1.413585e-01 0.0
1.166087e+00 1.238627e-01 0.0
1.142820e+00 1.056959e-01 0.0
1.122223e+00 8.850611e-02 0.0
1.104024e+00 7.330889e-02 0.0
1.087899e+00 6.051264e-02 0.0
1.073547e+00 5.008003e-02 0.0
1.060733e+00 4.172051e-02 0.0
1.049289e+00 3.504850e-02 0.0
1.039102e+00 2.968485e-02 0.0
1.030100e+00 2.530725e-02 0.0
1.022228e+00 2.166477e-02 0.0
1.015434e+00 1.857294e-02 0.0
1.009663e+00 1.590157e-02 0.0
1.004849e+00 1.356113e-02 0.0
1.000914e+00 1.149076e-02 0.0
9.977758e-01 9.649602e-03 0.0
9.953435e-01 8.009962e-03 0.0
9.935274e-01 6.551082e-03 0.0
9.922408e-01 5.255359e-03 0.0
9.914023e-01 4.108862e-03 0.0
9.909369e-01 3.099039e-03 0.0
9.907801e-01 2.211324e-03 0.0
9.908760e-01 1.433767e-03 0.0
9.911756e-01 7.573143e-04 0.0
9.916393e-01 1.698874e-04 0.0
9.922371e-01 -3.400151e-04 0.0
9.929444e-01 -7.806455e-04 0.0
9.937388e-01 -1.157885e-03 0.0
9.946005e-01 -1.476646e-03 0.0
9.955115e-01 -1.741388e-03 0.0
9.964562e-01 -1.956314e-03 0.0
9.974209e-01 -2.125468e-03 0.0
9.983935e-01 -2.252787e-03 0.0
9.993638e-01 -2.342125e-03 0.0
1.000323e+00 -2.397238e-03 0.0
1.001264e+00 -2.421757e-03 0.0
1.002181e+00 -2.419167e-03 0.0
1.003068e+00 -2.392730e-03 0.0
1.003922e+00 -2.345454e-03 0.0
1.004739e+00 -2.280111e-03 0.0
1.005517e+00 -2.199229e-03 0.0
1.006254e+00 -2.105099e-03 0.0
1.006949e+00 -1.999790e-03 0.0
1.007601e+00 -1.885192e-03 0.0
1.008208e+00 -1.763089e-03 0.0
1.008772e+00 -1.635296e-03 0.0
1.009290e+00 -1.503858e-03 0.0
1.009762e+00 -1.371342e-03 0.0
1.010186e+00 -1.241200e-03 0.0
1.010560e+00 -1.118093e-03 0.0
1.010873e+00 -1.007683e-03 0.0
1.011109e+00 -9.157377e-04 0.0
1.011247e+00 -8.218058e-04 0.0
0.000000e+00 -8.095396e-04 0.0
1.000000e+00 -1.251037e-01 0.0
1.014998e+00 -1.249723e-01 0.0
1.032635e+00 -1.407273e-01 0.0
1.056747e+00 -1.741540e-01 0.0
1.093638e+00 -2.294343e-01 0.0
1.154301e+00 -3.133776e-01 0.0
1.254084e+00 -4.186472e-01 0.0
1.447689e+00 -6.369318e-01 0.0
1.507151e+00 -3.980233e-01 0.0
1.517931e+00 -2.313940e-01 0.0
1.520206e+00 -1.369062e-01 0.0
1.521526e+00 -7.298226e-02 0.0
1.520928e+00 -2.355411e-02 0.0
1.516888e+00 1.508050e-02 0.0
1.509141e+00 4.650659e-02 0.0
1.497426e+00 7.342080e-02 0.0
1.481925e+00 9.673819e-02 0.0
1.462850e+00 1.172504e-01 0.0
1.440365e+00 1.354728e-01 0.0
1.414647e+00 1.516030e-01 0.0
1.385974e+00 1.656176e-01 0.0
1.354783e+00 1.773679e-01 0.0
1.321594e+00 1.866042e-01 0.0
1.286564e+00 1.928704e-01 0.0
1.248442e+00 1.950581e-01 0.0
1.204377e+00 1.898080e-01 0.0
1.150592e+00 1.717066e-01 0.0
1.081232e+00 1.375024e-01 0.0
9.872137e-01 8.800961e-02 0.0
8.767381e-01 1.338059e-02 0.0
7.923089e-01 -1.016137e-01 0.0
7.671239e-01 -2.297678e-01 0.0
8.054017e-01 -3.154017e-01 0.0
8.829831e-01 -3.261305e-01 0.0
9.787048e-01 -2.769805e-01 0.0
1.074027e+00 -1.899890e-01 0.0
1.153547e+00 -9.120831e-02 0.0
1.205345e+00 -3.898875e-03 0.0
1.234992e+00 5.714937e-02 0.0
1.249528e+00 9.931755e-02 0.0
1.252867e+00 1.306723e-01 0.0
1.247758e+00 1.545970e-01 0.0
1.236402e+00 1.722510e-01 0.0
1.220658e+00 1.837625e-01 0.0
1.201996e+00 1.887884e-01 0.0
1.181553e+00 1.866097e-01 0.0
1.160523e+00 1.771849e-01 0.0
1.139847e+00 1.620729e-01 0.0
1.120123e+00 1.436253e-01 0.0
1.101646e+00 1.242118e-01 0.0
1.084504e+00 1.056871e-01 0.0
1.068680e+00 8.917233e-02 0.0
1.054126e+00 7.510527e-02 0.0
1.040811e+00 6.343396e-02 0.0
1.028731e+00 5.383862e-02 0.0
1.017909e+00 4.590949e-02 0.0
1.008375e+00 3.925846e-02 0.0
1.000148e+00 3.357243e-02 0.0
9.932274e-01 2.862448e-02 0.0
9.875781e-01 2.426112e-02 0.0
9.831345e-01 2.038399e-02 0.0
9.798029e-01 1.693161e-02 0.0
9.774697e-01 1.386279e-02 0.0
9.760099e-01 1.114833e-02 0.0
9.752917e-01 8.766963e-03 0.0
9.751844e-01 6.697253e-03 0.0
9.755690e-01 4.909674e-03 0.0
9.763381e-01 3.378568e-03 0.0
9.773931e-01 2.082964e-03 0.0
9.786552e-01 9.881116e-04 0.0
9.800667e-01 6.105659e-05 0.0
9.815897e-01 -7.267279e-04 0.0
9.831922e-01 -1.393800e-03 0.0
9.848452e-01 -1.954093e-03 0.0
9.865222e-01 -2.418847e-03 0.0
9.882009e-01 -2.797707e-03 0.0
9.898625e-01 -3.099342e-03 0.0
9.914917e-01 -3.331699e-03 0.0
9.930764e-01 -3.502123e-03 0.0
9.946072e-01 -3.617392e-03 0.0
9.960771e-01 -3.683812e-03 0.0
9.974811e-01 -3.707271e-03 0.0
9.988160e-01 -3.693247e-03 0.0
1.000080e+00 -3.646750e-03 0.0
1.001272e+00 -3.572365e-03 0.0
1.002392e+00 -3.474270e-03 0.0
1.003442e+00 -3.356224e-03 0.0
1.004422e+00 -3.221546e-03 0.0
1.005335e+00 -3.073139e-03 0.0
1.006182e+00 -2.913530e-03 0.0
1.006966e+00 -2.744870e-03 0.0
1.007689e+00 -2.569013e-03 0.0
1.008352e+00 -2.387593e-03 0.0
1.008958e+00 -2.202136e-03 0.0
1.009507e+00 -2.014195e-03 0.0
1.010000e+00 -1.825531e-03 0.0
1.010436e+00 -1.638267e-03 0.0
1.010812e+00 -1.454902e-03 0.0
1.011121e+00 -1.277595e-03 0.0
1.011353e+00 -1.109176e-03 0.0
1.011489e+00 -9.186936e-04 0.0
0.000000e+00 -9.025725e-04 0.0
1.000000e+00 -1.311634e-01 0.0
1.006175e+00 -1.309990e-01 0.0
1.013593e+00 -1.481056e-01 0.0
1.024763e+00 -1.852859e-01 0.0
1.045276e+00 -2.499079e-01 0.0
1.087707e+00 -3.557699e-01 0.0
1.180431e+00 -5.113322e-01 0.0
1.405399e+00 -8.618614e-01 0.0
1.383605e+00 -3.761904e-01 0.0
1.331255e+00 -1.790055e-01 0.0
1.302742e+00 -1.083539e-01 0.0
1.293805e+00 -6.400660e-02 0.0
1.296002e+00 -2.571193e-02 0.0
1.298770e+00 1.235034e-02 0.0
1.299864e+00 4.545237e-02 0.0
1.297610e+00 7.571349e-02 0.0
1.291891e+00 1.024959e-01 0.0
1.282564e+00 1.266158e-01 0.0
1.269397e+00 1.486790e-01 0.0
1.252192e+00 1.688462e-01 0.0
1.230899e+00 1.869495e-01 0.0
1.205701e+00 2.026049e-01 0.0
1.176945e+00 2.153995e-01 0.0
1.144442e+00 2.254117e-01 0.0
1.105408e+00 2.341306e-01 0.0
1.049870e+00 2.453851e-01 0.0
9.583058e-01 2.633098e-01 0.0
8.111774e-01 2.846696e-01 0.0
6.420619e-01 2.571640e-01 0.0
5.354223e-01 1.200590e-01 0.0
5.065261e-01 -7.267866e-02 0.0
5.154218e-01 -2.386246e-01 0.0
5.508468e-01 -3.507879e-01 0.0
6.161918e-01 -3.914367e-01 0.0
7.007389e-01 -3.614888e-01 0.0
7.931958e-01 -2.824071e-01 0.0
8.819041e-01 -1.798777e-01 0.0
9.562503e-01 -7.820620e-02 0.0
1.008153e+00 5.285734e-03 0.0
1.043125e+00 6.438455e-02 0.0
1.065441e+00 1.083945e-01 0.0
1.077864e+00 1.422135e-01 0.0
1.082670e+00 1.674831e-01 0.0
1.081889e+00 1.845830e-01 0.0
1.077215e+00 1.935010e-01 0.0
1.069613e+00 1.942506e-01 0.0
1.059946e+00 1.868907e-01 0.0
1.048936e+00 1.731216e-01 0.0
1.037115e+00 1.554853e-01 0.0
1.024880e+00 1.364856e-01 0.0
1.012566e+00 1.180399e-01 0.0
1.000489e+00 1.012877e-01 0.0
9.889623e-01 8.667108e-02 0.0
9.782808e-01 7.415436e-02 0.0
9.687021e-01 6.345613e-02 0.0
9.604253e-01 5.422521e-02 0.0
9.535808e-01 4.614185e-02 0.0
9.482273e-01 3.896477e-02 0.0
9.443523e-01 3.253830e-02 0.0
9.418842e-01 2.676810e-02 0.0
9.407057e-01 2.160137e-02 0.0
9.406639e-01 1.701224e-02 0.0
9.415888e-01 1.297673e-02 0.0
9.433086e-01 9.467387e-03 0.0
9.456494e-01 6.465023e-03 0.0
9.484348e-01 3.950756e-03 0.0
9.515211e-01 1.862243e-03 0.0
9.548035e-01 1.349786e-04 0.0
9.582192e-01 -1.293801e-03 0.0
9.617099e-01 -2.463777e-03 0.0
9.652188e-01 -3.408921e-03 0.0
9.686909e-01 -4.160024e-03 0.0
9.720803e-01 -4.744289e-03 0.0
9.753510e-01 -5.185898e-03 0.0
9.784770e-01 -5.505973e-03 0.0
9.814409e-01 -5.722781e-03 0.0
9.842326e-01 -5.852146e-03 0.0
9.868475e-01 -5.907737e-03 0.0
9.892856e-01 -5.901370e-03 0.0
9.915502e-01 -5.843075e-03 0.0
9.936467e-01 -5.741434e-03 0.0
9.955822e-01 -5.603891e-03 0.0
9.973647e-01 -5.436880e-03 0.0
9.990029e-01 -5.246041e-03 0.0
1.000506e+00 -5.036281e-03 0.0
1.001882e+00 -4.811810e-03 0.0
1.003141e+00 -4.576199e-03 0.0
1.004291e+00 -4.332403e-03 0.0
1.005339e+00 -4.082825e-03 0.0
1.006294e+00 -3.829427e-03 0.0
1.007162e+00 -3.573744e-03 0.0
1.007949e+00 -3.316947e-03 0.0
1.008660e+00 -3.059910e-03 0.0
1.009300e+00 -2.803294e-03 0.0
1.009872e+00 -2.547632e-03 0.0
1.010379e+00 -2.293413e-03 0.0
1.010821e+00 -2.041101e-03 0.0
1.011196e+00 -1.791020e-03 0.0
1.011499e+00 -1.542526e-03 0.0
1.011726e+00 -1.297109e-03 0.0
1.011856e+00 -1.009956e-03 0.0
0.000000e+00 -9.897024e-04 0.0
1.000000e+00 -1.274833e-01 0.0
9.964384e-01 -1.272887e-01 0.0
9.917176e-01 -1.433459e-01 0.0
9.851857e-01 -1.787152e-01 0.0
9.774664e-01 -2.421498e-01 0.0
9.737425e-01 -3.520072e-01 0.0
1.000567e+00 -5.381180e-01 0.0
1.160737e+00 -1.021993e+00 0.0
9.904157e-01 -2.059402e-01 0.0
8.358522e-01 -2.451317e-02 0.0
7.701484e-01 -4.261122e-02 0.0
7.500078e-01 -4.382712e-02 0.0
7.626676e-01 -3.833296e-02 0.0
7.969154e-01 -2.185860e-02 0.0
8.289278e-01 1.347877e-02 0.0
8.525117e-01 5.216839e-02 0.0
8.703576e-01 8.468881e-02 0.0
8.823332e-01 1.146790e-01 0.0
8.871868e-01 1.438642e-01 0.0
8.832289e-01 1.728430e-01 0.0
8.681763e-01 2.020409e-01 0.0
8.387612e-01 2.320589e-01 0.0
7.905123e-01 2.636871e-01 0.0
7.181361e-01 2.978268e-01 0.0
6.175678e-01 3.347377e-01 0.0
4.913049e-01 3.716868e-01 0.0
3.600782e-01 3.945753e-01 0.0
2.861837e-01 3.586029e-01 0.0
2.948711e-01 2.485155e-01 0.0
3.449956e-01 6.997322e-02 0.0
3.913416e-01 -1.189858e-01 0.0
4.242052e-01 -2.714494e-01 0.0
4.507708e-01 -3.773147e-01 0.0
4.879937e-01 -4.286207e-01 0.0
5.421456e-01 -4.156018e-01 0.0
6.093314e-01 -3.495541e-01 0.0
6.824353e-01 -2.529428e-01 0.0
7.526945e-01 -1.484265e-01 0.0
8.116659e-01 -5.364683e-02 0.0
8.547628e-01 2.132642e-02 0.0
8.858713e-01 7.732486e-02 0.0
9.074631e-01 1.206605e-01 0.0
9.216649e-01 1.533202e-01 0.0
9.303699e-01 1.759167e-01 0.0
9.351288e-01 1.887811e-01 0.0
9.368320e-01 1.925863e-01 0.0
9.358199e-01 1.879416e-01 0.0
9.324426e-01 1.765378e-01 0.0
9.270854e-01 1.608814e-01 0.0
9.202512e-01 1.433586e-01 0.0
9.125652e-01 1.257648e-01 0.0
9.047086e-01 1.091831e-01 0.0
8.973250e-01 9.409345e-02 0.0
8.909366e-01 8.058165e-02 0.0
8.858961e-01 6.853545e-02 0.0
8.823835e-01 5.777671e-02 0.0
8.804457e-01 4.811853e-02 0.0
8.800421e-01 3.940717e-02 0.0
8.810614e-01 3.155787e-02 0.0
8.833553e-01 2.451312e-02 0.0
8.867645e-01 1.823096e-02 0.0
8.911056e-01 1.271007e-02 0.0
8.961915e-01 7.929596e-03 0.0
9.018675e-01 3.830305e-03 0.0
9.080073e-01 3.640389e-04 0.0
9.145242e-01 -2.527250e-03 0.0
9.213000e-01 -4.874713e-03 0.0
9.281962e-01 -6.722310e-03 0.0
9.350651e-01 -8.123876e-03 0.0
9.417781e-01 -9.137888e-03 0.0
9.482329e-01 -9.824811e-03 0.0
9.543547e-01 -1.024302e-02 0.0
9.600950e-01 -1.044572e-02 0.0
9.654273e-01 -1.047932e-02 0.0
9.703428e-01 -1.038260e-02 0.0
9.748457e-01 -1.018684e-02 0.0
9.789497e-01 -9.917232e-03 0.0
9.826746e-01 -9.593752e-03 0.0
9.860441e-01 -9.231968e-03 0.0
9.890840e-01 -8.844085e-03 0.0
9.918210e-01 -8.439586e-03 0.0
9.942817e-01 -8.025748e-03 0.0
9.964917e-01 -7.608032e-03 0.0
9.984751e-01 -7.190522e-03 0.0
1.000254e+00 -6.776396e-03 0.0
1.001849e+00 -6.368030e-03 0.0
1.003279e+00 -5.967132e-03 0.0
1.004560e+00 -5.574850e-03 0.0
1.005708e+00 -5.191867e-03 0.0
1.006736e+00 -4.818471e-03 0.0
1.007656e+00 -4.454607e-03 0.0
1.008478e+00 -4.099920e-03 0.0
1.009211e+00 -3.753798e-03 0.0
1.009862e+00 -3.415414e-03 0.0
1.010437e+00 -3.083752e-03 0.0
1.010940e+00 -2.757610e-03 0.0
1.011373e+00 -2.435529e-03 0.0
1.011736e+00 -2.115626e-03 0.0
1.012027e+00 -1.794741e-03 0.0
1.012243e+00 -1.473340e-03 0.0
1.012362e+00 -1.090532e-03 0.0
0.000000e+00 -1.066053e-03 0.0
1.000000e+00 -1.145690e-01 0.0
9.872107e-01 -1.143506e-01 0.0
9.704744e-01 -1.265708e-01 0.0
9.447937e-01 -1.529957e-01 0.0
9.015754e-01 -1.988926e-01 0.0
8.240359e-01 -2.744289e-01 0.0
6.873379e-01 -4.013812e-01 0.0
2.057202e-01 -5.404460e-01 0.0
-9.924579e-01 5.410412e-01 0.0
0.000000e+00 -8.086529e-02 0.0
-1.476024e-01 8.062674e-02 0.0
-1.118021e-01 -7.958859e-02 0.0
-1.549729e-02 -1.345989e-01 0.0
1.179127e-01 -1.552298e-01 0.0
2.284301e-01 -9.699974e-02 0.0
3.105355e-01 -2.989821e-02 0.0
3.662198e-01 2.904328e-02 0.0
4.029705e-01 7.796710e-02 0.0
4.219715e-01 1.249021e-01 0.0
4.230291e-01 1.718242e-01 0.0
4.051529e-01 2.199559e-01 0.0
3.667891e-01 2.704615e-01 0.0
3.068911e-01 3.236240e-01 0.0
2.280209e-01 3.767358e-01 0.0
1.412029e-01 4.215945e-01 0.0
6.932903e-02 4.435995e-01 0.0
5.275607e-02 4.111870e-01 0.0
9.854521e-02 3.128526e-01 0.0
1.930801e-01 1.540195e-01 0.0
2.981545e-01 -3.506236e-02 0.0
3.762491e-01 -1.970416e-01 0.0
4.216905e-01 -3.168519e-01 0.0
4.411209e-01 -3.967063e-01 0.0
4.531765e-01 -4.406375e-01 0.0
4.759119e-01 -4.382984e-01 0.0
5.124701e-01 -3.860735e-01 0.0
5.599465e-01 -3.003804e-01 0.0
6.123875e-01 -2.008286e-01 0.0
6.624768e-01 -1.036974e-01 0.0
7.034983e-01 -1.965622e-02 0.0
7.343918e-01 4.647019e-02 0.0
7.571731e-01 9.791811e-02 0.0
7.737270e-01 1.368052e-01 0.0
7.856723e-01 1.640103e-01 0.0
7.942494e-01 1.802429e-01 0.0
8.002492e-01 1.866253e-01 0.0
8.037095e-01 1.845201e-01 0.0
8.047276e-01 1.755585e-01 0.0
8.036759e-01 1.619719e-01 0.0
8.012361e-01 1.458373e-01 0.0
7.982653e-01 1.287745e-01 0.0
7.955970e-01 1.118902e-01 0.0
7.938939e-01 9.583544e-02 0.0
7.935806e-01 8.093375e-02 0.0
7.948509e-01 6.730408e-02 0.0
7.977047e-01 5.496168e-02 0.0
8.020542e-01 4.380792e-02 0.0
8.078254e-01 3.367489e-02 0.0
8.148968e-01 2.452527e-02 0.0
8.231310e-01 1.631778e-02 0.0
8.324418e-01 8.959073e-03 0.0
8.426690e-01 2.521702e-03 0.0
8.535693e-01 -2.931837e-03 0.0
8.648518e-01 -7.413379e-03 0.0
8.762722e-01 -1.101748e-02 0.0
8.876023e-01 -1.381850e-02 0.0
8.986558e-01 -1.588928e-02 0.0
9.092866e-01 -1.731423e-02 0.0
9.193849e-01 -1.818336e-02 0.0
9.288752e-01 -1.858934e-02 0.0
9.377104e-01 -1.862110e-02 0.0
9.458666e-01 -1.836039e-02 0.0
9.533399e-01 -1.788012e-02 0.0
9.601413e-01 -1.724189e-02 0.0
9.662942e-01 -1.649659e-02 0.0
9.718316e-01 -1.568540e-02 0.0
9.767934e-01 -1.484016e-02 0.0
9.812233e-01 -1.398472e-02 0.0
9.851666e-01 -1.313637e-02 0.0
9.886685e-01 -1.230719e-02 0.0
9.917730e-01 -1.150520e-02 0.0
9.945215e-01 -1.073534e-02 0.0
9.969526e-01 -1.000023e-02 0.0
9.991018e-01 -9.300867e-03 0.0
1.001001e+00 -8.637142e-03 0.0
1.002680e+00 -8.008163e-03 0.0
1.004165e+00 -7.412492e-03 0.0
1.005477e+00 -6.848324e-03 0.0
1.006638e+00 -6.313599e-03 0.0
1.007664e+00 -5.806078e-03 0.0
1.008572e+00 -5.323377e-03 0.0
1.009374e+00 -4.862995e-03 0.0
1.010081e+00 -4.422311e-03 0.0
1.010703e+00 -3.998579e-03 0.0
1.011247e+00 -3.588894e-03 0.0
1.011719e+00 -3.190119e-03 0.0
1.012121e+00 -2.798752e-03 0.0
1.012455e+00 -2.410733e-03 0.0
1.012719e+00 -2.020531e-03 0.0
1.012912e+00 -1.627546e-03 0.0
1.013015e+00 -1.153956e-03 0.0
0.000000e+00 -1.125452e-03 0.0
1.000000e+00 -9.464011e-02 0.0
9.802057e-01 -9.440757e-02 0.0
9.546331e-01 -1.009594e-01 0.0
9.155679e-01 -1.138916e-01 0.0
8.489014e-01 -1.321873e-01 0.0
7.254131e-01 -1.509017e-01 0.0
4.692091e-01 -1.451385e-01 0.0
-8.820391e-03 -6.248767e-02 0.0
1.119066e-04 0.000000e+00 0.0
0.000000e+00 -0.000000e+00 0.0
0.000000e+00 -1.281527e-01 0.0
-2.077598e-01 1.282101e-01 0.0
-1.964011e-01 -1.459188e-01 0.0
-1.282087e-01 -2.233834e-01 0.0
-7.416856e-02 -1.510011e-01 0.0
-2.063827e-02 -8.338969e-02 0.0
2.191360e-02 -1.346977e-02 0.0
4.803874e-02 5.188078e-02 0.0
6.100228e-02 1.119773e-01 0.0