# vtk DataFile Version 3.0
Vector Field
ASCII
DATASET RECTILINEAR_GRID
DIMENSIONS 102 22 1
X_COORDINATES 102 double
0.000000 0.100000 0.200000 0.300000 0.400000 0.500000 0.600000 0.700000 0.800000 0.900000 1.000000 1.100000 1.200000 1.300000 1.400000 1.500000 1.600000 1.700000 1.800000 1.900000 2.000000 2.100000 2.200000 2.300000 2.400000 2.500000 2.600000 2.700000 2.800000 2.900000 3.000000 3.100000 3.200000 3.300000 3.400000 3.500000 3.600000 3.700000 3.800000 3.900000 4.000000 4.100000 4.200000 4.300000 4.400000 4.500000 4.600000 4.700000 4.800000 4.900000 5.000000 5.100000 5.200000 5.300000 5.400000 5.500000 5.600000 5.700000 5.800000 5.900000 6.000000 6.100000 6.200000 6.300000 6.400000 6.500000 6.600000 6.700000 6.800000 6.900000 7.000000 7.100000 7.200000 7.300000 7.400000 7.500000 7.600000 7.700000 7.800000 7.900000 8.000000 8.100000 8.200000 8.300000 8.400000 8.500000 8.600000 8.700000 8.800000 8.900000 9.000000 9.100000 9.200000 9.300000 9.400000 9.500000 9.600000 9.700000 9.800000 9.900000 10.000000 10.100000 
Y_COORDINATES 22 double
0.000000 0.100000 0.200000 0.300000 0.400000 0.500000 0.600000 0.700000 0.800000 0.900000 1.000000 1.100000 1.200000 1.300000 1.400000 1.500000 1.600000 1.700000 1.800000 1.900000 2.000000 2.100000 
Z_COORDINATES 1 double
0.0
POINT_DATA 2244
VECTORS Velocity double
0.000000e+00 0.000000e+00 0.0
-1.027817e+00 0.000000e+00 0.0
-1.058591e+00 0.000000e+00 0.0
-1.095321e+00 0.000000e+00 0.0
-1.140698e+00 0.000000e+00 0.0
-1.196748e+00 0.000000e+00 0.0
-1.262903e+00 0.000000e+00 0.0
-1.338474e+00 0.000000e+00 0.0
-1.406716e+00 0.000000e+00 0.0
-1.457200e+00 0.000000e+00 0.0
-1.488785e+00 0.000000e+00 0.0
-1.504736e+00 0.000000e+00 0.0
-1.509210e+00 0.000000e+00 0.0
-1.505786e+00 0.000000e+00 0.0
-1.497078e+00 0.000000e+00 0.0
-1.484981e+00 0.000000e+00 0.0
-1.470974e+00 0.000000e+00 0.0
-1.456490e+00 0.000000e+00 0.0
-1.443403e+00 0.000000e+00 0.0
-1.434537e+00 0.000000e+00 0.0
-1.433546e+00 0.000000e+00 0.0
-1.443433e+00 0.000000e+00 0.0
-1.464359e+00 0.000000e+00 0.0
-1.492532e+00 0.000000e+00 0.0
-1.521772e+00 0.000000e+00 0.0
-1.546541e+00 0.000000e+00 0.0
-1.563801e+00 0.000000e+00 0.0
-1.572997e+00 0.000000e+00 0.0
-1.574851e+00 0.000000e+00 0.0
-1.569937e+00 0.000000e+00 0.0
-1.558066e+00 0.000000e+00 0.0
-1.538641e+00 0.000000e+00 0.0
-1.511002e+00 0.000000e+00 0.0
-1.474661e+00 0.000000e+00 0.0
-1.429475e+00 0.000000e+00 0.0
-1.375724e+00 0.000000e+00 0.0
-1.314077e+00 0.000000e+00 0.0
-1.245541e+00 0.000000e+00 0.0
-1.171515e+00 0.000000e+00 0.0
-1.094147e+00 0.000000e+00 0.0
-1.016652e+00 0.000000e+00 0.0
-9.432384e-01 0.000000e+00 0.0
-8.789749e-01 0.000000e+00 0.0
-8.290348e-01 0.000000e+00 0.0
-7.975248e-01 0.000000e+00 0.0
-7.864339e-01 0.000000e+00 0.0
-7.953221e-01 0.000000e+00 0.0
-8.228677e-01 0.000000e+00 0.0
-8.676699e-01 0.000000e+00 0.0
-9.281265e-01 0.000000e+00 0.0
-1.002028e+00 0.000000e+00 0.0
-1.086099e+00 0.000000e+00 0.0
-1.175801e+00 0.000000e+00 0.0
-1.265869e+00 0.000000e+00 0.0
-1.350831e+00 0.000000e+00 0.0
-1.425325e+00 0.000000e+00 0.0
-1.484642e+00 0.000000e+00 0.0
-1.525395e+00 0.000000e+00 0.0
-1.546087e+00 0.000000e+00 0.0
-1.546666e+00 0.000000e+00 0.0
-1.526304e+00 0.000000e+00 0.0
-1.483531e+00 0.000000e+00 0.0
-1.417168e+00 0.000000e+00 0.0
-1.328269e+00 0.000000e+00 0.0
-1.223135e+00 0.000000e+00 0.0
-1.114203e+00 0.000000e+00 0.0
-1.014980e+00 0.000000e+00 0.0
-9.346506e-01 0.000000e+00 0.0
-8.771192e-01 0.000000e+00 0.0
-8.418439e-01 0.000000e+00 0.0
-8.255383e-01 0.000000e+00 0.0
-8.239769e-01 0.000000e+00 0.0
-8.332407e-01 0.000000e+00 0.0
-8.507069e-01 0.000000e+00 0.0
-8.747239e-01 0.000000e+00 0.0
-9.041684e-01 0.000000e+00 0.0
-9.381531e-01 0.000000e+00 0.0
-9.758195e-01 0.000000e+00 0.0
-1.016199e+00 0.000000e+00 0.0
-1.058217e+00 0.000000e+00 0.0
-1.100781e+00 0.000000e+00 0.0
-1.142865e+00 0.000000e+00 0.0
-1.183532e+00 0.000000e+00 0.0
-1.221901e+00 0.000000e+00 0.0
-1.257138e+00 0.000000e+00 0.0
-1.288464e+00 0.000000e+00 0.0
-1.315174e+00 0.000000e+00 0.0
-1.336689e+00 0.000000e+00 0.0
-1.352625e+00 0.000000e+00 0.0
-1.362877e+00 0.000000e+00 0.0
-1.367661e+00 0.000000e+00 0.0
-1.367322e+00 0.000000e+00 0.0
-1.361766e+00 0.000000e+00 0.0
-1.350581e+00 0.000000e+00 0.0
-1.333253e+00 0.000000e+00 0.0
-1.309296e+00 0.000000e+00 0.0
-1.278578e+00 0.000000e+00 0.0
-1.241952e+00 0.000000e+00 0.0
-1.202202e+00 0.000000e+00 0.0
-1.164070e+00 0.000000e+00 0.0
-1.164070e+00 0.000000e+00 0.0
0.000000e+00 0.000000e+00 0.0
1.000000e+00 -2.769265e-02 0.0
1.027994e+00 -2.785026e-02 0.0
1.058945e+00 -3.086837e-02 0.0
1.095870e+00 -3.684314e-02 0.0
1.141468e+00 -4.551572e-02 0.0
1.197772e+00 -5.622097e-02 0.0
1.264210e+00 -6.635523e-02 0.0
1.340109e+00 -7.581726e-02 0.0
1.408661e+00 -6.846860e-02 0.0
1.459378e+00 -5.063529e-02 0.0
1.491090e+00 -3.162960e-02 0.0
1.507049e+00 -1.587631e-02 0.0
1.511410e+00 -4.278154e-03 0.0
1.507748e+00 3.744419e-03 0.0
1.498670e+00 9.160763e-03 0.0
1.486048e+00 1.270428e-02 0.0
1.471310e+00 1.482020e-02 0.0
1.455773e+00 1.561996e-02 0.0
1.441095e+00 1.476025e-02 0.0
1.429841e+00 1.133706e-02 0.0
1.425609e+00 4.314310e-03 0.0
1.431908e+00 -6.216286e-03 0.0
1.449960e+00 -1.797000e-02 0.0
1.477067e+00 -2.702431e-02 0.0
1.507395e+00 -3.024525e-02 0.0
1.534859e+00 -2.738102e-02 0.0
1.555491e+00 -2.054962e-02 0.0
1.567932e+00 -1.235890e-02 0.0
1.572538e+00 -4.522866e-03 0.0
1.569994e+00 2.625980e-03 0.0
1.560324e+00 9.753122e-03 0.0
1.543023e+00 1.738285e-02 0.0
1.517457e+00 2.564846e-02 0.0
1.483120e+00 3.442055e-02 0.0
1.439810e+00 4.339254e-02 0.0
1.387744e+00 5.214788e-02 0.0
1.327538e+00 6.028915e-02 0.0
1.260149e+00 6.747118e-02 0.0
1.186901e+00 7.333036e-02 0.0
1.109780e+00 7.720431e-02 0.0
1.031828e+00 7.803386e-02 0.0
9.570742e-01 7.483688e-02 0.0
8.904594e-01 6.669744e-02 0.0
8.371982e-01 5.334378e-02 0.0
8.016609e-01 3.561991e-02 0.0
7.862683e-01 1.547531e-02 0.0
7.909979e-01 -4.646956e-03 0.0
8.145185e-01 -2.343800e-02 0.0
8.554296e-01 -4.082844e-02 0.0
9.121753e-01 -5.666303e-02 0.0
9.827074e-01 -7.044943e-02 0.0
1.064052e+00 -8.126246e-02 0.0
1.151989e+00 -8.785369e-02 0.0
1.241470e+00 -8.939849e-02 0.0
1.327187e+00 -8.563455e-02 0.0
1.403859e+00 -7.658955e-02 0.0
1.466700e+00 -6.275827e-02 0.0
1.512036e+00 -4.525281e-02 0.0
1.537911e+00 -2.579263e-02 0.0
1.544062e+00 -6.068156e-03 0.0
1.529958e+00 1.418693e-02 0.0
1.494191e+00 3.584966e-02 0.0
1.435316e+00 5.895792e-02 0.0
1.353372e+00 8.202648e-02 0.0
1.252747e+00 1.007076e-01 0.0
1.144209e+00 1.086213e-01 0.0
1.041665e+00 1.026264e-01 0.0
9.557658e-01 8.598180e-02 0.0
8.919217e-01 6.392684e-02 0.0
8.507501e-01 4.125430e-02 0.0
8.295802e-01 2.125261e-02 0.0
8.243289e-01 5.334050e-03 0.0
8.308748e-01 -6.463091e-03 0.0
8.462201e-01 -1.526254e-02 0.0
8.684831e-01 -2.218024e-02 0.0
8.964207e-01 -2.785488e-02 0.0
9.290944e-01 -3.259089e-02 0.0
9.656543e-01 -3.647720e-02 0.0
1.005170e+00 -3.943327e-02 0.0
1.046594e+00 -4.134091e-02 0.0
1.088843e+00 -4.216603e-02 0.0
1.130877e+00 -4.195126e-02 0.0
1.171750e+00 -4.079075e-02 0.0
1.210582e+00 -3.874852e-02 0.0
1.246535e+00 -3.587099e-02 0.0
1.278824e+00 -3.220621e-02 0.0
1.306729e+00 -2.782140e-02 0.0
1.329635e+00 -2.282326e-02 0.0
1.347099e+00 -1.738202e-02 0.0
1.358935e+00 -1.175247e-02 0.0
1.365271e+00 -6.253650e-03 0.0
1.366465e+00 -1.111312e-03 0.0
1.362598e+00 3.950295e-03 0.0
1.353333e+00 9.347336e-03 0.0
1.338205e+00 1.521149e-02 0.0
1.316739e+00 2.154821e-02 0.0
1.288720e+00 2.810221e-02 0.0
1.254736e+00 3.406651e-02 0.0
1.217135e+00 3.768413e-02 0.0
1.180211e+00 3.700622e-02 0.0
1.164070e+00 1.622429e-02 0.0
0.000000e+00 1.650841e-02 0.0
1.000000e+00 -5.584835e-02 0.0
1.028408e+00 -5.617574e-02 0.0
1.059791e+00 -6.222976e-02 0.0
1.097312e+00 -7.434263e-02 0.0
1.144017e+00 -9.219959e-02 0.0
1.202666e+00 -1.148485e-01 0.0
1.272915e+00 -1.365822e-01 0.0
1.358977e+00 -1.618584e-01 0.0
1.433339e+00 -1.428088e-01 0.0
1.485208e+00 -1.024827e-01 0.0
1.516316e+00 -6.271578e-02 0.0
1.531685e+00 -3.122403e-02 0.0
1.536095e+00 -8.666521e-03 0.0
1.533144e+00 6.716521e-03 0.0
1.525272e+00 1.705420e-02 0.0
1.514218e+00 2.378045e-02 0.0
1.501288e+00 2.777178e-02 0.0
1.487534e+00 2.939480e-02 0.0
1.474135e+00 2.818108e-02 0.0
1.462928e+00 2.256537e-02 0.0
1.456865e+00 1.039910e-02 0.0
1.459584e+00 -8.913682e-03 0.0
1.473533e+00 -3.189704e-02 0.0
1.497798e+00 -5.126857e-02 0.0
1.527662e+00 -6.008699e-02 0.0
1.557196e+00 -5.689383e-02 0.0
1.581781e+00 -4.511339e-02 0.0
1.598947e+00 -2.950313e-02 0.0
1.608068e+00 -1.362221e-02 0.0
1.609579e+00 1.136844e-03 0.0
1.603851e+00 1.550194e-02 0.0
1.590529e+00 3.072674e-02 0.0
1.569054e+00 4.714473e-02 0.0
1.538991e+00 6.450515e-02 0.0
1.500188e+00 8.221753e-02 0.0
1.452947e+00 9.940983e-02 0.0
1.397998e+00 1.152601e-01 0.0
1.336470e+00 1.290205e-01 0.0
1.269876e+00 1.399463e-01 0.0
1.200008e+00 1.470936e-01 0.0
1.129025e+00 1.490382e-01 0.0
1.059968e+00 1.439160e-01 0.0
9.965595e-01 1.301274e-01 0.0
9.428389e-01 1.070858e-01 0.0
9.025577e-01 7.592269e-02 0.0
8.784603e-01 3.959427e-02 0.0
8.717027e-01 2.132219e-03 0.0
8.814694e-01 -3.318310e-02 0.0
9.062871e-01 -6.562461e-02 0.0
9.446260e-01 -9.498037e-02 0.0
9.946630e-01 -1.204649e-01 0.0
1.054169e+00 -1.407474e-01 0.0
1.120353e+00 -1.540161e-01 0.0
1.189415e+00 -1.584383e-01 0.0
1.257013e+00 -1.532110e-01 0.0
1.318719e+00 -1.382741e-01 0.0
1.370420e+00 -1.144378e-01 0.0
1.408773e+00 -8.358387e-02 0.0
1.431400e+00 -4.839856e-02 0.0
1.436507e+00 -1.115311e-02 0.0
1.422815e+00 2.790050e-02 0.0
1.390281e+00 6.840483e-02 0.0
1.340516e+00 1.087448e-01 0.0
1.277695e+00 1.448687e-01 0.0
1.208515e+00 1.699095e-01 0.0
1.140185e+00 1.769729e-01 0.0
1.078299e+00 1.645336e-01 0.0
1.026057e+00 1.382454e-01 0.0
9.839735e-01 1.060321e-01 0.0
9.517608e-01 7.348864e-02 0.0
9.289495e-01 4.408544e-02 0.0
9.149946e-01 1.931061e-02 0.0
9.092924e-01 -7.393488e-04 0.0
9.108258e-01 -1.677435e-02 0.0
9.186847e-01 -3.001750e-02 0.0
9.321405e-01 -4.128914e-02 0.0
9.505328e-01 -5.096163e-02 0.0
9.732751e-01 -5.919784e-02 0.0
9.997034e-01 -6.584003e-02 0.0
1.029026e+00 -7.064192e-02 0.0
1.060299e+00 -7.341778e-02 0.0
1.092504e+00 -7.413434e-02 0.0
1.124706e+00 -7.297153e-02 0.0
1.156060e+00 -7.008058e-02 0.0
1.185787e+00 -6.557599e-02 0.0
1.213176e+00 -5.957364e-02 0.0
1.237593e+00 -5.221745e-02 0.0
1.258502e+00 -4.371020e-02 0.0
1.275480e+00 -3.433882e-02 0.0
1.288216e+00 -2.446677e-02 0.0
1.296429e+00 -1.444502e-02 0.0
1.299740e+00 -4.400194e-03 0.0
1.297718e+00 5.993689e-03 0.0
1.290102e+00 1.698458e-02 0.0
1.276868e+00 2.846749e-02 0.0
1.258464e+00 3.997318e-02 0.0
1.236116e+00 5.047260e-02 0.0
1.212004e+00 5.820000e-02 0.0
1.189225e+00 6.048439e-02 0.0
1.171518e+00 5.473510e-02 0.0
1.162674e+00 2.509010e-02 0.0
0.000000e+00 2.520113e-02 0.0
1.000000e+00 -8.073728e-02 0.0
1.025132e+00 -8.122568e-02 0.0
1.053361e+00 -9.043721e-02 0.0
1.088164e+00 -1.091235e-01 0.0
1.133396e+00 -1.374098e-01 0.0
1.193501e+00 -1.749329e-01 0.0
1.269406e+00 -2.124656e-01 0.0
1.376931e+00 -2.693616e-01 0.0
1.458839e+00 -2.246956e-01 0.0
1.507856e+00 -1.514779e-01 0.0
1.533427e+00 -8.826483e-02 0.0
1.543909e+00 -4.168492e-02 0.0
1.544938e+00 -9.674070e-03 0.0
1.539892e+00 1.178397e-02 0.0
1.530763e+00 2.620522e-02 0.0
1.518978e+00 3.558645e-02 0.0
1.505667e+00 4.110415e-02 0.0
1.491674e+00 4.340956e-02 0.0
1.477584e+00 4.229267e-02 0.0
1.463931e+00 3.624005e-02 0.0
1.451862e+00 2.249003e-02 0.0
1.444237e+00 -1.267684e-03 0.0
1.445268e+00 -3.290640e-02 0.0
1.457806e+00 -6.378489e-02 0.0
1.480655e+00 -8.291450e-02 0.0
1.508753e+00 -8.497048e-02 0.0
1.536704e+00 -7.304217e-02 0.0
1.560293e+00 -5.307083e-02 0.0
1.576649e+00 -2.995713e-02 0.0
1.584420e+00 -6.612045e-03 0.0
1.584225e+00 1.571825e-02 0.0
1.576267e+00 3.870630e-02 0.0
1.560167e+00 6.326589e-02 0.0
1.535613e+00 8.908047e-02 0.0
1.502520e+00 1.153326e-01 0.0
1.461094e+00 1.408576e-01 0.0
1.411994e+00 1.643815e-01 0.0
1.356342e+00 1.846935e-01 0.0
1.295599e+00 2.007114e-01 0.0
1.231446e+00 2.112685e-01 0.0
1.165907e+00 2.145984e-01 0.0
1.101670e+00 2.081748e-01 0.0
1.041933e+00 1.898857e-01 0.0
9.899787e-01 1.590616e-01 0.0
9.486826e-01 1.172403e-01 0.0
9.202195e-01 6.807890e-02 0.0
9.059945e-01 1.637877e-02 0.0
9.060344e-01 -3.320142e-02 0.0
9.190651e-01 -7.863368e-02 0.0
9.436129e-01 -1.195067e-01 0.0
9.783814e-01 -1.552117e-01 0.0
1.021568e+00 -1.839128e-01 0.0
1.070648e+00 -2.030738e-01 0.0
1.122566e+00 -2.103351e-01 0.0
1.173776e+00 -2.043991e-01 0.0
1.220654e+00 -1.851309e-01 0.0
1.259842e+00 -1.536039e-01 0.0
1.288488e+00 -1.122086e-01 0.0
1.304291e+00 -6.418018e-02 0.0
1.305363e+00 -1.220382e-02 0.0
1.291099e+00 4.218607e-02 0.0
1.263009e+00 9.651714e-02 0.0
1.224613e+00 1.471619e-01 0.0
1.181239e+00 1.882645e-01 0.0
1.138481e+00 2.126886e-01 0.0
1.099865e+00 2.156113e-01 0.0
1.065730e+00 1.986900e-01 0.0
1.035339e+00 1.686583e-01 0.0
1.008278e+00 1.331146e-01 0.0
9.841935e-01 9.759434e-02 0.0
9.631390e-01 6.516151e-02 0.0
9.456920e-01 3.677918e-02 0.0
9.327738e-01 1.220048e-02 0.0
9.250259e-01 -9.004889e-03 0.0
9.224232e-01 -2.739316e-02 0.0
9.248561e-01 -4.370044e-02 0.0
9.321666e-01 -5.825062e-02 0.0
9.439805e-01 -7.099015e-02 0.0
9.597605e-01 -8.159841e-02 0.0
9.788233e-01 -8.968315e-02 0.0
1.000362e+00 -9.493473e-02 0.0
1.023463e+00 -9.721436e-02 0.0
1.047164e+00 -9.665011e-02 0.0
1.070622e+00 -9.351782e-02 0.0
1.093113e+00 -8.804496e-02 0.0
1.114015e+00 -8.045393e-02 0.0
1.132802e+00 -7.098337e-02 0.0
1.149031e+00 -5.991696e-02 0.0
1.162315e+00 -4.760127e-02 0.0
1.172282e+00 -3.441200e-02 0.0
1.178491e+00 -2.063251e-02 0.0
1.180367e+00 -6.255081e-03 0.0
1.177511e+00 8.871544e-03 0.0
1.170143e+00 2.437448e-02 0.0
1.159011e+00 3.962030e-02 0.0
1.145488e+00 5.351813e-02 0.0
1.131563e+00 6.441970e-02 0.0
1.119611e+00 7.017282e-02 0.0
1.111975e+00 6.814191e-02 0.0
1.109673e+00 5.705894e-02 0.0
1.107316e+00 2.746861e-02 0.0
0.000000e+00 2.732919e-02 0.0
1.000000e+00 -1.006122e-01 0.0
1.020105e+00 -1.012481e-01 0.0
1.043272e+00 -1.135827e-01 0.0
1.073275e+00 -1.391049e-01 0.0
1.115181e+00 -1.792947e-01 0.0
1.176281e+00 -2.360116e-01 0.0
1.261925e+00 -2.980873e-01 0.0
1.406207e+00 -4.136223e-01 0.0
1.489399e+00 -3.078663e-01 0.0
1.525805e+00 -1.878626e-01 0.0
1.539626e+00 -1.020636e-01 0.0
1.542073e+00 -4.411037e-02 0.0
1.538407e+00 -5.987004e-03 0.0
1.530488e+00 1.972467e-02 0.0
1.519429e+00 3.728605e-02 0.0
1.506161e+00 4.887571e-02 0.0
1.491584e+00 5.570216e-02 0.0
1.476375e+00 5.864015e-02 0.0
1.460630e+00 5.805977e-02 0.0
1.443594e+00 5.329716e-02 0.0
1.423801e+00 4.230451e-02 0.0
1.400771e+00 2.178460e-02 0.0
1.378298e+00 -1.041212e-02 0.0
1.364400e+00 -4.986550e-02 0.0
1.365032e+00 -8.352541e-02 0.0
1.380213e+00 -1.001297e-01 0.0
1.405568e+00 -9.837521e-02 0.0
1.436439e+00 -8.392101e-02 0.0
1.467424e+00 -6.091968e-02 0.0
1.491823e+00 -3.099018e-02 0.0
1.504866e+00 2.696954e-03 0.0
1.508065e+00 3.552876e-02 0.0
1.502155e+00 6.919781e-02 0.0
1.487325e+00 1.039317e-01 0.0
1.463576e+00 1.391034e-01 0.0
1.431065e+00 1.733899e-01 0.0
1.390376e+00 2.050922e-01 0.0
1.342580e+00 2.325112e-01 0.0
1.289121e+00 2.541917e-01 0.0
1.231631e+00 2.687798e-01 0.0
1.171905e+00 2.743464e-01 0.0
1.112430e+00 2.676709e-01 0.0
1.056336e+00 2.460015e-01 0.0
1.006664e+00 2.087555e-01 0.0
9.657605e-01 1.581650e-01 0.0
9.351968e-01 9.866414e-02 0.0
9.161554e-01 3.544171e-02 0.0
9.094776e-01 -2.650202e-02 0.0
9.146527e-01 -8.378729e-02 0.0
9.305865e-01 -1.354189e-01 0.0
9.555116e-01 -1.801153e-01 0.0
9.873082e-01 -2.156878e-01 0.0
1.023607e+00 -2.393509e-01 0.0
1.061808e+00 -2.485142e-01 0.0
1.099089e+00 -2.416585e-01 0.0
1.132633e+00 -2.186541e-01 0.0
1.159856e+00 -1.808052e-01 0.0
1.178457e+00 -1.307880e-01 0.0
1.186426e+00 -7.212791e-02 0.0
1.182411e+00 -8.166364e-03 0.0
1.167189e+00 5.742925e-02 0.0
1.143629e+00 1.200988e-01 0.0
1.116066e+00 1.747463e-01 0.0
1.089275e+00 2.150772e-01 0.0
1.066572e+00 2.354130e-01 0.0
1.048210e+00 2.339945e-01 0.0
1.032100e+00 2.148222e-01 0.0
1.016194e+00 1.845853e-01 0.0
9.995027e-01 1.498280e-01 0.0
9.820233e-01 1.150953e-01 0.0
9.645209e-01 8.268555e-02 0.0
9.480703e-01 5.325137e-02 0.0
9.336743e-01 2.661803e-02 0.0
9.223066e-01 2.384418e-03 0.0
9.146705e-01 -1.973543e-02 0.0
9.110572e-01 -4.006561e-02 0.0
9.115471e-01 -5.871887e-02 0.0
9.160162e-01 -7.543768e-02 0.0
9.241458e-01 -8.970643e-02 0.0
9.354208e-01 -1.009366e-01 0.0
9.491517e-01 -1.086440e-01 0.0
9.645334e-01 -1.125745e-01 0.0
9.806826e-01 -1.127777e-01 0.0
9.967868e-01 -1.096004e-01 0.0
1.012167e+00 -1.034040e-01 0.0
1.026286e+00 -9.455102e-02 0.0
1.038718e+00 -8.339353e-02 0.0
1.049102e+00 -7.027905e-02 0.0
1.057076e+00 -5.555407e-02 0.0
1.062216e+00 -3.953059e-02 0.0
1.064028e+00 -2.242314e-02 0.0
1.062161e+00 -4.365783e-03 0.0
1.057006e+00 1.404750e-02 0.0
1.049629e+00 3.177390e-02 0.0
1.041542e+00 4.772876e-02 0.0
1.034565e+00 6.051636e-02 0.0
1.030520e+00 6.848681e-02 0.0
1.030830e+00 6.988413e-02 0.0
1.035346e+00 6.364687e-02 0.0
1.042402e+00 5.002534e-02 0.0
1.044302e+00 2.558978e-02 0.0
0.000000e+00 2.531455e-02 0.0
1.000000e+00 -1.136662e-01 0.0
1.013265e+00 -1.144306e-01 0.0
1.029090e+00 -1.293858e-01 0.0
1.051129e+00 -1.611228e-01 0.0
1.085551e+00 -2.136954e-01 0.0
1.143295e+00 -2.937342e-01 0.0
1.239691e+00 -3.944615e-01 0.0
1.430070e+00 -6.039794e-01 0.0
1.488900e+00 -3.666754e-01 0.0
1.496913e+00 -1.958535e-01 0.0
1.492403e+00 -9.753267e-02 0.0
1.484822e+00 -3.650725e-02 0.0
1.476008e+00 2.848752e-03 0.0
1.465142e+00 3.061138e-02 0.0
1.452015e+00 5.043540e-02 0.0
1.436764e+00 6.414738e-02 0.0
1.419849e+00 7.263920e-02 0.0
1.401812e+00 7.669806e-02 0.0
1.382508e+00 7.738612e-02 0.0
1.360479e+00 7.534770e-02 0.0
1.332553e+00 7.025152e-02 0.0
1.294622e+00 5.973779e-02 0.0
1.244558e+00 3.967316e-02 0.0
1.187496e+00 7.217886e-03 0.0
1.138464e+00 -3.447191e-02 0.0
1.112908e+00 -7.455253e-02 0.0
1.114430e+00 -9.987511e-02 0.0
1.141448e+00 -1.109181e-01 0.0
1.190462e+00 -1.099113e-01 0.0
1.250575e+00 -9.108178e-02 0.0
1.305566e+00 -5.227308e-02 0.0
1.340552e+00 5.643319e-04 0.0
1.358053e+00 5.171820e-02 0.0
1.363126e+00 9.888022e-02 0.0
1.357430e+00 1.448213e-01 0.0
1.341489e+00 1.893520e-01 0.0
1.315866e+00 2.307376e-01 0.0
1.281588e+00 2.668101e-01 0.0
1.240134e+00 2.956674e-01 0.0
1.193233e+00 3.157020e-01 0.0
1.142716e+00 3.248858e-01 0.0
1.090820e+00 3.195882e-01 0.0
1.040425e+00 2.964178e-01 0.0
9.941893e-01 2.550130e-01 0.0
9.541528e-01 1.982231e-01 0.0
9.221590e-01 1.306795e-01 0.0
9.003174e-01 5.730483e-02 0.0
8.906781e-01 -1.684112e-02 0.0
8.933560e-01 -8.644367e-02 0.0
9.061665e-01 -1.482078e-01 0.0
9.262056e-01 -2.001328e-01 0.0
9.508937e-01 -2.403543e-01 0.0
9.780430e-01 -2.664787e-01 0.0
1.005583e+00 -2.760331e-01 0.0
1.031359e+00 -2.674124e-01 0.0
1.053329e+00 -2.406028e-01 0.0
1.069732e+00 -1.971863e-01 0.0
1.079002e+00 -1.400369e-01 0.0
1.079838e+00 -7.294191e-02 0.0
1.071904e+00 -2.110750e-04 0.0
1.057248e+00 7.210697e-02 0.0
1.039298e+00 1.380703e-01 0.0
1.022051e+00 1.920154e-01 0.0
1.008739e+00 2.284106e-01 0.0
1.000286e+00 2.438876e-01 0.0
9.948533e-01 2.394487e-01 0.0
9.896438e-01 2.200532e-01 0.0
9.825630e-01 1.916877e-01 0.0
9.728174e-01 1.595951e-01 0.0
9.607031e-01 1.272312e-01 0.0
9.471225e-01 9.628775e-02 0.0
9.331443e-01 6.725115e-02 0.0
9.197822e-01 4.000168e-02 0.0
9.079563e-01 1.423191e-02 0.0
8.984924e-01 -1.024995e-02 0.0
8.918373e-01 -3.338883e-02 0.0
8.882048e-01 -5.506485e-02 0.0
8.876499e-01 -7.486117e-02 0.0
8.900713e-01 -9.210626e-02 0.0
8.951843e-01 -1.060280e-01 0.0
9.025060e-01 -1.159441e-01 0.0
9.113840e-01 -1.214308e-01 0.0
9.210394e-01 -1.224116e-01 0.0
9.306820e-01 -1.192214e-01 0.0
9.396450e-01 -1.123454e-01 0.0
9.474244e-01 -1.023089e-01 0.0
9.536577e-01 -8.960525e-02 0.0
9.580647e-01 -7.466438e-02 0.0
9.603848e-01 -5.785266e-02 0.0
9.603806e-01 -3.950474e-02 0.0
9.579945e-01 -2.001542e-02 0.0
9.537415e-01 -9.122818e-05 0.0
9.488712e-01 1.893940e-02 0.0
9.448043e-01 3.586238e-02 0.0
9.429867e-01 4.956802e-02 0.0
9.446208e-01 5.890384e-02 0.0
9.503341e-01 6.279507e-02 0.0
9.597136e-01 6.052627e-02 0.0
9.708871e-01 5.249490e-02 0.0
9.814516e-01 3.948253e-02 0.0
9.852632e-01 2.179972e-02 0.0
0.000000e+00 2.153485e-02 0.0
1.000000e+00 -1.183074e-01 0.0
1.004827e+00 -1.191754e-01 0.0
1.010872e+00 -1.354089e-01 0.0
1.020537e+00 -1.707665e-01 0.0
1.039407e+00 -2.325434e-01 0.0
1.080268e+00 -3.345744e-01 0.0
1.172006e+00 -4.861775e-01 0.0
1.398036e+00 -8.299883e-01 0.0
1.385088e+00 -3.537053e-01 0.0
1.339324e+00 -1.500678e-01 0.0
1.309412e+00 -6.759935e-02 0.0
1.293147e+00 -2.022122e-02 0.0
1.280972e+00 1.504520e-02 0.0
1.268763e+00 4.284233e-02 0.0
1.254514e+00 6.470547e-02 0.0
1.237186e+00 8.149739e-02 0.0
1.216621e+00 9.322622e-02 0.0
1.193201e+00 1.001395e-01 0.0
1.166798e+00 1.038104e-01 0.0
1.134817e+00 1.073499e-01 0.0
1.091941e+00 1.131497e-01 0.0
1.030880e+00 1.208195e-01 0.0
9.472611e-01 1.233140e-01 0.0
8.467599e-01 1.077406e-01 0.0
7.408450e-01 7.146447e-02 0.0
6.475944e-01 1.871958e-02 0.0
5.967270e-01 -4.898612e-02 0.0
6.106264e-01 -1.247960e-01 0.0
6.861926e-01 -1.854559e-01 0.0
7.983123e-01 -2.031799e-01 0.0
9.213227e-01 -1.752620e-01 0.0
1.031064e+00 -1.091551e-01 0.0
1.106789e+00 -2.398555e-02 0.0
1.151527e+00 5.416333e-02 0.0
1.176430e+00 1.199401e-01 0.0
1.185986e+00 1.798177e-01 0.0
1.182319e+00 2.344259e-01 0.0
1.167170e+00 2.819814e-01 0.0
1.142416e+00 3.204424e-01 0.0
1.110139e+00 3.480002e-01 0.0
1.072491e+00 3.625560e-01 0.0
1.031297e+00 3.608040e-01 0.0
9.885967e-01 3.391392e-01 0.0
9.462714e-01 2.973598e-01 0.0
9.068986e-01 2.376174e-01 0.0
8.749866e-01 1.626131e-01 0.0
8.556552e-01 7.665779e-02 0.0
8.513803e-01 -1.254469e-02 0.0
8.601532e-01 -9.519497e-02 0.0
8.770444e-01 -1.650774e-01 0.0
8.976746e-01 -2.207414e-01 0.0
9.193293e-01 -2.619875e-01 0.0
9.404354e-01 -2.875632e-01 0.0
9.597373e-01 -2.953134e-01 0.0
9.758942e-01 -2.835478e-01 0.0
9.877070e-01 -2.523940e-01 0.0
9.942884e-01 -2.037462e-01 0.0
9.950052e-01 -1.407321e-01 0.0
9.896306e-01 -6.754577e-02 0.0
9.792020e-01 1.023912e-02 0.0
9.663873e-01 8.494324e-02 0.0
9.543101e-01 1.501691e-01 0.0
9.458215e-01 2.005255e-01 0.0
9.422917e-01 2.319620e-01 0.0
9.428050e-01 2.433959e-01 0.0
9.446781e-01 2.375971e-01 0.0
9.452875e-01 2.194655e-01 0.0
9.430167e-01 1.939801e-01 0.0
9.374807e-01 1.651526e-01 0.0
9.292113e-01 1.355222e-01 0.0
9.191846e-01 1.063360e-01 0.0
9.084378e-01 7.801961e-02 0.0
8.978477e-01 5.061336e-02 0.0
8.880515e-01 2.404964e-02 0.0
8.795125e-01 -1.689302e-03 0.0
8.725399e-01 -2.639468e-02 0.0
8.672749e-01 -4.977825e-02 0.0
8.638207e-01 -7.138543e-02 0.0
8.622539e-01 -9.051780e-02 0.0
8.625559e-01 -1.063084e-01 0.0
8.645324e-01 -1.178990e-01 0.0
8.677782e-01 -1.246551e-01 0.0
8.717082e-01 -1.263199e-01 0.0
8.756228e-01 -1.231144e-01 0.0
8.788896e-01 -1.155906e-01 0.0
8.810257e-01 -1.044235e-01 0.0
8.817279e-01 -9.028578e-02 0.0
8.808674e-01 -7.378235e-02 0.0
8.784990e-01 -5.546261e-02 0.0
8.749318e-01 -3.591600e-02 0.0
8.708775e-01 -1.593951e-02 0.0
8.674989e-01 3.309010e-03 0.0
8.659857e-01 2.047420e-02 0.0
8.672630e-01 3.460663e-02 0.0
8.719241e-01 4.492858e-02 0.0
8.800279e-01 5.082161e-02 0.0
8.909419e-01 5.190264e-02 0.0
9.031371e-01 4.835265e-02 0.0
9.148400e-01 4.081358e-02 0.0
9.241493e-01 3.019483e-02 0.0
9.280037e-01 1.796694e-02 0.0
0.000000e+00 1.779454e-02 0.0
1.000000e+00 -1.136708e-01 0.0
9.955198e-01 -1.146126e-01 0.0
9.899315e-01 -1.297990e-01 0.0
9.825671e-01 -1.633806e-01 0.0
9.741930e-01 -2.241478e-01 0.0
9.703557e-01 -3.307155e-01 0.0
9.984994e-01 -5.142998e-01 0.0
1.162350e+00 -9.938172e-01 0.0
1.012028e+00 -2.034228e-01 0.0
8.818118e-01 -1.989107e-02 0.0
8.282431e-01 -1.400912e-02 0.0
8.075739e-01 4.695127e-04 0.0
7.991479e-01 2.349269e-02 0.0
7.923144e-01 4.969740e-02 0.0
7.811036e-01 7.593774e-02 0.0
7.598904e-01 1.027321e-01 0.0
7.247124e-01 1.284257e-01 0.0
6.735518e-01 1.513216e-01 0.0
6.071745e-01 1.702092e-01 0.0
5.305062e-01 1.840398e-01 0.0
4.490370e-01 1.946405e-01 0.0
3.643109e-01 2.055670e-01 0.0
2.752731e-01 2.123734e-01 0.0
1.831383e-01 1.998969e-01 0.0
1.057201e-01 1.489042e-01 0.0
6.501319e-02 5.944798e-02 0.0
7.564885e-02 -5.960024e-02 0.0
1.371195e-01 -1.862451e-01 0.0
2.437629e-01 -2.920779e-01 0.0
3.879773e-01 -3.473727e-01 0.0
5.466164e-01 -3.338795e-01 0.0
6.981683e-01 -2.606854e-01 0.0
8.252100e-01 -1.510058e-01 0.0
9.137440e-01 -3.434917e-02 0.0
9.696470e-01 6.405872e-02 0.0
1.003837e+00 1.456493e-01 0.0
1.020818e+00 2.174661e-01 0.0
1.023441e+00 2.793800e-01 0.0
1.014191e+00 3.297145e-01 0.0
9.955366e-01 3.666759e-01 0.0
9.697159e-01 3.883983e-01 0.0
9.373984e-01 3.931429e-01 0.0
8.989560e-01 3.776032e-01 0.0
8.571752e-01 3.391622e-01 0.0
8.196108e-01 2.752034e-01 0.0
7.961650e-01 1.860805e-01 0.0
7.921279e-01 8.071643e-02 0.0
8.049435e-01 -2.533874e-02 0.0
8.274453e-01 -1.176752e-01 0.0
8.528277e-01 -1.904383e-01 0.0
8.766858e-01 -2.445779e-01 0.0
8.970362e-01 -2.823164e-01 0.0
9.134245e-01 -3.039300e-01 0.0
9.257747e-01 -3.076420e-01 0.0
9.337414e-01 -2.914930e-01 0.0
9.369428e-01 -2.555738e-01 0.0
9.352597e-01 -2.020416e-01 0.0
9.290013e-01 -1.344521e-01 0.0
9.191035e-01 -5.762642e-02 0.0
9.076368e-01 2.172745e-02 0.0
8.972637e-01 9.533789e-02 0.0
8.902639e-01 1.571905e-01 0.0
8.880583e-01 2.027527e-01 0.0
8.904281e-01 2.296137e-01 0.0
8.954173e-01 2.384284e-01 0.0
9.003505e-01 2.326855e-01 0.0
9.031496e-01 2.166880e-01 0.0
9.028075e-01 1.943437e-01 0.0
8.993969e-01 1.685848e-01 0.0
8.937186e-01 1.412221e-01 0.0
8.868456e-01 1.132306e-01 0.0
8.797390e-01 8.514782e-02 0.0
8.730196e-01 5.735430e-02 0.0
8.669136e-01 3.017720e-02 0.0
8.613620e-01 3.883884e-03 0.0
8.562273e-01 -2.123836e-02 0.0
8.513605e-01 -4.488985e-02 0.0
8.467509e-01 -6.675427e-02 0.0
8.425666e-01 -8.631185e-02 0.0
8.390591e-01 -1.027793e-01 0.0
8.363947e-01 -1.152131e-01 0.0
8.345412e-01 -1.227799e-01 0.0
8.332385e-01 -1.249956e-01 0.0
8.320277e-01 -1.218820e-01 0.0
8.304261e-01 -1.139674e-01 0.0
8.280538e-01 -1.020296e-01 0.0
8.247277e-01 -8.693804e-02 0.0
8.205324e-01 -6.956545e-02 0.0
8.158716e-01 -5.078026e-02 0.0
8.114803e-01 -3.150312e-02 0.0
8.083293e-01 -1.276685e-02 0.0
8.073325e-01 4.327418e-03 0.0
8.090246e-01 1.880366e-02 0.0
8.135797e-01 3.007311e-02 0.0
8.207733e-01 3.775664e-02 0.0
8.299326e-01 4.168390e-02 0.0
8.399352e-01 4.192165e-02 0.0
8.494485e-01 3.886094e-02 0.0
8.573131e-01 3.297059e-02 0.0
8.625725e-01 2.495700e-02 0.0
8.654421e-01 1.511895e-02 0.0
0.000000e+00 1.503529e-02 0.0
1.000000e+00 -1.002687e-01 0.0
9.867221e-01 -1.012522e-01 0.0
9.696186e-01 -1.126741e-01 0.0
9.437466e-01 -1.374870e-01 0.0
9.007175e-01 -1.810971e-01 0.0
8.238610e-01 -2.538375e-01 0.0
6.889732e-01 -3.793905e-01 0.0
2.033009e-01 -5.081843e-01 0.0
-1.012045e+00 5.058612e-01 0.0
0.000000e+00 -5.464452e-02 0.0
-8.985025e-02 5.603257e-02 0.0
-2.038525e-02 -6.897396e-02 0.0
7.616091e-02 -7.303194e-02 0.0
1.545833e-01 -2.870347e-02 0.0
1.982200e-01 3.232257e-02 0.0
2.113128e-01 8.966084e-02 0.0
1.976218e-01 1.421384e-01 0.0
1.609900e-01 1.879749e-01 0.0
1.062721e-01 2.249486e-01 0.0
3.936565e-02 2.509678e-01 0.0
-3.191350e-02 2.659411e-01 0.0
-9.585819e-02 2.695333e-01 0.0
-1.413241e-01 2.578608e-01 0.0
-1.627300e-01 2.213244e-01 0.0
-1.584059e-01 1.446016e-01 0.0
-1.214261e-01 2.248975e-02 0.0
-5.909778e-02 -1.219070e-01 0.0
2.216892e-02 -2.674902e-01 0.0
1.080832e-01 -3.779706e-01 0.0
2.103249e-01 -4.495929e-01 0.0
3.366849e-01 -4.602179e-01 0.0
4.747800e-01 -3.987591e-01 0.0
6.058669e-01 -2.820710e-01 0.0
7.144374e-01 -1.428982e-01 0.0
7.893615e-01 -1.084379e-02 0.0
8.380920e-01 9.694029e-02 0.0
8.671877e-01 1.883919e-01 0.0
8.802427e-01 2.663466e-01 0.0
8.798296e-01 3.301492e-01 0.0
8.679241e-01 3.786030e-01 0.0
8.456465e-01 4.106974e-01 0.0
8.134564e-01 4.253546e-01 0.0
7.739645e-01 4.171166e-01 0.0
7.369202e-01 3.762280e-01 0.0
7.152879e-01 2.968573e-01 0.0
7.162371e-01 1.851528e-01 0.0
7.375009e-01 5.947424e-02 0.0
7.706079e-01 -5.842421e-02 0.0
8.069771e-01 -1.540228e-01 0.0
8.407057e-01 -2.241453e-01 0.0
8.679773e-01 -2.718279e-01 0.0
8.873931e-01 -3.017105e-01 0.0
8.994281e-01 -3.159434e-01 0.0
9.052918e-01 -3.134841e-01 0.0
9.059188e-01 -2.920984e-01 0.0
9.018203e-01 -2.514536e-01 0.0
8.935310e-01 -1.937307e-01 0.0
8.821083e-01 -1.230078e-01 0.0
8.693927e-01 -4.488928e-02 0.0
8.579903e-01 3.315146e-02 0.0
8.499292e-01 1.034206e-01 0.0
8.464688e-01 1.606724e-01 0.0
8.477514e-01 2.014917e-01 0.0
8.525176e-01 2.248691e-01 0.0
8.584987e-01 2.324688e-01 0.0
8.634454e-01 2.277604e-01 0.0
8.659334e-01 2.142216e-01 0.0
8.655865e-01 1.947122e-01 0.0
8.629447e-01 1.712482e-01 0.0
8.590654e-01 1.451229e-01 0.0
8.550620e-01 1.172556e-01 0.0
8.517411e-01 8.849025e-02 0.0
8.494204e-01 5.969661e-02 0.0
8.479267e-01 3.169248e-02 0.0
8.467244e-01 5.107768e-03 0.0
8.451343e-01 -1.962662e-02 0.0
8.425269e-01 -4.226089e-02 0.0
8.385470e-01 -6.275277e-02 0.0
8.332332e-01 -8.097651e-02 0.0
8.269857e-01 -9.651011e-02 0.0
8.203205e-01 -1.085264e-01 0.0
8.136485e-01 -1.160864e-01 0.0
8.071863e-01 -1.185118e-01 0.0
8.009135e-01 -1.155875e-01 0.0
7.946990e-01 -1.077313e-01 0.0
7.884298e-01 -9.573881e-02 0.0
7.821182e-01 -8.060488e-02 0.0
7.759840e-01 -6.340965e-02 0.0
7.704696e-01 -4.524420e-02 0.0
7.661627e-01 -2.717467e-02 0.0
7.636138e-01 -1.019640e-02 0.0
7.631405e-01 4.822401e-03 0.0
7.647778e-01 1.718789e-02 0.0
7.682811e-01 2.659144e-02 0.0
7.731491e-01 3.291021e-02 0.0
7.786725e-01 3.618215e-02 0.0
7.839878e-01 3.662789e-02 0.0
7.883268e-01 3.454360e-02 0.0
7.911726e-01 3.014633e-02 0.0
7.923870e-01 2.376425e-02 0.0
7.942924e-01 1.323515e-02 0.0
0.000000e+00 1.316545e-02 0.0
1.000000e+00 -8.027741e-02 0.0
9.801018e-01 -8.127151e-02 0.0
9.545795e-01 -8.713027e-02 0.0
9.157849e-01 -9.867090e-02 0.0
8.497866e-01 -1.150774e-01 0.0
7.271227e-01 -1.311520e-01 0.0
4.718638e-01 -1.241102e-01 0.0
-1.026841e-02 -2.609155e-02 0.0
5.299282e-05 0.000000e+00 0.0
0.000000e+00 -0.000000e+00 0.0
0.000000e+00 -6.190390e-02 0.0
-1.361585e-01 6.720607e-02 0.0
-1.132410e-01 -9.592791e-02 0.0
-8.628771e-02 -5.563523e-02 0.0
-8.312980e-02 2.918619e-02 0.0
-8.759192e-02 9.414448e-02 0.0
-1.004894e-01 1.550573e-01 0.0
-1.199775e-01 2.074847e-01 0.0
-1.430594e-01 2.480520e-01 0.0