# vtk DataFile Version 3.0
Vector Field
ASCII
DATASET RECTILINEAR_GRID
DIMENSIONS 102 22 1
X_COORDINATES 102 double
0.000000 0.100000 0.200000 0.300000 0.400000 0.500000 0.600000 0.700000 0.800000 0.900000 1.000000 1.100000 1.200000 1.300000 1.400000 1.500000 1.600000 1.700000 1.800000 1.900000 2.000000 2.100000 2.200000 2.300000 2.400000 2.500000 2.600000 2.700000 2.800000 2.900000 3.000000 3.100000 3.200000 3.300000 3.400000 3.500000 3.600000 3.700000 3.800000 3.900000 4.000000 4.100000 4.200000 4.300000 4.400000 4.500000 4.600000 4.700000 4.800000 4.900000 5.000000 5.100000 5.200000 5.300000 5.400000 5.500000 5.600000 5.700000 5.800000 5.900000 6.000000 6.100000 6.200000 6.300000 6.400000 6.500000 6.600000 6.700000 6.800000 6.900000 7.000000 7.100000 7.200000 7.300000 7.400000 7.500000 7.600000 7.700000 7.800000 7.900000 8.000000 8.100000 8.200000 8.300000 8.400000 8.500000 8.600000 8.700000 8.800000 8.900000 9.000000 9.100000 9.200000 9.300000 9.400000 9.500000 9.600000 9.700000 9.800000 9.900000 10.000000 10.100000 
Y_COORDINATES 22 double
0.000000 0.100000 0.200000 0.300000 0.400000 0.500000 0.600000 0.700000 0.800000 0.900000 1.000000 1.100000 1.200000 1.300000 1.400000 1.500000 1.600000 1.700000 1.800000 1.900000 2.000000 2.100000 
Z_COORDINATES 1 double
0.0
POINT_DATA 2244
VECTORS Velocity double
0.000000e+00 0.000000e+00 0.0
-1.027484e+00 0.000000e+00 0.0
-1.057933e+00 0.000000e+00 0.0
-1.094295e+00 0.000000e+00 0.0
-1.139236e+00 0.000000e+00 0.0
-1.194755e+00 0.000000e+00 0.0
-1.260266e+00 0.000000e+00 0.0
-1.335001e+00 0.000000e+00 0.0
-1.402302e+00 0.000000e+00 0.0
-1.451844e+00 0.000000e+00 0.0
-1.482556e+00 0.000000e+00 0.0
-1.497766e+00 0.000000e+00 0.0
-1.501673e+00 0.000000e+00 0.0
-1.497882e+00 0.000000e+00 0.0
-1.489051e+00 0.000000e+00 0.0
-1.477154e+00 0.000000e+00 0.0
-1.463846e+00 0.000000e+00 0.0
-1.450908e+00 0.000000e+00 0.0
-1.440808e+00 0.000000e+00 0.0
-1.437021e+00 0.000000e+00 0.0
-1.443259e+00 0.000000e+00 0.0
-1.461417e+00 0.000000e+00 0.0
-1.489456e+00 0.000000e+00 0.0
-1.521519e+00 0.000000e+00 0.0
-1.550816e+00 0.000000e+00 0.0
-1.572613e+00 0.000000e+00 0.0
-1.585242e+00 0.000000e+00 0.0
-1.589270e+00 0.000000e+00 0.0
-1.585794e+00 0.000000e+00 0.0
-1.575182e+00 0.000000e+00 0.0
-1.557180e+00 0.000000e+00 0.0
-1.531283e+00 0.000000e+00 0.0
-1.497013e+00 0.000000e+00 0.0
-1.454126e+00 0.000000e+00 0.0
-1.402739e+00 0.000000e+00 0.0
-1.343326e+00 0.000000e+00 0.0
-1.276649e+00 0.000000e+00 0.0
-1.203753e+00 0.000000e+00 0.0
-1.126252e+00 0.000000e+00 0.0
-1.046922e+00 0.000000e+00 0.0
-9.698171e-01 0.000000e+00 0.0
-9.002027e-01 0.000000e+00 0.0
-8.439030e-01 0.000000e+00 0.0
-8.059684e-01 0.000000e+00 0.0
-7.892568e-01 0.000000e+00 0.0
-7.936982e-01 0.000000e+00 0.0
-8.174576e-01 0.000000e+00 0.0
-8.586954e-01 0.000000e+00 0.0
-9.158825e-01 0.000000e+00 0.0
-9.875006e-01 0.000000e+00 0.0
-1.071357e+00 0.000000e+00 0.0
-1.163961e+00 0.000000e+00 0.0
-1.260099e+00 0.000000e+00 0.0
-1.353946e+00 0.000000e+00 0.0
-1.439729e+00 0.000000e+00 0.0
-1.512048e+00 0.000000e+00 0.0
-1.566575e+00 0.000000e+00 0.0
-1.600885e+00 0.000000e+00 0.0
-1.615153e+00 0.000000e+00 0.0
-1.611824e+00 0.000000e+00 0.0
-1.592797e+00 0.000000e+00 0.0
-1.558703e+00 0.000000e+00 0.0
-1.510078e+00 0.000000e+00 0.0
-1.448241e+00 0.000000e+00 0.0
-1.376165e+00 0.000000e+00 0.0
-1.298803e+00 0.000000e+00 0.0
-1.222041e+00 0.000000e+00 0.0
-1.150820e+00 0.000000e+00 0.0
-1.088370e+00 0.000000e+00 0.0
-1.036134e+00 0.000000e+00 0.0
-9.941362e-01 0.000000e+00 0.0
-9.614713e-01 0.000000e+00 0.0
-9.367499e-01 0.000000e+00 0.0
-9.184571e-01 0.000000e+00 0.0
-9.051786e-01 0.000000e+00 0.0
-8.957054e-01 0.000000e+00 0.0
-8.890596e-01 0.000000e+00 0.0
-8.844776e-01 0.000000e+00 0.0
-8.813776e-01 0.000000e+00 0.0
-8.793235e-01 0.000000e+00 0.0
-8.779938e-01 0.000000e+00 0.0
-8.771549e-01 0.000000e+00 0.0
-8.766395e-01 0.000000e+00 0.0
-8.763306e-01 0.000000e+00 0.0
-8.761479e-01 0.000000e+00 0.0
-8.760386e-01 0.000000e+00 0.0
-8.759688e-01 0.000000e+00 0.0
-8.759173e-01 0.000000e+00 0.0
-8.758710e-01 0.000000e+00 0.0
-8.758213e-01 0.000000e+00 0.0
-8.757619e-01 0.000000e+00 0.0
-8.756879e-01 0.000000e+00 0.0
-8.755958e-01 0.000000e+00 0.0
-8.754831e-01 0.000000e+00 0.0
-8.753501e-01 0.000000e+00 0.0
-8.752026e-01 0.000000e+00 0.0
-8.750574e-01 0.000000e+00 0.0
-8.749497e-01 0.000000e+00 0.0
-8.749501e-01 0.000000e+00 0.0
-8.752087e-01 0.000000e+00 0.0
-8.752087e-01 0.000000e+00 0.0
0.000000e+00 0.000000e+00 0.0
1.000000e+00 -2.742306e-02 0.0
1.027680e+00 -2.759653e-02 0.0
1.058322e+00 -3.059477e-02 0.0
1.094897e+00 -3.652711e-02 0.0
1.140077e+00 -4.513176e-02 0.0
1.195864e+00 -5.573959e-02 0.0
1.261669e+00 -6.575684e-02 0.0
1.336735e+00 -7.501855e-02 0.0
1.404330e+00 -6.754678e-02 0.0
1.454065e+00 -4.968731e-02 0.0
1.484844e+00 -3.073086e-02 0.0
1.499984e+00 -1.509265e-02 0.0
1.503686e+00 -3.653934e-03 0.0
1.499550e+00 4.183330e-03 0.0
1.490221e+00 9.377752e-03 0.0
1.477635e+00 1.263333e-02 0.0
1.463365e+00 1.431747e-02 0.0
1.449033e+00 1.438033e-02 0.0
1.436856e+00 1.222469e-02 0.0
1.430120e+00 6.783816e-03 0.0
1.432762e+00 -2.594222e-03 0.0
1.447527e+00 -1.471682e-02 0.0
1.473624e+00 -2.604937e-02 0.0
1.506009e+00 -3.233706e-02 0.0
1.537676e+00 -3.161922e-02 0.0
1.562971e+00 -2.524659e-02 0.0
1.579215e+00 -1.619656e-02 0.0
1.586353e+00 -7.090364e-03 0.0
1.585450e+00 9.513389e-04 0.0
1.577123e+00 8.374528e-03 0.0
1.561269e+00 1.590168e-02 0.0
1.537446e+00 2.387128e-02 0.0
1.505186e+00 3.230819e-02 0.0
1.464207e+00 4.102630e-02 0.0
1.414568e+00 4.968738e-02 0.0
1.356691e+00 5.792399e-02 0.0
1.291305e+00 6.543424e-02 0.0
1.219403e+00 7.195004e-02 0.0
1.142464e+00 7.698714e-02 0.0
1.063025e+00 7.948708e-02 0.0
9.849101e-01 7.816236e-02 0.0
9.131649e-01 7.179303e-02 0.0
8.535564e-01 5.965645e-02 0.0
8.113497e-01 4.225456e-02 0.0
7.898732e-01 2.152446e-02 0.0
7.896201e-01 3.010347e-04 0.0
8.088810e-01 -1.921304e-02 0.0
8.457820e-01 -3.685303e-02 0.0
8.987369e-01 -5.290702e-02 0.0
9.663461e-01 -6.756126e-02 0.0
1.046644e+00 -8.025013e-02 0.0
1.136630e+00 -8.993829e-02 0.0
1.231581e+00 -9.490290e-02 0.0
1.325823e+00 -9.419411e-02 0.0
1.413693e+00 -8.782150e-02 0.0
1.489755e+00 -7.601427e-02 0.0
1.549402e+00 -5.959950e-02 0.0
1.589636e+00 -4.018576e-02 0.0
1.609819e+00 -2.013538e-02 0.0
1.611809e+00 -1.941650e-03 0.0
1.597920e+00 1.393699e-02 0.0
1.568944e+00 2.902339e-02 0.0
1.525283e+00 4.370963e-02 0.0
1.467825e+00 5.750527e-02 0.0
1.398865e+00 6.900814e-02 0.0
1.322717e+00 7.619656e-02 0.0
1.245187e+00 7.757743e-02 0.0
1.171716e+00 7.351876e-02 0.0
1.106160e+00 6.560477e-02 0.0
1.050547e+00 5.566053e-02 0.0
1.005315e+00 4.527990e-02 0.0
9.698124e-01 3.555078e-02 0.0
9.427539e-01 2.710643e-02 0.0
9.226239e-01 2.017804e-02 0.0
9.079492e-01 1.472268e-02 0.0
8.974418e-01 1.055536e-02 0.0
8.900456e-01 7.444235e-03 0.0
8.849291e-01 5.164479e-03 0.0
8.814555e-01 3.521623e-03 0.0
8.791461e-01 2.357392e-03 0.0
8.776467e-01 1.547329e-03 0.0
8.766991e-01 9.955779e-04 0.0
8.761178e-01 6.293397e-04 0.0
8.757719e-01 3.939096e-04 0.0
8.755713e-01 2.485866e-04 0.0
8.754558e-01 1.635294e-04 0.0
8.753863e-01 1.174677e-04 0.0
8.753384e-01 9.595654e-05 0.0
8.752966e-01 8.974318e-05 0.0
8.752512e-01 9.341493e-05 0.0
8.751952e-01 1.040641e-04 0.0
8.751233e-01 1.198471e-04 0.0
8.750319e-01 1.394254e-04 0.0
8.749187e-01 1.612122e-04 0.0
8.747843e-01 1.824145e-04 0.0
8.746348e-01 1.975697e-04 0.0
8.744875e-01 1.952748e-04 0.0
8.743784e-01 1.571417e-04 0.0
8.743790e-01 4.734263e-05 0.0
8.746418e-01 -2.147477e-04 0.0
8.752087e-01 -5.188624e-04 0.0
0.000000e+00 -5.279850e-04 0.0
1.000000e+00 -5.526953e-02 0.0
1.028080e+00 -5.562915e-02 0.0
1.059140e+00 -6.164227e-02 0.0
1.096296e+00 -7.367020e-02 0.0
1.142571e+00 -9.139477e-02 0.0
1.200697e+00 -1.138530e-01 0.0
1.270322e+00 -1.353686e-01 0.0
1.355533e+00 -1.602173e-01 0.0
1.428946e+00 -1.409477e-01 0.0
1.479851e+00 -1.005790e-01 0.0
1.510031e+00 -6.089847e-02 0.0
1.524581e+00 -2.963060e-02 0.0
1.528327e+00 -7.387842e-03 0.0
1.524891e+00 7.632294e-03 0.0
1.516753e+00 1.752779e-02 0.0
1.505708e+00 2.369121e-02 0.0
1.493122e+00 2.691637e-02 0.0
1.480214e+00 2.730079e-02 0.0
1.468574e+00 2.387716e-02 0.0
1.460730e+00 1.463984e-02 0.0
1.460307e+00 -2.158334e-03 0.0
1.470819e+00 -2.521706e-02 0.0
1.493244e+00 -4.846179e-02 0.0
1.524179e+00 -6.325946e-02 0.0
1.557130e+00 -6.455778e-02 0.0
1.586001e+00 -5.410446e-02 0.0
1.606975e+00 -3.715866e-02 0.0
1.618805e+00 -1.890803e-02 0.0
1.622030e+00 -2.260507e-03 0.0
1.617619e+00 1.279799e-02 0.0
1.605689e+00 2.784416e-02 0.0
1.585887e+00 4.368577e-02 0.0
1.557819e+00 6.038829e-02 0.0
1.521252e+00 7.760539e-02 0.0
1.476301e+00 9.465119e-02 0.0
1.423495e+00 1.107431e-01 0.0
1.363712e+00 1.252292e-01 0.0
1.298194e+00 1.374808e-01 0.0
1.228509e+00 1.466843e-01 0.0
1.156537e+00 1.514718e-01 0.0
1.084967e+00 1.497444e-01 0.0
1.017478e+00 1.392947e-01 0.0
9.583204e-01 1.188267e-01 0.0
9.116015e-01 8.898596e-02 0.0
8.803447e-01 5.279368e-02 0.0
8.657479e-01 1.491035e-02 0.0
8.667978e-01 -2.025039e-02 0.0
8.815882e-01 -5.163094e-02 0.0
9.088616e-01 -8.016797e-02 0.0
9.482732e-01 -1.069603e-01 0.0
9.996291e-01 -1.315936e-01 0.0
1.061557e+00 -1.518541e-01 0.0
1.131286e+00 -1.646189e-01 0.0
1.204399e+00 -1.672944e-01 0.0
1.276073e+00 -1.594835e-01 0.0
1.341543e+00 -1.414715e-01 0.0
1.396575e+00 -1.146192e-01 0.0
1.438013e+00 -8.161072e-02 0.0
1.464102e+00 -4.621195e-02 0.0
1.474479e+00 -1.230602e-02 0.0
1.470570e+00 1.785810e-02 0.0
1.454209e+00 4.539679e-02 0.0
1.427409e+00 7.052201e-02 0.0
1.392681e+00 9.224617e-02 0.0
1.352903e+00 1.087985e-01 0.0
1.310773e+00 1.183394e-01 0.0
1.268581e+00 1.197812e-01 0.0
1.228472e+00 1.136408e-01 0.0
1.191964e+00 1.021248e-01 0.0
1.159724e+00 8.791292e-02 0.0
1.131793e+00 7.322351e-02 0.0
1.108069e+00 5.928805e-02 0.0
1.088289e+00 4.689897e-02 0.0
1.072071e+00 3.640778e-02 0.0
1.058965e+00 2.784205e-02 0.0
1.048490e+00 2.104196e-02 0.0
1.040184e+00 1.576366e-02 0.0
1.033617e+00 1.174386e-02 0.0
1.028417e+00 8.734261e-03 0.0
1.024270e+00 6.516818e-03 0.0
1.020921e+00 4.908025e-03 0.0
1.018172e+00 3.757849e-03 0.0
1.015867e+00 2.946301e-03 0.0
1.013895e+00 2.379226e-03 0.0
1.012171e+00 1.984164e-03 0.0
1.010641e+00 1.706782e-03 0.0
1.009263e+00 1.507864e-03 0.0
1.008011e+00 1.360482e-03 0.0
1.006866e+00 1.247177e-03 0.0
1.005815e+00 1.157054e-03 0.0
1.004848e+00 1.083556e-03 0.0
1.003957e+00 1.023219e-03 0.0
1.003135e+00 9.738420e-04 0.0
1.002376e+00 9.328844e-04 0.0
1.001675e+00 8.957025e-04 0.0
1.001032e+00 8.533974e-04 0.0
1.000449e+00 7.907296e-04 0.0
9.999410e-01 6.776794e-04 0.0
9.995351e-01 4.656986e-04 0.0
9.992428e-01 9.011069e-05 0.0
9.992907e-01 -5.542704e-04 0.0
0.000000e+00 -5.701721e-04 0.0
1.000000e+00 -7.986853e-02 0.0
1.024824e+00 -8.040547e-02 0.0
1.052750e+00 -8.955576e-02 0.0
1.087209e+00 -1.081166e-01 0.0
1.132035e+00 -1.362083e-01 0.0
1.191646e+00 -1.734518e-01 0.0
1.266967e+00 -2.106767e-01 0.0
1.373647e+00 -2.668852e-01 0.0
1.454688e+00 -2.219765e-01 0.0
1.502820e+00 -1.486984e-01 0.0
1.527492e+00 -8.555738e-02 0.0
1.537165e+00 -3.929120e-02 0.0
1.537526e+00 -7.736883e-03 0.0
1.531960e+00 1.321058e-02 0.0
1.522508e+00 2.699256e-02 0.0
1.510650e+00 3.556157e-02 0.0
1.497527e+00 4.005164e-02 0.0
1.483949e+00 4.089192e-02 0.0
1.470520e+00 3.731878e-02 0.0
1.458048e+00 2.712449e-02 0.0
1.448655e+00 7.247085e-03 0.0
1.446498e+00 -2.304811e-02 0.0
1.455765e+00 -5.771613e-02 0.0
1.477412e+00 -8.489362e-02 0.0
1.507056e+00 -9.419011e-02 0.0
1.538144e+00 -8.517970e-02 0.0
1.565198e+00 -6.419953e-02 0.0
1.584536e+00 -3.823416e-02 0.0
1.594464e+00 -1.217621e-02 0.0
1.595725e+00 1.154937e-02 0.0
1.589186e+00 3.439641e-02 0.0
1.574735e+00 5.814850e-02 0.0
1.552121e+00 8.301538e-02 0.0
1.521197e+00 1.085422e-01 0.0
1.482050e+00 1.338104e-01 0.0
1.435119e+00 1.576862e-01 0.0
1.381297e+00 1.790642e-01 0.0
1.321835e+00 1.969554e-01 0.0
1.258229e+00 2.103024e-01 0.0
1.192265e+00 2.174479e-01 0.0
1.126351e+00 2.156712e-01 0.0
1.063597e+00 2.020618e-01 0.0
1.007288e+00 1.751482e-01 0.0
9.600740e-01 1.362120e-01 0.0
9.233919e-01 8.948832e-02 0.0
8.977148e-01 4.059996e-02 0.0
8.832130e-01 -5.736133e-03 0.0
8.791742e-01 -4.757966e-02 0.0
8.858649e-01 -8.684612e-02 0.0
9.038223e-01 -1.249052e-01 0.0
9.328493e-01 -1.606081e-01 0.0
9.719026e-01 -1.908950e-01 0.0
1.019124e+00 -2.118276e-01 0.0
1.071605e+00 -2.197626e-01 0.0
1.125373e+00 -2.132392e-01 0.0
1.176627e+00 -1.927128e-01 0.0
1.221956e+00 -1.599362e-01 0.0
1.258621e+00 -1.182627e-01 0.0
1.284708e+00 -7.228664e-02 0.0
1.299265e+00 -2.685064e-02 0.0
1.302937e+00 1.419836e-02 0.0
1.297898e+00 5.044849e-02 0.0
1.286516e+00 8.191639e-02 0.0
1.271227e+00 1.075475e-01 0.0
1.254157e+00 1.258812e-01 0.0
1.236727e+00 1.357820e-01 0.0
1.219523e+00 1.369981e-01 0.0
1.202590e+00 1.305857e-01 0.0
1.185912e+00 1.188154e-01 0.0
1.169620e+00 1.042177e-01 0.0
1.154002e+00 8.885435e-02 0.0
1.139200e+00 7.410193e-02 0.0
1.125311e+00 6.080133e-02 0.0
1.112391e+00 4.933947e-02 0.0
1.100464e+00 3.978162e-02 0.0
1.089517e+00 3.200187e-02 0.0
1.079511e+00 2.578162e-02 0.0
1.070395e+00 2.087279e-02 0.0
1.062108e+00 1.703366e-02 0.0
1.054591e+00 1.404644e-02 0.0
1.047788e+00 1.172411e-02 0.0
1.041647e+00 9.911286e-03 0.0
1.036123e+00 8.482431e-03 0.0
1.031176e+00 7.338733e-03 0.0
1.026768e+00 6.404621e-03 0.0
1.022863e+00 5.624299e-03 0.0
1.019425e+00 4.958429e-03 0.0
1.016417e+00 4.380694e-03 0.0
1.013803e+00 3.874286e-03 0.0
1.011544e+00 3.428756e-03 0.0
1.009602e+00 3.037679e-03 0.0
1.007941e+00 2.697157e-03 0.0
1.006523e+00 2.404043e-03 0.0
1.005314e+00 2.154129e-03 0.0
1.004282e+00 1.940079e-03 0.0
1.003399e+00 1.749037e-03 0.0
1.002644e+00 1.558775e-03 0.0
1.002003e+00 1.330671e-03 0.0
1.001481e+00 1.000712e-03 0.0
1.001082e+00 5.016273e-04 0.0
1.001109e+00 -5.685559e-04 0.0
0.000000e+00 -5.951557e-04 0.0
1.000000e+00 -9.948301e-02 0.0
1.019826e+00 -1.001832e-01 0.0
1.042720e+00 -1.124377e-01 0.0
1.072413e+00 -1.377970e-01 0.0
1.113951e+00 -1.777345e-01 0.0
1.174605e+00 -2.340926e-01 0.0
1.259713e+00 -2.957721e-01 0.0
1.403265e+00 -4.104253e-01 0.0
1.485857e+00 -3.045561e-01 0.0
1.521568e+00 -1.843965e-01 0.0
1.534526e+00 -9.850301e-02 0.0
1.536131e+00 -4.088442e-02 0.0
1.531709e+00 -3.301625e-03 0.0
1.523110e+00 2.182183e-02 0.0
1.511504e+00 3.861090e-02 0.0
1.497884e+00 4.919457e-02 0.0
1.483144e+00 5.480379e-02 0.0
1.467763e+00 5.628502e-02 0.0
1.451460e+00 5.363436e-02 0.0
1.432971e+00 4.562603e-02 0.0
1.410951e+00 2.927989e-02 0.0
1.387164e+00 7.516129e-04 0.0
1.369142e+00 -3.968251e-02 0.0
1.365191e+00 -8.092947e-02 0.0
1.378086e+00 -1.070725e-01 0.0
1.403295e+00 -1.103762e-01 0.0
1.435193e+00 -9.608512e-02 0.0
1.468090e+00 -7.111881e-02 0.0
1.495197e+00 -3.927074e-02 0.0
1.510899e+00 -4.140781e-03 0.0
1.516175e+00 2.913315e-02 0.0
1.512367e+00 6.196942e-02 0.0
1.499828e+00 9.556669e-02 0.0
1.478586e+00 1.297970e-01 0.0
1.448700e+00 1.637089e-01 0.0
1.410560e+00 1.958388e-01 0.0
1.365026e+00 2.246106e-01 0.0
1.313369e+00 2.486244e-01 0.0
1.257105e+00 2.665794e-01 0.0
1.197878e+00 2.766868e-01 0.0
1.137835e+00 2.757271e-01 0.0
1.079941e+00 2.599679e-01 0.0
1.027060e+00 2.280420e-01 0.0
9.808012e-01 1.824833e-01 0.0
9.411868e-01 1.291153e-01 0.0
9.078641e-01 7.393512e-02 0.0
8.819000e-01 2.024046e-02 0.0
8.653772e-01 -3.104435e-02 0.0
8.591599e-01 -8.061629e-02 0.0
8.633118e-01 -1.290447e-01 0.0
8.772469e-01 -1.745307e-01 0.0
8.998214e-01 -2.134569e-01 0.0
9.294024e-01 -2.413961e-01 0.0
9.639374e-01 -2.542850e-01 0.0
1.000651e+00 -2.499406e-01 0.0
1.036823e+00 -2.288721e-01 0.0
1.070126e+00 -1.932269e-01 0.0
1.098668e+00 -1.467917e-01 0.0
1.120992e+00 -9.459825e-02 0.0
1.136228e+00 -4.207466e-02 0.0
1.144494e+00 5.945692e-03 0.0
1.147710e+00 4.724461e-02 0.0
1.147877e+00 8.176200e-02 0.0
1.146741e+00 1.086963e-01 0.0
1.145466e+00 1.271680e-01 0.0
1.144436e+00 1.368246e-01 0.0
1.143243e+00 1.382040e-01 0.0
1.141170e+00 1.326712e-01 0.0
1.137725e+00 1.222725e-01 0.0
1.132781e+00 1.091745e-01 0.0
1.126461e+00 9.518695e-02 0.0
1.118982e+00 8.159349e-02 0.0
1.110616e+00 6.917979e-02 0.0
1.101648e+00 5.831948e-02 0.0
1.092347e+00 4.909519e-02 0.0
1.082948e+00 4.141320e-02 0.0
1.073652e+00 3.509098e-02 0.0
1.064622e+00 2.991491e-02 0.0
1.055994e+00 2.567442e-02 0.0
1.047873e+00 2.217982e-02 0.0
1.040340e+00 1.926983e-02 0.0
1.033451e+00 1.681283e-02 0.0
1.027240e+00 1.470526e-02 0.0
1.021723e+00 1.286871e-02 0.0
1.016894e+00 1.124631e-02 0.0
1.012732e+00 9.798667e-03 0.0
1.009203e+00 8.500187e-03 0.0
1.006260e+00 7.335616e-03 0.0
1.003851e+00 6.296250e-03 0.0
1.001915e+00 5.376573e-03 0.0
1.000394e+00 4.572010e-03 0.0
9.992248e-01 3.878556e-03 0.0
9.983497e-01 3.291646e-03 0.0
9.977119e-01 2.804434e-03 0.0
9.972592e-01 2.405311e-03 0.0
9.969441e-01 2.076644e-03 0.0
9.967247e-01 1.790717e-03 0.0
9.965658e-01 1.502135e-03 0.0
9.964455e-01 1.133473e-03 0.0
9.963618e-01 5.978809e-04 0.0
9.965511e-01 -7.452870e-04 0.0
0.000000e+00 -7.802679e-04 0.0
1.000000e+00 -1.123169e-01 0.0
1.013025e+00 -1.131600e-01 0.0
1.028619e+00 -1.280196e-01 0.0
1.050398e+00 -1.595635e-01 0.0
1.084514e+00 -2.118384e-01 0.0
1.141899e+00 -2.914650e-01 0.0
1.237873e+00 -3.917335e-01 0.0
1.427874e+00 -6.004138e-01 0.0
1.486673e+00 -3.633420e-01 0.0
1.494308e+00 -1.920197e-01 0.0
1.489073e+00 -9.325460e-02 0.0
1.480739e+00 -3.253796e-02 0.0
1.470916e+00 6.533216e-03 0.0
1.458944e+00 3.380672e-02 0.0
1.444694e+00 5.287299e-02 0.0
1.428367e+00 6.553393e-02 0.0
1.410449e+00 7.273419e-02 0.0
1.391286e+00 7.546103e-02 0.0
1.370151e+00 7.478194e-02 0.0
1.344638e+00 7.115148e-02 0.0
1.310544e+00 6.338587e-02 0.0
1.263681e+00 4.762768e-02 0.0
1.205748e+00 1.826267e-02 0.0
1.150376e+00 -2.554490e-02 0.0
1.116529e+00 -7.321325e-02 0.0
1.112004e+00 -1.058390e-01 0.0
1.134062e+00 -1.181299e-01 0.0
1.179578e+00 -1.166226e-01 0.0
1.239117e+00 -9.879733e-02 0.0
1.297324e+00 -6.233536e-02 0.0
1.337604e+00 -1.113454e-02 0.0
1.359040e+00 4.054640e-02 0.0
1.367595e+00 8.702402e-02 0.0
1.365368e+00 1.320360e-01 0.0
1.352960e+00 1.761298e-01 0.0
1.330804e+00 2.180076e-01 0.0
1.299741e+00 2.556859e-01 0.0
1.261091e+00 2.872867e-01 0.0
1.216493e+00 3.111899e-01 0.0
1.167737e+00 3.254555e-01 0.0
1.116821e+00 3.266553e-01 0.0
1.066321e+00 3.104808e-01 0.0
1.018306e+00 2.760696e-01 0.0
9.734522e-01 2.273492e-01 0.0
9.316975e-01 1.708825e-01 0.0
8.938922e-01 1.117529e-01 0.0
8.623830e-01 5.176222e-02 0.0
8.400628e-01 -8.711613e-03 0.0
8.277770e-01 -6.831805e-02 0.0
8.244734e-01 -1.257285e-01 0.0
8.287426e-01 -1.787874e-01 0.0
8.394342e-01 -2.241360e-01 0.0
8.554864e-01 -2.574358e-01 0.0
8.756323e-01 -2.744185e-01 0.0
8.981003e-01 -2.723961e-01 0.0
9.210660e-01 -2.518252e-01 0.0
9.431470e-01 -2.152955e-01 0.0
9.633598e-01 -1.669920e-01 0.0
9.809701e-01 -1.121960e-01 0.0
9.954792e-01 -5.657125e-02 0.0
1.006730e+00 -5.292743e-03 0.0
1.015777e+00 3.821012e-02 0.0
1.023933e+00 7.361838e-02 0.0
1.032145e+00 1.004968e-01 0.0
1.040782e+00 1.185442e-01 0.0
1.049576e+00 1.280433e-01 0.0
1.057727e+00 1.300656e-01 0.0
1.064346e+00 1.260640e-01 0.0
1.068838e+00 1.177934e-01 0.0
1.070960e+00 1.070648e-01 0.0
1.070753e+00 9.540636e-02 0.0
1.068440e+00 8.391951e-02 0.0
1.064351e+00 7.328141e-02 0.0
1.058864e+00 6.381913e-02 0.0
1.052360e+00 5.561169e-02 0.0
1.045199e+00 4.858657e-02 0.0
1.037707e+00 4.259479e-02 0.0
1.030173e+00 3.746210e-02 0.0
1.022840e+00 3.302014e-02 0.0
1.015908e+00 2.912364e-02 0.0
1.009533e+00 2.565719e-02 0.0
1.003824e+00 2.253441e-02 0.0
9.988483e-01 1.969382e-02 0.0
9.946348e-01 1.709472e-02 0.0
9.911808e-01 1.471289e-02 0.0
9.884570e-01 1.253501e-02 0.0
9.864148e-01 1.055488e-02 0.0
9.849910e-01 8.771892e-03 0.0
9.841118e-01 7.188001e-03 0.0
9.836972e-01 5.803693e-03 0.0
9.836676e-01 4.614174e-03 0.0
9.839461e-01 3.612524e-03 0.0
9.844597e-01 2.790649e-03 0.0
9.851388e-01 2.137829e-03 0.0
9.859222e-01 1.634386e-03 0.0
9.867554e-01 1.255970e-03 0.0
9.875863e-01 9.723794e-04 0.0
9.883621e-01 7.388640e-04 0.0
9.890300e-01 4.781206e-04 0.0
9.895425e-01 9.789495e-05 0.0
9.900066e-01 -1.196927e-03 0.0
0.000000e+00 -1.234165e-03 0.0
1.000000e+00 -1.167879e-01 0.0
1.004635e+00 -1.177471e-01 0.0
1.010504e+00 -1.338759e-01 0.0
1.019976e+00 -1.690238e-01 0.0
1.038634e+00 -2.304830e-01 0.0
1.079277e+00 -3.320956e-01 0.0
1.170806e+00 -4.832510e-01 0.0
1.396891e+00 -8.264863e-01 0.0
1.384920e+00 -3.513579e-01 0.0
1.339729e+00 -1.468162e-01 0.0
1.309488e+00 -6.300170e-02 0.0
1.292539e+00 -1.557587e-02 0.0
1.278985e+00 2.009970e-02 0.0
1.264964e+00 4.783973e-02 0.0
1.248483e+00 6.936655e-02 0.0
1.228616e+00 8.541354e-02 0.0
1.205342e+00 9.602094e-02 0.0
1.179009e+00 1.018065e-01 0.0
1.148610e+00 1.051928e-01 0.0
1.110220e+00 1.095548e-01 0.0
1.056942e+00 1.166762e-01 0.0
9.809964e-01 1.235855e-01 0.0
8.827250e-01 1.165466e-01 0.0
7.723337e-01 8.485892e-02 0.0
6.688329e-01 3.030005e-02 0.0
6.031602e-01 -4.015381e-02 0.0
6.006840e-01 -1.156413e-01 0.0
6.625994e-01 -1.785254e-01 0.0
7.677786e-01 -2.039641e-01 0.0
8.903472e-01 -1.848914e-01 0.0
1.005599e+00 -1.263735e-01 0.0
1.091000e+00 -4.484214e-02 0.0
1.142732e+00 3.530432e-02 0.0
1.173219e+00 1.015615e-01 0.0
1.187938e+00 1.614229e-01 0.0
1.189231e+00 2.167270e-01 0.0
1.178747e+00 2.661829e-01 0.0
1.158240e+00 3.078058e-01 0.0
1.129708e+00 3.397343e-01 0.0
1.095337e+00 3.598390e-01 0.0
1.057057e+00 3.649477e-01 0.0
1.016480e+00 3.510706e-01 0.0
9.744027e-01 3.181595e-01 0.0
9.310565e-01 2.707079e-01 0.0
8.882683e-01 2.136831e-01 0.0
8.504433e-01 1.495904e-01 0.0
8.220052e-01 8.021281e-02 0.0
8.044084e-01 8.897706e-03 0.0
7.958912e-01 -5.978835e-02 0.0
7.930062e-01 -1.228310e-01 0.0
7.933706e-01 -1.791394e-01 0.0
7.962684e-01 -2.270212e-01 0.0
8.018219e-01 -2.629768e-01 0.0
8.100366e-01 -2.826207e-01 0.0
8.203368e-01 -2.826838e-01 0.0
8.318072e-01 -2.632831e-01 0.0
8.438405e-01 -2.273162e-01 0.0
8.561765e-01 -1.793156e-01 0.0
8.686987e-01 -1.247056e-01 0.0
8.812460e-01 -6.910599e-02 0.0
8.935263e-01 -1.756060e-02 0.0
9.056122e-01 2.613672e-02 0.0
9.180696e-01 6.117353e-02 0.0
9.311768e-01 8.740219e-02 0.0
9.447627e-01 1.049707e-01 0.0
9.582227e-01 1.145957e-01 0.0
9.706997e-01 1.176011e-01 0.0
9.813078e-01 1.154684e-01 0.0
9.894770e-01 1.096367e-01 0.0
9.949601e-01 1.015943e-01 0.0
9.977912e-01 9.258779e-02 0.0
9.982110e-01 8.351225e-02 0.0
9.965916e-01 7.491330e-02 0.0
9.933719e-01 6.705137e-02 0.0
9.890084e-01 5.998772e-02 0.0
9.839413e-01 5.366617e-02 0.0
9.785707e-01 4.797787e-02 0.0
9.732411e-01 4.280424e-02 0.0
9.682333e-01 3.804050e-02 0.0
9.637614e-01 3.360804e-02 0.0
9.599724e-01 2.945865e-02 0.0
9.569512e-01 2.556822e-02 0.0
9.547307e-01 2.192683e-02 0.0
9.533040e-01 1.853392e-02 0.0
9.526315e-01 1.539787e-02 0.0
9.526512e-01 1.252791e-02 0.0
9.532890e-01 9.929512e-03 0.0
9.544636e-01 7.609895e-03 0.0
9.560851e-01 5.579030e-03 0.0
9.580573e-01 3.843949e-03 0.0
9.602919e-01 2.392077e-03 0.0
9.627149e-01 1.202115e-03 0.0
9.652643e-01 2.537572e-04 0.0
9.678875e-01 -4.728082e-04 0.0
9.705257e-01 -9.913069e-04 0.0
9.731116e-01 -1.317442e-03 0.0
9.755706e-01 -1.474065e-03 0.0
9.778180e-01 -1.496057e-03 0.0
9.797529e-01 -1.444221e-03 0.0
9.812588e-01 -1.395515e-03 0.0
9.821163e-01 -2.041827e-03 0.0
0.000000e+00 -2.069930e-03 0.0
1.000000e+00 -1.120375e-01 0.0
9.953809e-01 -1.130801e-01 0.0
9.896794e-01 -1.281619e-01 0.0
9.822048e-01 -1.615368e-01 0.0
9.737353e-01 -2.220010e-01 0.0
9.698468e-01 -3.281946e-01 0.0
9.980314e-01 -5.114230e-01 0.0
1.162158e+00 -9.906003e-01 0.0
1.014193e+00 -2.034162e-01 0.0
8.866425e-01 -1.928839e-02 0.0
8.338389e-01 -1.018563e-02 0.0
8.112161e-01 7.059382e-03 0.0
7.999567e-01 3.137163e-02 0.0
7.897749e-01 5.803403e-02 0.0
7.738788e-01 8.527513e-02 0.0
7.463169e-01 1.129879e-01 0.0
7.030851e-01 1.392653e-01 0.0
6.425455e-01 1.623585e-01 0.0
5.668695e-01 1.808813e-01 0.0
4.829500e-01 1.934868e-01 0.0
3.965375e-01 2.031013e-01 0.0
3.104029e-01 2.097325e-01 0.0
2.212075e-01 2.057545e-01 0.0
1.366812e-01 1.693977e-01 0.0
7.793634e-02 8.905742e-02 0.0
6.506738e-02 -2.727236e-02 0.0
1.076660e-01 -1.582274e-01 0.0
2.020057e-01 -2.728526e-01 0.0
3.404501e-01 -3.423960e-01 0.0
4.990762e-01 -3.435051e-01 0.0
6.554410e-01 -2.827258e-01 0.0
7.910184e-01 -1.804070e-01 0.0
8.913984e-01 -6.506315e-02 0.0
9.554550e-01 3.751739e-02 0.0
9.963854e-01 1.205050e-01 0.0
1.019644e+00 1.934812e-01 0.0
1.028211e+00 2.576280e-01 0.0
1.024535e+00 3.114941e-01 0.0
1.011059e+00 3.532233e-01 0.0
9.902078e-01 3.807023e-01 0.0
9.633991e-01 3.917690e-01 0.0
9.300589e-01 3.844233e-01 0.0
8.901199e-01 3.581111e-01 0.0
8.467690e-01 3.140713e-01 0.0
8.077876e-01 2.526770e-01 0.0
7.811237e-01 1.762668e-01 0.0
7.690813e-01 9.226773e-02 0.0
7.679420e-01 1.004952e-02 0.0
7.716276e-01 -6.346145e-02 0.0
7.750027e-01 -1.261936e-01 0.0
7.755411e-01 -1.796652e-01 0.0
7.733359e-01 -2.248036e-01 0.0
7.701242e-01 -2.597527e-01 0.0
7.677132e-01 -2.801971e-01 0.0
7.670780e-01 -2.820361e-01 0.0
7.682954e-01 -2.644880e-01 0.0
7.713572e-01 -2.303655e-01 0.0
7.764053e-01 -1.843512e-01 0.0
7.835951e-01 -1.318829e-01 0.0
7.928909e-01 -7.838925e-02 0.0
8.039355e-01 -2.859267e-02 0.0
8.161347e-01 1.394999e-02 0.0
8.294255e-01 4.789524e-02 0.0
8.435818e-01 7.325842e-02 0.0
8.580809e-01 9.048418e-02 0.0
8.721606e-01 1.005285e-01 0.0
8.850071e-01 1.047671e-01 0.0
8.958409e-01 1.046471e-01 0.0
9.041907e-01 1.012994e-01 0.0
9.099144e-01 9.588310e-02 0.0
9.131487e-01 8.936602e-02 0.0
9.142382e-01 8.243528e-02 0.0
9.136531e-01 7.551091e-02 0.0
9.119118e-01 6.880520e-02 0.0
9.095169e-01 6.239514e-02 0.0
9.069113e-01 5.628424e-02 0.0
9.044525e-01 5.044920e-02 0.0
9.024033e-01 4.486599e-02 0.0
9.009423e-01 3.951403e-02 0.0
9.001816e-01 3.438124e-02 0.0
9.001756e-01 2.947717e-02 0.0
9.009287e-01 2.482759e-02 0.0
9.024130e-01 2.045509e-02 0.0
9.045857e-01 1.637370e-02 0.0
9.073858e-01 1.261037e-02 0.0
9.107370e-01 9.189156e-03 0.0
9.145694e-01 6.109689e-03 0.0
9.188212e-01 3.370652e-03 0.0
9.234279e-01 9.847822e-04 0.0
9.283330e-01 -1.048582e-03 0.0
9.334657e-01 -2.728158e-03 0.0
9.387362e-01 -4.055856e-03 0.0
9.440450e-01 -5.042521e-03 0.0
9.492891e-01 -5.704394e-03 0.0
9.543708e-01 -6.060427e-03 0.0
9.591991e-01 -6.133187e-03 0.0
9.636849e-01 -5.947425e-03 0.0
9.677288e-01 -5.527438e-03 0.0
9.711986e-01 -4.901455e-03 0.0
9.739320e-01 -4.116404e-03 0.0
9.752072e-01 -3.304462e-03 0.0
0.000000e+00 -3.307819e-03 0.0
1.000000e+00 -9.857890e-02 0.0
9.866369e-01 -9.966923e-02 0.0
9.694829e-01 -1.109954e-01 0.0
9.435810e-01 -1.356223e-01 0.0
9.005672e-01 -1.789748e-01 0.0
8.237924e-01 -2.514074e-01 0.0
6.892051e-01 -3.768233e-01 0.0
2.033455e-01 -5.047635e-01 0.0
-1.013991e+00 5.022326e-01 0.0
0.000000e+00 -5.262723e-02 0.0
-8.334989e-02 5.392371e-02 0.0
-8.294935e-03 -6.798310e-02 0.0
8.752827e-02 -6.443910e-02 0.0
1.602345e-01 -1.465975e-02 0.0
1.974364e-01 4.808571e-02 0.0
2.030798e-01 1.073570e-01 0.0
1.812025e-01 1.611551e-01 0.0
1.366920e-01 2.068814e-01 0.0
7.627317e-02 2.413126e-01 0.0
6.890625e-03 2.628818e-01 0.0
-6.132373e-02 2.713281e-01 0.0
-1.171333e-01 2.655546e-01 0.0
-1.506195e-01 2.392532e-01 0.0
-1.592995e-01 1.780901e-01 0.0
-1.379852e-01 6.775561e-02 0.0
-8.859318e-02 -7.665192e-02 0.0
-1.774892e-02 -2.290592e-01 0.0
6.615434e-02 -3.567434e-01 0.0
1.652121e-01 -4.414412e-01 0.0
2.896199e-01 -4.679005e-01 0.0
4.287216e-01 -4.218150e-01 0.0
5.648035e-01 -3.164764e-01 0.0
6.817548e-01 -1.820020e-01 0.0
7.673979e-01 -4.811323e-02 0.0
8.239574e-01 6.395804e-02 0.0
8.601266e-01 1.573245e-01 0.0
8.799441e-01 2.378230e-01 0.0
8.861786e-01 3.052721e-01 0.0
8.810638e-01 3.583506e-01 0.0
8.661694e-01 3.956093e-01 0.0
8.419134e-01 4.160374e-01 0.0
8.079884e-01 4.183608e-01 0.0
7.688769e-01 3.972350e-01 0.0
7.345414e-01 3.484193e-01 0.0
7.147621e-01 2.724688e-01 0.0
7.125690e-01 1.784724e-01 0.0
7.241885e-01 8.066074e-02 0.0
7.427992e-01 -8.548652e-03 0.0
7.611558e-01 -8.180558e-02 0.0
7.737346e-01 -1.387599e-01 0.0
7.777250e-01 -1.836431e-01 0.0
7.730819e-01 -2.201480e-01 0.0
7.623891e-01 -2.490473e-01 0.0
7.496327e-01 -2.674282e-01 0.0
7.379799e-01 -2.703708e-01 0.0
7.288870e-01 -2.553826e-01 0.0
7.229571e-01 -2.244231e-01 0.0
7.205530e-01 -1.819346e-01 0.0
7.218052e-01 -1.331226e-01 0.0
7.265382e-01 -8.310973e-02 0.0
7.342014e-01 -3.624343e-02 0.0
7.438884e-01 4.275515e-03 0.0
7.549744e-01 3.682176e-02 0.0
7.668817e-01 6.136370e-02 0.0
7.788742e-01 7.850411e-02 0.0
7.901633e-01 8.925196e-02 0.0
8.000921e-01 9.485088e-02 0.0
8.081842e-01 9.656753e-02 0.0
8.142211e-01 9.527503e-02 0.0
8.183269e-01 9.178974e-02 0.0
8.208603e-01 8.684518e-02 0.0
8.223050e-01 8.100311e-02 0.0
8.231661e-01 7.466232e-02 0.0
8.238945e-01 6.808927e-02 0.0
8.248437e-01 6.145848e-02 0.0
8.262638e-01 5.487665e-02 0.0
8.283119e-01 4.841359e-02 0.0
8.310604e-01 4.213008e-02 0.0
8.345295e-01 3.605745e-02 0.0
8.387323e-01 3.019091e-02 0.0
8.436702e-01 2.455178e-02 0.0
8.493093e-01 1.920105e-02 0.0
8.555926e-01 1.418428e-02 0.0
8.624893e-01 9.489557e-03 0.0
8.699530e-01 5.159170e-03 0.0
8.778868e-01 1.267832e-03 0.0
8.861582e-01 -2.149174e-03 0.0
8.946034e-01 -5.062022e-03 0.0
9.030765e-01 -7.475759e-03 0.0
9.114466e-01 -9.406199e-03 0.0
9.196045e-01 -1.087355e-02 0.0
9.274646e-01 -1.190339e-02 0.0
9.349589e-01 -1.252434e-02 0.0
9.420347e-01 -1.276759e-02 0.0
9.486475e-01 -1.266073e-02 0.0
9.547554e-01 -1.222856e-02 0.0
9.603096e-01 -1.148909e-02 0.0
9.652438e-01 -1.044918e-02 0.0
9.694467e-01 -9.091826e-03 0.0
9.727660e-01 -7.423113e-03 0.0
9.741930e-01 -4.718981e-03 0.0
0.000000e+00 -4.690345e-03 0.0
1.000000e+00 -7.858285e-02 0.0
9.800646e-01 -7.968603e-02 0.0
9.545443e-01 -8.546262e-02 0.0
9.157771e-01 -9.684272e-02 0.0
8.498572e-01 -1.130423e-01 0.0
7.272806e-01 -1.288183e-01 0.0
4.721914e-01 -1.217216e-01 0.0
-1.035836e-02 -2.223661e-02 0.0
2.607622e-05 0.000000e+00 0.0
0.000000e+00 -0.000000e+00 0.0
0.000000e+00 -5.015794e-02 0.0
-1.240873e-01 5.611669e-02 0.0
-1.036497e-01 -8.486421e-02 0.0
-8.036076e-02 -3.793623e-02 0.0
-8.187419e-02 4.961161e-02 0.0
-9.070889e-02 1.162042e-01 0.0
-1.069067e-01 1.773654e-01 0.0
-1.278738e-01 2.278609e-01 0.0
-1.505003e-01 2.639517e-01 0.0
-1.717571e-01 2.841511e-01 0.0
-1.886078e-01 2.881913e-01 0.0
-1.963719e-01 2.733311e-01 0.0