# vtk DataFile Version 3.0
Vector Field
ASCII
DATASET RECTILINEAR_GRID
DIMENSIONS 102 22 1
X_COORDINATES 102 double
0.000000 0.100000 0.200000 0.300000 0.400000 0.500000 0.600000 0.700000 0.800000 0.900000 1.000000 1.100000 1.200000 1.300000 1.400000 1.500000 1.600000 1.700000 1.800000 1.900000 2.000000 2.100000 2.200000 2.300000 2.400000 2.500000 2.600000 2.700000 2.800000 2.900000 3.000000 3.100000 3.200000 3.300000 3.400000 3.500000 3.600000 3.700000 3.800000 3.900000 4.000000 4.100000 4.200000 4.300000 4.400000 4.500000 4.600000 4.700000 4.800000 4.900000 5.000000 5.100000 5.200000 5.300000 5.400000 5.500000 5.600000 5.700000 5.800000 5.900000 6.000000 6.100000 6.200000 6.300000 6.400000 6.500000 6.600000 6.700000 6.800000 6.900000 7.000000 7.100000 7.200000 7.300000 7.400000 7.500000 7.600000 7.700000 7.800000 7.900000 8.000000 8.100000 8.200000 8.300000 8.400000 8.500000 8.600000 8.700000 8.800000 8.900000 9.000000 9.100000 9.200000 9.300000 9.400000 9.500000 9.600000 9.700000 9.800000 9.900000 10.000000 10.100000 
Y_COORDINATES 22 double
0.000000 0.100000 0.200000 0.300000 0.400000 0.500000 0.600000 0.700000 0.800000 0.900000 1.000000 1.100000 1.200000 1.300000 1.400000 1.500000 1.600000 1.700000 1.800000 1.900000 2.000000 2.100000 
Z_COORDINATES 1 double
0.0
POINT_DATA 2244
VECTORS Velocity double
0.000000e+00 0.000000e+00 0.0
-1.025765e+00 0.000000e+00 0.0
-1.054482e+00 0.000000e+00 0.0
-1.088987e+00 0.000000e+00 0.0
-1.131919e+00 0.000000e+00 0.0
-1.185287e+00 0.000000e+00 0.0
-1.248620e+00 0.000000e+00 0.0
-1.321228e+00 0.000000e+00 0.0
-1.387222e+00 0.000000e+00 0.0
-1.436811e+00 0.000000e+00 0.0
-1.469102e+00 0.000000e+00 0.0
-1.487367e+00 0.000000e+00 0.0
-1.495714e+00 0.000000e+00 0.0
-1.497766e+00 0.000000e+00 0.0
-1.496469e+00 0.000000e+00 0.0
-1.494379e+00 0.000000e+00 0.0
-1.494098e+00 0.000000e+00 0.0
-1.498510e+00 0.000000e+00 0.0
-1.510277e+00 0.000000e+00 0.0
-1.530283e+00 0.000000e+00 0.0
-1.556065e+00 0.000000e+00 0.0
-1.582300e+00 0.000000e+00 0.0
-1.603461e+00 0.000000e+00 0.0
-1.616298e+00 0.000000e+00 0.0
-1.620530e+00 0.000000e+00 0.0
-1.617570e+00 0.000000e+00 0.0
-1.608707e+00 0.000000e+00 0.0
-1.594584e+00 0.000000e+00 0.0
-1.575212e+00 0.000000e+00 0.0
-1.550148e+00 0.000000e+00 0.0
-1.518762e+00 0.000000e+00 0.0
-1.480474e+00 0.000000e+00 0.0
-1.434961e+00 0.000000e+00 0.0
-1.382264e+00 0.000000e+00 0.0
-1.322803e+00 0.000000e+00 0.0
-1.257330e+00 0.000000e+00 0.0
-1.186913e+00 0.000000e+00 0.0
-1.113196e+00 0.000000e+00 0.0
-1.038811e+00 0.000000e+00 0.0
-9.674625e-01 0.000000e+00 0.0
-9.040377e-01 0.000000e+00 0.0
-8.541172e-01 0.000000e+00 0.0
-8.228276e-01 0.000000e+00 0.0
-8.133873e-01 0.000000e+00 0.0
-8.262638e-01 0.000000e+00 0.0
-8.606351e-01 0.000000e+00 0.0
-9.151834e-01 0.000000e+00 0.0
-9.880391e-01 0.000000e+00 0.0
-1.076082e+00 0.000000e+00 0.0
-1.174123e+00 0.000000e+00 0.0
-1.275194e+00 0.000000e+00 0.0
-1.371448e+00 0.000000e+00 0.0
-1.454920e+00 0.000000e+00 0.0
-1.518562e+00 0.000000e+00 0.0
-1.557658e+00 0.000000e+00 0.0
-1.570900e+00 0.000000e+00 0.0
-1.558930e+00 0.000000e+00 0.0
-1.521547e+00 0.000000e+00 0.0
-1.458676e+00 0.000000e+00 0.0
-1.371925e+00 0.000000e+00 0.0
-1.267170e+00 0.000000e+00 0.0
-1.156059e+00 0.000000e+00 0.0
-1.052493e+00 0.000000e+00 0.0
-9.672628e-01 0.000000e+00 0.0
-9.061722e-01 0.000000e+00 0.0
-8.702418e-01 0.000000e+00 0.0
-8.568929e-01 0.000000e+00 0.0
-8.615206e-01 0.000000e+00 0.0
-8.792258e-01 0.000000e+00 0.0
-9.060692e-01 0.000000e+00 0.0
-9.390797e-01 0.000000e+00 0.0
-9.760036e-01 0.000000e+00 0.0
-1.015064e+00 0.000000e+00 0.0
-1.054806e+00 0.000000e+00 0.0
-1.093955e+00 0.000000e+00 0.0
-1.131373e+00 0.000000e+00 0.0
-1.166023e+00 0.000000e+00 0.0
-1.196974e+00 0.000000e+00 0.0
-1.223433e+00 0.000000e+00 0.0
-1.244794e+00 0.000000e+00 0.0
-1.260682e+00 0.000000e+00 0.0
-1.270975e+00 0.000000e+00 0.0
-1.275802e+00 0.000000e+00 0.0
-1.275316e+00 0.000000e+00 0.0
-1.269324e+00 0.000000e+00 0.0
-1.257480e+00 0.000000e+00 0.0
-1.239359e+00 0.000000e+00 0.0
-1.214536e+00 0.000000e+00 0.0
-1.182833e+00 0.000000e+00 0.0
-1.144790e+00 0.000000e+00 0.0
-1.102179e+00 0.000000e+00 0.0
-1.058060e+00 0.000000e+00 0.0
-1.016039e+00 0.000000e+00 0.0
-9.794010e-01 0.000000e+00 0.0
-9.504638e-01 0.000000e+00 0.0
-9.302945e-01 0.000000e+00 0.0
-9.187486e-01 0.000000e+00 0.0
-9.146794e-01 0.000000e+00 0.0
-9.160941e-01 0.000000e+00 0.0
-9.206585e-01 0.000000e+00 0.0
-9.206585e-01 0.000000e+00 0.0
0.000000e+00 0.000000e+00 0.0
1.000000e+00 -2.585034e-02 0.0
1.025968e+00 -2.603262e-02 0.0
1.054888e+00 -2.895661e-02 0.0
1.089610e+00 -3.475894e-02 0.0
1.132776e+00 -4.320256e-02 0.0
1.186392e+00 -5.365339e-02 0.0
1.249974e+00 -6.361885e-02 0.0
1.322818e+00 -7.288145e-02 0.0
1.388944e+00 -6.616204e-02 0.0
1.438497e+00 -4.959037e-02 0.0
1.470565e+00 -3.210517e-02 0.0
1.488425e+00 -1.789638e-02 0.0
1.496181e+00 -7.792972e-03 0.0
1.497440e+00 -1.296723e-03 0.0
1.495095e+00 2.308690e-03 0.0
1.491603e+00 3.454829e-03 0.0
1.489454e+00 2.111732e-03 0.0
1.491501e+00 -2.083285e-03 0.0
1.500643e+00 -9.179508e-03 0.0
1.518450e+00 -1.784389e-02 0.0
1.543338e+00 -2.492532e-02 0.0
1.570400e+00 -2.709892e-02 0.0
1.593753e+00 -2.338973e-02 0.0
1.609350e+00 -1.563426e-02 0.0
1.616173e+00 -6.859643e-03 0.0
1.615390e+00 7.459562e-04 0.0
1.608423e+00 6.930303e-03 0.0
1.596048e+00 1.233726e-02 0.0
1.578368e+00 1.764345e-02 0.0
1.554990e+00 2.334078e-02 0.0
1.525288e+00 2.966533e-02 0.0
1.488652e+00 3.659844e-02 0.0
1.444706e+00 4.390957e-02 0.0
1.393428e+00 5.124037e-02 0.0
1.335185e+00 5.820659e-02 0.0
1.270685e+00 6.446222e-02 0.0
1.200949e+00 6.969871e-02 0.0
1.127499e+00 7.341376e-02 0.0
1.052788e+00 7.467389e-02 0.0
9.803200e-01 7.243063e-02 0.0
9.147666e-01 6.551624e-02 0.0
8.616149e-01 5.311463e-02 0.0
8.261389e-01 3.543895e-02 0.0
8.119775e-01 1.412434e-02 0.0
8.200703e-01 -8.129902e-03 0.0
8.496824e-01 -2.964924e-02 0.0
8.995568e-01 -4.991148e-02 0.0
9.679536e-01 -6.843391e-02 0.0
1.052125e+00 -8.420822e-02 0.0
1.147406e+00 -9.531827e-02 0.0
1.247333e+00 -9.996474e-02 0.0
1.344384e+00 -9.708728e-02 0.0
1.430787e+00 -8.644094e-02 0.0
1.499369e+00 -6.861928e-02 0.0
1.544837e+00 -4.550514e-02 0.0
1.565007e+00 -2.020699e-02 0.0
1.560305e+00 4.664897e-03 0.0
1.530648e+00 2.962051e-02 0.0
1.475689e+00 5.492171e-02 0.0
1.396194e+00 7.945795e-02 0.0
1.296403e+00 9.975316e-02 0.0
1.186324e+00 1.100417e-01 0.0
1.079921e+00 1.063665e-01 0.0
9.892434e-01 9.064014e-02 0.0
9.215865e-01 6.761970e-02 0.0
8.792043e-01 4.234493e-02 0.0
8.603345e-01 1.883260e-02 0.0
8.607516e-01 -4.542786e-04 0.0
8.754273e-01 -1.471296e-02 0.0
9.001261e-01 -2.473604e-02 0.0
9.316311e-01 -3.154218e-02 0.0
9.675247e-01 -3.593080e-02 0.0
1.005928e+00 -3.844054e-02 0.0
1.045327e+00 -3.943598e-02 0.0
1.084418e+00 -3.912889e-02 0.0
1.122047e+00 -3.766617e-02 0.0
1.157165e+00 -3.515513e-02 0.0
1.188824e+00 -3.169569e-02 0.0
1.216203e+00 -2.741626e-02 0.0
1.238655e+00 -2.248924e-02 0.0
1.255749e+00 -1.713125e-02 0.0
1.267306e+00 -1.159433e-02 0.0
1.273402e+00 -6.133982e-03 0.0
1.274230e+00 -8.650930e-04 0.0
1.269681e+00 4.512019e-03 0.0
1.259439e+00 1.020448e-02 0.0
1.243106e+00 1.629595e-02 0.0
1.220253e+00 2.281606e-02 0.0
1.190609e+00 2.960649e-02 0.0
1.154474e+00 3.609786e-02 0.0
1.113244e+00 4.119270e-02 0.0
1.069638e+00 4.356859e-02 0.0
1.027149e+00 4.245121e-02 0.0
9.891730e-01 3.793900e-02 0.0
9.582961e-01 3.083965e-02 0.0
9.359126e-01 2.234619e-02 0.0
9.221798e-01 1.369554e-02 0.0
9.161861e-01 5.956377e-03 0.0
9.161093e-01 3.955316e-05 0.0
9.196670e-01 -3.595008e-03 0.0
9.206585e-01 -1.028856e-03 0.0
0.000000e+00 -1.466947e-03 0.0
1.000000e+00 -5.203366e-02 0.0
1.026341e+00 -5.241051e-02 0.0
1.055656e+00 -5.828144e-02 0.0
1.090944e+00 -7.005635e-02 0.0
1.135195e+00 -8.746285e-02 0.0
1.191135e+00 -1.096031e-01 0.0
1.258544e+00 -1.310383e-01 0.0
1.341356e+00 -1.557030e-01 0.0
1.413256e+00 -1.380709e-01 0.0
1.464026e+00 -1.003709e-01 0.0
1.495549e+00 -6.363696e-02 0.0
1.512815e+00 -3.517277e-02 0.0
1.520509e+00 -1.549595e-02 0.0
1.522252e+00 -3.050026e-03 0.0
1.520697e+00 3.854586e-03 0.0
1.517874e+00 6.267982e-03 0.0
1.515774e+00 4.202382e-03 0.0
1.516853e+00 -3.172622e-03 0.0
1.524055e+00 -1.639042e-02 0.0
1.539778e+00 -3.357717e-02 0.0
1.563702e+00 -4.885893e-02 0.0
1.591509e+00 -5.491502e-02 0.0
1.617161e+00 -4.905119e-02 0.0
1.635943e+00 -3.442645e-02 0.0
1.646012e+00 -1.693861e-02 0.0
1.648207e+00 -1.458404e-03 0.0
1.644269e+00 1.085889e-02 0.0
1.635146e+00 2.145060e-02 0.0
1.620964e+00 3.181600e-02 0.0
1.601307e+00 4.298773e-02 0.0
1.575514e+00 5.544918e-02 0.0
1.542955e+00 6.914746e-02 0.0
1.503257e+00 8.359774e-02 0.0
1.456452e+00 9.803616e-02 0.0
1.402973e+00 1.116759e-01 0.0
1.343658e+00 1.237675e-01 0.0
1.279701e+00 1.336455e-01 0.0
1.212577e+00 1.405287e-01 0.0
1.144073e+00 1.431679e-01 0.0
1.076847e+00 1.396473e-01 0.0
1.014476e+00 1.278770e-01 0.0
9.612247e-01 1.063566e-01 0.0
9.214578e-01 7.519616e-02 0.0
8.986799e-01 3.689257e-02 0.0
8.944774e-01 -3.937125e-03 0.0
9.079946e-01 -4.317614e-02 0.0
9.378069e-01 -7.973342e-02 0.0
9.824021e-01 -1.130388e-01 0.0
1.040011e+00 -1.418269e-01 0.0
1.108179e+00 -1.634958e-01 0.0
1.182684e+00 -1.744795e-01 0.0
1.257793e+00 -1.722055e-01 0.0
1.327243e+00 -1.559012e-01 0.0
1.384975e+00 -1.263606e-01 0.0
1.425990e+00 -8.652990e-02 0.0
1.446865e+00 -4.109146e-02 0.0
1.445827e+00 5.693081e-03 0.0
1.423138e+00 5.229947e-02 0.0
1.380803e+00 9.724679e-02 0.0
1.322854e+00 1.373973e-01 0.0
1.255280e+00 1.673181e-01 0.0
1.184792e+00 1.805200e-01 0.0
1.118070e+00 1.730779e-01 0.0
1.060894e+00 1.478064e-01 0.0
1.016359e+00 1.121456e-01 0.0
9.856075e-01 7.308656e-02 0.0
9.686517e-01 3.577874e-02 0.0
9.643437e-01 3.844021e-03 0.0
9.705355e-01 -2.091453e-02 0.0
9.848170e-01 -3.902721e-02 0.0
1.005118e+00 -5.185242e-02 0.0
1.029740e+00 -6.056256e-02 0.0
1.057224e+00 -6.593447e-02 0.0
1.086303e+00 -6.852453e-02 0.0
1.115891e+00 -6.872726e-02 0.0
1.145031e+00 -6.681592e-02 0.0
1.172813e+00 -6.294650e-02 0.0
1.198380e+00 -5.727261e-02 0.0
1.220965e+00 -5.001120e-02 0.0
1.239931e+00 -4.146483e-02 0.0
1.254801e+00 -3.201027e-02 0.0
1.265246e+00 -2.204959e-02 0.0
1.270995e+00 -1.189237e-02 0.0
1.271640e+00 -1.520354e-03 0.0
1.266695e+00 9.447360e-03 0.0
1.255758e+00 2.113193e-02 0.0
1.238550e+00 3.349449e-02 0.0
1.215114e+00 4.624247e-02 0.0
1.186100e+00 5.861074e-02 0.0
1.152982e+00 6.920581e-02 0.0
1.118007e+00 7.615769e-02 0.0
1.083853e+00 7.771321e-02 0.0
1.053104e+00 7.319010e-02 0.0
1.027529e+00 6.350490e-02 0.0
1.007838e+00 5.052017e-02 0.0
9.938555e-01 3.631937e-02 0.0
9.848362e-01 2.270512e-02 0.0
9.797638e-01 1.101904e-02 0.0
9.775058e-01 2.287790e-03 0.0
9.767074e-01 -2.806280e-03 0.0
9.758696e-01 -2.008055e-04 0.0
0.000000e+00 -9.329389e-04 0.0
1.000000e+00 -7.504181e-02 0.0
1.023157e+00 -7.560457e-02 0.0
1.049402e+00 -8.453622e-02 0.0
1.082041e+00 -1.027043e-01 0.0
1.124863e+00 -1.302946e-01 0.0
1.182260e+00 -1.670098e-01 0.0
1.255311e+00 -2.040990e-01 0.0
1.359082e+00 -2.594840e-01 0.0
1.438464e+00 -2.174622e-01 0.0
1.486472e+00 -1.483888e-01 0.0
1.512453e+00 -8.962784e-02 0.0
1.524679e+00 -4.740830e-02 0.0
1.528582e+00 -1.940796e-02 0.0
1.527607e+00 -2.085234e-03 0.0
1.523846e+00 7.605928e-03 0.0
1.518724e+00 1.138066e-02 0.0
1.513311e+00 9.605936e-03 0.0
1.508988e+00 1.140412e-03 0.0
1.508286e+00 -1.569779e-02 0.0
1.514732e+00 -4.003326e-02 0.0
1.530899e+00 -6.503576e-02 0.0
1.554958e+00 -7.898327e-02 0.0
1.580840e+00 -7.494320e-02 0.0
1.602639e+00 -5.623536e-02 0.0
1.616731e+00 -3.103962e-02 0.0
1.622536e+00 -7.272855e-03 0.0
1.622023e+00 1.136213e-02 0.0
1.616624e+00 2.683930e-02 0.0
1.606545e+00 4.188526e-02 0.0
1.591329e+00 5.819480e-02 0.0
1.570200e+00 7.656774e-02 0.0
1.542481e+00 9.685726e-02 0.0
1.507729e+00 1.183401e-01 0.0
1.465853e+00 1.399022e-01 0.0
1.417248e+00 1.602719e-01 0.0
1.362763e+00 1.782427e-01 0.0
1.303596e+00 1.928030e-01 0.0
1.241170e+00 2.029449e-01 0.0
1.177234e+00 2.070934e-01 0.0
1.114240e+00 2.026323e-01 0.0
1.055362e+00 1.867451e-01 0.0
1.004054e+00 1.576551e-01 0.0
9.633791e-01 1.158611e-01 0.0
9.355834e-01 6.467863e-02 0.0
9.221368e-01 9.499750e-03 0.0
9.230091e-01 -4.405812e-02 0.0
9.373279e-01 -9.406188e-02 0.0
9.646488e-01 -1.403695e-01 0.0
1.003687e+00 -1.808744e-01 0.0
1.051905e+00 -2.117241e-01 0.0
1.105879e+00 -2.284633e-01 0.0
1.161258e+00 -2.275940e-01 0.0
1.213205e+00 -2.078578e-01 0.0
1.257065e+00 -1.702301e-01 0.0
1.288811e+00 -1.182859e-01 0.0
1.305313e+00 -5.760329e-02 0.0
1.304752e+00 6.244352e-03 0.0
1.287899e+00 6.914333e-02 0.0
1.257805e+00 1.273313e-01 0.0
1.219068e+00 1.761241e-01 0.0
1.176807e+00 2.095698e-01 0.0
1.135227e+00 2.220897e-01 0.0
1.096781e+00 2.115147e-01 0.0
1.062905e+00 1.816728e-01 0.0
1.035081e+00 1.399598e-01 0.0
1.014324e+00 9.383398e-02 0.0
1.000839e+00 4.925412e-02 0.0
9.944725e-01 1.020050e-02 0.0
9.948105e-01 -2.126232e-02 0.0
1.001017e+00 -4.524301e-02 0.0
1.012166e+00 -6.301189e-02 0.0
1.027353e+00 -7.575920e-02 0.0
1.045722e+00 -8.431337e-02 0.0
1.066381e+00 -8.919298e-02 0.0
1.088356e+00 -9.071160e-02 0.0
1.110681e+00 -8.915054e-02 0.0
1.132438e+00 -8.471361e-02 0.0
1.152762e+00 -7.760634e-02 0.0
1.170871e+00 -6.813022e-02 0.0
1.186103e+00 -5.670579e-02 0.0
1.197925e+00 -4.384210e-02 0.0
1.205903e+00 -3.003788e-02 0.0
1.209581e+00 -1.557974e-02 0.0
1.208299e+00 -2.478154e-04 0.0
1.201533e+00 1.620342e-02 0.0
1.189064e+00 3.359159e-02 0.0
1.171024e+00 5.152469e-02 0.0
1.148126e+00 6.913047e-02 0.0
1.121856e+00 8.487079e-02 0.0
1.094432e+00 9.662040e-02 0.0
1.068379e+00 1.022009e-01 0.0
1.045748e+00 1.003346e-01 0.0
1.027225e+00 9.170368e-02 0.0
1.012507e+00 7.821253e-02 0.0
1.000805e+00 6.221219e-02 0.0
9.912822e-01 4.583286e-02 0.0
9.833260e-01 3.065158e-02 0.0
9.766296e-01 1.770570e-02 0.0
9.711309e-01 7.776732e-03 0.0
9.668668e-01 1.448124e-03 0.0
9.647997e-01 1.856599e-03 0.0
0.000000e+00 9.001716e-04 0.0
1.000000e+00 -9.317801e-02 0.0
1.018272e+00 -9.391331e-02 0.0
1.039588e+00 -1.058619e-01 0.0
1.067539e+00 -1.306651e-01 0.0
1.107104e+00 -1.698688e-01 0.0
1.165483e+00 -2.253984e-01 0.0
1.248103e+00 -2.867288e-01 0.0
1.387958e+00 -3.993486e-01 0.0
1.468821e+00 -2.983350e-01 0.0
1.504298e+00 -1.838758e-01 0.0
1.518110e+00 -1.034489e-01 0.0
1.521538e+00 -5.084676e-02 0.0
1.519444e+00 -1.732299e-02 0.0
1.514105e+00 3.244110e-03 0.0
1.506470e+00 1.523140e-02 0.0
1.497269e+00 2.057126e-02 0.0
1.486537e+00 2.032892e-02 0.0
1.473675e+00 1.399298e-02 0.0
1.458940e+00 -9.728599e-04 0.0
1.446446e+00 -2.754852e-02 0.0
1.442933e+00 -6.153332e-02 0.0
1.452689e+00 -8.874861e-02 0.0
1.472033e+00 -9.429636e-02 0.0
1.494670e+00 -7.888286e-02 0.0
1.515302e+00 -5.168084e-02 0.0
1.530019e+00 -2.199950e-02 0.0
1.537664e+00 3.707862e-03 0.0
1.540635e+00 2.385834e-02 0.0
1.539219e+00 4.329168e-02 0.0
1.532931e+00 6.447279e-02 0.0
1.520704e+00 8.878490e-02 0.0
1.501660e+00 1.158917e-01 0.0
1.475191e+00 1.447995e-01 0.0
1.441084e+00 1.739996e-01 0.0
1.399646e+00 2.017004e-01 0.0
1.351709e+00 2.261702e-01 0.0
1.298513e+00 2.459893e-01 0.0
1.241521e+00 2.599272e-01 0.0
1.182371e+00 2.662334e-01 0.0
1.123402e+00 2.615917e-01 0.0
1.067754e+00 2.423831e-01 0.0
1.018479e+00 2.069212e-01 0.0
9.775530e-01 1.567770e-01 0.0
9.459409e-01 9.628112e-02 0.0
9.249810e-01 3.044995e-02 0.0
9.168475e-01 -3.593429e-02 0.0
9.221657e-01 -9.938978e-02 0.0
9.398539e-01 -1.580673e-01 0.0
9.676088e-01 -2.086390e-01 0.0
1.002513e+00 -2.466384e-01 0.0
1.041357e+00 -2.673169e-01 0.0
1.080722e+00 -2.669681e-01 0.0
1.117065e+00 -2.442112e-01 0.0
1.147131e+00 -2.003053e-01 0.0
1.168083e+00 -1.392475e-01 0.0
1.177662e+00 -6.719269e-02 0.0
1.174871e+00 9.025970e-03 0.0
1.161242e+00 8.276304e-02 0.0
1.140110e+00 1.484537e-01 0.0
1.115529e+00 2.006950e-01 0.0
1.091116e+00 2.339734e-01 0.0
1.068995e+00 2.442006e-01 0.0
1.049347e+00 2.311533e-01 0.0
1.031781e+00 1.992284e-01 0.0
1.016332e+00 1.553991e-01 0.0
1.003325e+00 1.068315e-01 0.0
9.932588e-01 5.931086e-02 0.0
9.867983e-01 1.665131e-02 0.0
9.846470e-01 -1.912075e-02 0.0
9.870220e-01 -4.762777e-02 0.0
9.937071e-01 -6.970666e-02 0.0
1.004198e+00 -8.625967e-02 0.0
1.017807e+00 -9.793216e-02 0.0
1.033721e+00 -1.051173e-01 0.0
1.051052e+00 -1.080522e-01 0.0
1.068868e+00 -1.069763e-01 0.0
1.086287e+00 -1.021422e-01 0.0
1.102491e+00 -9.381928e-02 0.0
1.116741e+00 -8.239069e-02 0.0
1.128393e+00 -6.836740e-02 0.0
1.136874e+00 -5.233254e-02 0.0
1.141619e+00 -3.479265e-02 0.0
1.141944e+00 -1.591471e-02 0.0
1.137041e+00 4.645538e-03 0.0
1.126734e+00 2.650061e-02 0.0
1.111313e+00 4.900274e-02 0.0
1.091677e+00 7.115130e-02 0.0
1.069457e+00 9.134040e-02 0.0
1.046936e+00 1.073820e-01 0.0
1.026576e+00 1.169709e-01 0.0
1.010218e+00 1.185493e-01 0.0
9.980773e-01 1.124657e-01 0.0
9.891616e-01 1.006096e-01 0.0
9.821103e-01 8.525406e-02 0.0
9.757678e-01 6.854497e-02 0.0
9.694761e-01 5.211484e-02 0.0
9.630972e-01 3.702080e-02 0.0
9.568686e-01 2.392453e-02 0.0
9.512320e-01 1.340358e-02 0.0
9.466970e-01 5.973456e-03 0.0
9.443945e-01 4.149346e-03 0.0
0.000000e+00 3.044982e-03 0.0
1.000000e+00 -1.046979e-01 0.0
1.011636e+00 -1.055864e-01 0.0
1.025811e+00 -1.200465e-01 0.0
1.045987e+00 -1.508510e-01 0.0
1.078216e+00 -2.021074e-01 0.0
1.133314e+00 -2.805060e-01 0.0
1.226495e+00 -3.799194e-01 0.0
1.412202e+00 -5.850646e-01 0.0
1.469684e+00 -3.558275e-01 0.0
1.476730e+00 -1.909305e-01 0.0
1.470996e+00 -9.772499e-02 0.0
1.462319e+00 -4.217952e-02 0.0
1.452824e+00 -7.837950e-03 0.0
1.441288e+00 1.477041e-02 0.0
1.427603e+00 2.890769e-02 0.0
1.411917e+00 3.624693e-02 0.0
1.393969e+00 3.826784e-02 0.0
1.371953e+00 3.599933e-02 0.0
1.342230e+00 2.874052e-02 0.0
1.302830e+00 1.184163e-02 0.0
1.261973e+00 -2.068583e-02 0.0
1.235733e+00 -6.251903e-02 0.0
1.231143e+00 -8.971536e-02 0.0
1.242843e+00 -9.059241e-02 0.0
1.266153e+00 -7.500078e-02 0.0
1.296257e+00 -5.211351e-02 0.0
1.326768e+00 -2.681225e-02 0.0
1.351336e+00 -7.192307e-04 0.0
1.369729e+00 2.488913e-02 0.0
1.382904e+00 5.128776e-02 0.0
1.389363e+00 8.231616e-02 0.0
1.388011e+00 1.172340e-01 0.0
1.378037e+00 1.547641e-01 0.0
1.359027e+00 1.929997e-01 0.0
1.331146e+00 2.295720e-01 0.0
1.295193e+00 2.621137e-01 0.0
1.252486e+00 2.886859e-01 0.0
1.204645e+00 3.077588e-01 0.0
1.153399e+00 3.174696e-01 0.0
1.100861e+00 3.141197e-01 0.0
1.049829e+00 2.934059e-01 0.0
1.002680e+00 2.540608e-01 0.0
9.607668e-01 1.986801e-01 0.0
9.255710e-01 1.314673e-01 0.0
9.001794e-01 5.583188e-02 0.0
8.885755e-01 -2.434009e-02 0.0
8.916257e-01 -1.024497e-01 0.0
9.061903e-01 -1.726417e-01 0.0
9.282631e-01 -2.307214e-01 0.0
9.545809e-01 -2.729659e-01 0.0
9.825261e-01 -2.952718e-01 0.0
1.009617e+00 -2.940685e-01 0.0
1.033387e+00 -2.679910e-01 0.0
1.051798e+00 -2.187258e-01 0.0
1.063209e+00 -1.506679e-01 0.0
1.066442e+00 -7.043614e-02 0.0
1.061493e+00 1.396572e-02 0.0
1.050351e+00 9.389483e-02 0.0
1.036034e+00 1.627609e-01 0.0
1.021617e+00 2.151030e-01 0.0
1.009283e+00 2.462979e-01 0.0
9.996130e-01 2.538605e-01 0.0
9.916498e-01 2.391068e-01 0.0
9.841956e-01 2.066729e-01 0.0
9.766027e-01 1.629823e-01 0.0
9.689291e-01 1.144954e-01 0.0
9.618481e-01 6.638208e-02 0.0
9.564470e-01 2.204276e-02 0.0
9.539737e-01 -1.665715e-02 0.0
9.552863e-01 -4.895010e-02 0.0
9.605430e-01 -7.497311e-02 0.0
9.693428e-01 -9.506916e-02 0.0
9.809548e-01 -1.095538e-01 0.0
9.945076e-01 -1.186798e-01 0.0
1.009112e+00 -1.226660e-01 0.0
1.023884e+00 -1.217589e-01 0.0
1.037995e+00 -1.162629e-01 0.0
1.050707e+00 -1.065405e-01 0.0
1.061363e+00 -9.305652e-02 0.0
1.069358e+00 -7.637232e-02 0.0
1.074085e+00 -5.706887e-02 0.0
1.074850e+00 -3.556738e-02 0.0
1.070807e+00 -1.188157e-02 0.0
1.061556e+00 1.388666e-02 0.0
1.047570e+00 4.047749e-02 0.0
1.029950e+00 6.661211e-02 0.0
1.010494e+00 9.059799e-02 0.0
9.915476e-01 1.102771e-01 0.0
9.755026e-01 1.234173e-01 0.0
9.639920e-01 1.284717e-01 0.0
9.570754e-01 1.254561e-01 0.0
9.533245e-01 1.162069e-01 0.0
9.510528e-01 1.028716e-01 0.0
9.488319e-01 8.746525e-02 0.0
9.458042e-01 7.156292e-02 0.0
9.417141e-01 5.619524e-02 0.0
9.367601e-01 4.196500e-02 0.0
9.314057e-01 2.926920e-02 0.0
9.262469e-01 1.855271e-02 0.0
9.219337e-01 1.027689e-02 0.0
9.196503e-01 6.423060e-03 0.0
0.000000e+00 5.221836e-03 0.0
1.000000e+00 -1.080789e-01 0.0
1.003471e+00 -1.090947e-01 0.0
1.008153e+00 -1.247382e-01 0.0
1.016265e+00 -1.589721e-01 0.0
1.033271e+00 -2.191233e-01 0.0
1.071842e+00 -3.190859e-01 0.0
1.160588e+00 -4.686756e-01 0.0
1.382506e+00 -8.069916e-01 0.0
1.370522e+00 -3.438535e-01 0.0
1.324457e+00 -1.448757e-01 0.0
1.291547e+00 -6.482414e-02 0.0
1.270531e+00 -2.117307e-02 0.0
1.252923e+00 9.759988e-03 0.0
1.234590e+00 3.309385e-02 0.0
1.213211e+00 5.027716e-02 0.0
1.187788e+00 6.165986e-02 0.0
1.158341e+00 6.770548e-02 0.0
1.123484e+00 7.084663e-02 0.0
1.078312e+00 7.390292e-02 0.0
1.016697e+00 7.344754e-02 0.0
9.385305e-01 5.747065e-02 0.0
8.577259e-01 1.827588e-02 0.0
8.014112e-01 -3.341036e-02 0.0
7.806292e-01 -6.982007e-02 0.0
7.919478e-01 -8.632901e-02 0.0
8.329308e-01 -9.310610e-02 0.0
8.983889e-01 -9.228009e-02 0.0
9.778677e-01 -8.020765e-02 0.0
1.054900e+00 -5.215301e-02 0.0
1.114019e+00 -7.841149e-03 0.0
1.155076e+00 4.124955e-02 0.0
1.183427e+00 8.887347e-02 0.0
1.200013e+00 1.381692e-01 0.0
1.204768e+00 1.882348e-01 0.0
1.197882e+00 2.364481e-01 0.0
1.180243e+00 2.797427e-01 0.0
1.153377e+00 3.155425e-01 0.0
1.119258e+00 3.418680e-01 0.0
1.080039e+00 3.566788e-01 0.0
1.037332e+00 3.568169e-01 0.0
9.923687e-01 3.383600e-01 0.0
9.457584e-01 3.006614e-01 0.0
8.997556e-01 2.446733e-01 0.0
8.614425e-01 1.697708e-01 0.0
8.396896e-01 7.757502e-02 0.0
8.376699e-01 -2.232999e-02 0.0
8.506238e-01 -1.154132e-01 0.0
8.710073e-01 -1.930349e-01 0.0
8.935575e-01 -2.532813e-01 0.0
9.156624e-01 -2.950805e-01 0.0
9.359987e-01 -3.156178e-01 0.0
9.533659e-01 -3.114453e-01 0.0
9.665520e-01 -2.811869e-01 0.0
9.747661e-01 -2.269496e-01 0.0
9.776367e-01 -1.535482e-01 0.0
9.751850e-01 -6.799405e-02 0.0
9.682609e-01 2.088007e-02 0.0
9.588880e-01 1.032581e-01 0.0
9.493586e-01 1.722806e-01 0.0
9.416604e-01 2.227915e-01 0.0
9.367812e-01 2.511674e-01 0.0
9.342687e-01 2.563632e-01 0.0
9.326211e-01 2.407448e-01 0.0
9.303719e-01 2.089123e-01 0.0
9.267393e-01 1.666053e-01 0.0
9.218855e-01 1.193394e-01 0.0
9.168269e-01 7.143102e-02 0.0
9.130706e-01 2.578930e-02 0.0
9.121429e-01 -1.573915e-02 0.0
9.150328e-01 -5.184970e-02 0.0
9.217399e-01 -8.168987e-02 0.0
9.315609e-01 -1.048999e-01 0.0
9.434949e-01 -1.214976e-01 0.0
9.565188e-01 -1.317134e-01 0.0
9.697121e-01 -1.358690e-01 0.0
9.822676e-01 -1.343241e-01 0.0
9.934708e-01 -1.274758e-01 0.0
1.002723e+00 -1.158022e-01 0.0
1.009491e+00 -9.983436e-02 0.0
1.013239e+00 -8.012991e-02 0.0
1.013359e+00 -5.719847e-02 0.0
1.009145e+00 -3.136337e-02 0.0
1.000016e+00 -2.762408e-03 0.0
9.866503e-01 2.724261e-02 0.0
9.703725e-01 5.674558e-02 0.0
9.530837e-01 8.389119e-02 0.0
9.370904e-01 1.065815e-01 0.0
9.245966e-01 1.227611e-01 0.0
9.169628e-01 1.310414e-01 0.0
9.141122e-01 1.313126e-01 0.0
9.144423e-01 1.251163e-01 0.0
9.161268e-01 1.145127e-01 0.0
9.176442e-01 1.013444e-01 0.0
9.180216e-01 8.707812e-02 0.0
9.168710e-01 7.270380e-02 0.0
9.142608e-01 5.879571e-02 0.0
9.105382e-01 4.567795e-02 0.0
9.061938e-01 3.360384e-02 0.0
9.018068e-01 2.293002e-02 0.0
8.980250e-01 1.404895e-02 0.0
8.959306e-01 8.507734e-03 0.0
0.000000e+00 7.254224e-03 0.0
1.000000e+00 -1.025215e-01 0.0
9.945002e-01 -1.036319e-01 0.0
9.879255e-01 -1.181732e-01 0.0
9.794623e-01 -1.505186e-01 0.0
9.698092e-01 -2.094798e-01 0.0
9.644480e-01 -3.137344e-01 0.0
9.906321e-01 -4.948693e-01 0.0
1.152188e+00 -9.685571e-01 0.0
1.007071e+00 -1.987188e-01 0.0
8.800676e-01 -1.785475e-02 0.0
8.235119e-01 -8.278032e-03 0.0
7.931606e-01 9.168541e-03 0.0
7.706682e-01 3.224280e-02 0.0
7.462356e-01 5.751674e-02 0.0
7.120714e-01 8.443177e-02 0.0
6.625626e-01 1.111590e-01 0.0
5.956236e-01 1.346348e-01 0.0
5.151823e-01 1.512783e-01 0.0
4.368306e-01 1.522449e-01 0.0
3.738952e-01 1.363733e-01 0.0
3.184442e-01 1.129121e-01 0.0
2.591387e-01 7.757172e-02 0.0
1.998704e-01 2.584823e-02 0.0
1.671206e-01 -3.707991e-02 0.0
1.822326e-01 -1.014506e-01 0.0
2.488742e-01 -1.597574e-01 0.0
3.575524e-01 -2.009679e-01 0.0
4.930165e-01 -2.156814e-01 0.0
6.358869e-01 -1.950331e-01 0.0
7.668040e-01 -1.387679e-01 0.0
8.681273e-01 -6.008339e-02 0.0
9.353085e-01 2.168255e-02 0.0
9.810963e-01 9.237176e-02 0.0
1.010194e+00 1.591275e-01 0.0
1.024236e+00 2.223968e-01 0.0
1.024665e+00 2.793033e-01 0.0
1.013309e+00 3.268893e-01 0.0
9.923420e-01 3.628253e-01 0.0
9.637169e-01 3.852943e-01 0.0
9.269491e-01 3.935750e-01 0.0
8.803521e-01 3.849473e-01 0.0
8.276921e-01 3.533117e-01 0.0
7.820828e-01 2.902729e-01 0.0
7.590052e-01 1.928387e-01 0.0
7.631181e-01 7.345244e-02 0.0
7.861929e-01 -4.541447e-02 0.0
8.163779e-01 -1.456080e-01 0.0
8.457980e-01 -2.224647e-01 0.0
8.706336e-01 -2.781266e-01 0.0
8.899241e-01 -3.143807e-01 0.0
9.040830e-01 -3.297864e-01 0.0
9.133997e-01 -3.207718e-01 0.0
9.178479e-01 -2.856448e-01 0.0
9.175884e-01 -2.266999e-01 0.0
9.132655e-01 -1.492349e-01 0.0
9.059183e-01 -6.065659e-02 0.0
8.971182e-01 2.967050e-02 0.0
8.885777e-01 1.117889e-01 0.0
8.817934e-01 1.790552e-01 0.0
8.777760e-01 2.267991e-01 0.0
8.765800e-01 2.523538e-01 0.0
8.771081e-01 2.558253e-01 0.0
8.776449e-01 2.401982e-01 0.0
8.768055e-01 2.097421e-01 0.0
8.741083e-01 1.692928e-01 0.0
8.702214e-01 1.232166e-01 0.0
8.667169e-01 7.492576e-02 0.0
8.654535e-01 2.704298e-02 0.0
8.678992e-01 -1.819453e-02 0.0
8.745401e-01 -5.850027e-02 0.0
8.847281e-01 -9.188762e-02 0.0
8.972208e-01 -1.174024e-01 0.0
9.106991e-01 -1.349856e-01 0.0
9.240332e-01 -1.450571e-01 0.0
9.363404e-01 -1.481859e-01 0.0
9.469171e-01 -1.449106e-01 0.0
9.552085e-01 -1.357769e-01 0.0
9.607840e-01 -1.213874e-01 0.0
9.632567e-01 -1.023168e-01 0.0
9.622032e-01 -7.908617e-02 0.0
9.571445e-01 -5.214950e-02 0.0
9.477241e-01 -2.195263e-02 0.0
9.345038e-01 1.044818e-02 0.0
9.192028e-01 4.253389e-02 0.0
9.037530e-01 7.218565e-02 0.0
8.902858e-01 9.734858e-02 0.0
8.806888e-01 1.161689e-01 0.0
8.759945e-01 1.274457e-01 0.0
8.759490e-01 1.310772e-01 0.0
8.790368e-01 1.282150e-01 0.0
8.834094e-01 1.207339e-01 0.0
8.876048e-01 1.103077e-01 0.0
8.906638e-01 9.827575e-02 0.0
8.921481e-01 8.558402e-02 0.0
8.920267e-01 7.281551e-02 0.0
8.905105e-01 6.030215e-02 0.0
8.879217e-01 4.825704e-02 0.0
8.846366e-01 3.687926e-02 0.0
8.811028e-01 2.645405e-02 0.0
8.778787e-01 1.726335e-02 0.0
8.760541e-01 1.032258e-02 0.0
0.000000e+00 9.049518e-03 0.0
1.000000e+00 -8.857786e-02 0.0
9.860766e-01 -8.974539e-02 0.0
9.684174e-01 -1.005237e-01 0.0
9.419954e-01 -1.241062e-01 0.0
8.984414e-01 -1.659355e-01 0.0
8.210116e-01 -2.363143e-01 0.0
6.855843e-01 -3.594516e-01 0.0
1.987734e-01 -4.817285e-01 0.0
-1.006082e+00 4.790164e-01 0.0
0.000000e+00 -4.045895e-02 0.0
-6.789210e-02 4.172235e-02 0.0
-4.219057e-03 -5.451415e-02 0.0
7.088106e-02 -4.286696e-02 0.0
1.214747e-01 6.913482e-03 0.0
1.399335e-01 6.596333e-02 0.0
1.316896e-01 1.193932e-01 0.0
1.040754e-01 1.622393e-01 0.0
6.628435e-02 1.890597e-01 0.0
1.990774e-02 1.986119e-01 0.0
-3.484503e-02 1.911164e-01 0.0
-9.019966e-02 1.682570e-01 0.0
-1.401067e-01 1.274691e-01 0.0
-1.771991e-01 6.293097e-02 0.0
-1.879322e-01 -2.635640e-02 0.0
-1.608703e-01 -1.285222e-01 0.0
-9.235808e-02 -2.282793e-01 0.0
1.817107e-02 -3.115067e-01 0.0
1.595566e-01 -3.570766e-01 0.0
3.160901e-01 -3.515763e-01 0.0
4.695615e-01 -2.922489e-01 0.0
6.039762e-01 -1.945077e-01 0.0
7.074365e-01 -8.178750e-02 0.0
7.759776e-01 2.382103e-02 0.0
8.218050e-01 1.132904e-01 0.0
8.491669e-01 1.950252e-01 0.0
8.602497e-01 2.682108e-01 0.0
8.567112e-01 3.304181e-01 0.0
8.396415e-01 3.798853e-01 0.0
8.090404e-01 4.158857e-01 0.0
7.651777e-01 4.374280e-01 0.0
7.137326e-01 4.363828e-01 0.0
6.713236e-01 3.957110e-01 0.0
6.555942e-01 3.059926e-01 0.0
6.709975e-01 1.774258e-01 0.0
7.087808e-01 3.565943e-02 0.0
7.546765e-01 -9.131980e-02 0.0
7.989174e-01 -1.898586e-01 0.0
8.357736e-01 -2.593305e-01 0.0
8.625628e-01 -3.049254e-01 0.0
8.792014e-01 -3.310289e-01 0.0
8.875477e-01 -3.381424e-01 0.0
8.896507e-01 -3.228844e-01 0.0
8.867865e-01 -2.827903e-01 0.0
8.797890e-01 -2.197120e-01 0.0
8.698490e-01 -1.393046e-01 0.0
8.586342e-01 -4.945147e-02 0.0
8.480942e-01 4.020073e-02 0.0
8.395194e-01 1.203539e-01 0.0
8.337032e-01 1.848617e-01 0.0
8.308659e-01 2.296268e-01 0.0
8.303786e-01 2.528314e-01 0.0
8.307604e-01 2.554338e-01 0.0
8.304284e-01 2.405206e-01 0.0
8.284436e-01 2.117172e-01 0.0
8.250319e-01 1.726948e-01 0.0
8.215841e-01 1.266547e-01 0.0
8.200932e-01 7.640692e-02 0.0
8.223736e-01 2.475292e-02 0.0
8.294200e-01 -2.525064e-02 0.0
8.408581e-01 -6.994813e-02 0.0
8.552938e-01 -1.063330e-01 0.0
8.709743e-01 -1.330926e-01 0.0
8.863111e-01 -1.503321e-01 0.0
9.001104e-01 -1.588661e-01 0.0
9.115612e-01 -1.596465e-01 0.0
9.200961e-01 -1.534551e-01 0.0
9.253552e-01 -1.410458e-01 0.0
9.270954e-01 -1.231372e-01 0.0
9.251229e-01 -1.003540e-01 0.0
9.192671e-01 -7.324008e-02 0.0
9.095075e-01 -4.239970e-02 0.0
8.964316e-01 -8.886445e-03 0.0
8.819605e-01 2.490956e-02 0.0
8.680620e-01 5.642270e-02 0.0
8.566044e-01 8.363348e-02 0.0
8.490947e-01 1.048486e-01 0.0
8.462317e-01 1.190221e-01 0.0
8.476366e-01 1.260311e-01 0.0
8.519824e-01 1.267217e-01 0.0
8.575624e-01 1.226254e-01 0.0
8.630454e-01 1.152412e-01 0.0
8.675711e-01 1.057722e-01 0.0
8.707350e-01 9.510206e-02 0.0
8.724826e-01 8.382675e-02 0.0
8.729549e-01 7.233341e-02 0.0
8.723561e-01 6.089125e-02 0.0
8.708826e-01 4.972081e-02 0.0
8.687252e-01 3.902698e-02 0.0
8.661357e-01 2.903381e-02 0.0
8.635059e-01 1.988342e-02 0.0
8.620156e-01 1.180314e-02 0.0
0.000000e+00 1.053310e-02 0.0
1.000000e+00 -6.842235e-02 0.0
9.798266e-01 -6.960898e-02 0.0
9.541660e-01 -7.487272e-02 0.0
9.153287e-01 -8.527848e-02 0.0
8.495065e-01 -1.001229e-01 0.0
7.270805e-01 -1.138980e-01 0.0
4.734068e-01 -1.057876e-01 0.0
-9.593117e-03 1.289064e-03 0.0
-3.615650e-05 0.000000e+00 0.0
0.000000e+00 -0.000000e+00 0.0
0.000000e+00 -2.960694e-03 0.0
-6.302926e-02 8.505462e-03 0.0
-7.614516e-02 -2.976071e-02 0.0
-8.310418e-02 1.386286e-02 0.0
-1.045938e-01 8.744329e-02 0.0
-1.246867e-01 1.394765e-01 0.0
-1.441971e-01 1.817400e-01 0.0
-1.641392e-01 2.089922e-01 0.0
-1.854886e-01 2.199516e-01 0.0
-2.096561e-01 2.152743e-01 0.0