# vtk DataFile Version 3.0
Vector Field
ASCII
DATASET RECTILINEAR_GRID
DIMENSIONS 102 22 1
X_COORDINATES 102 double
0.000000 0.100000 0.200000 0.300000 0.400000 0.500000 0.600000 0.700000 0.800000 0.900000 1.000000 1.100000 1.200000 1.300000 1.400000 1.500000 1.600000 1.700000 1.800000 1.900000 2.000000 2.100000 2.200000 2.300000 2.400000 2.500000 2.600000 2.700000 2.800000 2.900000 3.000000 3.100000 3.200000 3.300000 3.400000 3.500000 3.600000 3.700000 3.800000 3.900000 4.000000 4.100000 4.200000 4.300000 4.400000 4.500000 4.600000 4.700000 4.800000 4.900000 5.000000 5.100000 5.200000 5.300000 5.400000 5.500000 5.600000 5.700000 5.800000 5.900000 6.000000 6.100000 6.200000 6.300000 6.400000 6.500000 6.600000 6.700000 6.800000 6.900000 7.000000 7.100000 7.200000 7.300000 7.400000 7.500000 7.600000 7.700000 7.800000 7.900000 8.000000 8.100000 8.200000 8.300000 8.400000 8.500000 8.600000 8.700000 8.800000 8.900000 9.000000 9.100000 9.200000 9.300000 9.400000 9.500000 9.600000 9.700000 9.800000 9.900000 10.000000 10.100000 
Y_COORDINATES 22 double
0.000000 0.100000 0.200000 0.300000 0.400000 0.500000 0.600000 0.700000 0.800000 0.900000 1.000000 1.100000 1.200000 1.300000 1.400000 1.500000 1.600000 1.700000 1.800000 1.900000 2.000000 2.100000 
Z_COORDINATES 1 double
0.0
POINT_DATA 2244
VECTORS Velocity double
0.000000e+00 0.000000e+00 0.0
-1.025229e+00 0.000000e+00 0.0
-1.053418e+00 0.000000e+00 0.0
-1.087356e+00 0.000000e+00 0.0
-1.129675e+00 0.000000e+00 0.0
-1.182393e+00 0.000000e+00 0.0
-1.245076e+00 0.000000e+00 0.0
-1.317085e+00 0.000000e+00 0.0
-1.382768e+00 0.000000e+00 0.0
-1.432505e+00 0.000000e+00 0.0
-1.465465e+00 0.000000e+00 0.0
-1.484936e+00 0.000000e+00 0.0
-1.495055e+00 0.000000e+00 0.0
-1.499524e+00 0.000000e+00 0.0
-1.501450e+00 0.000000e+00 0.0
-1.503617e+00 0.000000e+00 0.0
-1.508785e+00 0.000000e+00 0.0
-1.519535e+00 0.000000e+00 0.0
-1.537203e+00 0.000000e+00 0.0
-1.560399e+00 0.000000e+00 0.0
-1.584846e+00 0.000000e+00 0.0
-1.605373e+00 0.000000e+00 0.0
-1.618410e+00 0.000000e+00 0.0
-1.623139e+00 0.000000e+00 0.0
-1.620670e+00 0.000000e+00 0.0
-1.612270e+00 0.000000e+00 0.0
-1.598703e+00 0.000000e+00 0.0
-1.580123e+00 0.000000e+00 0.0
-1.556175e+00 0.000000e+00 0.0
-1.526230e+00 0.000000e+00 0.0
-1.489630e+00 0.000000e+00 0.0
-1.445912e+00 0.000000e+00 0.0
-1.394952e+00 0.000000e+00 0.0
-1.337010e+00 0.000000e+00 0.0
-1.272706e+00 0.000000e+00 0.0
-1.202969e+00 0.000000e+00 0.0
-1.129205e+00 0.000000e+00 0.0
-1.053747e+00 0.000000e+00 0.0
-9.800471e-01 0.000000e+00 0.0
-9.127813e-01 0.000000e+00 0.0
-8.575174e-01 0.000000e+00 0.0
-8.196290e-01 0.000000e+00 0.0
-8.028128e-01 0.000000e+00 0.0
-8.080347e-01 0.000000e+00 0.0
-8.344692e-01 0.000000e+00 0.0
-8.810394e-01 0.000000e+00 0.0
-9.465168e-01 0.000000e+00 0.0
-1.028965e+00 0.000000e+00 0.0
-1.124724e+00 0.000000e+00 0.0
-1.228153e+00 0.000000e+00 0.0
-1.331875e+00 0.000000e+00 0.0
-1.427969e+00 0.000000e+00 0.0
-1.508648e+00 0.000000e+00 0.0
-1.567438e+00 0.000000e+00 0.0
-1.600560e+00 0.000000e+00 0.0
-1.607602e+00 0.000000e+00 0.0
-1.589105e+00 0.000000e+00 0.0
-1.544647e+00 0.000000e+00 0.0
-1.474082e+00 0.000000e+00 0.0
-1.379343e+00 0.000000e+00 0.0
-1.267148e+00 0.000000e+00 0.0
-1.149859e+00 0.000000e+00 0.0
-1.041038e+00 0.000000e+00 0.0
-9.505168e-01 0.000000e+00 0.0
-8.831223e-01 0.000000e+00 0.0
-8.391433e-01 0.000000e+00 0.0
-8.157775e-01 0.000000e+00 0.0
-8.089121e-01 0.000000e+00 0.0
-8.143735e-01 0.000000e+00 0.0
-8.291128e-01 0.000000e+00 0.0
-8.513177e-01 0.000000e+00 0.0
-8.798301e-01 0.000000e+00 0.0
-9.137797e-01 0.000000e+00 0.0
-9.523614e-01 0.000000e+00 0.0
-9.946465e-01 0.000000e+00 0.0
-1.039507e+00 0.000000e+00 0.0
-1.085707e+00 0.000000e+00 0.0
-1.131992e+00 0.000000e+00 0.0
-1.177201e+00 0.000000e+00 0.0
-1.220256e+00 0.000000e+00 0.0
-1.260144e+00 0.000000e+00 0.0
-1.295921e+00 0.000000e+00 0.0
-1.326734e+00 0.000000e+00 0.0
-1.351866e+00 0.000000e+00 0.0
-1.370805e+00 0.000000e+00 0.0
-1.383335e+00 0.000000e+00 0.0
-1.389603e+00 0.000000e+00 0.0
-1.389970e+00 0.000000e+00 0.0
-1.384386e+00 0.000000e+00 0.0
-1.372338e+00 0.000000e+00 0.0
-1.353115e+00 0.000000e+00 0.0
-1.325929e+00 0.000000e+00 0.0
-1.290187e+00 0.000000e+00 0.0
-1.246031e+00 0.000000e+00 0.0
-1.194995e+00 0.000000e+00 0.0
-1.140295e+00 0.000000e+00 0.0
-1.086165e+00 0.000000e+00 0.0
-1.036646e+00 0.000000e+00 0.0
-9.951221e-01 0.000000e+00 0.0
-9.642937e-01 0.000000e+00 0.0
-9.642937e-01 0.000000e+00 0.0
0.000000e+00 0.000000e+00 0.0
1.000000e+00 -2.538492e-02 0.0
1.025431e+00 -2.556732e-02 0.0
1.053820e+00 -2.846787e-02 0.0
1.087972e+00 -3.423008e-02 0.0
1.130519e+00 -4.262514e-02 0.0
1.183473e+00 -5.303202e-02 0.0
1.246383e+00 -6.298853e-02 0.0
1.318586e+00 -7.228197e-02 0.0
1.384337e+00 -6.582925e-02 0.0
1.433950e+00 -4.969149e-02 0.0
1.466576e+00 -3.270410e-02 0.0
1.485504e+00 -1.900647e-02 0.0
1.494865e+00 -9.439398e-03 0.0
1.498338e+00 -3.551631e-03 0.0
1.498973e+00 -7.135412e-04 0.0
1.499482e+00 -5.873536e-04 0.0
1.502586e+00 -3.181717e-03 0.0
1.511011e+00 -8.504056e-03 0.0
1.526597e+00 -1.566374e-02 0.0
1.548704e+00 -2.218567e-02 0.0
1.573553e+00 -2.492777e-02 0.0
1.595819e+00 -2.234383e-02 0.0
1.611285e+00 -1.554461e-02 0.0
1.618428e+00 -7.221213e-03 0.0
1.618049e+00 3.001569e-04 0.0
1.611498e+00 6.472136e-03 0.0
1.599648e+00 1.177236e-02 0.0
1.582736e+00 1.683379e-02 0.0
1.560461e+00 2.219640e-02 0.0
1.532204e+00 2.817869e-02 0.0
1.497282e+00 3.484316e-02 0.0
1.455181e+00 4.202253e-02 0.0
1.405716e+00 4.938634e-02 0.0
1.349089e+00 5.654929e-02 0.0
1.285871e+00 6.313932e-02 0.0
1.216951e+00 6.884153e-02 0.0
1.143636e+00 7.323610e-02 0.0
1.068079e+00 7.547923e-02 0.0
9.935304e-01 7.446984e-02 0.0
9.244372e-01 6.901469e-02 0.0
8.662319e-01 5.812691e-02 0.0
8.243846e-01 4.176880e-02 0.0
8.029687e-01 2.133747e-02 0.0
8.034701e-01 -5.797740e-04 0.0
8.252012e-01 -2.180964e-02 0.0
8.670882e-01 -4.196542e-02 0.0
9.279380e-01 -6.092827e-02 0.0
1.006032e+00 -7.817275e-02 0.0
1.098188e+00 -9.223398e-02 0.0
1.199327e+00 -1.012172e-01 0.0
1.302545e+00 -1.032971e-01 0.0
1.400231e+00 -9.776372e-02 0.0
1.484704e+00 -8.455151e-02 0.0
1.549226e+00 -6.460120e-02 0.0
1.589302e+00 -4.015455e-02 0.0
1.603658e+00 -1.443370e-02 0.0
1.592908e+00 1.067083e-02 0.0
1.556660e+00 3.617019e-02 0.0
1.494425e+00 6.215670e-02 0.0
1.407111e+00 8.723454e-02 0.0
1.299624e+00 1.074089e-01 0.0
1.182809e+00 1.167366e-01 0.0
1.070645e+00 1.120860e-01 0.0
9.743876e-01 9.617849e-02 0.0
9.003714e-01 7.393779e-02 0.0
8.500895e-01 5.020333e-02 0.0
8.214211e-01 2.858996e-02 0.0
8.104425e-01 1.090014e-02 0.0
8.128913e-01 -2.527358e-03 0.0
8.252874e-01 -1.247460e-02 0.0
8.455349e-01 -2.032600e-02 0.0
8.723288e-01 -2.687235e-02 0.0
9.047397e-01 -3.248942e-02 0.0
9.419601e-01 -3.729888e-02 0.0
9.831106e-01 -4.122899e-02 0.0
1.027118e+00 -4.408621e-02 0.0
1.072780e+00 -4.574050e-02 0.0
1.118848e+00 -4.614614e-02 0.0
1.164148e+00 -4.537868e-02 0.0
1.207599e+00 -4.352896e-02 0.0
1.248182e+00 -4.066236e-02 0.0
1.284947e+00 -3.684323e-02 0.0
1.317022e+00 -3.215309e-02 0.0
1.343653e+00 -2.671004e-02 0.0
1.364268e+00 -2.069284e-02 0.0
1.378555e+00 -1.436626e-02 0.0
1.386558e+00 -8.081370e-03 0.0
1.388614e+00 -2.134418e-03 0.0
1.384855e+00 3.680557e-03 0.0
1.374865e+00 9.911584e-03 0.0
1.357989e+00 1.679694e-02 0.0
1.333454e+00 2.445737e-02 0.0
1.300571e+00 3.280361e-02 0.0
1.259203e+00 4.128985e-02 0.0
1.210408e+00 4.871656e-02 0.0
1.156918e+00 5.341189e-02 0.0
1.102815e+00 5.402449e-02 0.0
1.052351e+00 5.038532e-02 0.0
1.009287e+00 4.298473e-02 0.0
9.767587e-01 3.245025e-02 0.0
9.642937e-01 1.238653e-02 0.0
0.000000e+00 1.162417e-02 0.0
1.000000e+00 -5.105622e-02 0.0
1.025787e+00 -5.143233e-02 0.0
1.054557e+00 -5.725859e-02 0.0
1.089262e+00 -6.895585e-02 0.0
1.132884e+00 -8.626742e-02 0.0
1.188151e+00 -1.083190e-01 0.0
1.254883e+00 -1.297414e-01 0.0
1.336997e+00 -1.544168e-01 0.0
1.408502e+00 -1.373542e-01 0.0
1.459332e+00 -1.005422e-01 0.0
1.491401e+00 -6.479344e-02 0.0
1.509688e+00 -3.731408e-02 0.0
1.518878e+00 -1.864946e-02 0.0
1.522630e+00 -7.323917e-03 0.0
1.523697e+00 -1.801859e-03 0.0
1.524321e+00 -1.231235e-03 0.0
1.526821e+00 -5.702632e-03 0.0
1.533838e+00 -1.554087e-02 0.0
1.547779e+00 -2.962588e-02 0.0
1.569077e+00 -4.350409e-02 0.0
1.594574e+00 -5.044520e-02 0.0
1.618855e+00 -4.664523e-02 0.0
1.637160e+00 -3.386959e-02 0.0
1.647234e+00 -1.731597e-02 0.0
1.649561e+00 -2.047201e-03 0.0
1.645786e+00 1.022692e-02 0.0
1.636963e+00 2.057491e-02 0.0
1.623373e+00 3.040310e-02 0.0
1.604690e+00 4.085946e-02 0.0
1.580241e+00 5.260683e-02 0.0
1.549309e+00 6.575466e-02 0.0
1.511363e+00 7.994796e-02 0.0
1.466259e+00 9.446951e-02 0.0
1.414258e+00 1.085301e-01 0.0
1.356042e+00 1.213346e-01 0.0
1.292682e+00 1.321815e-01 0.0
1.225572e+00 1.403258e-01 0.0
1.156390e+00 1.446409e-01 0.0
1.087522e+00 1.433171e-01 0.0
1.022354e+00 1.341620e-01 0.0
9.650508e-01 1.154099e-01 0.0
9.200099e-01 8.678928e-02 0.0
8.909447e-01 5.038217e-02 0.0
8.799074e-01 1.043709e-02 0.0
8.866301e-01 -2.855283e-02 0.0
9.098725e-01 -6.522832e-02 0.0
9.485477e-01 -9.962391e-02 0.0
1.001331e+00 -1.309767e-01 0.0
1.066547e+00 -1.574701e-01 0.0
1.141052e+00 -1.757428e-01 0.0
1.219982e+00 -1.822472e-01 0.0
1.297309e+00 -1.751120e-01 0.0
1.366740e+00 -1.540027e-01 0.0
1.422458e+00 -1.203392e-01 0.0
1.459942e+00 -7.765946e-02 0.0
1.476274e+00 -3.078606e-02 0.0
1.470224e+00 1.670023e-02 0.0
1.442436e+00 6.393788e-02 0.0
1.395205e+00 1.093675e-01 0.0
1.332909e+00 1.495097e-01 0.0
1.261752e+00 1.785459e-01 0.0
1.188192e+00 1.902751e-01 0.0
1.118180e+00 1.820782e-01 0.0
1.056251e+00 1.580870e-01 0.0
1.004293e+00 1.258754e-01 0.0
9.629548e-01 9.152083e-02 0.0
9.322304e-01 5.929387e-02 0.0
9.117190e-01 3.139105e-02 0.0
9.008005e-01 8.370694e-03 0.0
8.984281e-01 -1.012271e-02 0.0
9.033818e-01 -2.530017e-02 0.0
9.147717e-01 -3.828275e-02 0.0
9.318872e-01 -4.962535e-02 0.0
9.541031e-01 -5.953526e-02 0.0
9.808074e-01 -6.795379e-02 0.0
1.011249e+00 -7.454836e-02 0.0
1.044466e+00 -7.897836e-02 0.0
1.079327e+00 -8.102730e-02 0.0
1.114674e+00 -8.074615e-02 0.0
1.149466e+00 -7.834116e-02 0.0
1.182744e+00 -7.396073e-02 0.0
1.213633e+00 -6.775338e-02 0.0
1.241355e+00 -5.989485e-02 0.0
1.265240e+00 -5.061607e-02 0.0
1.284759e+00 -4.023196e-02 0.0
1.299518e+00 -2.914617e-02 0.0
1.309196e+00 -1.777935e-02 0.0
1.313388e+00 -6.347425e-03 0.0
1.311578e+00 5.470765e-03 0.0
1.303382e+00 1.808700e-02 0.0
1.288613e+00 3.154562e-02 0.0
1.267500e+00 4.554960e-02 0.0
1.240986e+00 5.929701e-02 0.0
1.210903e+00 7.135222e-02 0.0
1.179785e+00 7.981451e-02 0.0
1.150270e+00 8.290608e-02 0.0
1.124469e+00 7.980536e-02 0.0
1.103723e+00 7.111002e-02 0.0
1.088675e+00 5.801307e-02 0.0
1.079349e+00 4.175512e-02 0.0
1.074631e+00 1.708433e-02 0.0
0.000000e+00 1.600874e-02 0.0
1.000000e+00 -7.357553e-02 0.0
1.022626e+00 -7.413701e-02 0.0
1.048348e+00 -8.300064e-02 0.0
1.080421e+00 -1.010494e-01 0.0
1.122624e+00 -1.284909e-01 0.0
1.179343e+00 -1.650579e-01 0.0
1.251700e+00 -2.021190e-01 0.0
1.354622e+00 -2.573595e-01 0.0
1.433553e+00 -2.163061e-01 0.0
1.481596e+00 -1.486048e-01 0.0
1.508067e+00 -9.128542e-02 0.0
1.521181e+00 -5.044797e-02 0.0
1.526331e+00 -2.382051e-02 0.0
1.526924e+00 -7.937485e-03 0.0
1.525127e+00 -2.483796e-05 0.0
1.522375e+00 1.500476e-03 0.0
1.520062e+00 -3.409926e-03 0.0
1.520249e+00 -1.574875e-02 0.0
1.526004e+00 -3.540125e-02 0.0
1.540075e+00 -5.759589e-02 0.0
1.561734e+00 -7.212477e-02 0.0
1.585801e+00 -7.073240e-02 0.0
1.606476e+00 -5.456465e-02 0.0
1.619891e+00 -3.075224e-02 0.0
1.625221e+00 -7.397023e-03 0.0
1.624324e+00 1.110283e-02 0.0
1.618744e+00 2.613488e-02 0.0
1.608882e+00 4.024478e-02 0.0
1.594376e+00 5.534448e-02 0.0
1.574412e+00 7.255106e-02 0.0
1.548182e+00 9.196361e-02 0.0
1.515087e+00 1.130228e-01 0.0
1.474846e+00 1.346898e-01 0.0
1.427665e+00 1.556906e-01 0.0
1.374235e+00 1.747449e-01 0.0
1.315644e+00 1.907519e-01 0.0
1.253254e+00 2.026952e-01 0.0
1.188712e+00 2.091625e-01 0.0
1.124247e+00 2.077619e-01 0.0
1.062875e+00 1.955126e-01 0.0
1.008035e+00 1.702299e-01 0.0
9.629127e-01 1.318911e-01 0.0
9.299287e-01 8.334561e-02 0.0
9.107639e-01 2.958151e-02 0.0
9.062263e-01 -2.403573e-02 0.0
9.156899e-01 -7.471237e-02 0.0
9.386397e-01 -1.225942e-01 0.0
9.742647e-01 -1.666221e-01 0.0
1.020527e+00 -2.037526e-01 0.0
1.074496e+00 -2.297325e-01 0.0
1.132553e+00 -2.403244e-01 0.0
1.190190e+00 -2.327697e-01 0.0
1.242653e+00 -2.064862e-01 0.0
1.285494e+00 -1.632002e-01 0.0
1.314967e+00 -1.071535e-01 0.0
1.328286e+00 -4.412525e-02 0.0
1.324220e+00 2.074555e-02 0.0
1.304230e+00 8.390738e-02 0.0
1.271743e+00 1.418336e-01 0.0
1.231531e+00 1.897015e-01 0.0
1.188459e+00 2.215977e-01 0.0
1.145945e+00 2.327687e-01 0.0
1.105380e+00 2.226225e-01 0.0
1.067360e+00 1.960862e-01 0.0
1.032662e+00 1.605536e-01 0.0
1.001612e+00 1.225497e-01 0.0
9.743826e-01 8.650316e-02 0.0
9.514498e-01 5.430339e-02 0.0
9.336232e-01 2.617678e-02 0.0
9.216945e-01 1.785564e-03 0.0
9.157374e-01 -1.936355e-02 0.0
9.154410e-01 -3.800684e-02 0.0
9.205860e-01 -5.479081e-02 0.0
9.309177e-01 -6.988744e-02 0.0
9.459652e-01 -8.302179e-02 0.0
9.650807e-01 -9.368431e-02 0.0
9.874440e-01 -1.013622e-01 0.0
1.012095e+00 -1.056987e-01 0.0
1.037924e+00 -1.065958e-01 0.0
1.063885e+00 -1.043223e-01 0.0
1.089058e+00 -9.915496e-02 0.0
1.112658e+00 -9.137357e-02 0.0
1.134020e+00 -8.127688e-02 0.0
1.152588e+00 -6.920491e-02 0.0
1.167895e+00 -5.555980e-02 0.0
1.179516e+00 -4.078708e-02 0.0
1.186974e+00 -2.525754e-02 0.0
1.189664e+00 -9.058732e-03 0.0
1.187055e+00 8.059767e-03 0.0
1.179255e+00 2.586601e-02 0.0
1.166928e+00 4.385222e-02 0.0
1.151368e+00 6.108913e-02 0.0
1.134507e+00 7.613749e-02 0.0
1.118627e+00 8.721188e-02 0.0
1.105769e+00 9.265243e-02 0.0
1.097110e+00 9.154400e-02 0.0
1.092412e+00 8.448303e-02 0.0
1.090789e+00 7.271308e-02 0.0
1.091238e+00 5.754322e-02 0.0
1.092839e+00 4.013407e-02 0.0
1.092131e+00 1.777140e-02 0.0
0.000000e+00 1.671725e-02 0.0
1.000000e+00 -9.125846e-02 0.0
1.017777e+00 -9.199246e-02 0.0
1.038603e+00 -1.038469e-01 0.0
1.066015e+00 -1.284823e-01 0.0
1.104973e+00 -1.674692e-01 0.0
1.162658e+00 -2.227631e-01 0.0
1.244514e+00 -2.839960e-01 0.0
1.383263e+00 -3.961282e-01 0.0
1.463615e+00 -2.966792e-01 0.0
1.499030e+00 -1.840403e-01 0.0
1.513105e+00 -1.053803e-01 0.0
1.517061e+00 -5.442519e-02 0.0
1.515631e+00 -2.241019e-02 0.0
1.511066e+00 -3.393743e-03 0.0
1.504339e+00 6.682022e-03 0.0
1.495882e+00 9.937560e-03 0.0
1.485469e+00 6.981942e-03 0.0
1.473390e+00 -3.690180e-03 0.0
1.462557e+00 -2.458896e-02 0.0
1.458715e+00 -5.377379e-02 0.0
1.466669e+00 -8.009912e-02 0.0
1.484087e+00 -8.817067e-02 0.0
1.504845e+00 -7.534302e-02 0.0
1.523534e+00 -4.946167e-02 0.0
1.536275e+00 -2.015921e-02 0.0
1.542307e+00 5.050740e-03 0.0
1.544108e+00 2.431374e-02 0.0
1.542195e+00 4.213722e-02 0.0
1.536189e+00 6.132945e-02 0.0
1.524889e+00 8.383065e-02 0.0
1.507216e+00 1.096160e-01 0.0
1.482362e+00 1.378567e-01 0.0
1.449904e+00 1.671274e-01 0.0
1.409940e+00 1.956342e-01 0.0
1.363123e+00 2.215411e-01 0.0
1.310578e+00 2.432763e-01 0.0
1.253720e+00 2.595327e-01 0.0
1.194121e+00 2.687417e-01 0.0
1.133860e+00 2.680023e-01 0.0
1.075914e+00 2.534375e-01 0.0
1.023430e+00 2.226940e-01 0.0
9.787212e-01 1.765793e-01 0.0
9.430683e-01 1.189780e-01 0.0
9.178459e-01 5.478349e-02 0.0
9.053394e-01 -1.154972e-02 0.0
9.066903e-01 -7.608375e-02 0.0
9.211007e-01 -1.370250e-01 0.0
9.464282e-01 -1.919700e-01 0.0
9.800190e-01 -2.373639e-01 0.0
1.019061e+00 -2.687946e-01 0.0
1.060572e+00 -2.818566e-01 0.0
1.101309e+00 -2.735268e-01 0.0
1.137959e+00 -2.431569e-01 0.0
1.167465e+00 -1.927267e-01 0.0
1.187147e+00 -1.268562e-01 0.0
1.194992e+00 -5.199022e-02 0.0
1.190595e+00 2.512176e-02 0.0
1.176097e+00 9.838543e-02 0.0
1.155063e+00 1.628467e-01 0.0
1.131437e+00 2.133070e-01 0.0
1.108258e+00 2.447568e-01 0.0
1.086639e+00 2.543672e-01 0.0
1.065815e+00 2.434252e-01 0.0
1.044737e+00 2.171440e-01 0.0
1.022973e+00 1.822973e-01 0.0
1.000716e+00 1.447864e-01 0.0
9.787881e-01 1.084105e-01 0.0
9.582270e-01 7.484394e-02 0.0
9.399692e-01 4.441419e-02 0.0
9.249100e-01 1.682424e-02 0.0
9.138603e-01 -8.334305e-03 0.0
9.072325e-01 -3.139953e-02 0.0
9.051874e-01 -5.276621e-02 0.0
9.076794e-01 -7.239990e-02 0.0
9.144646e-01 -8.982745e-02 0.0
9.250913e-01 -1.043315e-01 0.0
9.388935e-01 -1.151848e-01 0.0
9.550277e-01 -1.218535e-01 0.0
9.725360e-01 -1.241246e-01 0.0
9.904135e-01 -1.222203e-01 0.0
1.007796e+00 -1.165582e-01 0.0
1.023979e+00 -1.075772e-01 0.0
1.038408e+00 -9.572631e-02 0.0
1.050634e+00 -8.145074e-02 0.0
1.060244e+00 -6.519030e-02 0.0
1.066787e+00 -4.735058e-02 0.0
1.069739e+00 -2.823048e-02 0.0
1.068645e+00 -7.985056e-03 0.0
1.063744e+00 1.294034e-02 0.0
1.056061e+00 3.352842e-02 0.0
1.047116e+00 5.277637e-02 0.0
1.038775e+00 6.941012e-02 0.0
1.032919e+00 8.197321e-02 0.0
1.030942e+00 8.916837e-02 0.0
1.033299e+00 9.027523e-02 0.0
1.039069e+00 8.575265e-02 0.0
1.046727e+00 7.680501e-02 0.0
1.054805e+00 6.461489e-02 0.0
1.062087e+00 5.024089e-02 0.0
1.067567e+00 3.463335e-02 0.0
1.068707e+00 1.661063e-02 0.0
0.000000e+00 1.575850e-02 0.0
1.000000e+00 -1.023760e-01 0.0
1.011193e+00 -1.032640e-01 0.0
1.024928e+00 -1.176020e-01 0.0
1.044610e+00 -1.481847e-01 0.0
1.076260e+00 -1.991401e-01 0.0
1.130660e+00 -2.771831e-01 0.0
1.222976e+00 -3.763324e-01 0.0
1.407351e+00 -5.805244e-01 0.0
1.464385e+00 -3.537331e-01 0.0
1.471178e+00 -1.908542e-01 0.0
1.465163e+00 -9.938536e-02 0.0
1.456173e+00 -4.545579e-02 0.0
1.446147e+00 -1.240479e-02 0.0
1.434308e+00 8.425301e-03 0.0
1.420224e+00 2.074541e-02 0.0
1.403848e+00 2.629255e-02 0.0
1.384056e+00 2.675398e-02 0.0
1.358046e+00 2.229895e-02 0.0
1.323523e+00 9.914081e-03 0.0
1.286309e+00 -1.658039e-02 0.0
1.260618e+00 -5.442862e-02 0.0
1.254983e+00 -8.255603e-02 0.0
1.264672e+00 -8.505244e-02 0.0
1.284672e+00 -6.948221e-02 0.0
1.310239e+00 -4.574631e-02 0.0
1.335514e+00 -2.024543e-02 0.0
1.355928e+00 3.879346e-03 0.0
1.372296e+00 2.574890e-02 0.0
1.385133e+00 4.847191e-02 0.0
1.392323e+00 7.662000e-02 0.0
1.392341e+00 1.095776e-01 0.0
1.384114e+00 1.460631e-01 0.0
1.366988e+00 1.842330e-01 0.0
1.340876e+00 2.217257e-01 0.0
1.306358e+00 2.560387e-01 0.0
1.264605e+00 2.850095e-01 0.0
1.217170e+00 3.069467e-01 0.0
1.165772e+00 3.201194e-01 0.0
1.112331e+00 3.214232e-01 0.0
1.059497e+00 3.062502e-01 0.0
1.009814e+00 2.723572e-01 0.0
9.649287e-01 2.214440e-01 0.0
9.264252e-01 1.574610e-01 0.0
8.973279e-01 8.386040e-02 0.0
8.816846e-01 4.073105e-03 0.0
8.812540e-01 -7.567366e-02 0.0
8.933967e-01 -1.491882e-01 0.0
9.139747e-01 -2.125685e-01 0.0
9.396035e-01 -2.630132e-01 0.0
9.678671e-01 -2.970786e-01 0.0
9.967031e-01 -3.107130e-01 0.0
1.023917e+00 -3.007609e-01 0.0
1.047393e+00 -2.666535e-01 0.0
1.065349e+00 -2.107030e-01 0.0
1.076286e+00 -1.378138e-01 0.0
1.079238e+00 -5.496235e-02 0.0
1.074661e+00 2.967738e-02 0.0
1.064848e+00 1.081780e-01 0.0
1.052811e+00 1.748641e-01 0.0
1.041263e+00 2.248345e-01 0.0
1.031630e+00 2.543686e-01 0.0
1.023527e+00 2.624499e-01 0.0
1.015250e+00 2.516821e-01 0.0
1.005182e+00 2.271915e-01 0.0
9.925694e-01 1.948890e-01 0.0
9.776075e-01 1.597278e-01 0.0
9.611371e-01 1.248604e-01 0.0
9.442108e-01 9.174972e-02 0.0
9.278661e-01 6.073841e-02 0.0
9.130589e-01 3.161098e-02 0.0
9.006885e-01 4.015561e-03 0.0
8.914104e-01 -2.214191e-02 0.0
8.854935e-01 -4.686972e-02 0.0
8.830238e-01 -6.995066e-02 0.0
8.839519e-01 -9.077608e-02 0.0
8.880683e-01 -1.084683e-01 0.0
8.949589e-01 -1.220960e-01 0.0
9.039967e-01 -1.309118e-01 0.0
9.143872e-01 -1.345355e-01 0.0
9.252150e-01 -1.330686e-01 0.0
9.356430e-01 -1.270067e-01 0.0
9.450054e-01 -1.169601e-01 0.0
9.528135e-01 -1.035549e-01 0.0
9.587074e-01 -8.736510e-02 0.0
9.623837e-01 -6.888713e-02 0.0
9.635651e-01 -4.855242e-02 0.0
9.621090e-01 -2.679486e-02 0.0
9.583805e-01 -4.277023e-03 0.0
9.535753e-01 1.772501e-02 0.0
9.491664e-01 3.791688e-02 0.0
9.466982e-01 5.522407e-02 0.0
9.475018e-01 6.858605e-02 0.0
9.523238e-01 7.713074e-02 0.0
9.610379e-01 8.043372e-02 0.0
9.725311e-01 7.876155e-02 0.0
9.851120e-01 7.315130e-02 0.0
9.973046e-01 6.459189e-02 0.0
1.007934e+00 5.396508e-02 0.0
1.016200e+00 4.195417e-02 0.0
1.021622e+00 2.919074e-02 0.0
1.023279e+00 1.493381e-02 0.0
0.000000e+00 1.432553e-02 0.0
1.000000e+00 -1.054235e-01 0.0
1.003098e+00 -1.064404e-01 0.0
1.007412e+00 -1.219363e-01 0.0
1.015103e+00 -1.558964e-01 0.0
1.031602e+00 -2.156597e-01 0.0
1.069536e+00 -3.151374e-01 0.0
1.157417e+00 -4.642336e-01 0.0
1.378008e+00 -8.011356e-01 0.0
1.365921e+00 -3.416669e-01 0.0
1.319408e+00 -1.443617e-01 0.0
1.285416e+00 -6.541389e-02 0.0
1.262757e+00 -2.281688e-02 0.0
1.243623e+00 6.708925e-03 0.0
1.223292e+00 2.873550e-02 0.0
1.199447e+00 4.457013e-02 0.0
1.171260e+00 5.445896e-02 0.0
1.138625e+00 5.936793e-02 0.0
1.098408e+00 6.249627e-02 0.0
1.044520e+00 6.378123e-02 0.0
9.744674e-01 5.345185e-02 0.0
8.984140e-01 2.160429e-02 0.0
8.419799e-01 -2.614241e-02 0.0
8.187625e-01 -6.185546e-02 0.0
8.244320e-01 -7.517220e-02 0.0
8.565288e-01 -7.786352e-02 0.0
9.114478e-01 -7.518491e-02 0.0
9.810024e-01 -6.569573e-02 0.0
1.051515e+00 -4.478369e-02 0.0
1.109077e+00 -9.111129e-03 0.0
1.151232e+00 3.444492e-02 0.0
1.181778e+00 7.901052e-02 0.0
1.201095e+00 1.267261e-01 0.0
1.208764e+00 1.765432e-01 0.0
1.204653e+00 2.258162e-01 0.0
1.189383e+00 2.712890e-01 0.0
1.164294e+00 3.100778e-01 0.0
1.131254e+00 3.399667e-01 0.0
1.092420e+00 3.589328e-01 0.0
1.049609e+00 3.642134e-01 0.0
1.004127e+00 3.517116e-01 0.0
9.567484e-01 3.197154e-01 0.0
9.090835e-01 2.690884e-01 0.0
8.670714e-01 1.994526e-01 0.0
8.398416e-01 1.110697e-01 0.0
8.325378e-01 1.135649e-02 0.0
8.422590e-01 -8.541538e-02 0.0
8.614642e-01 -1.684138e-01 0.0
8.839713e-01 -2.350961e-01 0.0
9.064925e-01 -2.855549e-01 0.0
9.276955e-01 -3.183021e-01 0.0
9.468016e-01 -3.298397e-01 0.0
9.628607e-01 -3.168405e-01 0.0
9.750035e-01 -2.788167e-01 0.0
9.827262e-01 -2.184463e-01 0.0
9.858201e-01 -1.409282e-01 0.0
9.844623e-01 -5.362508e-02 0.0
9.797329e-01 3.438631e-02 0.0
9.735741e-01 1.143163e-01 0.0
9.680689e-01 1.803488e-01 0.0
9.646833e-01 2.281997e-01 0.0
9.635989e-01 2.554325e-01 0.0
9.635594e-01 2.624688e-01 0.0
9.625722e-01 2.526489e-01 0.0
9.590070e-01 2.307363e-01 0.0
9.521667e-01 2.017089e-01 0.0
9.423109e-01 1.695631e-01 0.0
9.303346e-01 1.368162e-01 0.0
9.173726e-01 1.046913e-01 0.0
9.044970e-01 7.359354e-02 0.0
8.925340e-01 4.355347e-02 0.0
8.820200e-01 1.450917e-02 0.0
8.733443e-01 -1.348677e-02 0.0
8.666212e-01 -4.016702e-02 0.0
8.618785e-01 -6.522844e-02 0.0
8.591634e-01 -8.808151e-02 0.0
8.585115e-01 -1.078369e-01 0.0
8.598362e-01 -1.234411e-01 0.0
8.628371e-01 -1.339332e-01 0.0
8.669818e-01 -1.387006e-01 0.0
8.715476e-01 -1.376549e-01 0.0
8.757851e-01 -1.312647e-01 0.0
8.790722e-01 -1.202677e-01 0.0
8.809770e-01 -1.054802e-01 0.0
8.812677e-01 -8.767624e-02 0.0
8.799120e-01 -6.755197e-02 0.0
8.771274e-01 -4.578824e-02 0.0
8.735223e-01 -2.321027e-02 0.0
8.702077e-01 -9.829344e-04 0.0
8.684851e-01 1.942715e-02 0.0
8.694061e-01 3.697539e-02 0.0
8.737076e-01 5.090208e-02 0.0
8.816069e-01 6.066634e-02 0.0
8.926540e-01 6.606312e-02 0.0
9.057576e-01 6.730964e-02 0.0
9.194114e-01 6.508725e-02 0.0
9.323103e-01 6.023188e-02 0.0
9.434479e-01 5.343384e-02 0.0
9.521687e-01 4.522375e-02 0.0
9.582004e-01 3.590201e-02 0.0
9.616264e-01 2.574430e-02 0.0
9.630810e-01 1.345869e-02 0.0
0.000000e+00 1.305523e-02 0.0
1.000000e+00 -9.961874e-02 0.0
9.942138e-01 -1.007326e-01 0.0
9.873666e-01 -1.151096e-01 0.0
9.785962e-01 -1.471463e-01 0.0
9.685753e-01 -2.056593e-01 0.0
9.627596e-01 -3.093422e-01 0.0
9.883277e-01 -4.898221e-01 0.0
1.148996e+00 -9.618242e-01 0.0
1.004742e+00 -1.973759e-01 0.0
8.777469e-01 -1.732867e-02 0.0
8.195493e-01 -7.236812e-03 0.0
7.864159e-01 1.029607e-02 0.0
7.598251e-01 3.327934e-02 0.0
7.299351e-01 5.860502e-02 0.0
6.886925e-01 8.579228e-02 0.0
6.310200e-01 1.121110e-01 0.0
5.565833e-01 1.337842e-01 0.0
4.739948e-01 1.450643e-01 0.0
4.034890e-01 1.342666e-01 0.0
3.473176e-01 1.096028e-01 0.0
2.937145e-01 7.518697e-02 0.0
2.388142e-01 2.873738e-02 0.0
2.021170e-01 -2.517873e-02 0.0
2.050815e-01 -7.815709e-02 0.0
2.546736e-01 -1.274761e-01 0.0
3.467851e-01 -1.673168e-01 0.0
4.701237e-01 -1.890548e-01 0.0
6.077311e-01 -1.824116e-01 0.0
7.402651e-01 -1.416656e-01 0.0
8.485024e-01 -7.381286e-02 0.0
9.225403e-01 4.952236e-03 0.0
9.733554e-01 7.589047e-02 0.0
1.007186e+00 1.426916e-01 0.0
1.025627e+00 2.073551e-01 0.0
1.029900e+00 2.669955e-01 0.0
1.021657e+00 3.183009e-01 0.0
1.002989e+00 3.586134e-01 0.0
9.760681e-01 3.858337e-01 0.0
9.415991e-01 3.986620e-01 0.0
8.976065e-01 3.956837e-01 0.0
8.456257e-01 3.716757e-01 0.0
7.958849e-01 3.188088e-01 0.0
7.644004e-01 2.309167e-01 0.0
7.599608e-01 1.154888e-01 0.0
7.779653e-01 -6.668550e-03 0.0
8.068053e-01 -1.142758e-01 0.0
8.372333e-01 -1.988624e-01 0.0
8.640309e-01 -2.619141e-01 0.0
8.851965e-01 -3.067409e-01 0.0
9.009092e-01 -3.340353e-01 0.0
9.119894e-01 -3.409403e-01 0.0
9.188320e-01 -3.237035e-01 0.0
9.216335e-01 -2.816386e-01 0.0
9.208683e-01 -2.177015e-01 0.0
9.173961e-01 -1.374764e-01 0.0
9.123584e-01 -4.860794e-02 0.0
9.071985e-01 3.952582e-02 0.0
9.033192e-01 1.181751e-01 0.0
9.018522e-01 1.817953e-01 0.0
9.032065e-01 2.268250e-01 0.0
9.066859e-01 2.519327e-01 0.0
9.105954e-01 2.585388e-01 0.0
9.129777e-01 2.502461e-01 0.0
9.124312e-01 2.312624e-01 0.0
9.085217e-01 2.055979e-01 0.0
9.017572e-01 1.763071e-01 0.0
8.932482e-01 1.453047e-01 0.0
8.842527e-01 1.136663e-01 0.0
8.757761e-01 8.204973e-02 0.0
8.683431e-01 5.096596e-02 0.0
8.619896e-01 2.084220e-02 0.0
8.564710e-01 -7.988718e-03 0.0
8.514668e-01 -3.518329e-02 0.0
8.467157e-01 -6.049773e-02 0.0
8.422094e-01 -8.359575e-02 0.0
8.381820e-01 -1.038300e-01 0.0
8.349224e-01 -1.202019e-01 0.0
8.325721e-01 -1.316033e-01 0.0
8.310191e-01 -1.371681e-01 0.0
8.298862e-01 -1.365425e-01 0.0
8.286579e-01 -1.300568e-01 0.0
8.268651e-01 -1.184953e-01 0.0
8.242050e-01 -1.028406e-01 0.0
8.206340e-01 -8.412567e-02 0.0
8.164360e-01 -6.337451e-02 0.0
8.122596e-01 -4.163230e-02 0.0
8.090661e-01 -2.003726e-02 0.0
8.078805e-01 1.822242e-04 0.0
8.093854e-01 1.790180e-02 0.0
8.138830e-01 3.245723e-02 0.0
8.212810e-01 4.348361e-02 0.0
8.310519e-01 5.087498e-02 0.0
8.422852e-01 5.480931e-02 0.0
8.538367e-01 5.573769e-02 0.0
8.646393e-01 5.426418e-02 0.0
8.739167e-01 5.093403e-02 0.0
8.811634e-01 4.616659e-02 0.0
8.861654e-01 4.020125e-02 0.0
8.890186e-01 3.302839e-02 0.0
8.901453e-01 2.459714e-02 0.0
8.912918e-01 1.229171e-02 0.0
0.000000e+00 1.201199e-02 0.0
1.000000e+00 -8.552585e-02 0.0
9.858886e-01 -8.669959e-02 0.0
9.680694e-01 -9.731092e-02 0.0
9.414825e-01 -1.205799e-01 0.0
8.977528e-01 -1.619500e-01 0.0
8.201220e-01 -2.317318e-01 0.0
6.844440e-01 -3.541646e-01 0.0
1.974918e-01 -4.748345e-01 0.0
-1.003393e+00 4.720007e-01 0.0
0.000000e+00 -3.739218e-02 0.0
-6.335526e-02 3.871138e-02 0.0
-1.882394e-03 -5.119725e-02 0.0
6.660873e-02 -3.523223e-02 0.0
1.103420e-01 1.485129e-02 0.0
1.226656e-01 7.344821e-02 0.0
1.099004e-01 1.248558e-01 0.0
8.099037e-02 1.626738e-01 0.0
4.441256e-02 1.816216e-01 0.0
-3.713777e-03 1.823725e-01 0.0
-5.823958e-02 1.641081e-01 0.0
-1.131508e-01 1.300778e-01 0.0
-1.613535e-01 7.691959e-02 0.0
-1.891361e-01 2.583425e-03 0.0
-1.792495e-01 -8.806418e-02 0.0
-1.253099e-01 -1.814362e-01 0.0
-2.629021e-02 -2.663569e-01 0.0
1.091480e-01 -3.245134e-01 0.0
2.651448e-01 -3.384289e-01 0.0
4.236986e-01 -3.002398e-01 0.0
5.670479e-01 -2.171826e-01 0.0
6.821999e-01 -1.102203e-01 0.0
7.604460e-01 -2.376072e-03 0.0
8.132481e-01 8.986900e-02 0.0
8.466818e-01 1.739010e-01 0.0
8.631804e-01 2.504763e-01 0.0
8.645320e-01 3.169289e-01 0.0
8.521311e-01 3.709938e-01 0.0
8.264902e-01 4.114542e-01 0.0
7.874035e-01 4.377282e-01 0.0
7.375324e-01 4.455343e-01 0.0
6.899508e-01 4.192369e-01 0.0
6.635410e-01 3.451982e-01 0.0
6.681030e-01 2.263342e-01 0.0
6.985528e-01 8.501853e-02 0.0
7.421491e-01 -5.028525e-02 0.0
7.873706e-01 -1.595177e-01 0.0
8.273097e-01 -2.388219e-01 0.0
8.580393e-01 -2.926642e-01 0.0
8.781909e-01 -3.269130e-01 0.0
8.889119e-01 -3.447767e-01 0.0
8.926395e-01 -3.446883e-01 0.0
8.914358e-01 -3.225203e-01 0.0
8.865399e-01 -2.767632e-01 0.0
8.790509e-01 -2.102330e-01 0.0
8.704228e-01 -1.288688e-01 0.0
8.623550e-01 -4.056065e-02 0.0
8.564095e-01 4.545089e-02 0.0
8.534578e-01 1.211062e-01 0.0
8.538332e-01 1.813994e-01 0.0
8.571319e-01 2.235058e-01 0.0
8.620767e-01 2.469675e-01 0.0
8.668170e-01 2.537780e-01 0.0
8.696188e-01 2.474239e-01 0.0
8.694811e-01 2.313796e-01 0.0
8.664221e-01 2.086364e-01 0.0
8.613515e-01 1.813572e-01 0.0
8.556334e-01 1.510024e-01 0.0
8.505568e-01 1.187224e-01 0.0
8.469273e-01 8.565868e-02 0.0
8.448957e-01 5.297707e-02 0.0
8.440148e-01 2.170269e-02 0.0
8.434422e-01 -7.436585e-03 0.0
8.422381e-01 -3.399970e-02 0.0
8.396230e-01 -5.790313e-02 0.0
8.352570e-01 -7.925018e-02 0.0
8.293620e-01 -9.795554e-02 0.0
8.225145e-01 -1.133749e-01 0.0
8.153445e-01 -1.244538e-01 0.0
8.082861e-01 -1.301302e-01 0.0
8.015094e-01 -1.297863e-01 0.0
7.949537e-01 -1.235216e-01 0.0
7.885024e-01 -1.120645e-01 0.0
7.821088e-01 -9.646750e-02 0.0
7.759098e-01 -7.794718e-02 0.0
7.702837e-01 -5.776891e-02 0.0
7.658091e-01 -3.717814e-02 0.0
7.631051e-01 -1.735379e-02 0.0
7.625893e-01 6.775377e-04 0.0
7.643807e-01 1.608996e-02 0.0
7.683265e-01 2.849097e-02 0.0
7.740114e-01 3.777819e-02 0.0
7.808221e-01 4.404379e-02 0.0
7.880529e-01 4.755806e-02 0.0
7.950286e-01 4.874152e-02 0.0
8.012262e-01 4.804607e-02 0.0
8.063137e-01 4.582603e-02 0.0
8.101182e-01 4.234165e-02 0.0
8.126060e-01 3.769298e-02 0.0
8.138967e-01 3.171722e-02 0.0
8.143123e-01 2.416102e-02 0.0
8.156700e-01 1.091353e-02 0.0
0.000000e+00 1.067410e-02 0.0
1.000000e+00 -6.532123e-02 0.0
9.797382e-01 -6.651615e-02 0.0
9.540293e-01 -7.162253e-02 0.0
9.151672e-01 -8.173823e-02 0.0
8.493571e-01 -9.616036e-02 0.0
7.269748e-01 -1.093700e-01 0.0
4.738018e-01 -1.010120e-01 0.0
-8.991373e-03 7.996189e-03 0.0
-6.611435e-05 0.000000e+00 0.0
0.000000e+00 -0.000000e+00 0.0
0.000000e+00 1.309904e-02 0.0
-4.325798e-02 -7.959725e-03 0.0
-6.739443e-02 -1.111623e-02 0.0
-8.351376e-02 3.095016e-02 0.0
-1.110594e-01 1.009734e-01 0.0
-1.349589e-01 1.487348e-01 0.0
-1.561848e-01 1.838793e-01 0.0
-1.775012e-01 2.029176e-01 0.0
-2.008760e-01 2.057268e-01 0.0