# vtk DataFile Version 3.0
Vector Field
ASCII
DATASET RECTILINEAR_GRID
DIMENSIONS 102 22 1
X_COORDINATES 102 double
0.000000 0.100000 0.200000 0.300000 0.400000 0.500000 0.600000 0.700000 0.800000 0.900000 1.000000 1.100000 1.200000 1.300000 1.400000 1.500000 1.600000 1.700000 1.800000 1.900000 2.000000 2.100000 2.200000 2.300000 2.400000 2.500000 2.600000 2.700000 2.800000 2.900000 3.000000 3.100000 3.200000 3.300000 3.400000 3.500000 3.600000 3.700000 3.800000 3.900000 4.000000 4.100000 4.200000 4.300000 4.400000 4.500000 4.600000 4.700000 4.800000 4.900000 5.000000 5.100000 5.200000 5.300000 5.400000 5.500000 5.600000 5.700000 5.800000 5.900000 6.000000 6.100000 6.200000 6.300000 6.400000 6.500000 6.600000 6.700000 6.800000 6.900000 7.000000 7.100000 7.200000 7.300000 7.400000 7.500000 7.600000 7.700000 7.800000 7.900000 8.000000 8.100000 8.200000 8.300000 8.400000 8.500000 8.600000 8.700000 8.800000 8.900000 9.000000 9.100000 9.200000 9.300000 9.400000 9.500000 9.600000 9.700000 9.800000 9.900000 10.000000 10.100000 
Y_COORDINATES 22 double
0.000000 0.100000 0.200000 0.300000 0.400000 0.500000 0.600000 0.700000 0.800000 0.900000 1.000000 1.100000 1.200000 1.300000 1.400000 1.500000 1.600000 1.700000 1.800000 1.900000 2.000000 2.100000 
Z_COORDINATES 1 double
0.0
POINT_DATA 2244
VECTORS Velocity double
0.000000e+00 0.000000e+00 0.0
-1.026325e+00 0.000000e+00 0.0
-1.055599e+00 0.000000e+00 0.0
-1.090703e+00 0.000000e+00 0.0
-1.134285e+00 0.000000e+00 0.0
-1.188353e+00 0.000000e+00 0.0
-1.252403e+00 0.000000e+00 0.0
-1.325718e+00 0.000000e+00 0.0
-1.392167e+00 0.000000e+00 0.0
-1.441786e+00 0.000000e+00 0.0
-1.473623e+00 0.000000e+00 0.0
-1.490956e+00 0.000000e+00 0.0
-1.497891e+00 0.000000e+00 0.0
-1.498006e+00 0.000000e+00 0.0
-1.494105e+00 0.000000e+00 0.0
-1.488476e+00 0.000000e+00 0.0
-1.483366e+00 0.000000e+00 0.0
-1.481436e+00 0.000000e+00 0.0
-1.485759e+00 0.000000e+00 0.0
-1.498839e+00 0.000000e+00 0.0
-1.520691e+00 0.000000e+00 0.0
-1.547639e+00 0.000000e+00 0.0
-1.573719e+00 0.000000e+00 0.0
-1.593718e+00 0.000000e+00 0.0
-1.605204e+00 0.000000e+00 0.0
-1.608529e+00 0.000000e+00 0.0
-1.605186e+00 0.000000e+00 0.0
-1.596201e+00 0.000000e+00 0.0
-1.581855e+00 0.000000e+00 0.0
-1.561835e+00 0.000000e+00 0.0
-1.535508e+00 0.000000e+00 0.0
-1.502187e+00 0.000000e+00 0.0
-1.461363e+00 0.000000e+00 0.0
-1.412872e+00 0.000000e+00 0.0
-1.356943e+00 0.000000e+00 0.0
-1.294178e+00 0.000000e+00 0.0
-1.225494e+00 0.000000e+00 0.0
-1.152209e+00 0.000000e+00 0.0
-1.076453e+00 0.000000e+00 0.0
-1.001430e+00 0.000000e+00 0.0
-9.314870e-01 0.000000e+00 0.0
-8.719654e-01 0.000000e+00 0.0
-8.283565e-01 0.000000e+00 0.0
-8.049494e-01 0.000000e+00 0.0
-8.035774e-01 0.000000e+00 0.0
-8.237498e-01 0.000000e+00 0.0
-8.644153e-01 0.000000e+00 0.0
-9.242224e-01 0.000000e+00 0.0
-1.001127e+00 0.000000e+00 0.0
-1.091569e+00 0.000000e+00 0.0
-1.190095e+00 0.000000e+00 0.0
-1.289764e+00 0.000000e+00 0.0
-1.383158e+00 0.000000e+00 0.0
-1.462975e+00 0.000000e+00 0.0
-1.522993e+00 0.000000e+00 0.0
-1.559275e+00 0.000000e+00 0.0
-1.570932e+00 0.000000e+00 0.0
-1.558434e+00 0.000000e+00 0.0
-1.521375e+00 0.000000e+00 0.0
-1.459461e+00 0.000000e+00 0.0
-1.374122e+00 0.000000e+00 0.0
-1.271226e+00 0.000000e+00 0.0
-1.162736e+00 0.000000e+00 0.0
-1.062982e+00 0.000000e+00 0.0
-9.828173e-01 0.000000e+00 0.0
-9.277940e-01 0.000000e+00 0.0
-8.984708e-01 0.000000e+00 0.0
-8.917154e-01 0.000000e+00 0.0
-9.022837e-01 0.000000e+00 0.0
-9.248058e-01 0.000000e+00 0.0
-9.548268e-01 0.000000e+00 0.0
-9.888954e-01 0.000000e+00 0.0
-1.024421e+00 0.000000e+00 0.0
-1.059469e+00 0.000000e+00 0.0
-1.092608e+00 0.000000e+00 0.0
-1.122781e+00 0.000000e+00 0.0
-1.149209e+00 0.000000e+00 0.0
-1.171345e+00 0.000000e+00 0.0
-1.188856e+00 0.000000e+00 0.0
-1.201616e+00 0.000000e+00 0.0
-1.209710e+00 0.000000e+00 0.0
-1.213405e+00 0.000000e+00 0.0
-1.212952e+00 0.000000e+00 0.0
-1.208390e+00 0.000000e+00 0.0
-1.199709e+00 0.000000e+00 0.0
-1.186897e+00 0.000000e+00 0.0
-1.170000e+00 0.000000e+00 0.0
-1.149261e+00 0.000000e+00 0.0
-1.125358e+00 0.000000e+00 0.0
-1.099600e+00 0.000000e+00 0.0
-1.073863e+00 0.000000e+00 0.0
-1.050192e+00 0.000000e+00 0.0
-1.030385e+00 0.000000e+00 0.0
-1.015674e+00 0.000000e+00 0.0
-1.006562e+00 0.000000e+00 0.0
-1.002793e+00 0.000000e+00 0.0
-1.003431e+00 0.000000e+00 0.0
-1.007126e+00 0.000000e+00 0.0
-1.012449e+00 0.000000e+00 0.0
-1.018119e+00 0.000000e+00 0.0
-1.018119e+00 0.000000e+00 0.0
0.000000e+00 0.000000e+00 0.0
1.000000e+00 -2.634799e-02 0.0
1.026555e+00 -2.650073e-02 0.0
1.056039e+00 -2.944703e-02 0.0
1.091368e+00 -3.529093e-02 0.0
1.135193e+00 -4.379043e-02 0.0
1.189514e+00 -5.430379e-02 0.0
1.253825e+00 -6.430307e-02 0.0
1.327406e+00 -7.357813e-02 0.0
1.394038e+00 -6.663532e-02 0.0
1.443695e+00 -4.966696e-02 0.0
1.475406e+00 -3.172335e-02 0.0
1.492449e+00 -1.705851e-02 0.0
1.498933e+00 -6.504089e-03 0.0
1.498432e+00 4.806714e-04 0.0
1.493703e+00 4.706195e-03 0.0
1.486955e+00 6.728148e-03 0.0
1.480299e+00 6.633794e-03 0.0
1.476245e+00 4.030974e-03 0.0
1.477881e+00 -1.651258e-03 0.0
1.488101e+00 -1.023234e-02 0.0
1.507795e+00 -1.970231e-02 0.0
1.534185e+00 -2.639238e-02 0.0
1.561526e+00 -2.733868e-02 0.0
1.584048e+00 -2.251379e-02 0.0
1.598444e+00 -1.437841e-02 0.0
1.604386e+00 -5.919348e-03 0.0
1.603239e+00 1.174803e-03 0.0
1.596197e+00 7.066458e-03 0.0
1.583679e+00 1.253855e-02 0.0
1.565452e+00 1.824093e-02 0.0
1.540916e+00 2.454869e-02 0.0
1.509373e+00 3.155411e-02 0.0
1.470270e+00 3.911227e-02 0.0
1.423380e+00 4.689755e-02 0.0
1.368871e+00 5.451321e-02 0.0
1.307296e+00 6.157660e-02 0.0
1.239532e+00 6.776299e-02 0.0
1.166819e+00 7.270818e-02 0.0
1.091119e+00 7.569282e-02 0.0
1.015457e+00 7.565281e-02 0.0
9.439614e-01 7.148574e-02 0.0
8.818128e-01 6.213781e-02 0.0
8.345307e-01 4.727133e-02 0.0
8.066974e-01 2.782315e-02 0.0
8.006496e-01 6.038837e-03 0.0
8.161660e-01 -1.552367e-02 0.0
8.522324e-01 -3.607150e-02 0.0
9.075387e-01 -5.530877e-02 0.0
9.802184e-01 -7.267926e-02 0.0
1.067148e+00 -8.692588e-02 0.0
1.163322e+00 -9.616869e-02 0.0
1.262233e+00 -9.890379e-02 0.0
1.356719e+00 -9.447928e-02 0.0
1.439602e+00 -8.287625e-02 0.0
1.504488e+00 -6.488201e-02 0.0
1.546883e+00 -4.239187e-02 0.0
1.565132e+00 -1.824830e-02 0.0
1.559665e+00 5.465767e-03 0.0
1.530149e+00 2.951290e-02 0.0
1.476053e+00 5.409192e-02 0.0
1.397956e+00 7.809099e-02 0.0
1.300031e+00 9.791995e-02 0.0
1.192475e+00 1.075491e-01 0.0
1.089681e+00 1.027875e-01 0.0
1.003846e+00 8.582908e-02 0.0
9.420843e-01 6.175595e-02 0.0
9.062216e-01 3.585721e-02 0.0
8.939788e-01 1.223800e-02 0.0
9.005017e-01 -6.527061e-03 0.0
9.202580e-01 -1.975953e-02 0.0
9.485050e-01 -2.824918e-02 0.0
9.815323e-01 -3.302852e-02 0.0
1.016548e+00 -3.501590e-02 0.0
1.051481e+00 -3.493205e-02 0.0
1.084800e+00 -3.331683e-02 0.0
1.115380e+00 -3.057752e-02 0.0
1.142396e+00 -2.701248e-02 0.0
1.165261e+00 -2.286236e-02 0.0
1.183605e+00 -1.834104e-02 0.0
1.197261e+00 -1.365312e-02 0.0
1.206269e+00 -9.005892e-03 0.0
1.210862e+00 -4.591821e-03 0.0
1.211326e+00 -4.626629e-04 0.0
1.207736e+00 3.589672e-03 0.0
1.200092e+00 7.644676e-03 0.0
1.188382e+00 1.170906e-02 0.0
1.172635e+00 1.574606e-02 0.0
1.153030e+00 1.960409e-02 0.0
1.130105e+00 2.292293e-02 0.0
1.104983e+00 2.512086e-02 0.0
1.079381e+00 2.560097e-02 0.0
1.055289e+00 2.409062e-02 0.0
1.034556e+00 2.073191e-02 0.0
1.018548e+00 1.600729e-02 0.0
1.007947e+00 1.060000e-02 0.0
1.002694e+00 5.253570e-03 0.0
1.002025e+00 6.684988e-04 0.0
1.004679e+00 -2.653675e-03 0.0
1.009232e+00 -4.552846e-03 0.0
1.014384e+00 -5.151988e-03 0.0
1.018119e+00 -3.734765e-03 0.0
0.000000e+00 -3.971893e-03 0.0
1.000000e+00 -5.306656e-02 0.0
1.026942e+00 -5.340805e-02 0.0
1.056830e+00 -5.932527e-02 0.0
1.092730e+00 -7.118518e-02 0.0
1.137639e+00 -8.870399e-02 0.0
1.194290e+00 -1.109619e-01 0.0
1.262431e+00 -1.324446e-01 0.0
1.346036e+00 -1.571897e-01 0.0
1.418460e+00 -1.390637e-01 0.0
1.469326e+00 -1.005375e-01 0.0
1.500483e+00 -6.288335e-02 0.0
1.516948e+00 -3.352914e-02 0.0
1.523428e+00 -1.298832e-02 0.0
1.523534e+00 3.686735e-04 0.0
1.519825e+00 8.412320e-03 0.0
1.514200e+00 1.234842e-02 0.0
1.508310e+00 1.251883e-02 0.0
1.504124e+00 8.216787e-03 0.0
1.504340e+00 -1.865078e-03 0.0
1.512109e+00 -1.800071e-02 0.0
1.529432e+00 -3.702187e-02 0.0
1.554852e+00 -5.180694e-02 0.0
1.583097e+00 -5.557860e-02 0.0
1.608170e+00 -4.757699e-02 0.0
1.625988e+00 -3.218616e-02 0.0
1.635385e+00 -1.530624e-02 0.0
1.637439e+00 -8.758294e-04 0.0
1.633670e+00 1.083555e-02 0.0
1.624630e+00 2.157353e-02 0.0
1.610093e+00 3.277823e-02 0.0
1.589432e+00 4.520776e-02 0.0
1.561936e+00 5.904941e-02 0.0
1.527050e+00 7.399975e-02 0.0
1.484579e+00 8.936658e-02 0.0
1.434765e+00 1.043264e-01 0.0
1.378256e+00 1.180829e-01 0.0
1.316102e+00 1.299141e-01 0.0
1.249693e+00 1.391139e-01 0.0
1.180677e+00 1.447052e-01 0.0
1.111223e+00 1.451046e-01 0.0
1.044453e+00 1.382535e-01 0.0
9.842871e-01 1.223023e-01 0.0
9.350453e-01 9.651212e-02 0.0
9.007147e-01 6.215336e-02 0.0
8.840196e-01 2.273412e-02 0.0
8.855559e-01 -1.705899e-02 0.0
9.041579e-01 -5.467157e-02 0.0
9.385409e-01 -8.968893e-02 0.0
9.871382e-01 -1.212731e-01 0.0
1.047986e+00 -1.477697e-01 0.0
1.118123e+00 -1.663027e-01 0.0
1.192920e+00 -1.736991e-01 0.0
1.266698e+00 -1.682568e-01 0.0
1.333561e+00 -1.497402e-01 0.0
1.388053e+00 -1.193753e-01 0.0
1.425861e+00 -8.020202e-02 0.0
1.444117e+00 -3.650696e-02 0.0
1.441252e+00 8.327826e-03 0.0
1.417473e+00 5.328989e-02 0.0
1.374687e+00 9.687550e-02 0.0
1.316937e+00 1.358386e-01 0.0
1.250445e+00 1.644105e-01 0.0
1.182352e+00 1.756407e-01 0.0
1.119533e+00 1.656050e-01 0.0
1.067669e+00 1.376925e-01 0.0
1.029658e+00 9.976641e-02 0.0
1.006133e+00 5.938145e-02 0.0
9.965510e-01 2.181962e-02 0.0
9.990534e-01 -9.029297e-03 0.0
1.010878e+00 -3.158340e-02 0.0
1.029288e+00 -4.665911e-02 0.0
1.051867e+00 -5.560631e-02 0.0
1.076530e+00 -5.967815e-02 0.0
1.101676e+00 -6.007605e-02 0.0
1.126131e+00 -5.777080e-02 0.0
1.148950e+00 -5.339502e-02 0.0
1.169373e+00 -4.743544e-02 0.0
1.186830e+00 -4.031877e-02 0.0
1.200934e+00 -3.244492e-02 0.0
1.211474e+00 -2.419345e-02 0.0
1.218369e+00 -1.590123e-02 0.0
1.221549e+00 -7.772730e-03 0.0
1.220774e+00 3.114476e-04 0.0
1.215834e+00 8.529298e-03 0.0
1.206633e+00 1.684445e-02 0.0
1.193195e+00 2.514554e-02 0.0
1.175784e+00 3.315618e-02 0.0
1.155064e+00 4.032352e-02 0.0
1.132229e+00 4.575721e-02 0.0
1.109020e+00 4.832851e-02 0.0
1.087567e+00 4.705342e-02 0.0
1.069839e+00 4.181904e-02 0.0
1.057126e+00 3.344412e-02 0.0
1.049828e+00 2.330485e-02 0.0
1.047503e+00 1.292593e-02 0.0
1.049098e+00 3.658398e-03 0.0
1.053318e+00 -3.551642e-03 0.0
1.058999e+00 -8.334104e-03 0.0
1.065071e+00 -1.062536e-02 0.0
1.070588e+00 -1.066872e-02 0.0
1.074008e+00 -7.154157e-03 0.0
0.000000e+00 -7.535201e-03 0.0
1.000000e+00 -7.658565e-02 0.0
1.023734e+00 -7.710869e-02 0.0
1.050529e+00 -8.611298e-02 0.0
1.083757e+00 -1.044138e-01 0.0
1.127224e+00 -1.321761e-01 0.0
1.185337e+00 -1.690746e-01 0.0
1.259125e+00 -2.062369e-01 0.0
1.363845e+00 -2.619136e-01 0.0
1.443796e+00 -2.190182e-01 0.0
1.491901e+00 -1.486445e-01 0.0
1.517537e+00 -8.852486e-02 0.0
1.529037e+00 -4.503344e-02 0.0
1.531886e+00 -1.584258e-02 0.0
1.529552e+00 2.697628e-03 0.0
1.524075e+00 1.388576e-02 0.0
1.516905e+00 1.951241e-02 0.0
1.509067e+00 2.035623e-02 0.0
1.501449e+00 1.583797e-02 0.0
1.495522e+00 4.060133e-03 0.0
1.494303e+00 -1.677689e-02 0.0
1.501555e+00 -4.427063e-02 0.0
1.519136e+00 -6.938319e-02 0.0
1.543957e+00 -8.039091e-02 0.0
1.569706e+00 -7.331650e-02 0.0
1.590998e+00 -5.346972e-02 0.0
1.604854e+00 -2.915597e-02 0.0
1.610990e+00 -7.013645e-03 0.0
1.611152e+00 1.066870e-02 0.0
1.606338e+00 2.638692e-02 0.0
1.596329e+00 4.278542e-02 0.0
1.580442e+00 6.109437e-02 0.0
1.557896e+00 8.159647e-02 0.0
1.528119e+00 1.037765e-01 0.0
1.490835e+00 1.266491e-01 0.0
1.446188e+00 1.489716e-01 0.0
1.394815e+00 1.694530e-01 0.0
1.337782e+00 1.869436e-01 0.0
1.276452e+00 2.004419e-01 0.0
1.212417e+00 2.087385e-01 0.0
1.147724e+00 2.097951e-01 0.0
1.085179e+00 2.007968e-01 0.0
1.028101e+00 1.793798e-01 0.0
9.797668e-01 1.448457e-01 0.0
9.428623e-01 9.905801e-02 0.0
9.193622e-01 4.623523e-02 0.0
9.105512e-01 -8.246167e-03 0.0
9.160325e-01 -6.015028e-02 0.0
9.349560e-01 -1.086092e-01 0.0
9.665710e-01 -1.528846e-01 0.0
1.009065e+00 -1.902606e-01 0.0
1.059539e+00 -2.167753e-01 0.0
1.114323e+00 -2.284820e-01 0.0
1.168988e+00 -2.229224e-01 0.0
1.218932e+00 -1.996865e-01 0.0
1.259925e+00 -1.603701e-01 0.0
1.288445e+00 -1.087247e-01 0.0
1.301811e+00 -4.987490e-02 0.0
1.298501e+00 1.163486e-02 0.0
1.279502e+00 7.228653e-02 0.0
1.248002e+00 1.283743e-01 0.0
1.208826e+00 1.750121e-01 0.0
1.167424e+00 2.058116e-01 0.0
1.128297e+00 2.147666e-01 0.0
1.093781e+00 2.001199e-01 0.0
1.065014e+00 1.664590e-01 0.0
1.043040e+00 1.217396e-01 0.0
1.028565e+00 7.385658e-02 0.0
1.021360e+00 2.902418e-02 0.0
1.020846e+00 -8.514496e-03 0.0
1.026164e+00 -3.690114e-02 0.0
1.036256e+00 -5.675006e-02 0.0
1.050003e+00 -6.935226e-02 0.0
1.066273e+00 -7.594680e-02 0.0
1.083852e+00 -7.765396e-02 0.0
1.101595e+00 -7.551193e-02 0.0
1.118509e+00 -7.030905e-02 0.0
1.133772e+00 -6.269753e-02 0.0
1.146740e+00 -5.328723e-02 0.0
1.156958e+00 -4.266313e-02 0.0
1.164129e+00 -3.136552e-02 0.0
1.168046e+00 -1.981865e-02 0.0
1.168420e+00 -8.147566e-03 0.0
1.164775e+00 3.955534e-03 0.0
1.156911e+00 1.639153e-02 0.0
1.144821e+00 2.893296e-02 0.0
1.128784e+00 4.118172e-02 0.0
1.109535e+00 5.240369e-02 0.0
1.088441e+00 6.141702e-02 0.0
1.067527e+00 6.667025e-02 0.0
1.049199e+00 6.665629e-02 0.0
1.035197e+00 6.105480e-02 0.0
1.026137e+00 5.087859e-02 0.0
1.021694e+00 3.788658e-02 0.0
1.020909e+00 2.408977e-02 0.0
1.022569e+00 1.126626e-02 0.0
1.025554e+00 6.736975e-04 0.0
1.029128e+00 -7.125525e-03 0.0
1.032850e+00 -1.205563e-02 0.0
1.036409e+00 -1.418506e-02 0.0
1.039555e+00 -1.381390e-02 0.0
1.042248e+00 -9.846908e-03 0.0
0.000000e+00 -1.035929e-02 0.0
1.000000e+00 -9.519530e-02 0.0
1.018810e+00 -9.588771e-02 0.0
1.040638e+00 -1.079381e-01 0.0
1.069148e+00 -1.329262e-01 0.0
1.109343e+00 -1.723732e-01 0.0
1.168447e+00 -2.281784e-01 0.0
1.251857e+00 -2.896509e-01 0.0
1.392902e+00 -4.029600e-01 0.0
1.474353e+00 -3.004720e-01 0.0
1.509966e+00 -1.842616e-01 0.0
1.523595e+00 -1.021600e-01 0.0
1.526574e+00 -4.801636e-02 0.0
1.523914e+00 -1.318737e-02 0.0
1.517715e+00 8.892819e-03 0.0
1.509099e+00 2.249672e-02 0.0
1.498929e+00 2.968080e-02 0.0
1.487632e+00 3.165599e-02 0.0
1.474852e+00 2.861649e-02 0.0
1.459661e+00 1.925388e-02 0.0
1.442626e+00 2.620340e-04 0.0
1.429017e+00 -3.065705e-02 0.0
1.425989e+00 -6.634922e-02 0.0
1.436599e+00 -9.099222e-02 0.0
1.456293e+00 -9.300053e-02 0.0
1.479196e+00 -7.636738e-02 0.0
1.500595e+00 -5.055477e-02 0.0
1.516808e+00 -2.323372e-02 0.0
1.526265e+00 1.210457e-03 0.0
1.530688e+00 2.196150e-02 0.0
1.530009e+00 4.346532e-02 0.0
1.523462e+00 6.764189e-02 0.0
1.510080e+00 9.497903e-02 0.0
1.489150e+00 1.247047e-01 0.0
1.460275e+00 1.555214e-01 0.0
1.423498e+00 1.857465e-01 0.0
1.379396e+00 2.135530e-01 0.0
1.329039e+00 2.372977e-01 0.0
1.273835e+00 2.556440e-01 0.0
1.215352e+00 2.672204e-01 0.0
1.155446e+00 2.696991e-01 0.0
1.096858e+00 2.593845e-01 0.0
1.042754e+00 2.334838e-01 0.0
9.957876e-01 1.918119e-01 0.0
9.575578e-01 1.372887e-01 0.0
9.292598e-01 7.453493e-02 0.0
9.128187e-01 8.197494e-03 0.0
9.097293e-01 -5.705784e-02 0.0
9.198265e-01 -1.187030e-01 0.0
9.413838e-01 -1.744386e-01 0.0
9.718785e-01 -2.207531e-01 0.0
1.008392e+00 -2.532886e-01 0.0
1.047731e+00 -2.678210e-01 0.0
1.086446e+00 -2.616398e-01 0.0
1.121118e+00 -2.343611e-01 0.0
1.148713e+00 -1.879665e-01 0.0
1.166669e+00 -1.266835e-01 0.0
1.173025e+00 -5.623308e-02 0.0
1.167100e+00 1.755757e-02 0.0
1.150918e+00 8.846647e-02 0.0
1.128115e+00 1.511757e-01 0.0
1.103067e+00 2.000583e-01 0.0
1.079659e+00 2.292191e-01 0.0
1.060009e+00 2.344148e-01 0.0
1.043969e+00 2.161593e-01 0.0
1.030806e+00 1.796216e-01 0.0
1.020185e+00 1.323610e-01 0.0
1.012119e+00 8.192191e-02 0.0
1.006871e+00 3.427329e-02 0.0
1.005024e+00 -6.666994e-03 0.0
1.007097e+00 -3.897286e-02 0.0
1.013095e+00 -6.274734e-02 0.0
1.022558e+00 -7.881433e-02 0.0
1.034676e+00 -8.806290e-02 0.0
1.048383e+00 -9.136006e-02 0.0
1.062527e+00 -8.965543e-02 0.0
1.076068e+00 -8.384924e-02 0.0
1.088126e+00 -7.475601e-02 0.0
1.098016e+00 -6.317740e-02 0.0
1.105233e+00 -4.988141e-02 0.0
1.109401e+00 -3.553396e-02 0.0
1.110132e+00 -2.055060e-02 0.0
1.106807e+00 -4.824538e-03 0.0
1.098994e+00 1.176742e-02 0.0
1.086715e+00 2.866984e-02 0.0
1.070372e+00 4.527398e-02 0.0
1.050915e+00 6.063706e-02 0.0
1.029997e+00 7.332064e-02 0.0
1.009948e+00 8.146499e-02 0.0
9.933623e-01 8.325536e-02 0.0
9.818915e-01 7.812646e-02 0.0
9.755993e-01 6.734648e-02 0.0
9.735904e-01 5.288714e-02 0.0
9.744973e-01 3.697953e-02 0.0
9.769655e-01 2.162157e-02 0.0
9.799829e-01 8.249012e-03 0.0
9.830132e-01 -2.356408e-03 0.0
9.859442e-01 -1.005628e-02 0.0
9.887794e-01 -1.489045e-02 0.0
9.915262e-01 -1.693149e-02 0.0
9.941234e-01 -1.641073e-02 0.0
9.966133e-01 -1.233647e-02 0.0
0.000000e+00 -1.297347e-02 0.0
1.000000e+00 -1.071347e-01 0.0
1.012118e+00 -1.079779e-01 0.0
1.026750e+00 -1.225698e-01 0.0
1.047437e+00 -1.536154e-01 0.0
1.080264e+00 -2.052010e-01 0.0
1.136079e+00 -2.839946e-01 0.0
1.230123e+00 -3.836966e-01 0.0
1.417194e+00 -5.900333e-01 0.0
1.475110e+00 -3.583913e-01 0.0
1.482399e+00 -1.915562e-01 0.0
1.476918e+00 -9.668209e-02 0.0
1.468472e+00 -3.957508e-02 0.0
1.459218e+00 -3.936776e-03 0.0
1.447994e+00 2.011313e-02 0.0
1.434568e+00 3.591887e-02 0.0
1.419186e+00 4.506456e-02 0.0
1.402147e+00 4.869582e-02 0.0
1.382656e+00 4.810801e-02 0.0
1.358137e+00 4.377657e-02 0.0
1.324508e+00 3.389488e-02 0.0
1.280887e+00 1.296952e-02 0.0
1.237732e+00 -2.318626e-02 0.0
1.211458e+00 -6.470986e-02 0.0
1.207024e+00 -8.855954e-02 0.0
1.219421e+00 -8.876211e-02 0.0
1.244928e+00 -7.606831e-02 0.0
1.279057e+00 -5.736760e-02 0.0
1.314838e+00 -3.457164e-02 0.0
1.344048e+00 -7.249705e-03 0.0
1.364573e+00 2.294164e-02 0.0
1.377917e+00 5.429837e-02 0.0
1.383341e+00 8.955304e-02 0.0
1.380085e+00 1.279592e-01 0.0
1.367598e+00 1.680061e-01 0.0
1.345744e+00 2.075975e-01 0.0
1.315002e+00 2.442934e-01 0.0
1.276451e+00 2.758468e-01 0.0
1.231606e+00 3.004877e-01 0.0
1.182186e+00 3.166393e-01 0.0
1.130019e+00 3.218654e-01 0.0
1.077543e+00 3.118594e-01 0.0
1.027482e+00 2.835451e-01 0.0
9.818157e-01 2.374796e-01 0.0
9.419605e-01 1.771457e-01 0.0
9.101577e-01 1.063401e-01 0.0
8.899302e-01 2.842799e-02 0.0
8.842047e-01 -5.132892e-02 0.0
8.918212e-01 -1.263161e-01 0.0
9.091521e-01 -1.917671e-01 0.0
9.326419e-01 -2.442419e-01 0.0
9.595003e-01 -2.801477e-01 0.0
9.872711e-01 -2.955933e-01 0.0
1.013398e+00 -2.877690e-01 0.0
1.035465e+00 -2.564305e-01 0.0
1.051536e+00 -2.040403e-01 0.0
1.060090e+00 -1.352395e-01 0.0
1.060141e+00 -5.628624e-02 0.0
1.052143e+00 2.555369e-02 0.0
1.038578e+00 1.020295e-01 0.0
1.022825e+00 1.669273e-01 0.0
1.008243e+00 2.146385e-01 0.0
9.971102e-01 2.403512e-01 0.0
9.897883e-01 2.417359e-01 0.0
9.849011e-01 2.210459e-01 0.0
9.809319e-01 1.835906e-01 0.0
9.769455e-01 1.363475e-01 0.0
9.728190e-01 8.604873e-02 0.0
9.691973e-01 3.789566e-02 0.0
9.672863e-01 -4.755061e-03 0.0
9.683487e-01 -4.003421e-02 0.0
9.729734e-01 -6.737080e-02 0.0
9.809784e-01 -8.681796e-02 0.0
9.916177e-01 -9.870092e-02 0.0
1.003824e+00 -1.035659e-01 0.0
1.016388e+00 -1.022189e-01 0.0
1.028173e+00 -9.563439e-02 0.0
1.038235e+00 -8.481788e-02 0.0
1.045843e+00 -7.078654e-02 0.0
1.050443e+00 -5.448237e-02 0.0
1.051543e+00 -3.663553e-02 0.0
1.048524e+00 -1.753305e-02 0.0
1.040628e+00 3.070388e-03 0.0
1.027957e+00 2.443674e-02 0.0
1.011086e+00 4.553937e-02 0.0
9.912121e-01 6.514651e-02 0.0
9.702739e-01 8.157387e-02 0.0
9.508275e-01 9.276579e-02 0.0
9.354946e-01 9.679685e-02 0.0
9.258209e-01 9.292818e-02 0.0
9.213763e-01 8.257036e-02 0.0
9.209042e-01 6.781813e-02 0.0
9.228434e-01 5.094767e-02 0.0
9.258224e-01 3.400036e-02 0.0
9.289545e-01 1.848954e-02 0.0
9.318785e-01 5.325300e-03 0.0
9.346375e-01 -5.115159e-03 0.0
9.373808e-01 -1.279919e-02 0.0
9.401938e-01 -1.770294e-02 0.0
9.430622e-01 -1.979942e-02 0.0
9.458778e-01 -1.922587e-02 0.0
9.484116e-01 -1.486984e-02 0.0
0.000000e+00 -1.561951e-02 0.0
1.000000e+00 -1.108628e-01 0.0
1.003877e+00 -1.118308e-01 0.0
1.008939e+00 -1.276330e-01 0.0
1.017483e+00 -1.621611e-01 0.0
1.035010e+00 -2.227286e-01 0.0
1.074224e+00 -3.232099e-01 0.0
1.163811e+00 -4.732853e-01 0.0
1.387043e+00 -8.132678e-01 0.0
1.374985e+00 -3.463365e-01 0.0
1.329192e+00 -1.457681e-01 0.0
1.297197e+00 -6.469089e-02 0.0
1.277656e+00 -2.003854e-02 0.0
1.261561e+00 1.215471e-02 0.0
1.244981e+00 3.668943e-02 0.0
1.225777e+00 5.512379e-02 0.0
1.202923e+00 6.791912e-02 0.0
1.176336e+00 7.528268e-02 0.0
1.145623e+00 7.882484e-02 0.0
1.107658e+00 8.174436e-02 0.0
1.056352e+00 8.520688e-02 0.0
9.867452e-01 8.258209e-02 0.0
9.021806e-01 6.138720e-02 0.0
8.187245e-01 1.875376e-02 0.0
7.619870e-01 -3.181802e-02 0.0
7.418931e-01 -6.867299e-02 0.0
7.579506e-01 -9.213341e-02 0.0
8.083547e-01 -1.077730e-01 0.0
8.855062e-01 -1.117252e-01 0.0
9.758818e-01 -9.762371e-02 0.0
1.059873e+00 -6.104948e-02 0.0
1.120657e+00 -6.487241e-03 0.0
1.160668e+00 4.954012e-02 0.0
1.186451e+00 1.021731e-01 0.0
1.199652e+00 1.548031e-01 0.0
1.200635e+00 2.066126e-01 0.0
1.190010e+00 2.549170e-01 0.0
1.169005e+00 2.968497e-01 0.0
1.139384e+00 3.301080e-01 0.0
1.103253e+00 3.527698e-01 0.0
1.062657e+00 3.624607e-01 0.0
1.019056e+00 3.554607e-01 0.0
9.735651e-01 3.290375e-01 0.0
9.272431e-01 2.838033e-01 0.0
8.840376e-01 2.203536e-01 0.0
8.518899e-01 1.384907e-01 0.0
8.375626e-01 4.275872e-02 0.0
8.411456e-01 -5.490848e-02 0.0
8.565092e-01 -1.416767e-01 0.0
8.771091e-01 -2.123656e-01 0.0
8.989462e-01 -2.660793e-01 0.0
9.201050e-01 -3.013081e-01 0.0
9.393592e-01 -3.148498e-01 0.0
9.553044e-01 -3.037167e-01 0.0
9.666330e-01 -2.677613e-01 0.0
9.725435e-01 -2.099530e-01 0.0
9.726906e-01 -1.353889e-01 0.0
9.672554e-01 -5.085306e-02 0.0
9.576504e-01 3.515673e-02 0.0
9.462664e-01 1.134117e-01 0.0
9.357258e-01 1.774666e-01 0.0
9.281974e-01 2.221657e-01 0.0
9.245913e-01 2.439565e-01 0.0
9.240343e-01 2.422922e-01 0.0
9.246957e-01 2.203843e-01 0.0
9.248451e-01 1.834413e-01 0.0
9.235682e-01 1.376247e-01 0.0
9.210629e-01 8.855464e-02 0.0
9.184999e-01 4.045958e-02 0.0
9.175515e-01 -3.805485e-03 0.0
9.197579e-01 -4.223940e-02 0.0
9.256954e-01 -7.330698e-02 0.0
9.349488e-01 -9.606996e-02 0.0
9.465012e-01 -1.102522e-01 0.0
9.590994e-01 -1.161636e-01 0.0
9.714556e-01 -1.145750e-01 0.0
9.823839e-01 -1.065631e-01 0.0
9.909233e-01 -9.335826e-02 0.0
9.963305e-01 -7.619483e-02 0.0
9.979934e-01 -5.614656e-02 0.0
9.952865e-01 -3.392997e-02 0.0
9.874450e-01 -9.693105e-03 0.0
9.744523e-01 1.606137e-02 0.0
9.572063e-01 4.168101e-02 0.0
9.371789e-01 6.556507e-02 0.0
9.165246e-01 8.579917e-02 0.0
8.978667e-01 1.002303e-01 0.0
8.836557e-01 1.069755e-01 0.0
8.751898e-01 1.052617e-01 0.0
8.717178e-01 9.639925e-02 0.0
8.717703e-01 8.251719e-02 0.0
8.737867e-01 6.580139e-02 0.0
8.765347e-01 4.819947e-02 0.0
8.793415e-01 3.119354e-02 0.0
8.820672e-01 1.576395e-02 0.0
8.848936e-01 2.499245e-03 0.0
8.880693e-01 -8.290490e-03 0.0
8.916522e-01 -1.638157e-02 0.0
8.955150e-01 -2.156517e-02 0.0
8.994090e-01 -2.369284e-02 0.0
9.030472e-01 -2.286352e-02 0.0
9.057982e-01 -1.762032e-02 0.0
0.000000e+00 -1.845497e-02 0.0
1.000000e+00 -1.055619e-01 0.0
9.948107e-01 -1.066220e-01 0.0
9.885151e-01 -1.213391e-01 0.0
9.803665e-01 -1.540136e-01 0.0
9.710875e-01 -2.134507e-01 0.0
9.661866e-01 -3.183099e-01 0.0
9.929913e-01 -5.000914e-01 0.0
1.155366e+00 -9.756446e-01 0.0
1.009082e+00 -2.000563e-01 0.0
8.816806e-01 -1.836581e-02 0.0
8.264828e-01 -9.498135e-03 0.0
7.988405e-01 7.600108e-03 0.0
7.802774e-01 3.071424e-02 0.0
7.609501e-01 5.601505e-02 0.0
7.334662e-01 8.260941e-02 0.0
6.919952e-01 1.093900e-01 0.0
6.334383e-01 1.338415e-01 0.0
5.590334e-01 1.532342e-01 0.0
4.777110e-01 1.630706e-01 0.0
4.059924e-01 1.569307e-01 0.0
3.447050e-01 1.438777e-01 0.0
2.823492e-01 1.237511e-01 0.0
2.138921e-01 8.721621e-02 0.0
1.530377e-01 2.903526e-02 0.0
1.296507e-01 -4.529502e-02 0.0
1.613969e-01 -1.238828e-01 0.0
2.464481e-01 -1.928258e-01 0.0
3.732009e-01 -2.384777e-01 0.0
5.212454e-01 -2.456681e-01 0.0
6.691030e-01 -2.089080e-01 0.0
7.983133e-01 -1.357004e-01 0.0
8.927772e-01 -4.492580e-02 0.0
9.542577e-01 4.068996e-02 0.0
9.948865e-01 1.141722e-01 0.0
1.018773e+00 1.827242e-01 0.0
1.027814e+00 2.458748e-01 0.0
1.023804e+00 3.008582e-01 0.0
1.008834e+00 3.450776e-01 0.0
9.851815e-01 3.764218e-01 0.0
9.543492e-01 3.932932e-01 0.0
9.149927e-01 3.948183e-01 0.0
8.669950e-01 3.770368e-01 0.0
8.168548e-01 3.339458e-01 0.0
7.787471e-01 2.584641e-01 0.0
7.646020e-01 1.526393e-01 0.0
7.745276e-01 3.283668e-02 0.0
7.988457e-01 -7.922313e-02 0.0
8.275262e-01 -1.703552e-01 0.0
8.542997e-01 -2.391388e-01 0.0
8.763841e-01 -2.881650e-01 0.0
8.933850e-01 -3.183111e-01 0.0
9.056974e-01 -3.271647e-01 0.0
9.132748e-01 -3.112963e-01 0.0
9.158109e-01 -2.702996e-01 0.0
9.133659e-01 -2.075104e-01 0.0
9.065918e-01 -1.286169e-01 0.0
8.967021e-01 -4.096555e-02 0.0
8.857382e-01 4.611879e-02 0.0
8.756868e-01 1.234617e-01 0.0
8.682778e-01 1.848742e-01 0.0
8.645758e-01 2.258666e-01 0.0
8.644231e-01 2.441085e-01 0.0
8.662536e-01 2.404614e-01 0.0
8.681250e-01 2.185130e-01 0.0
8.685569e-01 1.830097e-01 0.0
8.671931e-01 1.389891e-01 0.0
8.649643e-01 9.078433e-02 0.0
8.636543e-01 4.177076e-02 0.0
8.651371e-01 -5.287085e-03 0.0
8.705949e-01 -4.769575e-02 0.0
8.799471e-01 -8.265777e-02 0.0
8.921798e-01 -1.083014e-01 0.0
9.058996e-01 -1.239712e-01 0.0
9.196942e-01 -1.299580e-01 0.0
9.322571e-01 -1.271383e-01 0.0
9.424447e-01 -1.167515e-01 0.0
9.493393e-01 -1.002540e-01 0.0
9.521977e-01 -7.905451e-02 0.0
9.503584e-01 -5.430867e-02 0.0
9.431918e-01 -2.676500e-02 0.0
9.304866e-01 3.010376e-03 0.0
9.135045e-01 3.304160e-02 0.0
8.939733e-01 6.121021e-02 0.0
8.741527e-01 8.538380e-02 0.0
8.565682e-01 1.033820e-01 0.0
8.433682e-01 1.134289e-01 0.0
8.355118e-01 1.148305e-01 0.0
8.321668e-01 1.086057e-01 0.0
8.317880e-01 9.677719e-02 0.0
8.329513e-01 8.135319e-02 0.0
8.346585e-01 6.409385e-02 0.0
8.364954e-01 4.636246e-02 0.0
8.385529e-01 2.913612e-02 0.0
8.411850e-01 1.313209e-02 0.0
8.447299e-01 -1.045245e-03 0.0
8.492738e-01 -1.283390e-02 0.0
8.545566e-01 -2.166381e-02 0.0
8.601246e-01 -2.713253e-02 0.0
8.654491e-01 -2.901669e-02 0.0
8.700338e-01 -2.744747e-02 0.0
8.730151e-01 -2.060099e-02 0.0
0.000000e+00 -2.147787e-02 0.0
1.000000e+00 -9.177211e-02 0.0
9.862806e-01 -9.288749e-02 0.0
9.687834e-01 -1.038436e-01 0.0
9.425277e-01 -1.277590e-01 0.0
8.991479e-01 -1.700719e-01 0.0
8.219265e-01 -2.410896e-01 0.0
6.867911e-01 -3.649574e-01 0.0
2.000551e-01 -4.889105e-01 0.0
-1.008379e+00 4.863578e-01 0.0
0.000000e+00 -4.387101e-02 0.0
-7.309811e-02 4.522665e-02 0.0
-7.313658e-03 -5.818763e-02 0.0
7.409054e-02 -5.069262e-02 0.0
1.317606e-01 -1.654274e-03 0.0
1.564700e-01 5.790076e-02 0.0
1.530401e-01 1.128207e-01 0.0
1.273659e-01 1.595196e-01 0.0
8.724788e-02 1.933560e-01 0.0
3.934130e-02 2.109822e-01 0.0
-1.826192e-02 2.145402e-01 0.0
-7.757868e-02 2.032030e-01 0.0
-1.302479e-01 1.764269e-01 0.0
-1.692910e-01 1.262613e-01 0.0
-1.879370e-01 4.767424e-02 0.0
-1.752238e-01 -5.801459e-02 0.0
-1.269665e-01 -1.721411e-01 0.0
-4.213119e-02 -2.776627e-01 0.0
7.648425e-02 -3.570927e-01 0.0
2.216074e-01 -3.907927e-01 0.0
3.769737e-01 -3.642766e-01 0.0
5.251689e-01 -2.838981e-01 0.0
6.510761e-01 -1.708359e-01 0.0
7.427072e-01 -5.094336e-02 0.0
8.030386e-01 5.383884e-02 0.0
8.420625e-01 1.436986e-01 0.0
8.633854e-01 2.245504e-01 0.0
8.692546e-01 2.949881e-01 0.0
8.614026e-01 3.529295e-01 0.0
8.408171e-01 3.970075e-01 0.0
8.073936e-01 4.267177e-01 0.0
7.620173e-01 4.401962e-01 0.0
7.131266e-01 4.259298e-01 0.0
6.781467e-01 3.689285e-01 0.0
6.710062e-01 2.656079e-01 0.0
6.916576e-01 1.319917e-01 0.0
7.297955e-01 -5.297602e-03 0.0
7.728685e-01 -1.222934e-01 0.0
8.130547e-01 -2.105403e-01 0.0
8.454469e-01 -2.715319e-01 0.0
8.680214e-01 -3.107412e-01 0.0
8.812776e-01 -3.315695e-01 0.0
8.871863e-01 -3.330757e-01 0.0
8.874186e-01 -3.115309e-01 0.0
8.827440e-01 -2.656273e-01 0.0
8.737992e-01 -1.985679e-01 0.0
8.617910e-01 -1.166110e-01 0.0
8.485929e-01 -2.776958e-02 0.0
8.364402e-01 5.826989e-02 0.0
8.267838e-01 1.331166e-01 0.0
8.205409e-01 1.911159e-01 0.0
8.178726e-01 2.285340e-01 0.0
8.178501e-01 2.441304e-01 0.0
8.186588e-01 2.396527e-01 0.0
8.186534e-01 2.185186e-01 0.0
8.170933e-01 1.845702e-01 0.0
8.145806e-01 1.415026e-01 0.0
8.128156e-01 9.255050e-02 0.0
8.138202e-01 4.076740e-02 0.0
8.191252e-01 -1.059071e-02 0.0
8.290475e-01 -5.761659e-02 0.0
8.426278e-01 -9.623665e-02 0.0
8.582703e-01 -1.239429e-01 0.0
8.742930e-01 -1.399933e-01 0.0
8.892075e-01 -1.448726e-01 0.0
9.017463e-01 -1.396777e-01 0.0
9.108857e-01 -1.258919e-01 0.0
9.158025e-01 -1.051721e-01 0.0
9.158062e-01 -7.905964e-02 0.0
9.103353e-01 -4.883940e-02 0.0
8.992169e-01 -1.564844e-02 0.0
8.836369e-01 1.858840e-02 0.0
8.655875e-01 5.108887e-02 0.0
8.473049e-01 7.949078e-02 0.0
8.311028e-01 1.015840e-01 0.0
8.187861e-01 1.156970e-01 0.0
8.110350e-01 1.211783e-01 0.0
8.071140e-01 1.187502e-01 0.0
8.055645e-01 1.101542e-01 0.0
8.051726e-01 9.716819e-02 0.0
8.051961e-01 8.132912e-02 0.0
8.054554e-01 6.383424e-02 0.0
8.062285e-01 4.558929e-02 0.0
8.080114e-01 2.735344e-02 0.0
8.112652e-01 9.878608e-03 0.0
8.162097e-01 -5.989251e-03 0.0
8.226061e-01 -1.922965e-02 0.0
8.298688e-01 -2.892587e-02 0.0
8.372516e-01 -3.451453e-02 0.0
8.439759e-01 -3.574022e-02 0.0
8.493469e-01 -3.281770e-02 0.0
8.524777e-01 -2.373111e-02 0.0
0.000000e+00 -2.459960e-02 0.0
1.000000e+00 -7.166657e-02 0.0
9.799240e-01 -7.280048e-02 0.0
9.543098e-01 -7.823115e-02 0.0
9.154962e-01 -8.894671e-02 0.0
8.496510e-01 -1.042281e-01 0.0
7.271865e-01 -1.186264e-01 0.0
4.730091e-01 -1.107817e-01 0.0
-1.003874e-02 -5.864413e-03 0.0
-9.896720e-06 0.000000e+00 0.0
0.000000e+00 -0.000000e+00 0.0
0.000000e+00 -1.858568e-02 0.0
-8.264627e-02 2.445586e-02 0.0
-8.532093e-02 -4.801859e-02 0.0
-8.357955e-02 -3.394159e-03 0.0
-9.917403e-02 7.349565e-02 0.0
-1.158634e-01 1.295128e-01 0.0
-1.343878e-01 1.780480e-01 0.0
-1.542577e-01 2.132303e-01 0.0
-1.759997e-01 2.327298e-01 0.0