# vtk DataFile Version 3.0
Vector Field
ASCII
DATASET RECTILINEAR_GRID
DIMENSIONS 102 22 1
X_COORDINATES 102 double
0.000000 0.100000 0.200000 0.300000 0.400000 0.500000 0.600000 0.700000 0.800000 0.900000 1.000000 1.100000 1.200000 1.300000 1.400000 1.500000 1.600000 1.700000 1.800000 1.900000 2.000000 2.100000 2.200000 2.300000 2.400000 2.500000 2.600000 2.700000 2.800000 2.900000 3.000000 3.100000 3.200000 3.300000 3.400000 3.500000 3.600000 3.700000 3.800000 3.900000 4.000000 4.100000 4.200000 4.300000 4.400000 4.500000 4.600000 4.700000 4.800000 4.900000 5.000000 5.100000 5.200000 5.300000 5.400000 5.500000 5.600000 5.700000 5.800000 5.900000 6.000000 6.100000 6.200000 6.300000 6.400000 6.500000 6.600000 6.700000 6.800000 6.900000 7.000000 7.100000 7.200000 7.300000 7.400000 7.500000 7.600000 7.700000 7.800000 7.900000 8.000000 8.100000 8.200000 8.300000 8.400000 8.500000 8.600000 8.700000 8.800000 8.900000 9.000000 9.100000 9.200000 9.300000 9.400000 9.500000 9.600000 9.700000 9.800000 9.900000 10.000000 10.100000 
Y_COORDINATES 22 double
0.000000 0.100000 0.200000 0.300000 0.400000 0.500000 0.600000 0.700000 0.800000 0.900000 1.000000 1.100000 1.200000 1.300000 1.400000 1.500000 1.600000 1.700000 1.800000 1.900000 2.000000 2.100000 
Z_COORDINATES 1 double
0.0
POINT_DATA 2244
VECTORS Velocity double
0.000000e+00 0.000000e+00 0.0
-1.026683e+00 0.000000e+00 0.0
-1.056315e+00 0.000000e+00 0.0
-1.091806e+00 0.000000e+00 0.0
-1.135815e+00 0.000000e+00 0.0
-1.190350e+00 0.000000e+00 0.0
-1.254886e+00 0.000000e+00 0.0
-1.328702e+00 0.000000e+00 0.0
-1.395512e+00 0.000000e+00 0.0
-1.445242e+00 0.000000e+00 0.0
-1.476898e+00 0.000000e+00 0.0
-1.493761e+00 0.000000e+00 0.0
-1.499940e+00 0.000000e+00 0.0
-1.499002e+00 0.000000e+00 0.0
-1.493672e+00 0.000000e+00 0.0
-1.486094e+00 0.000000e+00 0.0
-1.478279e+00 0.000000e+00 0.0
-1.472595e+00 0.000000e+00 0.0
-1.472085e+00 0.000000e+00 0.0
-1.479907e+00 0.000000e+00 0.0
-1.497638e+00 0.000000e+00 0.0
-1.523333e+00 0.000000e+00 0.0
-1.551588e+00 0.000000e+00 0.0
-1.576241e+00 0.000000e+00 0.0
-1.593215e+00 0.000000e+00 0.0
-1.601518e+00 0.000000e+00 0.0
-1.602284e+00 0.000000e+00 0.0
-1.596867e+00 0.000000e+00 0.0
-1.585845e+00 0.000000e+00 0.0
-1.569094e+00 0.000000e+00 0.0
-1.546060e+00 0.000000e+00 0.0
-1.516057e+00 0.000000e+00 0.0
-1.478505e+00 0.000000e+00 0.0
-1.433124e+00 0.000000e+00 0.0
-1.380030e+00 0.000000e+00 0.0
-1.319726e+00 0.000000e+00 0.0
-1.253050e+00 0.000000e+00 0.0
-1.181182e+00 0.000000e+00 0.0
-1.105930e+00 0.000000e+00 0.0
-1.030133e+00 0.000000e+00 0.0
-9.576794e-01 0.000000e+00 0.0
-8.935340e-01 0.000000e+00 0.0
-8.431607e-01 0.000000e+00 0.0
-8.113556e-01 0.000000e+00 0.0
-8.009222e-01 0.000000e+00 0.0
-8.120122e-01 0.000000e+00 0.0
-8.436635e-01 0.000000e+00 0.0
-8.946115e-01 0.000000e+00 0.0
-9.631487e-01 0.000000e+00 0.0
-1.046524e+00 0.000000e+00 0.0
-1.140194e+00 0.000000e+00 0.0
-1.238041e+00 0.000000e+00 0.0
-1.333113e+00 0.000000e+00 0.0
-1.418312e+00 0.000000e+00 0.0
-1.487087e+00 0.000000e+00 0.0
-1.534474e+00 0.000000e+00 0.0
-1.558122e+00 0.000000e+00 0.0
-1.558156e+00 0.000000e+00 0.0
-1.534367e+00 0.000000e+00 0.0
-1.486060e+00 0.000000e+00 0.0
-1.413292e+00 0.000000e+00 0.0
-1.319077e+00 0.000000e+00 0.0
-1.212193e+00 0.000000e+00 0.0
-1.106705e+00 0.000000e+00 0.0
-1.015842e+00 0.000000e+00 0.0
-9.479924e-01 0.000000e+00 0.0
-9.060700e-01 0.000000e+00 0.0
-8.885230e-01 0.000000e+00 0.0
-8.908668e-01 0.000000e+00 0.0
-9.074971e-01 0.000000e+00 0.0
-9.334425e-01 0.000000e+00 0.0
-9.647851e-01 0.000000e+00 0.0
-9.985856e-01 0.000000e+00 0.0
-1.032699e+00 0.000000e+00 0.0
-1.065574e+00 0.000000e+00 0.0
-1.096120e+00 0.000000e+00 0.0
-1.123566e+00 0.000000e+00 0.0
-1.147383e+00 0.000000e+00 0.0
-1.167240e+00 0.000000e+00 0.0
-1.182975e+00 0.000000e+00 0.0
-1.194588e+00 0.000000e+00 0.0
-1.202237e+00 0.000000e+00 0.0
-1.206222e+00 0.000000e+00 0.0
-1.206874e+00 0.000000e+00 0.0
-1.204381e+00 0.000000e+00 0.0
-1.198896e+00 0.000000e+00 0.0
-1.190610e+00 0.000000e+00 0.0
-1.179800e+00 0.000000e+00 0.0
-1.166916e+00 0.000000e+00 0.0
-1.152686e+00 0.000000e+00 0.0
-1.138132e+00 0.000000e+00 0.0
-1.124395e+00 0.000000e+00 0.0
-1.112438e+00 0.000000e+00 0.0
-1.102831e+00 0.000000e+00 0.0
-1.095690e+00 0.000000e+00 0.0
-1.090753e+00 0.000000e+00 0.0
-1.087536e+00 0.000000e+00 0.0
-1.085531e+00 0.000000e+00 0.0
-1.084351e+00 0.000000e+00 0.0
-1.083798e+00 0.000000e+00 0.0
-1.083798e+00 0.000000e+00 0.0
0.000000e+00 0.000000e+00 0.0
1.000000e+00 -2.666174e-02 0.0
1.026879e+00 -2.683835e-02 0.0
1.056708e+00 -2.980457e-02 0.0
1.092412e+00 -3.568093e-02 0.0
1.136655e+00 -4.421943e-02 0.0
1.191448e+00 -5.476864e-02 0.0
1.256257e+00 -6.478524e-02 0.0
1.330360e+00 -7.407999e-02 0.0
1.397392e+00 -6.700800e-02 0.0
1.447217e+00 -4.980116e-02 0.0
1.478817e+00 -3.157674e-02 0.0
1.495471e+00 -1.663038e-02 0.0
1.501296e+00 -5.801486e-03 0.0
1.499854e+00 1.466299e-03 0.0
1.493836e+00 6.041292e-03 0.0
1.485321e+00 8.539360e-03 0.0
1.476195e+00 9.148912e-03 0.0
1.468647e+00 7.572344e-03 0.0
1.465587e+00 3.082914e-03 0.0
1.470365e+00 -4.753870e-03 0.0
1.485263e+00 -1.487392e-02 0.0
1.509385e+00 -2.409860e-02 0.0
1.537995e+00 -2.858677e-02 0.0
1.564710e+00 -2.669127e-02 0.0
1.584632e+00 -1.989752e-02 0.0
1.595891e+00 -1.123588e-02 0.0
1.599157e+00 -3.242515e-03 0.0
1.595864e+00 3.317129e-03 0.0
1.586775e+00 9.112923e-03 0.0
1.571885e+00 1.491362e-02 0.0
1.550694e+00 2.121440e-02 0.0
1.522521e+00 2.819648e-02 0.0
1.486756e+00 3.578931e-02 0.0
1.443059e+00 4.372013e-02 0.0
1.391486e+00 5.159686e-02 0.0
1.332484e+00 5.902618e-02 0.0
1.266849e+00 6.565906e-02 0.0
1.195702e+00 7.117047e-02 0.0
1.120719e+00 7.500679e-02 0.0
1.044560e+00 7.618276e-02 0.0
9.709179e-01 7.366558e-02 0.0
9.045736e-01 6.636810e-02 0.0
8.509429e-01 5.365443e-02 0.0
8.150108e-01 3.595588e-02 0.0
8.000066e-01 1.502798e-02 0.0
8.065480e-01 -6.517631e-03 0.0
8.337033e-01 -2.713156e-02 0.0
8.802423e-01 -4.651523e-02 0.0
9.445646e-01 -6.429849e-02 0.0
1.024195e+00 -7.960625e-02 0.0
1.115054e+00 -9.083544e-02 0.0
1.211442e+00 -9.636456e-02 0.0
1.306689e+00 -9.522282e-02 0.0
1.393898e+00 -8.718494e-02 0.0
1.466510e+00 -7.258847e-02 0.0
1.519228e+00 -5.269444e-02 0.0
1.549049e+00 -2.979694e-02 0.0
1.555604e+00 -6.531715e-03 0.0
1.538910e+00 1.671786e-02 0.0
1.498218e+00 4.071643e-02 0.0
1.433110e+00 6.513186e-02 0.0
1.345334e+00 8.779914e-02 0.0
1.241709e+00 1.036495e-01 0.0
1.135166e+00 1.065666e-01 0.0
1.039847e+00 9.534254e-02 0.0
9.656650e-01 7.420584e-02 0.0
9.170099e-01 4.867897e-02 0.0
8.934186e-01 2.361516e-02 0.0
8.910379e-01 2.404446e-03 0.0
9.043455e-01 -1.328379e-02 0.0
9.281041e-01 -2.373475e-02 0.0
9.581051e-01 -2.997718e-02 0.0
9.911705e-01 -3.304152e-02 0.0
1.024983e+00 -3.378821e-02 0.0
1.057867e+00 -3.286100e-02 0.0
1.088649e+00 -3.075735e-02 0.0
1.116502e+00 -2.782970e-02 0.0
1.140861e+00 -2.433504e-02 0.0
1.161361e+00 -2.047653e-02 0.0
1.177813e+00 -1.642759e-02 0.0
1.190184e+00 -1.234718e-02 0.0
1.198598e+00 -8.390670e-03 0.0
1.203326e+00 -4.704319e-03 0.0
1.204710e+00 -1.359636e-03 0.0
1.202969e+00 1.764871e-03 0.0
1.198258e+00 4.734872e-03 0.0
1.190759e+00 7.522840e-03 0.0
1.180724e+00 1.005875e-02 0.0
1.168550e+00 1.219825e-02 0.0
1.154875e+00 1.369833e-02 0.0
1.140632e+00 1.426699e-02 0.0
1.126911e+00 1.374516e-02 0.0
1.114696e+00 1.223873e-02 0.0
1.104626e+00 1.009347e-02 0.0
1.096908e+00 7.741576e-03 0.0
1.091363e+00 5.569236e-03 0.0
1.087569e+00 3.817384e-03 0.0
1.085046e+00 2.547494e-03 0.0
1.083421e+00 1.648576e-03 0.0
1.082506e+00 9.387527e-04 0.0
1.083798e+00 -1.267879e-03 0.0
0.000000e+00 -1.403957e-03 0.0
1.000000e+00 -5.372711e-02 0.0
1.027278e+00 -5.409235e-02 0.0
1.057522e+00 -6.004320e-02 0.0
1.093809e+00 -7.196147e-02 0.0
1.139148e+00 -8.955252e-02 0.0
1.196273e+00 -1.118869e-01 0.0
1.264905e+00 -1.334107e-01 0.0
1.349067e+00 -1.582363e-01 0.0
1.421896e+00 -1.398310e-01 0.0
1.472917e+00 -1.008156e-01 0.0
1.503953e+00 -6.260650e-02 0.0
1.520031e+00 -3.270237e-02 0.0
1.525872e+00 -1.163625e-02 0.0
1.525084e+00 2.260340e-03 0.0
1.520175e+00 1.095649e-02 0.0
1.512990e+00 1.573047e-02 0.0
1.505026e+00 1.711927e-02 0.0
1.497936e+00 1.466790e-02 0.0
1.494054e+00 6.971086e-03 0.0
1.496579e+00 -7.271885e-03 0.0
1.508512e+00 -2.680104e-02 0.0
1.530430e+00 -4.601090e-02 0.0
1.558690e+00 -5.683978e-02 0.0
1.587073e+00 -5.506888e-02 0.0
1.610175e+00 -4.299304e-02 0.0
1.625197e+00 -2.625142e-02 0.0
1.632053e+00 -1.009260e-02 0.0
1.632163e+00 3.213100e-03 0.0
1.626583e+00 1.469929e-02 0.0
1.615379e+00 2.612373e-02 0.0
1.598039e+00 3.856027e-02 0.0
1.573880e+00 5.236172e-02 0.0
1.542299e+00 6.737741e-02 0.0
1.502974e+00 8.305126e-02 0.0
1.456029e+00 9.854763e-02 0.0
1.401996e+00 1.130652e-01 0.0
1.341816e+00 1.258457e-01 0.0
1.276796e+00 1.361966e-01 0.0
1.208526e+00 1.432826e-01 0.0
1.138919e+00 1.457960e-01 0.0
1.070755e+00 1.418357e-01 0.0
1.007651e+00 1.294783e-01 0.0
9.537700e-01 1.075419e-01 0.0
9.132404e-01 7.649165e-02 0.0
8.893130e-01 3.896160e-02 0.0
8.835149e-01 -7.134041e-04 0.0
8.951445e-01 -3.875490e-02 0.0
9.228585e-01 -7.422303e-02 0.0
9.652268e-01 -1.066606e-01 0.0
1.020320e+00 -1.346933e-01 0.0
1.085724e+00 -1.562332e-01 0.0
1.157645e+00 -1.682797e-01 0.0
1.230961e+00 -1.685319e-01 0.0
1.300079e+00 -1.562967e-01 0.0
1.359515e+00 -1.320185e-01 0.0
1.404578e+00 -9.775131e-02 0.0
1.431863e+00 -5.707601e-02 0.0
1.439169e+00 -1.383165e-02 0.0
1.425608e+00 3.028557e-02 0.0
1.392020e+00 7.431052e-02 0.0
1.341138e+00 1.160200e-01 0.0
1.278100e+00 1.508436e-01 0.0
1.209903e+00 1.718526e-01 0.0
1.143831e+00 1.726443e-01 0.0
1.086317e+00 1.528631e-01 0.0
1.041687e+00 1.188420e-01 0.0
1.011306e+00 7.906593e-02 0.0
9.951057e-01 3.982200e-02 0.0
9.918032e-01 5.713148e-03 0.0
9.989629e-01 -2.043722e-02 0.0
1.013778e+00 -3.854412e-02 0.0
1.033681e+00 -4.987331e-02 0.0
1.056452e+00 -5.580700e-02 0.0
1.080287e+00 -5.761676e-02 0.0
1.103923e+00 -5.649082e-02 0.0
1.126412e+00 -5.323952e-02 0.0
1.147017e+00 -4.842836e-02 0.0
1.165191e+00 -4.250287e-02 0.0
1.180560e+00 -3.583967e-02 0.0
1.192910e+00 -2.877128e-02 0.0
1.202165e+00 -2.159632e-02 0.0
1.208351e+00 -1.457025e-02 0.0
1.211504e+00 -7.851217e-03 0.0
1.211521e+00 -1.370149e-03 0.0
1.208286e+00 5.005602e-03 0.0
1.201858e+00 1.116940e-02 0.0
1.192431e+00 1.695662e-02 0.0
1.180416e+00 2.207956e-02 0.0
1.166549e+00 2.607133e-02 0.0
1.151969e+00 2.828501e-02 0.0
1.138211e+00 2.803118e-02 0.0
1.126875e+00 2.508699e-02 0.0
1.119148e+00 1.997245e-02 0.0
1.115507e+00 1.374075e-02 0.0
1.115632e+00 7.622042e-03 0.0
1.118580e+00 2.627448e-03 0.0
1.123225e+00 -8.211295e-04 0.0
1.128573e+00 -2.794713e-03 0.0
1.133857e+00 -3.628464e-03 0.0
1.138633e+00 -3.831769e-03 0.0
1.141350e+00 -3.978466e-03 0.0
0.000000e+00 -4.139132e-03 0.0
1.000000e+00 -7.757670e-02 0.0
1.024053e+00 -7.812197e-02 0.0
1.051192e+00 -8.717534e-02 0.0
1.084799e+00 -1.055625e-01 0.0
1.128690e+00 -1.334371e-01 0.0
1.187273e+00 -1.704640e-01 0.0
1.261558e+00 -2.076893e-01 0.0
1.366923e+00 -2.635955e-01 0.0
1.447293e+00 -2.201950e-01 0.0
1.495541e+00 -1.490568e-01 0.0
1.521061e+00 -8.812062e-02 0.0
1.532205e+00 -4.384004e-02 0.0
1.534490e+00 -1.391536e-02 0.0
1.531380e+00 5.376103e-03 0.0
1.524894e+00 1.744884e-02 0.0
1.516488e+00 2.414294e-02 0.0
1.507217e+00 2.639642e-02 0.0
1.497865e+00 2.402647e-02 0.0
1.489393e+00 1.544842e-02 0.0
1.483972e+00 -1.843788e-03 0.0
1.485391e+00 -2.821385e-02 0.0
1.497110e+00 -5.772444e-02 0.0
1.518882e+00 -7.860528e-02 0.0
1.545515e+00 -8.169619e-02 0.0
1.570803e+00 -6.827474e-02 0.0
1.590326e+00 -4.576754e-02 0.0
1.602139e+00 -2.190019e-02 0.0
1.606663e+00 -1.303899e-03 0.0
1.605467e+00 1.590079e-02 0.0
1.598903e+00 3.269431e-02 0.0
1.586395e+00 5.107478e-02 0.0
1.567231e+00 7.153128e-02 0.0
1.540798e+00 9.381657e-02 0.0
1.506758e+00 1.170980e-01 0.0
1.465111e+00 1.402004e-01 0.0
1.416348e+00 1.618341e-01 0.0
1.361419e+00 1.807816e-01 0.0
1.301618e+00 1.960040e-01 0.0
1.238465e+00 2.064409e-01 0.0
1.173807e+00 2.104610e-01 0.0
1.110162e+00 2.054863e-01 0.0
1.050688e+00 1.889585e-01 0.0
9.987264e-01 1.595100e-01 0.0
9.572249e-01 1.179994e-01 0.0
9.284263e-01 6.776636e-02 0.0
9.139383e-01 1.378080e-02 0.0
9.140226e-01 -3.883300e-02 0.0
9.276989e-01 -8.789313e-02 0.0
9.540886e-01 -1.330441e-01 0.0
9.919327e-01 -1.725312e-01 0.0
1.038777e+00 -2.030709e-01 0.0
1.091340e+00 -2.208365e-01 0.0
1.145612e+00 -2.227987e-01 0.0
1.197150e+00 -2.078284e-01 0.0
1.241664e+00 -1.765264e-01 0.0
1.275426e+00 -1.315062e-01 0.0
1.295467e+00 -7.711090e-02 0.0
1.299610e+00 -1.796851e-02 0.0
1.287409e+00 4.249230e-02 0.0
1.260940e+00 1.007862e-01 0.0
1.224240e+00 1.527258e-01 0.0
1.182722e+00 1.923677e-01 0.0
1.141722e+00 2.128593e-01 0.0
1.104796e+00 2.095766e-01 0.0
1.073380e+00 1.842854e-01 0.0
1.048298e+00 1.439296e-01 0.0
1.030427e+00 9.694339e-02 0.0
1.019829e+00 5.042656e-02 0.0
1.016017e+00 9.530881e-03 0.0
1.018304e+00 -2.271751e-02 0.0
1.025713e+00 -4.594753e-02 0.0
1.037143e+00 -6.129705e-02 0.0
1.051453e+00 -7.011102e-02 0.0
1.067486e+00 -7.364300e-02 0.0
1.084084e+00 -7.308249e-02 0.0
1.100264e+00 -6.941397e-02 0.0
1.115225e+00 -6.338269e-02 0.0
1.128348e+00 -5.562028e-02 0.0
1.139200e+00 -4.668522e-02 0.0
1.147509e+00 -3.707404e-02 0.0
1.153134e+00 -2.721474e-02 0.0
1.155990e+00 -1.742061e-02 0.0
1.155896e+00 -7.750446e-03 0.0
1.152458e+00 2.074410e-03 0.0
1.145595e+00 1.187473e-02 0.0
1.135443e+00 2.132779e-02 0.0
1.122439e+00 2.996601e-02 0.0
1.107485e+00 3.704033e-02 0.0
1.092087e+00 4.147493e-02 0.0
1.078345e+00 4.203363e-02 0.0
1.068225e+00 3.815692e-02 0.0
1.062784e+00 3.053470e-02 0.0
1.062096e+00 2.066656e-02 0.0
1.065365e+00 1.047800e-02 0.0
1.071231e+00 1.762191e-03 0.0
1.078416e+00 -4.551235e-03 0.0
1.085884e+00 -8.282777e-03 0.0
1.092839e+00 -9.743194e-03 0.0
1.098790e+00 -9.573771e-03 0.0
1.103438e+00 -8.473371e-03 0.0
1.106321e+00 -6.855255e-03 0.0
0.000000e+00 -6.999810e-03 0.0
1.000000e+00 -9.649223e-02 0.0
1.019106e+00 -9.720394e-02 0.0
1.041257e+00 -1.093206e-01 0.0
1.070129e+00 -1.344283e-01 0.0
1.110736e+00 -1.740378e-01 0.0
1.170314e+00 -2.300359e-01 0.0
1.254251e+00 -2.916204e-01 0.0
1.396067e+00 -4.054052e-01 0.0
1.477914e+00 -3.020353e-01 0.0
1.513669e+00 -1.848063e-01 0.0
1.527268e+00 -1.017131e-01 0.0
1.530037e+00 -4.660324e-02 0.0
1.527089e+00 -1.096108e-02 0.0
1.520383e+00 1.208889e-02 0.0
1.511107e+00 2.673031e-02 0.0
1.500192e+00 3.506452e-02 0.0
1.488268e+00 3.832655e-02 0.0
1.475281e+00 3.701984e-02 0.0
1.460342e+00 3.039353e-02 0.0
1.442579e+00 1.592498e-02 0.0
1.424534e+00 -1.016257e-02 0.0
1.413449e+00 -4.663322e-02 0.0
1.415594e+00 -8.074354e-02 0.0
1.430697e+00 -9.679372e-02 0.0
1.452934e+00 -9.050536e-02 0.0
1.477098e+00 -6.992497e-02 0.0
1.498868e+00 -4.366447e-02 0.0
1.514663e+00 -1.709241e-02 0.0
1.523478e+00 7.091948e-03 0.0
1.526766e+00 2.941191e-02 0.0
1.523893e+00 5.395482e-02 0.0
1.514184e+00 8.124645e-02 0.0
1.496915e+00 1.110917e-01 0.0
1.471636e+00 1.423830e-01 0.0
1.438253e+00 1.735892e-01 0.0
1.397174e+00 2.029198e-01 0.0
1.349321e+00 2.286405e-01 0.0
1.296017e+00 2.493140e-01 0.0
1.238795e+00 2.636690e-01 0.0
1.179352e+00 2.699102e-01 0.0
1.120063e+00 2.647819e-01 0.0
1.064025e+00 2.450026e-01 0.0
1.014223e+00 2.093178e-01 0.0
9.727387e-01 1.594902e-01 0.0
9.408411e-01 9.967008e-02 0.0
9.199777e-01 3.465041e-02 0.0
9.119726e-01 -3.082162e-02 0.0
9.171225e-01 -9.303687e-02 0.0
9.342872e-01 -1.502026e-01 0.0
9.612791e-01 -1.995168e-01 0.0
9.953782e-01 -2.371637e-01 0.0
1.033552e+00 -2.590039e-01 0.0
1.072527e+00 -2.617675e-01 0.0
1.108870e+00 -2.441648e-01 0.0
1.139414e+00 -2.070650e-01 0.0
1.161429e+00 -1.535147e-01 0.0
1.172662e+00 -8.833807e-02 0.0
1.171659e+00 -1.695898e-02 0.0
1.159125e+00 5.503286e-02 0.0
1.138013e+00 1.219042e-01 0.0
1.112561e+00 1.781842e-01 0.0
1.087235e+00 2.176994e-01 0.0
1.065296e+00 2.348050e-01 0.0
1.047574e+00 2.273045e-01 0.0
1.033268e+00 1.985977e-01 0.0
1.021627e+00 1.555769e-01 0.0
1.012433e+00 1.061432e-01 0.0
1.005774e+00 5.709254e-02 0.0
1.002082e+00 1.322834e-02 0.0
1.001997e+00 -2.262551e-02 0.0
1.005759e+00 -4.970345e-02 0.0
1.013091e+00 -6.862302e-02 0.0
1.023307e+00 -8.032058e-02 0.0
1.035441e+00 -8.577136e-02 0.0
1.048375e+00 -8.601030e-02 0.0
1.061075e+00 -8.210711e-02 0.0
1.072669e+00 -7.497049e-02 0.0
1.082487e+00 -6.543203e-02 0.0
1.090056e+00 -5.424879e-02 0.0
1.095069e+00 -4.208082e-02 0.0
1.097305e+00 -2.944437e-02 0.0
1.096480e+00 -1.658959e-02 0.0
1.092006e+00 -3.270087e-03 0.0
1.083604e+00 1.048336e-02 0.0
1.071475e+00 2.400936e-02 0.0
1.056239e+00 3.657054e-02 0.0
1.039119e+00 4.709150e-02 0.0
1.022079e+00 5.408725e-02 0.0
1.007668e+00 5.589201e-02 0.0
9.980571e-01 5.165058e-02 0.0
9.939245e-01 4.229581e-02 0.0
9.948359e-01 2.962950e-02 0.0
9.995760e-01 1.593267e-02 0.0
1.006601e+00 3.458812e-03 0.0
1.014679e+00 -6.309433e-03 0.0
1.022987e+00 -1.285230e-02 0.0
1.030898e+00 -1.618804e-02 0.0
1.037993e+00 -1.683153e-02 0.0
1.043973e+00 -1.554802e-02 0.0
1.048603e+00 -1.309692e-02 0.0
1.051656e+00 -9.902609e-03 0.0
0.000000e+00 -1.003338e-02 0.0
1.000000e+00 -1.087020e-01 0.0
1.012380e+00 -1.095606e-01 0.0
1.027303e+00 -1.242370e-01 0.0
1.048320e+00 -1.554396e-01 0.0
1.081535e+00 -2.072461e-01 0.0
1.137817e+00 -2.863119e-01 0.0
1.232426e+00 -3.862236e-01 0.0
1.420330e+00 -5.933026e-01 0.0
1.478483e+00 -3.601821e-01 0.0
1.485947e+00 -1.922644e-01 0.0
1.480673e+00 -9.643301e-02 0.0
1.472401e+00 -3.832443e-02 0.0
1.463238e+00 -1.792553e-03 0.0
1.452162e+00 2.317089e-02 0.0
1.438885e+00 4.001391e-02 0.0
1.423608e+00 5.034741e-02 0.0
1.406792e+00 5.514871e-02 0.0
1.388163e+00 5.565512e-02 0.0
1.365950e+00 5.261324e-02 0.0
1.336422e+00 4.545911e-02 0.0
1.295815e+00 3.045080e-02 0.0
1.247602e+00 1.585307e-03 0.0
1.206934e+00 -4.006917e-02 0.0
1.188257e+00 -7.811069e-02 0.0
1.190485e+00 -9.272694e-02 0.0
1.209484e+00 -8.891799e-02 0.0
1.241927e+00 -7.610081e-02 0.0
1.282072e+00 -5.723105e-02 0.0
1.320880e+00 -3.171026e-02 0.0
1.349438e+00 8.599218e-04 0.0
1.367789e+00 3.561025e-02 0.0
1.377722e+00 7.131990e-02 0.0
1.378837e+00 1.099822e-01 0.0
1.370701e+00 1.505253e-01 0.0
1.353056e+00 1.912401e-01 0.0
1.326172e+00 2.298109e-01 0.0
1.290935e+00 2.638837e-01 0.0
1.248736e+00 2.915192e-01 0.0
1.201246e+00 3.111653e-01 0.0
1.150241e+00 3.209214e-01 0.0
1.097860e+00 3.171687e-01 0.0
1.046881e+00 2.959879e-01 0.0
9.997228e-01 2.564822e-01 0.0
9.579963e-01 2.012229e-01 0.0
9.234337e-01 1.342389e-01 0.0
8.989034e-01 5.918689e-02 0.0
8.877344e-01 -1.964637e-02 0.0
8.905432e-01 -9.583954e-02 0.0
9.044948e-01 -1.641479e-01 0.0
9.259343e-01 -2.209502e-01 0.0
9.517966e-01 -2.630198e-01 0.0
9.795302e-01 -2.867314e-01 0.0
1.006665e+00 -2.888964e-01 0.0
1.030655e+00 -2.681481e-01 0.0
1.049355e+00 -2.257588e-01 0.0
1.061051e+00 -1.652043e-01 0.0
1.064424e+00 -9.170545e-02 0.0
1.059069e+00 -1.159724e-02 0.0
1.046687e+00 6.742069e-02 0.0
1.030434e+00 1.381635e-01 0.0
1.013967e+00 1.946572e-01 0.0
1.000378e+00 2.312951e-01 0.0
9.910603e-01 2.441286e-01 0.0
9.851783e-01 2.331927e-01 0.0
9.810033e-01 2.027789e-01 0.0
9.771444e-01 1.594421e-01 0.0
9.730394e-01 1.102544e-01 0.0
9.689771e-01 6.116106e-02 0.0
9.659197e-01 1.629190e-02 0.0
9.651743e-01 -2.187390e-02 0.0
9.676690e-01 -5.219185e-02 0.0
9.735537e-01 -7.450150e-02 0.0
9.823081e-01 -8.906876e-02 0.0
9.929852e-01 -9.644228e-02 0.0
1.004424e+00 -9.744279e-02 0.0
1.015472e+00 -9.314927e-02 0.0
1.025154e+00 -8.464609e-02 0.0
1.032730e+00 -7.300212e-02 0.0
1.037685e+00 -5.919699e-02 0.0
1.039648e+00 -4.403762e-02 0.0
1.038248e+00 -2.803802e-02 0.0
1.032854e+00 -1.118937e-02 0.0
1.022905e+00 6.684874e-03 0.0
1.008826e+00 2.456895e-02 0.0
9.915168e-01 4.132440e-02 0.0
9.725877e-01 5.550589e-02 0.0
9.543950e-01 6.529043e-02 0.0
9.397038e-01 6.878458e-02 0.0
9.306101e-01 6.499201e-02 0.0
9.272366e-01 5.503028e-02 0.0
9.286564e-01 4.088217e-02 0.0
9.333982e-01 2.489393e-02 0.0
9.399789e-01 9.358263e-03 0.0
9.473458e-01 -3.901857e-03 0.0
9.550573e-01 -1.401474e-02 0.0
9.628136e-01 -2.060240e-02 0.0
9.703392e-01 -2.370738e-02 0.0
9.773286e-01 -2.381477e-02 0.0
9.833992e-01 -2.161233e-02 0.0
9.882448e-01 -1.793632e-02 0.0
9.914760e-01 -1.312760e-02 0.0
0.000000e+00 -1.325837e-02 0.0
1.000000e+00 -1.126528e-01 0.0
1.004095e+00 -1.136319e-01 0.0
1.009399e+00 -1.295351e-01 0.0
1.018220e+00 -1.642545e-01 0.0
1.036080e+00 -2.250993e-01 0.0
1.075707e+00 -3.259332e-01 0.0
1.165840e+00 -4.763504e-01 0.0
1.389824e+00 -8.172807e-01 0.0
1.377608e+00 -3.479600e-01 0.0
1.331916e+00 -1.465658e-01 0.0
1.300490e+00 -6.500126e-02 0.0
1.281818e+00 -1.964553e-02 0.0
1.266701e+00 1.333058e-02 0.0
1.251224e+00 3.865404e-02 0.0
1.233307e+00 5.793661e-02 0.0
1.211941e+00 7.171998e-02 0.0
1.186995e+00 8.010085e-02 0.0
1.158481e+00 8.417485e-02 0.0
1.124155e+00 8.694621e-02 0.0
1.078842e+00 9.077787e-02 0.0
1.015716e+00 9.358299e-02 0.0
9.340327e-01 8.327479e-02 0.0
8.431774e-01 5.079240e-02 0.0
7.635132e-01 1.559647e-03 0.0
7.187115e-01 -4.791903e-02 0.0
7.137608e-01 -8.396107e-02 0.0
7.493793e-01 -1.117131e-01 0.0
8.200975e-01 -1.279430e-01 0.0
9.130733e-01 -1.246799e-01 0.0
1.009783e+00 -9.584410e-02 0.0
1.088546e+00 -4.314609e-02 0.0
1.140032e+00 1.983980e-02 0.0
1.173025e+00 7.699543e-02 0.0
1.192111e+00 1.314457e-01 0.0
1.198481e+00 1.848767e-01 0.0
1.192794e+00 2.355033e-01 0.0
1.176128e+00 2.805567e-01 0.0
1.150084e+00 3.175685e-01 0.0
1.116665e+00 3.445907e-01 0.0
1.078017e+00 3.595759e-01 0.0
1.035800e+00 3.593918e-01 0.0
9.914813e-01 3.403128e-01 0.0
9.460968e-01 3.018729e-01 0.0
9.020480e-01 2.452779e-01 0.0
8.655598e-01 1.707333e-01 0.0
8.442493e-01 8.050357e-02 0.0
8.411548e-01 -1.654570e-02 0.0
8.525330e-01 -1.072115e-01 0.0
8.716924e-01 -1.833012e-01 0.0
8.936125e-01 -2.428641e-01 0.0
9.156126e-01 -2.850137e-01 0.0
9.362229e-01 -3.073354e-01 0.0
9.540797e-01 -3.067470e-01 0.0
9.677195e-01 -2.817818e-01 0.0
9.760704e-01 -2.341035e-01 0.0
9.785403e-01 -1.676679e-01 0.0
9.749778e-01 -8.813669e-02 0.0
9.661075e-01 -2.720734e-03 0.0
9.541827e-01 7.935168e-02 0.0
9.419449e-01 1.504075e-01 0.0
9.320363e-01 2.045721e-01 0.0
9.261387e-01 2.371989e-01 0.0
9.242180e-01 2.460555e-01 0.0
9.245564e-01 2.328605e-01 0.0
9.251532e-01 2.021884e-01 0.0
9.245858e-01 1.600157e-01 0.0
9.224928e-01 1.123536e-01 0.0
9.195981e-01 6.406198e-02 0.0
9.173643e-01 1.853193e-02 0.0
9.174577e-01 -2.196116e-02 0.0
9.209762e-01 -5.570412e-02 0.0
9.279805e-01 -8.149960e-02 0.0
9.377245e-01 -9.880649e-02 0.0
9.490376e-01 -1.077491e-01 0.0
9.606251e-01 -1.090241e-01 0.0
9.712185e-01 -1.037364e-01 0.0
9.797673e-01 -9.318868e-02 0.0
9.854861e-01 -7.871474e-02 0.0
9.878064e-01 -6.151102e-02 0.0
9.862499e-01 -4.247491e-02 0.0
9.802290e-01 -2.201095e-02 0.0
9.690721e-01 -2.621221e-05 0.0
9.534383e-01 2.232482e-02 0.0
9.346417e-01 4.337181e-02 0.0
9.146615e-01 6.131082e-02 0.0
8.960812e-01 7.409242e-02 0.0
8.815813e-01 7.979656e-02 0.0
8.729196e-01 7.745248e-02 0.0
8.697201e-01 6.819777e-02 0.0
8.706841e-01 5.407247e-02 0.0
8.742616e-01 3.731092e-02 0.0
8.791429e-01 2.001885e-02 0.0
8.846059e-01 3.901481e-03 0.0
8.905920e-01 -9.881742e-03 0.0
8.972092e-01 -2.062574e-02 0.0
9.044238e-01 -2.781074e-02 0.0
9.119875e-01 -3.126487e-02 0.0
9.194189e-01 -3.123999e-02 0.0
9.261363e-01 -2.832350e-02 0.0
9.316381e-01 -2.343186e-02 0.0
9.350928e-01 -1.657609e-02 0.0
0.000000e+00 -1.671044e-02 0.0
1.000000e+00 -1.075150e-01 0.0
9.949738e-01 -1.085820e-01 0.0
9.888548e-01 -1.234099e-01 0.0
9.809032e-01 -1.562967e-01 0.0
9.718559e-01 -2.160458e-01 0.0
9.672375e-01 -3.213087e-01 0.0
9.944306e-01 -5.035372e-01 0.0
1.157260e+00 -9.801038e-01 0.0
1.010039e+00 -2.007508e-01 0.0
8.821755e-01 -1.871327e-02 0.0
8.276052e-01 -1.042476e-02 0.0
8.017472e-01 6.218719e-03 0.0
7.857317e-01 2.935223e-02 0.0
7.696204e-01 5.477154e-02 0.0
7.463484e-01 8.121470e-02 0.0
7.100528e-01 1.080218e-01 0.0
6.572124e-01 1.329474e-01 0.0
5.877318e-01 1.536616e-01 0.0
5.076100e-01 1.670742e-01 0.0
4.307127e-01 1.676813e-01 0.0
3.642933e-01 1.600086e-01 0.0
2.992662e-01 1.483080e-01 0.0
2.273971e-01 1.226677e-01 0.0
1.566468e-01 7.231608e-02 0.0
1.117471e-01 -3.013154e-03 0.0
1.195773e-01 -9.178509e-02 0.0
1.844486e-01 -1.765782e-01 0.0
2.985006e-01 -2.419889e-01 0.0
4.442279e-01 -2.704009e-01 0.0
5.983284e-01 -2.499385e-01 0.0
7.404299e-01 -1.852413e-01 0.0
8.541601e-01 -9.388418e-02 0.0
9.294516e-01 1.710083e-03 0.0
9.786791e-01 8.222447e-02 0.0
1.009435e+00 1.541267e-01 0.0
1.024411e+00 2.205341e-01 0.0
1.025549e+00 2.794244e-01 0.0
1.014901e+00 3.282230e-01 0.0
9.947472e-01 3.647504e-01 0.0
9.671428e-01 3.871865e-01 0.0
9.319862e-01 3.945547e-01 0.0
8.881970e-01 3.841082e-01 0.0
8.389884e-01 3.510876e-01 0.0
7.954245e-01 2.888481e-01 0.0
7.712965e-01 1.948675e-01 0.0
7.719176e-01 7.988864e-02 0.0
7.911709e-01 -3.579281e-02 0.0
8.187016e-01 -1.347360e-01 0.0
8.467846e-01 -2.113780e-01 0.0
8.713208e-01 -2.673941e-01 0.0
8.909905e-01 -3.046771e-01 0.0
9.058963e-01 -3.222350e-01 0.0
9.160759e-01 -3.169204e-01 0.0
9.211914e-01 -2.868911e-01 0.0
9.210270e-01 -2.339328e-01 0.0
9.159040e-01 -1.625388e-01 0.0
9.067270e-01 -7.895344e-02 0.0
8.952121e-01 8.800350e-03 0.0
8.836778e-01 9.089224e-02 0.0
8.741615e-01 1.599300e-01 0.0
8.682302e-01 2.105096e-01 0.0
8.663716e-01 2.390637e-01 0.0
8.675454e-01 2.448879e-01 0.0
8.697144e-01 2.306977e-01 0.0
8.710067e-01 2.009023e-01 0.0
8.704277e-01 1.606009e-01 0.0
8.682591e-01 1.145284e-01 0.0
8.658872e-01 6.644006e-02 0.0
8.651809e-01 1.924447e-02 0.0
8.677690e-01 -2.454309e-02 0.0
8.742973e-01 -6.222615e-02 0.0
8.842594e-01 -9.145552e-02 0.0
8.964600e-01 -1.110008e-01 0.0
9.094675e-01 -1.207505e-01 0.0
9.218761e-01 -1.214265e-01 0.0
9.323785e-01 -1.142326e-01 0.0
9.399108e-01 -1.007147e-01 0.0
9.436533e-01 -8.245103e-02 0.0
9.429554e-01 -6.080683e-02 0.0
9.372243e-01 -3.673762e-02 0.0
9.259365e-01 -1.071690e-02 0.0
9.097808e-01 1.613565e-02 0.0
8.905569e-01 4.155494e-02 0.0
8.705097e-01 6.342529e-02 0.0
8.522465e-01 7.958022e-02 0.0
8.381593e-01 8.818581e-02 0.0
8.295541e-01 8.840801e-02 0.0
8.258039e-01 8.120885e-02 0.0
8.254531e-01 6.855481e-02 0.0
8.270471e-01 5.248467e-02 0.0
8.295241e-01 3.484018e-02 0.0
8.324657e-01 1.708346e-02 0.0
8.360701e-01 3.033161e-04 0.0
8.408272e-01 -1.463258e-02 0.0
8.469639e-01 -2.675623e-02 0.0
8.543541e-01 -3.519477e-02 0.0
8.625490e-01 -3.945354e-02 0.0
8.708362e-01 -3.952101e-02 0.0
8.784098e-01 -3.589079e-02 0.0
8.845490e-01 -2.956483e-02 0.0
8.881242e-01 -2.014512e-02 0.0
0.000000e+00 -2.026966e-02 0.0
1.000000e+00 -9.382152e-02 0.0
9.863817e-01 -9.494012e-02 0.0
9.689851e-01 -1.060070e-01 0.0
9.428290e-01 -1.301344e-01 0.0
8.995452e-01 -1.727558e-01 0.0
8.224242e-01 -2.441816e-01 0.0
6.873612e-01 -3.684680e-01 0.0
2.007158e-01 -4.934698e-01 0.0
-1.009514e+00 4.909415e-01 0.0
0.000000e+00 -4.628778e-02 0.0
-7.675282e-02 4.763846e-02 0.0
-9.935360e-03 -6.059257e-02 0.0
7.535211e-02 -5.592906e-02 0.0
1.379169e-01 -7.787102e-03 0.0
1.671135e-01 5.202432e-02 0.0
1.674606e-01 1.076809e-01 0.0
1.441914e-01 1.562228e-01 0.0
1.039900e-01 1.938691e-01 0.0
5.421357e-02 2.168568e-01 0.0
-4.402275e-03 2.263034e-01 0.0
-6.616161e-02 2.217741e-01 0.0
-1.210750e-01 2.032276e-01 0.0
-1.614079e-01 1.630068e-01 0.0
-1.825788e-01 9.349316e-02 0.0
-1.762614e-01 -9.324406e-03 0.0
-1.375287e-01 -1.305116e-01 0.0
-6.683772e-02 -2.472630e-01 0.0
3.634866e-02 -3.451691e-01 0.0
1.680824e-01 -4.021285e-01 0.0
3.178336e-01 -3.996835e-01 0.0
4.690414e-01 -3.364429e-01 0.0
6.046345e-01 -2.294711e-01 0.0
7.117576e-01 -1.054068e-01 0.0
7.830840e-01 1.090432e-02 0.0
8.300122e-01 1.072047e-01 0.0
8.579651e-01 1.925874e-01 0.0
8.697191e-01 2.676767e-01 0.0
8.672971e-01 3.306511e-01 0.0
8.521241e-01 3.799297e-01 0.0
8.245638e-01 4.147529e-01 0.0
7.847639e-01 4.343609e-01 0.0
7.368365e-01 4.320418e-01 0.0
6.949289e-01 3.930014e-01 0.0
6.756598e-01 3.081234e-01 0.0
6.850891e-01 1.854444e-01 0.0
7.167143e-01 4.826967e-02 0.0
7.581976e-01 -7.726990e-02 0.0
7.998685e-01 -1.764007e-01 0.0
8.358021e-01 -2.473054e-01 0.0
8.628517e-01 -2.944375e-01 0.0
8.804612e-01 -3.222804e-01 0.0
8.900235e-01 -3.317911e-01 0.0
8.932427e-01 -3.201334e-01 0.0
8.911252e-01 -2.847674e-01 0.0
8.841784e-01 -2.269798e-01 0.0
8.732783e-01 -1.516326e-01 0.0
8.600181e-01 -6.568696e-02 0.0
8.466799e-01 2.214476e-02 0.0
8.352696e-01 1.023087e-01 0.0
8.270752e-01 1.681306e-01 0.0
8.227213e-01 2.148697e-01 0.0
8.217755e-01 2.400158e-01 0.0
8.226460e-01 2.440236e-01 0.0
8.233913e-01 2.299587e-01 0.0
8.226776e-01 2.016222e-01 0.0
8.203595e-01 1.629252e-01 0.0
8.175778e-01 1.173164e-01 0.0
8.162247e-01 6.779935e-02 0.0
8.181455e-01 1.732987e-02 0.0
8.244576e-01 -3.084897e-02 0.0
8.349863e-01 -7.274859e-02 0.0
8.485533e-01 -1.050163e-01 0.0
8.635504e-01 -1.259917e-01 0.0
8.783593e-01 -1.355532e-01 0.0
8.915120e-01 -1.345729e-01 0.0
9.017482e-01 -1.244627e-01 0.0
9.080510e-01 -1.070113e-01 0.0
9.095987e-01 -8.399257e-02 0.0
9.057267e-01 -5.692853e-02 0.0
8.960338e-01 -2.703856e-02 0.0
8.810595e-01 4.263612e-03 0.0
8.629120e-01 3.428939e-02 0.0
8.439405e-01 6.053270e-02 0.0
8.266224e-01 8.074958e-02 0.0
8.130008e-01 9.320803e-02 0.0
8.040106e-01 9.718225e-02 0.0
7.990483e-01 9.337654e-02 0.0
7.967389e-01 8.352444e-02 0.0
7.958622e-01 6.943773e-02 0.0
7.956381e-01 5.271497e-02 0.0
7.958776e-01 3.460695e-02 0.0
7.969087e-01 1.605856e-02 0.0
7.993389e-01 -2.120670e-03 0.0
8.036602e-01 -1.894763e-02 0.0
8.099297e-01 -3.301950e-02 0.0
8.178109e-01 -4.306977e-02 0.0
8.266588e-01 -4.829517e-02 0.0
8.356004e-01 -4.845638e-02 0.0
8.436738e-01 -4.395801e-02 0.0
8.499911e-01 -3.587590e-02 0.0
8.534618e-01 -2.360958e-02 0.0
0.000000e+00 -2.370065e-02 0.0
1.000000e+00 -7.374581e-02 0.0
9.799634e-01 -7.487984e-02 0.0
9.543757e-01 -8.041318e-02 0.0
9.155721e-01 -9.132462e-02 0.0
8.496992e-01 -1.068768e-01 0.0
7.271971e-01 -1.216734e-01 0.0
4.727341e-01 -1.139988e-01 0.0
-1.014066e-02 -1.060637e-02 0.0
8.927654e-06 0.000000e+00 0.0
0.000000e+00 -0.000000e+00 0.0
0.000000e+00 -2.939459e-02 0.0
-9.588678e-02 3.530039e-02 0.0
-9.164205e-02 -6.016760e-02 0.0
-8.388678e-02 -1.553619e-02 0.0
-9.514032e-02 6.328403e-02 0.0
-1.090512e-01 1.215980e-01 0.0
-1.264906e-01 1.736684e-01 0.0
-1.462361e-01 2.136208e-01 0.0
-1.678763e-01 2.385032e-01 0.0