# vtk DataFile Version 3.0
Vector Field
ASCII
DATASET RECTILINEAR_GRID
DIMENSIONS 102 22 1
X_COORDINATES 102 double
0.000000 0.100000 0.200000 0.300000 0.400000 0.500000 0.600000 0.700000 0.800000 0.900000 1.000000 1.100000 1.200000 1.300000 1.400000 1.500000 1.600000 1.700000 1.800000 1.900000 2.000000 2.100000 2.200000 2.300000 2.400000 2.500000 2.600000 2.700000 2.800000 2.900000 3.000000 3.100000 3.200000 3.300000 3.400000 3.500000 3.600000 3.700000 3.800000 3.900000 4.000000 4.100000 4.200000 4.300000 4.400000 4.500000 4.600000 4.700000 4.800000 4.900000 5.000000 5.100000 5.200000 5.300000 5.400000 5.500000 5.600000 5.700000 5.800000 5.900000 6.000000 6.100000 6.200000 6.300000 6.400000 6.500000 6.600000 6.700000 6.800000 6.900000 7.000000 7.100000 7.200000 7.300000 7.400000 7.500000 7.600000 7.700000 7.800000 7.900000 8.000000 8.100000 8.200000 8.300000 8.400000 8.500000 8.600000 8.700000 8.800000 8.900000 9.000000 9.100000 9.200000 9.300000 9.400000 9.500000 9.600000 9.700000 9.800000 9.900000 10.000000 10.100000 
Y_COORDINATES 22 double
0.000000 0.100000 0.200000 0.300000 0.400000 0.500000 0.600000 0.700000 0.800000 0.900000 1.000000 1.100000 1.200000 1.300000 1.400000 1.500000 1.600000 1.700000 1.800000 1.900000 2.000000 2.100000 
Z_COORDINATES 1 double
0.0
POINT_DATA 2244
VECTORS Velocity double
0.000000e+00 0.000000e+00 0.0
-1.030036e+00 0.000000e+00 0.0
-1.063131e+00 0.000000e+00 0.0
-1.102557e+00 0.000000e+00 0.0
-1.151255e+00 0.000000e+00 0.0
-1.211584e+00 0.000000e+00 0.0
-1.283216e+00 0.000000e+00 0.0
-1.366370e+00 0.000000e+00 0.0
-1.443670e+00 0.000000e+00 0.0
-1.503776e+00 0.000000e+00 0.0
-1.544550e+00 0.000000e+00 0.0
-1.568243e+00 0.000000e+00 0.0
-1.578266e+00 0.000000e+00 0.0
-1.577883e+00 0.000000e+00 0.0
-1.569560e+00 0.000000e+00 0.0
-1.554967e+00 0.000000e+00 0.0
-1.535242e+00 0.000000e+00 0.0
-1.511193e+00 0.000000e+00 0.0
-1.483426e+00 0.000000e+00 0.0
-1.452401e+00 0.000000e+00 0.0
-1.418440e+00 0.000000e+00 0.0
-1.381725e+00 0.000000e+00 0.0
-1.342420e+00 0.000000e+00 0.0
-1.301124e+00 0.000000e+00 0.0
-1.259616e+00 0.000000e+00 0.0
-1.221681e+00 0.000000e+00 0.0
-1.193696e+00 0.000000e+00 0.0
-1.184104e+00 0.000000e+00 0.0
-1.200904e+00 0.000000e+00 0.0
-1.248153e+00 0.000000e+00 0.0
-1.322051e+00 0.000000e+00 0.0
-1.409759e+00 0.000000e+00 0.0
-1.494454e+00 0.000000e+00 0.0
-1.561263e+00 0.000000e+00 0.0
-1.601070e+00 0.000000e+00 0.0
-1.613066e+00 0.000000e+00 0.0
-1.602583e+00 0.000000e+00 0.0
-1.575213e+00 0.000000e+00 0.0
-1.534921e+00 0.000000e+00 0.0
-1.484078e+00 0.000000e+00 0.0
-1.424007e+00 0.000000e+00 0.0
-1.355624e+00 0.000000e+00 0.0
-1.279892e+00 0.000000e+00 0.0
-1.198215e+00 0.000000e+00 0.0
-1.113098e+00 0.000000e+00 0.0
-1.028401e+00 0.000000e+00 0.0
-9.489581e-01 0.000000e+00 0.0
-8.800055e-01 0.000000e+00 0.0
-8.261270e-01 0.000000e+00 0.0
-7.901958e-01 0.000000e+00 0.0
-7.728395e-01 0.000000e+00 0.0
-7.726225e-01 0.000000e+00 0.0
-7.870748e-01 0.000000e+00 0.0
-8.144208e-01 0.000000e+00 0.0
-8.534709e-01 0.000000e+00 0.0
-9.033165e-01 0.000000e+00 0.0
-9.629203e-01 0.000000e+00 0.0
-1.030644e+00 0.000000e+00 0.0
-1.104156e+00 0.000000e+00 0.0
-1.180313e+00 0.000000e+00 0.0
-1.255715e+00 0.000000e+00 0.0
-1.327102e+00 0.000000e+00 0.0
-1.391398e+00 0.000000e+00 0.0
-1.445888e+00 0.000000e+00 0.0
-1.488457e+00 0.000000e+00 0.0
-1.517873e+00 0.000000e+00 0.0
-1.534033e+00 0.000000e+00 0.0
-1.537911e+00 0.000000e+00 0.0
-1.530408e+00 0.000000e+00 0.0
-1.511268e+00 0.000000e+00 0.0
-1.479817e+00 0.000000e+00 0.0
-1.435504e+00 0.000000e+00 0.0
-1.378683e+00 0.000000e+00 0.0
-1.311595e+00 0.000000e+00 0.0
-1.238829e+00 0.000000e+00 0.0
-1.166299e+00 0.000000e+00 0.0
-1.099078e+00 0.000000e+00 0.0
-1.040501e+00 0.000000e+00 0.0
-9.920821e-01 0.000000e+00 0.0
-9.538628e-01 0.000000e+00 0.0
-9.248721e-01 0.000000e+00 0.0
-9.036122e-01 0.000000e+00 0.0
-8.884644e-01 0.000000e+00 0.0
-8.779430e-01 0.000000e+00 0.0
-8.708099e-01 0.000000e+00 0.0
-8.660950e-01 0.000000e+00 0.0
-8.630681e-01 0.000000e+00 0.0
-8.611943e-01 0.000000e+00 0.0
-8.600890e-01 0.000000e+00 0.0
-8.594793e-01 0.000000e+00 0.0
-8.591748e-01 0.000000e+00 0.0
-8.590448e-01 0.000000e+00 0.0
-8.590026e-01 0.000000e+00 0.0
-8.589940e-01 0.000000e+00 0.0
-8.589879e-01 0.000000e+00 0.0
-8.589749e-01 0.000000e+00 0.0
-8.589719e-01 0.000000e+00 0.0
-8.590231e-01 0.000000e+00 0.0
-8.592092e-01 0.000000e+00 0.0
-8.596825e-01 0.000000e+00 0.0
-8.596825e-01 0.000000e+00 0.0
0.000000e+00 0.000000e+00 0.0
1.000000e+00 -2.975872e-02 0.0
1.029996e+00 -2.972553e-02 0.0
1.063055e+00 -3.290413e-02 0.0
1.102455e+00 -3.924433e-02 0.0
1.151146e+00 -4.853491e-02 0.0
1.211504e+00 -6.020326e-02 0.0
1.283227e+00 -7.156746e-02 0.0
1.366590e+00 -8.320711e-02 0.0
1.444257e+00 -7.751127e-02 0.0
1.504885e+00 -6.047308e-02 0.0
1.546295e+00 -4.125477e-02 0.0
1.570660e+00 -2.420946e-02 0.0
1.581308e+00 -1.049206e-02 0.0
1.581453e+00 1.036091e-05 0.0
1.573565e+00 8.043481e-03 0.0
1.559322e+00 1.439888e-02 0.0
1.539864e+00 1.961368e-02 0.0
1.515994e+00 2.402532e-02 0.0
1.488307e+00 2.784239e-02 0.0
1.457257e+00 3.120513e-02 0.0
1.423172e+00 3.424117e-02 0.0
1.386238e+00 3.708896e-02 0.0
1.346586e+00 3.980746e-02 0.0
1.304648e+00 4.209383e-02 0.0
1.261870e+00 4.293390e-02 0.0
1.221522e+00 4.050293e-02 0.0
1.189434e+00 3.224417e-02 0.0
1.173840e+00 1.574945e-02 0.0
1.183384e+00 -9.388825e-03 0.0
1.223666e+00 -4.012577e-02 0.0
1.293323e+00 -6.950158e-02 0.0
1.381498e+00 -8.801951e-02 0.0
1.471424e+00 -8.976995e-02 0.0
1.546811e+00 -7.523154e-02 0.0
1.596129e+00 -4.916261e-02 0.0
1.615947e+00 -1.966276e-02 0.0
1.610733e+00 5.369626e-03 0.0
1.586734e+00 2.415491e-02 0.0
1.548635e+00 3.825517e-02 0.0
1.499397e+00 4.939316e-02 0.0
1.440680e+00 5.887259e-02 0.0
1.373507e+00 6.732881e-02 0.0
1.298810e+00 7.485256e-02 0.0
1.217846e+00 8.111981e-02 0.0
1.132826e+00 8.517598e-02 0.0
1.047362e+00 8.561944e-02 0.0
9.661124e-01 8.140548e-02 0.0
8.942986e-01 7.196951e-02 0.0
8.367163e-01 5.773800e-02 0.0
7.966346e-01 4.023754e-02 0.0
7.751322e-01 2.165812e-02 0.0
7.711538e-01 4.134160e-03 0.0
7.822495e-01 -1.093988e-02 0.0
8.064548e-01 -2.404958e-02 0.0
8.424752e-01 -3.586459e-02 0.0
8.893745e-01 -4.674345e-02 0.0
9.462118e-01 -5.668150e-02 0.0
1.011530e+00 -6.516289e-02 0.0
1.083229e+00 -7.154224e-02 0.0
1.158393e+00 -7.500844e-02 0.0
1.233681e+00 -7.513265e-02 0.0
1.305862e+00 -7.202460e-02 0.0
1.371858e+00 -6.584012e-02 0.0
1.428890e+00 -5.687653e-02 0.0
1.474697e+00 -4.565103e-02 0.0
1.507791e+00 -3.293807e-02 0.0
1.527721e+00 -1.977439e-02 0.0
1.535165e+00 -7.288212e-03 0.0
1.531258e+00 4.063331e-03 0.0
1.515982e+00 1.543185e-02 0.0
1.488726e+00 2.741155e-02 0.0
1.448813e+00 4.006886e-02 0.0
1.396173e+00 5.279649e-02 0.0
1.332302e+00 6.402676e-02 0.0
1.261018e+00 7.144015e-02 0.0
1.188000e+00 7.317348e-02 0.0
1.118774e+00 6.938242e-02 0.0
1.057267e+00 6.166291e-02 0.0
1.005576e+00 5.184716e-02 0.0
9.641827e-01 4.154896e-02 0.0
9.324027e-01 3.193601e-02 0.0
9.088639e-01 2.369478e-02 0.0
8.919535e-01 1.706636e-02 0.0
8.801241e-01 1.198538e-02 0.0
8.720505e-01 8.229589e-03 0.0
8.666761e-01 5.530344e-03 0.0
8.631971e-01 3.635060e-03 0.0
8.610201e-01 2.332931e-03 0.0
8.597168e-01 1.459310e-03 0.0
8.589824e-01 8.904323e-04 0.0
8.586032e-01 5.352044e-04 0.0
8.584321e-01 3.270643e-04 0.0
8.583710e-01 2.171131e-04 0.0
8.583577e-01 1.693202e-04 0.0
8.583565e-01 1.572169e-04 0.0
8.583546e-01 1.579169e-04 0.0
8.583662e-01 1.444367e-04 0.0
8.584343e-01 8.790065e-05 0.0
8.586387e-01 -4.831803e-05 0.0
8.591279e-01 -3.331852e-04 0.0
8.596825e-01 -3.985877e-04 0.0
0.000000e+00 -3.972824e-04 0.0
1.000000e+00 -6.006959e-02 0.0
1.030428e+00 -5.999780e-02 0.0
1.063946e+00 -6.638222e-02 0.0
1.103965e+00 -7.922231e-02 0.0
1.153762e+00 -9.829096e-02 0.0
1.216424e+00 -1.228256e-01 0.0
1.291805e+00 -1.469078e-01 0.0
1.385450e+00 -1.768110e-01 0.0
1.468837e+00 -1.608579e-01 0.0
1.530537e+00 -1.221328e-01 0.0
1.571428e+00 -8.210477e-02 0.0
1.595369e+00 -4.810999e-02 0.0
1.606182e+00 -2.126459e-02 0.0
1.607137e+00 -9.040439e-04 0.0
1.600576e+00 1.464550e-02 0.0
1.588026e+00 2.698905e-02 0.0
1.570522e+00 3.715846e-02 0.0
1.548798e+00 4.578983e-02 0.0
1.523402e+00 5.327872e-02 0.0
1.494759e+00 5.988837e-02 0.0
1.463202e+00 6.583953e-02 0.0
1.428985e+00 7.134607e-02 0.0
1.392338e+00 7.649555e-02 0.0
1.353600e+00 8.087214e-02 0.0
1.313642e+00 8.293225e-02 0.0
1.274712e+00 7.947330e-02 0.0
1.241097e+00 6.589978e-02 0.0
1.219372e+00 3.751534e-02 0.0
1.217067e+00 -7.042713e-03 0.0
1.239538e+00 -6.255695e-02 0.0
1.288478e+00 -1.184002e-01 0.0
1.359990e+00 -1.594910e-01 0.0
1.443400e+00 -1.731396e-01 0.0
1.524850e+00 -1.566407e-01 0.0
1.590622e+00 -1.148941e-01 0.0
1.629888e+00 -5.888830e-02 0.0
1.639769e+00 -4.470442e-03 0.0
1.626888e+00 3.707587e-02 0.0
1.597590e+00 6.759448e-02 0.0
1.555982e+00 9.104110e-02 0.0
1.504499e+00 1.103964e-01 0.0
1.444703e+00 1.271656e-01 0.0
1.378043e+00 1.415525e-01 0.0
1.306209e+00 1.529947e-01 0.0
1.231119e+00 1.603064e-01 0.0
1.155196e+00 1.615839e-01 0.0
1.081772e+00 1.548698e-01 0.0
1.014492e+00 1.392899e-01 0.0
9.567314e-01 1.155394e-01 0.0
9.110575e-01 8.595207e-02 0.0
8.788860e-01 5.387024e-02 0.0
8.604591e-01 2.260169e-02 0.0
8.550380e-01 -5.478135e-03 0.0
8.609928e-01 -2.996379e-02 0.0
8.772241e-01 -5.205523e-02 0.0
9.030029e-01 -7.248155e-02 0.0
9.378607e-01 -9.149871e-02 0.0
9.812614e-01 -1.085229e-01 0.0
1.031926e+00 -1.221662e-01 0.0
1.087805e+00 -1.308463e-01 0.0
1.146136e+00 -1.334234e-01 0.0
1.204016e+00 -1.298640e-01 0.0
1.258679e+00 -1.204628e-01 0.0
1.307611e+00 -1.057671e-01 0.0
1.348719e+00 -8.671913e-02 0.0
1.380496e+00 -6.467449e-02 0.0
1.402060e+00 -4.129695e-02 0.0
1.412986e+00 -1.817335e-02 0.0
1.413116e+00 3.973983e-03 0.0
1.402742e+00 2.584640e-02 0.0
1.382382e+00 4.781204e-02 0.0
1.353249e+00 6.924215e-02 0.0
1.317558e+00 8.852829e-02 0.0
1.278375e+00 1.032504e-01 0.0
1.238861e+00 1.109948e-01 0.0
1.201526e+00 1.105490e-01 0.0
1.167986e+00 1.029634e-01 0.0
1.138969e+00 9.072016e-02 0.0
1.114335e+00 7.652241e-02 0.0
1.093599e+00 6.232575e-02 0.0
1.076315e+00 4.926058e-02 0.0
1.062053e+00 3.799771e-02 0.0
1.050408e+00 2.875140e-02 0.0
1.041003e+00 2.143134e-02 0.0
1.033479e+00 1.579426e-02 0.0
1.027501e+00 1.154879e-02 0.0
1.022764e+00 8.413273e-03 0.0
1.018996e+00 6.140949e-03 0.0
1.015970e+00 4.526788e-03 0.0
1.013495e+00 3.405716e-03 0.0
1.011423e+00 2.647609e-03 0.0
1.009640e+00 2.151466e-03 0.0
1.008058e+00 1.839374e-03 0.0
1.006618e+00 1.649854e-03 0.0
1.005285e+00 1.531143e-03 0.0
1.004046e+00 1.437680e-03 0.0
1.002903e+00 1.327839e-03 0.0
1.001882e+00 1.149945e-03 0.0
1.001033e+00 8.413131e-04 0.0
1.000416e+00 3.240682e-04 0.0
1.000259e+00 -2.007907e-04 0.0
0.000000e+00 -2.087314e-04 0.0
1.000000e+00 -8.696024e-02 0.0
1.027006e+00 -8.684793e-02 0.0
1.057211e+00 -9.654679e-02 0.0
1.094324e+00 -1.162951e-01 0.0
1.142417e+00 -1.463430e-01 0.0
1.206235e+00 -1.866033e-01 0.0
1.286895e+00 -2.275275e-01 0.0
1.401810e+00 -2.916855e-01 0.0
1.491890e+00 -2.508977e-01 0.0
1.550199e+00 -1.804007e-01 0.0
1.585627e+00 -1.174918e-01 0.0
1.605089e+00 -6.753148e-02 0.0
1.612839e+00 -2.897388e-02 0.0
1.611996e+00 -2.083180e-05 0.0
1.604596e+00 2.208632e-02 0.0
1.591847e+00 3.977827e-02 0.0
1.574576e+00 5.446971e-02 0.0
1.553393e+00 6.701404e-02 0.0
1.528760e+00 7.795200e-02 0.0
1.501050e+00 8.763889e-02 0.0
1.470583e+00 9.634713e-02 0.0
1.437657e+00 1.043124e-01 0.0
1.402574e+00 1.116191e-01 0.0
1.365690e+00 1.177971e-01 0.0
1.327588e+00 1.210745e-01 0.0
1.289477e+00 1.176251e-01 0.0
1.253391e+00 1.020268e-01 0.0
1.221909e+00 6.903726e-02 0.0
1.198725e+00 1.618253e-02 0.0
1.189223e+00 -5.301435e-02 0.0
1.198406e+00 -1.275430e-01 0.0
1.231018e+00 -1.920621e-01 0.0
1.289718e+00 -2.317996e-01 0.0
1.367498e+00 -2.343801e-01 0.0
1.450907e+00 -1.982626e-01 0.0
1.522228e+00 -1.301687e-01 0.0
1.564664e+00 -4.686531e-02 0.0
1.574974e+00 2.680597e-02 0.0
1.562566e+00 8.004296e-02 0.0
1.534109e+00 1.195389e-01 0.0
1.493807e+00 1.507388e-01 0.0
1.444413e+00 1.766008e-01 0.0
1.387921e+00 1.980845e-01 0.0
1.326085e+00 2.148715e-01 0.0
1.260714e+00 2.257187e-01 0.0
1.193926e+00 2.284122e-01 0.0
1.128517e+00 2.203197e-01 0.0
1.067364e+00 2.004837e-01 0.0
1.012938e+00 1.700052e-01 0.0
9.668990e-01 1.320320e-01 0.0
9.300196e-01 9.079029e-02 0.0
9.025533e-01 5.010864e-02 0.0
8.847580e-01 1.235771e-02 0.0
8.763798e-01 -2.154492e-02 0.0
8.767746e-01 -5.240932e-02 0.0
8.858225e-01 -8.148887e-02 0.0
9.035507e-01 -1.091862e-01 0.0
9.294858e-01 -1.344174e-01 0.0
9.626077e-01 -1.552474e-01 0.0
1.001367e+00 -1.695648e-01 0.0
1.043680e+00 -1.756957e-01 0.0
1.086972e+00 -1.731158e-01 0.0
1.128825e+00 -1.622750e-01 0.0
1.167103e+00 -1.440040e-01 0.0
1.200045e+00 -1.196207e-01 0.0
1.226306e+00 -9.089546e-02 0.0
1.244905e+00 -5.985502e-02 0.0
1.255130e+00 -2.835792e-02 0.0
1.256726e+00 2.418620e-03 0.0
1.250435e+00 3.217833e-02 0.0
1.237777e+00 6.051056e-02 0.0
1.220965e+00 8.609532e-02 0.0
1.202660e+00 1.068734e-01 0.0
1.185331e+00 1.206211e-01 0.0
1.170484e+00 1.258822e-01 0.0
1.158231e+00 1.228427e-01 0.0
1.147748e+00 1.134868e-01 0.0
1.138153e+00 1.003557e-01 0.0
1.128906e+00 8.581050e-02 0.0
1.119744e+00 7.152871e-02 0.0
1.110526e+00 5.851943e-02 0.0
1.101279e+00 4.728463e-02 0.0
1.092129e+00 3.794212e-02 0.0
1.083225e+00 3.037670e-02 0.0
1.074696e+00 2.436358e-02 0.0
1.066638e+00 1.964727e-02 0.0
1.059109e+00 1.598324e-02 0.0
1.052135e+00 1.315568e-02 0.0
1.045720e+00 1.098238e-02 0.0
1.039853e+00 9.313686e-03 0.0
1.034512e+00 8.029280e-03 0.0
1.029670e+00 7.033958e-03 0.0
1.025297e+00 6.252660e-03 0.0
1.021363e+00 5.624920e-03 0.0
1.017835e+00 5.099421e-03 0.0
1.014685e+00 4.628504e-03 0.0
1.011893e+00 4.160722e-03 0.0
1.009455e+00 3.628768e-03 0.0
1.007401e+00 2.936025e-03 0.0
1.005768e+00 1.997244e-03 0.0
1.005316e+00 2.923686e-04 0.0
0.000000e+00 2.567494e-04 0.0
1.000000e+00 -1.086073e-01 0.0
1.021760e+00 -1.084523e-01 0.0
1.046664e+00 -1.214103e-01 0.0
1.078691e+00 -1.482811e-01 0.0
1.123087e+00 -1.906989e-01 0.0
1.187354e+00 -2.508302e-01 0.0
1.277067e+00 -3.171991e-01 0.0
1.427110e+00 -4.416886e-01 0.0
1.515590e+00 -3.393370e-01 0.0
1.559544e+00 -2.243140e-01 0.0
1.583029e+00 -1.409366e-01 0.0
1.595411e+00 -7.987216e-02 0.0
1.599482e+00 -3.300433e-02 0.0
1.597005e+00 2.496304e-03 0.0
1.589223e+00 2.990879e-02 0.0
1.576836e+00 5.220650e-02 0.0
1.560389e+00 7.095680e-02 0.0
1.540341e+00 8.710265e-02 0.0
1.517049e+00 1.012847e-01 0.0
1.490800e+00 1.139278e-01 0.0
1.461862e+00 1.253266e-01 0.0
1.430525e+00 1.356893e-01 0.0
1.397148e+00 1.450368e-01 0.0
1.362103e+00 1.528831e-01 0.0
1.325574e+00 1.576434e-01 0.0
1.287489e+00 1.557513e-01 0.0
1.247591e+00 1.419651e-01 0.0
1.204848e+00 1.118208e-01 0.0
1.156927e+00 6.414436e-02 0.0
1.103902e+00 5.107881e-05 0.0
1.052895e+00 -7.649510e-02 0.0
1.017953e+00 -1.570794e-01 0.0
1.020848e+00 -2.346538e-01 0.0
1.074092e+00 -2.875834e-01 0.0
1.163904e+00 -2.880345e-01 0.0
1.267907e+00 -2.341306e-01 0.0
1.360369e+00 -1.392867e-01 0.0
1.418615e+00 -3.139997e-02 0.0
1.441820e+00 5.687866e-02 0.0
1.440784e+00 1.206156e-01 0.0
1.422240e+00 1.693230e-01 0.0
1.390701e+00 2.081806e-01 0.0
1.349457e+00 2.393697e-01 0.0
1.301141e+00 2.632280e-01 0.0
1.248012e+00 2.788882e-01 0.0
1.192117e+00 2.843476e-01 0.0
1.135827e+00 2.766502e-01 0.0
1.081852e+00 2.544995e-01 0.0
1.032449e+00 2.194491e-01 0.0
9.889094e-01 1.756121e-01 0.0
9.515809e-01 1.281594e-01 0.0
9.204233e-01 8.130686e-02 0.0
8.956768e-01 3.714483e-02 0.0
8.781753e-01 -4.002812e-03 0.0
8.683379e-01 -4.253120e-02 0.0
8.663933e-01 -7.950365e-02 0.0
8.722104e-01 -1.149627e-01 0.0
8.853525e-01 -1.475188e-01 0.0
9.049946e-01 -1.748489e-01 0.0
9.298688e-01 -1.943983e-01 0.0
9.583059e-01 -2.040921e-01 0.0
9.882381e-01 -2.030073e-01 0.0
1.017648e+00 -1.916447e-01 0.0
1.044831e+00 -1.711456e-01 0.0
1.068433e+00 -1.431819e-01 0.0
1.087400e+00 -1.098226e-01 0.0
1.100905e+00 -7.331910e-02 0.0
1.108390e+00 -3.580203e-02 0.0
1.110023e+00 8.257549e-04 0.0
1.107178e+00 3.506410e-02 0.0
1.101894e+00 6.583520e-02 0.0
1.096436e+00 9.159458e-02 0.0
1.092757e+00 1.105926e-01 0.0
1.091885e+00 1.215338e-01 0.0
1.093578e+00 1.242303e-01 0.0
1.096482e+00 1.199790e-01 0.0
1.099143e+00 1.108667e-01 0.0
1.100523e+00 9.901610e-02 0.0
1.100128e+00 8.624600e-02 0.0
1.097862e+00 7.383547e-02 0.0
1.093880e+00 6.254283e-02 0.0
1.088489e+00 5.271571e-02 0.0
1.082056e+00 4.441565e-02 0.0
1.074936e+00 3.753737e-02 0.0
1.067442e+00 3.189850e-02 0.0
1.059834e+00 2.729590e-02 0.0
1.052322e+00 2.353622e-02 0.0
1.045069e+00 2.044971e-02 0.0
1.038197e+00 1.789445e-02 0.0
1.031796e+00 1.575576e-02 0.0
1.025922e+00 1.394364e-02 0.0
1.020608e+00 1.238925e-02 0.0
1.015861e+00 1.104029e-02 0.0
1.011671e+00 9.855700e-03 0.0
1.008011e+00 8.799940e-03 0.0
1.004844e+00 7.836220e-03 0.0
1.002128e+00 6.916766e-03 0.0
9.998294e-01 5.968538e-03 0.0
9.979405e-01 4.865579e-03 0.0
9.964972e-01 3.481288e-03 0.0
9.961820e-01 6.481854e-04 0.0
0.000000e+00 5.789530e-04 0.0
1.000000e+00 -1.231305e-01 0.0
1.014635e+00 -1.229318e-01 0.0
1.031874e+00 -1.386088e-01 0.0
1.055526e+00 -1.718928e-01 0.0
1.091854e+00 -2.269865e-01 0.0
1.151795e+00 -3.107302e-01 0.0
1.250627e+00 -4.159903e-01 0.0
1.442633e+00 -6.336547e-01 0.0
1.501616e+00 -3.982788e-01 0.0
1.512484e+00 -2.351416e-01 0.0
1.515437e+00 -1.438492e-01 0.0
1.518154e+00 -8.254871e-02 0.0
1.519695e+00 -3.450417e-02 0.0
1.517774e+00 4.457247e-03 0.0
1.512022e+00 3.570146e-02 0.0
1.502457e+00 6.181250e-02 0.0
1.489324e+00 8.413037e-02 0.0
1.472905e+00 1.035618e-01 0.0
1.453387e+00 1.208435e-01 0.0
1.430895e+00 1.364606e-01 0.0
1.405546e+00 1.507159e-01 0.0
1.377495e+00 1.637807e-01 0.0
1.346962e+00 1.756109e-01 0.0
1.314151e+00 1.857347e-01 0.0
1.278815e+00 1.930192e-01 0.0
1.239204e+00 1.954028e-01 0.0
1.192419e+00 1.887914e-01 0.0
1.135430e+00 1.688499e-01 0.0
1.063159e+00 1.364567e-01 0.0
9.644459e-01 9.880431e-02 0.0
8.410862e-01 4.690520e-02 0.0
7.361746e-01 -5.212725e-02 0.0
6.940278e-01 -1.924665e-01 0.0
7.248583e-01 -3.183732e-01 0.0
8.137979e-01 -3.769335e-01 0.0
9.327005e-01 -3.529926e-01 0.0
1.056047e+00 -2.625930e-01 0.0
1.161247e+00 -1.365593e-01 0.0
1.229602e+00 -1.143563e-02 0.0
1.265884e+00 8.437431e-02 0.0
1.278832e+00 1.564158e-01 0.0
1.273979e+00 2.130743e-01 0.0
1.255443e+00 2.579460e-01 0.0
1.226623e+00 2.920885e-01 0.0
1.190458e+00 3.150941e-01 0.0
1.149472e+00 3.253741e-01 0.0
1.105966e+00 3.201973e-01 0.0
1.062401e+00 2.981053e-01 0.0
1.020656e+00 2.612343e-01 0.0
9.817226e-01 2.145862e-01 0.0
9.460488e-01 1.638739e-01 0.0
9.141738e-01 1.132225e-01 0.0
8.870267e-01 6.433256e-02 0.0
8.658192e-01 1.724529e-02 0.0
8.514674e-01 -2.813874e-02 0.0
8.438044e-01 -7.179996e-02 0.0
8.423333e-01 -1.134510e-01 0.0
8.465360e-01 -1.516808e-01 0.0
8.558552e-01 -1.841275e-01 0.0
8.695006e-01 -2.080031e-01 0.0
8.863224e-01 -2.208731e-01 0.0
9.047669e-01 -2.214111e-01 0.0
9.232008e-01 -2.100380e-01 0.0
9.403000e-01 -1.882041e-01 0.0
9.551113e-01 -1.579525e-01 0.0
9.669808e-01 -1.216514e-01 0.0
9.755064e-01 -8.180404e-02 0.0
9.806790e-01 -4.093399e-02 0.0
9.831822e-01 -1.636797e-03 0.0
9.845668e-01 3.372015e-02 0.0
9.866023e-01 6.384038e-02 0.0
9.907726e-01 8.746498e-02 0.0
9.978021e-01 1.036038e-01 0.0
1.007364e+00 1.120130e-01 0.0
1.018182e+00 1.134531e-01 0.0
1.028661e+00 1.095404e-01 0.0
1.037556e+00 1.020123e-01 0.0
1.044106e+00 9.250668e-02 0.0
1.048033e+00 8.235962e-02 0.0
1.049412e+00 7.249715e-02 0.0
1.048537e+00 6.345918e-02 0.0
1.045810e+00 5.548307e-02 0.0
1.041665e+00 4.860075e-02 0.0
1.036518e+00 4.272568e-02 0.0
1.030740e+00 3.771721e-02 0.0
1.024654e+00 3.342199e-02 0.0
1.018533e+00 2.969817e-02 0.0
1.012596e+00 2.642736e-02 0.0
1.007014e+00 2.351769e-02 0.0
1.001909e+00 2.090158e-02 0.0
9.973610e-01 1.853187e-02 0.0
9.934131e-01 1.637786e-02 0.0
9.900734e-01 1.442071e-02 0.0
9.873223e-01 1.264746e-02 0.0
9.851175e-01 1.104542e-02 0.0
9.833988e-01 9.595623e-03 0.0
9.820930e-01 8.263289e-03 0.0
9.811206e-01 6.981701e-03 0.0
9.804124e-01 5.614419e-03 0.0
9.799270e-01 4.007441e-03 0.0
9.800476e-01 5.682816e-04 0.0
0.000000e+00 4.700601e-04 0.0
1.000000e+00 -1.288783e-01 0.0
1.005861e+00 -1.286375e-01 0.0
1.012926e+00 -1.456334e-01 0.0
1.023675e+00 -1.826007e-01 0.0
1.043639e+00 -2.469100e-01 0.0
1.085306e+00 -3.523573e-01 0.0
1.176865e+00 -5.075083e-01 0.0
1.399780e+00 -8.565292e-01 0.0
1.377027e+00 -3.754849e-01 0.0
1.323484e+00 -1.815583e-01 0.0
1.293739e+00 -1.140631e-01 0.0
1.283850e+00 -7.261979e-02 0.0
1.286721e+00 -3.733454e-02 0.0
1.292190e+00 -9.707973e-04 0.0
1.295107e+00 3.282442e-02 0.0
1.294732e+00 6.222859e-02 0.0
1.291105e+00 8.779760e-02 0.0
1.284365e+00 1.103429e-01 0.0
1.274371e+00 1.308773e-01 0.0
1.260917e+00 1.499553e-01 0.0
1.243820e+00 1.678539e-01 0.0
1.222928e+00 1.847129e-01 0.0
1.198090e+00 2.004901e-01 0.0
1.168947e+00 2.149182e-01 0.0
1.134172e+00 2.278347e-01 0.0
1.089400e+00 2.402146e-01 0.0
1.022524e+00 2.557080e-01 0.0
9.127122e-01 2.787026e-01 0.0
7.435719e-01 3.056376e-01 0.0
5.636346e-01 2.787822e-01 0.0
4.718637e-01 1.387166e-01 0.0
4.695218e-01 -4.974466e-02 0.0
4.967338e-01 -2.196379e-01 0.0
5.344956e-01 -3.560945e-01 0.0
5.995026e-01 -4.418998e-01 0.0
6.945308e-01 -4.479802e-01 0.0
8.058799e-01 -3.739014e-01 0.0
9.160227e-01 -2.466615e-01 0.0
1.007935e+00 -1.033077e-01 0.0
1.069107e+00 2.324293e-02 0.0
1.105954e+00 1.196102e-01 0.0
1.123603e+00 1.954659e-01 0.0
1.125921e+00 2.556678e-01 0.0
1.116219e+00 3.018310e-01 0.0
1.097517e+00 3.338374e-01 0.0
1.072550e+00 3.503812e-01 0.0
1.043340e+00 3.494486e-01 0.0
1.011692e+00 3.297931e-01 0.0
9.788650e-01 2.941022e-01 0.0
9.457503e-01 2.477415e-01 0.0
9.136047e-01 1.960602e-01 0.0
8.843854e-01 1.424824e-01 0.0
8.601163e-01 8.864235e-02 0.0
8.418980e-01 3.550417e-02 0.0
8.297451e-01 -1.594515e-02 0.0
8.225433e-01 -6.455748e-02 0.0
8.189228e-01 -1.097899e-01 0.0
8.181332e-01 -1.508506e-01 0.0
8.200281e-01 -1.859818e-01 0.0
8.245811e-01 -2.125155e-01 0.0
8.314526e-01 -2.277039e-01 0.0
8.398071e-01 -2.297250e-01 0.0
8.485193e-01 -2.187095e-01 0.0
8.566628e-01 -1.963069e-01 0.0
8.636688e-01 -1.649179e-01 0.0
8.693293e-01 -1.272712e-01 0.0
8.737863e-01 -8.622038e-02 0.0
8.775687e-01 -4.467574e-02 0.0
8.815680e-01 -5.595404e-03 0.0
8.868809e-01 2.844793e-02 0.0
8.944744e-01 5.628756e-02 0.0
9.047922e-01 7.718789e-02 0.0
9.175173e-01 9.091934e-02 0.0
9.316109e-01 9.796003e-02 0.0
9.456219e-01 9.948271e-02 0.0
9.582837e-01 9.691935e-02 0.0
9.687356e-01 9.160103e-02 0.0
9.765348e-01 8.474816e-02 0.0
9.816084e-01 7.732674e-02 0.0
9.841516e-01 6.999465e-02 0.0
9.845237e-01 6.312778e-02 0.0
9.831629e-01 5.688455e-02 0.0
9.805250e-01 5.127935e-02 0.0
9.770433e-01 4.624806e-02 0.0
9.731053e-01 4.169584e-02 0.0
9.690415e-01 3.752656e-02 0.0
9.651203e-01 3.365998e-02 0.0
9.615472e-01 3.004114e-02 0.0
9.584651e-01 2.664054e-02 0.0
9.559608e-01 2.344662e-02 0.0
9.540747e-01 2.045863e-02 0.0
9.528102e-01 1.768302e-02 0.0
9.521395e-01 1.513218e-02 0.0
9.520100e-01 1.281756e-02 0.0
9.523510e-01 1.074515e-02 0.0
9.530758e-01 8.911523e-03 0.0
9.540809e-01 7.298863e-03 0.0
9.552432e-01 5.860156e-03 0.0
9.564171e-01 4.481156e-03 0.0
9.574366e-01 3.028664e-03 0.0
9.581945e-01 -1.489165e-04 0.0
0.000000e+00 -2.672869e-04 0.0
1.000000e+00 -1.249547e-01 0.0
9.961953e-01 -1.246773e-01 0.0
9.912002e-01 -1.405978e-01 0.0
9.843376e-01 -1.756975e-01 0.0
9.761851e-01 -2.387169e-01 0.0
9.718474e-01 -3.479790e-01 0.0
9.976834e-01 -5.333038e-01 0.0
1.156045e+00 -1.014850e+00 0.0
9.849284e-01 -2.044427e-01 0.0
8.277488e-01 -2.445307e-02 0.0
7.588045e-01 -4.507819e-02 0.0
7.336773e-01 -4.745202e-02 0.0
7.417402e-01 -4.535689e-02 0.0
7.746369e-01 -3.382689e-02 0.0
8.105533e-01 -3.051445e-03 0.0
8.371204e-01 3.570201e-02 0.0
8.570204e-01 6.793826e-02 0.0
8.714908e-01 9.591306e-02 0.0
8.797980e-01 1.226106e-01 0.0
8.807529e-01 1.490410e-01 0.0
8.727902e-01 1.758572e-01 0.0
8.536283e-01 2.039155e-01 0.0
8.199161e-01 2.342428e-01 0.0
7.671142e-01 2.677607e-01 0.0
6.899859e-01 3.050036e-01 0.0
5.845529e-01 3.456882e-01 0.0
4.533508e-01 3.869507e-01 0.0
3.170907e-01 4.150033e-01 0.0
2.436871e-01 3.790818e-01 0.0
2.662100e-01 2.562998e-01 0.0
3.444763e-01 6.049089e-02 0.0
4.226302e-01 -1.278580e-01 0.0
4.805787e-01 -2.775458e-01 0.0
5.155211e-01 -3.909963e-01 0.0
5.437199e-01 -4.700580e-01 0.0
5.923721e-01 -4.965917e-01 0.0
6.650729e-01 -4.465616e-01 0.0
7.511625e-01 -3.327106e-01 0.0
8.359317e-01 -1.880363e-01 0.0
9.045119e-01 -4.529661e-02 0.0
9.517146e-01 7.244816e-02 0.0
9.811291e-01 1.660920e-01 0.0
9.958794e-01 2.409580e-01 0.0
9.988198e-01 2.989313e-01 0.0
9.926784e-01 3.400194e-01 0.0
9.799500e-01 3.631503e-01 0.0
9.621084e-01 3.673308e-01 0.0
9.398518e-01 3.520904e-01 0.0
9.137835e-01 3.202111e-01 0.0
8.854436e-01 2.761221e-01 0.0
8.579960e-01 2.235484e-01 0.0
8.352722e-01 1.652469e-01 0.0
8.197415e-01 1.042137e-01 0.0
8.113312e-01 4.395516e-02 0.0
8.079450e-01 -1.251838e-02 0.0
8.067646e-01 -6.333641e-02 0.0
8.054126e-01 -1.083972e-01 0.0
8.029079e-01 -1.483052e-01 0.0
7.996052e-01 -1.826385e-01 0.0
7.965014e-01 -2.093710e-01 0.0
7.944317e-01 -2.255936e-01 0.0
7.935822e-01 -2.288348e-01 0.0
7.935358e-01 -2.186225e-01 0.0
7.938384e-01 -1.965688e-01 0.0
7.942773e-01 -1.653161e-01 0.0
7.949750e-01 -1.279283e-01 0.0
7.963931e-01 -8.759782e-02 0.0
7.992289e-01 -4.747082e-02 0.0
8.041264e-01 -1.045222e-02 0.0
8.114607e-01 2.115422e-02 0.0
8.213715e-01 4.641747e-02 0.0
8.335176e-01 6.508250e-02 0.0
8.470617e-01 7.741595e-02 0.0
8.608564e-01 8.420602e-02 0.0
8.737533e-01 8.662647e-02 0.0
8.848714e-01 8.584192e-02 0.0
8.937238e-01 8.278932e-02 0.0
9.001606e-01 7.835206e-02 0.0
9.043096e-01 7.321834e-02 0.0
9.064919e-01 6.785312e-02 0.0
9.071336e-01 6.252678e-02 0.0
9.066925e-01 5.736631e-02 0.0
9.056040e-01 5.240851e-02 0.0
9.042455e-01 4.764727e-02 0.0
9.029175e-01 4.306458e-02 0.0
9.018435e-01 3.864119e-02 0.0
9.011827e-01 3.436152e-02 0.0
9.010386e-01 3.022592e-02 0.0
9.014637e-01 2.625608e-02 0.0
9.024688e-01 2.248230e-02 0.0
9.040371e-01 1.893100e-02 0.0
9.061377e-01 1.562310e-02 0.0
9.087221e-01 1.258850e-02 0.0
9.117272e-01 9.853133e-03 0.0
9.150801e-01 7.432954e-03 0.0
9.187000e-01 5.332374e-03 0.0
9.224836e-01 3.555906e-03 0.0
9.262851e-01 2.099370e-03 0.0
9.298830e-01 9.239687e-04 0.0
9.329929e-01 -4.058259e-05 0.0
9.345381e-01 -1.653332e-03 0.0
0.000000e+00 -1.785299e-03 0.0
1.000000e+00 -1.118826e-01 0.0
9.870564e-01 -1.115782e-01 0.0
9.701498e-01 -1.236507e-01 0.0
9.442771e-01 -1.497842e-01 0.0
9.008351e-01 -1.952343e-01 0.0
8.230234e-01 -2.701268e-01 0.0
6.859592e-01 -3.961991e-01 0.0
2.042128e-01 -5.331782e-01 0.0
-9.869173e-01 5.339260e-01 0.0
0.000000e+00 -7.619865e-02 0.0
-1.448060e-01 7.543027e-02 0.0
-1.209873e-01 -7.123021e-02 0.0
-3.313950e-02 -1.331641e-01 0.0
9.240771e-02 -1.593335e-01 0.0
1.984148e-01 -1.090179e-01 0.0
2.830323e-01 -4.887497e-02 0.0
3.420109e-01 9.000229e-03 0.0
3.826164e-01 5.534818e-02 0.0
4.070717e-01 9.819587e-02 0.0
4.159162e-01 1.402371e-01 0.0
4.091548e-01 1.826591e-01 0.0
3.861842e-01 2.269266e-01 0.0
3.457082e-01 2.747594e-01 0.0
2.864696e-01 3.270398e-01 0.0
2.100631e-01 3.814508e-01 0.0
1.255362e-01 4.302557e-01 0.0
5.414940e-02 4.583781e-01 0.0
4.248141e-02 4.267119e-01 0.0
1.016853e-01 3.199185e-01 0.0
2.202030e-01 1.378227e-01 0.0
3.530757e-01 -7.234125e-02 0.0
4.640724e-01 -2.388141e-01 0.0
5.409498e-01 -3.543826e-01 0.0
5.772059e-01 -4.272118e-01 0.0
5.813042e-01 -4.741157e-01 0.0
5.836909e-01 -4.989379e-01 0.0
6.117795e-01 -4.746096e-01 0.0
6.629702e-01 -3.838607e-01 0.0
7.253266e-01 -2.503522e-01 0.0
7.854369e-01 -1.053662e-01 0.0
8.318031e-01 2.612255e-02 0.0
8.637802e-01 1.341556e-01 0.0
8.831100e-01 2.216688e-01 0.0
8.919223e-01 2.901597e-01 0.0
8.923499e-01 3.396325e-01 0.0
8.861113e-01 3.694296e-01 0.0
8.739736e-01 3.795091e-01 0.0
8.558214e-01 3.702831e-01 0.0
8.330546e-01 3.430186e-01 0.0
8.094707e-01 2.997466e-01 0.0
7.902654e-01 2.427944e-01 0.0
7.793426e-01 1.762103e-01 0.0
7.775276e-01 1.060693e-01 0.0
7.828851e-01 3.863835e-02 0.0
7.917695e-01 -2.136216e-02 0.0
8.000629e-01 -7.158914e-02 0.0
8.044521e-01 -1.127458e-01 0.0
8.034035e-01 -1.472159e-01 0.0
7.972347e-01 -1.764290e-01 0.0
7.877345e-01 -1.998301e-01 0.0
7.771598e-01 -2.149782e-01 0.0
7.671543e-01 -2.187886e-01 0.0
7.583730e-01 -2.098005e-01 0.0
7.510175e-01 -1.891727e-01 0.0
7.452688e-01 -1.595267e-01 0.0
7.414145e-01 -1.240334e-01 0.0
7.398652e-01 -8.600784e-02 0.0
7.410031e-01 -4.856809e-02 0.0
7.449423e-01 -1.435068e-02 0.0
7.513849e-01 1.475226e-02 0.0
7.599068e-01 3.793624e-02 0.0
7.698081e-01 5.522187e-02 0.0
7.801868e-01 6.707793e-02 0.0
7.901463e-01 7.428721e-02 0.0
7.990151e-01 7.779842e-02 0.0
8.063737e-01 7.852401e-02 0.0
8.121145e-01 7.708921e-02 0.0
8.163864e-01 7.412083e-02 0.0
8.195009e-01 7.014452e-02 0.0
8.218403e-01 6.555439e-02 0.0
8.237815e-01 6.062631e-02 0.0
8.256464e-01 5.554209e-02 0.0
8.276864e-01 5.040913e-02 0.0
8.300807e-01 4.529367e-02 0.0
8.329344e-01 4.025161e-02 0.0
8.362957e-01 3.532059e-02 0.0
8.401931e-01 3.050477e-02 0.0
8.446512e-01 2.580858e-02 0.0
8.496716e-01 2.127636e-02 0.0
8.552257e-01 1.696885e-02 0.0
8.612682e-01 1.292918e-02 0.0
8.677686e-01 9.163453e-03 0.0
8.746742e-01 5.723579e-03 0.0
8.818995e-01 2.668497e-03 0.0
8.893186e-01 5.458250e-05 0.0
8.967596e-01 -2.067892e-03 0.0
9.040267e-01 -3.670494e-03 0.0
9.109022e-01 -4.735491e-03 0.0
9.170970e-01 -5.230111e-03 0.0
9.222716e-01 -5.174517e-03 0.0
9.244734e-01 -3.814375e-03 0.0
0.000000e+00 -3.927984e-03 0.0
1.000000e+00 -9.188835e-02 0.0
9.801466e-01 -9.156930e-02 0.0
9.545143e-01 -9.797786e-02 0.0
9.154018e-01 -1.106312e-01 0.0
8.487221e-01 -1.285140e-01 0.0
7.253225e-01 -1.466867e-01 0.0
4.694562e-01 -1.402922e-01 0.0
-8.626054e-03 -5.517026e-02 0.0
1.180048e-04 0.000000e+00 0.0
0.000000e+00 -0.000000e+00 0.0
0.000000e+00 -1.240858e-01 0.0
-1.952981e-01 1.241085e-01 0.0
-1.895870e-01 -1.388346e-01 0.0
-1.362928e-01 -2.125872e-01 0.0
-9.277097e-02 -1.524992e-01 0.0
-4.439924e-02 -9.720613e-02 0.0
1.649733e-03 -3.700817e-02 0.0
3.366055e-02 2.337794e-02 0.0
5.225161e-02 7.964538e-02 0.0
5.930185e-02 1.332274e-01 0.0
5.639237e-02 1.856092e-01 0.0
4.417957e-02 2.391800e-01 0.0
2.288345e-02 2.960961e-01 0.0