# vtk DataFile Version 3.0
Vector Field
ASCII
DATASET RECTILINEAR_GRID
DIMENSIONS 102 22 1
X_COORDINATES 102 double
0.000000 0.100000 0.200000 0.300000 0.400000 0.500000 0.600000 0.700000 0.800000 0.900000 1.000000 1.100000 1.200000 1.300000 1.400000 1.500000 1.600000 1.700000 1.800000 1.900000 2.000000 2.100000 2.200000 2.300000 2.400000 2.500000 2.600000 2.700000 2.800000 2.900000 3.000000 3.100000 3.200000 3.300000 3.400000 3.500000 3.600000 3.700000 3.800000 3.900000 4.000000 4.100000 4.200000 4.300000 4.400000 4.500000 4.600000 4.700000 4.800000 4.900000 5.000000 5.100000 5.200000 5.300000 5.400000 5.500000 5.600000 5.700000 5.800000 5.900000 6.000000 6.100000 6.200000 6.300000 6.400000 6.500000 6.600000 6.700000 6.800000 6.900000 7.000000 7.100000 7.200000 7.300000 7.400000 7.500000 7.600000 7.700000 7.800000 7.900000 8.000000 8.100000 8.200000 8.300000 8.400000 8.500000 8.600000 8.700000 8.800000 8.900000 9.000000 9.100000 9.200000 9.300000 9.400000 9.500000 9.600000 9.700000 9.800000 9.900000 10.000000 10.100000 
Y_COORDINATES 22 double
0.000000 0.100000 0.200000 0.300000 0.400000 0.500000 0.600000 0.700000 0.800000 0.900000 1.000000 1.100000 1.200000 1.300000 1.400000 1.500000 1.600000 1.700000 1.800000 1.900000 2.000000 2.100000 
Z_COORDINATES 1 double
0.0
POINT_DATA 2244
VECTORS Velocity double
0.000000e+00 0.000000e+00 0.0
-1.030213e+00 0.000000e+00 0.0
-1.063624e+00 0.000000e+00 0.0
-1.103538e+00 0.000000e+00 0.0
-1.153073e+00 0.000000e+00 0.0
-1.214901e+00 0.000000e+00 0.0
-1.288955e+00 0.000000e+00 0.0
-1.376586e+00 0.000000e+00 0.0
-1.460449e+00 0.000000e+00 0.0
-1.528594e+00 0.000000e+00 0.0
-1.577852e+00 0.000000e+00 0.0
-1.609238e+00 0.000000e+00 0.0
-1.624978e+00 0.000000e+00 0.0
-1.627623e+00 0.000000e+00 0.0
-1.619456e+00 0.000000e+00 0.0
-1.602078e+00 0.000000e+00 0.0
-1.576626e+00 0.000000e+00 0.0
-1.543997e+00 0.000000e+00 0.0
-1.505033e+00 0.000000e+00 0.0
-1.460625e+00 0.000000e+00 0.0
-1.411737e+00 0.000000e+00 0.0
-1.359345e+00 0.000000e+00 0.0
-1.304424e+00 0.000000e+00 0.0
-1.248184e+00 0.000000e+00 0.0
-1.192411e+00 0.000000e+00 0.0
-1.139560e+00 0.000000e+00 0.0
-1.092368e+00 0.000000e+00 0.0
-1.053049e+00 0.000000e+00 0.0
-1.022575e+00 0.000000e+00 0.0
-1.000492e+00 0.000000e+00 0.0
-9.853289e-01 0.000000e+00 0.0
-9.752523e-01 0.000000e+00 0.0
-9.685856e-01 0.000000e+00 0.0
-9.640571e-01 0.000000e+00 0.0
-9.608208e-01 0.000000e+00 0.0
-9.583659e-01 0.000000e+00 0.0
-9.564068e-01 0.000000e+00 0.0
-9.547929e-01 0.000000e+00 0.0
-9.534487e-01 0.000000e+00 0.0
-9.523364e-01 0.000000e+00 0.0
-9.514367e-01 0.000000e+00 0.0
-9.507374e-01 0.000000e+00 0.0
-9.502286e-01 0.000000e+00 0.0
-9.499004e-01 0.000000e+00 0.0
-9.497417e-01 0.000000e+00 0.0
-9.497398e-01 0.000000e+00 0.0
-9.498776e-01 0.000000e+00 0.0
-9.501357e-01 0.000000e+00 0.0
-9.504949e-01 0.000000e+00 0.0
-9.509371e-01 0.000000e+00 0.0
-9.514452e-01 0.000000e+00 0.0
-9.520037e-01 0.000000e+00 0.0
-9.525986e-01 0.000000e+00 0.0
-9.532172e-01 0.000000e+00 0.0
-9.538485e-01 0.000000e+00 0.0
-9.544828e-01 0.000000e+00 0.0
-9.551119e-01 0.000000e+00 0.0
-9.557289e-01 0.000000e+00 0.0
-9.563281e-01 0.000000e+00 0.0
-9.569055e-01 0.000000e+00 0.0
-9.574576e-01 0.000000e+00 0.0
-9.579824e-01 0.000000e+00 0.0
-9.584784e-01 0.000000e+00 0.0
-9.589449e-01 0.000000e+00 0.0
-9.593816e-01 0.000000e+00 0.0
-9.597889e-01 0.000000e+00 0.0
-9.601674e-01 0.000000e+00 0.0
-9.605181e-01 0.000000e+00 0.0
-9.608421e-01 0.000000e+00 0.0
-9.611407e-01 0.000000e+00 0.0
-9.614153e-01 0.000000e+00 0.0
-9.616675e-01 0.000000e+00 0.0
-9.618987e-01 0.000000e+00 0.0
-9.621104e-01 0.000000e+00 0.0
-9.623042e-01 0.000000e+00 0.0
-9.624815e-01 0.000000e+00 0.0
-9.626437e-01 0.000000e+00 0.0
-9.627920e-01 0.000000e+00 0.0
-9.629275e-01 0.000000e+00 0.0
-9.630513e-01 0.000000e+00 0.0
-9.631645e-01 0.000000e+00 0.0
-9.632679e-01 0.000000e+00 0.0
-9.633624e-01 0.000000e+00 0.0
-9.634488e-01 0.000000e+00 0.0
-9.635280e-01 0.000000e+00 0.0
-9.636006e-01 0.000000e+00 0.0
-9.636673e-01 0.000000e+00 0.0
-9.637287e-01 0.000000e+00 0.0
-9.637856e-01 0.000000e+00 0.0
-9.638384e-01 0.000000e+00 0.0
-9.638879e-01 0.000000e+00 0.0
-9.639349e-01 0.000000e+00 0.0
-9.639803e-01 0.000000e+00 0.0
-9.640255e-01 0.000000e+00 0.0
-9.640724e-01 0.000000e+00 0.0
-9.641244e-01 0.000000e+00 0.0
-9.641877e-01 0.000000e+00 0.0
-9.642760e-01 0.000000e+00 0.0
-9.644210e-01 0.000000e+00 0.0
-9.647568e-01 0.000000e+00 0.0
-9.647568e-01 0.000000e+00 0.0
0.000000e+00 0.000000e+00 0.0
1.000000e+00 -3.013394e-02 0.0
1.029943e+00 -2.988517e-02 0.0
1.063086e+00 -3.310982e-02 0.0
1.102723e+00 -3.960393e-02 0.0
1.151974e+00 -4.921859e-02 0.0
1.213528e+00 -6.152029e-02 0.0
1.287354e+00 -7.379291e-02 0.0
1.374848e+00 -8.746128e-02 0.0
1.458825e+00 -8.394330e-02 0.0
1.527428e+00 -6.857006e-02 0.0
1.577481e+00 -5.002018e-02 0.0
1.609913e+00 -3.239866e-02 0.0
1.626793e+00 -1.684687e-02 0.0
1.630520e+00 -3.694384e-03 0.0
1.623351e+00 7.202312e-03 0.0
1.606912e+00 1.647245e-02 0.0
1.582365e+00 2.457953e-02 0.0
1.550618e+00 3.178001e-02 0.0
1.512492e+00 3.815932e-02 0.0
1.468842e+00 4.368304e-02 0.0
1.420602e+00 4.827290e-02 0.0
1.368744e+00 5.189149e-02 0.0
1.314241e+00 5.453653e-02 0.0
1.258237e+00 5.603644e-02 0.0
1.202387e+00 5.588369e-02 0.0
1.148990e+00 5.342990e-02 0.0
1.100725e+00 4.829804e-02 0.0
1.059920e+00 4.083747e-02 0.0
1.027799e+00 3.215426e-02 0.0
1.004179e+00 2.365371e-02 0.0
9.877682e-01 1.644344e-02 0.0
9.767873e-01 1.101398e-02 0.0
9.695206e-01 7.299768e-03 0.0
9.646182e-01 4.935553e-03 0.0
9.611558e-01 3.495473e-03 0.0
9.585627e-01 2.626109e-03 0.0
9.565133e-01 2.082444e-03 0.0
9.548333e-01 1.713127e-03 0.0
9.534336e-01 1.432720e-03 0.0
9.522702e-01 1.196503e-03 0.0
9.513205e-01 9.827595e-04 0.0
9.505715e-01 7.820663e-04 0.0
9.500134e-01 5.911941e-04 0.0
9.496366e-01 4.097752e-04 0.0
9.494310e-01 2.386716e-04 0.0
9.493846e-01 7.945425e-05 0.0
9.494819e-01 -6.425841e-05 0.0
9.497040e-01 -1.890289e-04 0.0
9.500318e-01 -2.947201e-04 0.0
9.504469e-01 -3.821373e-04 0.0
9.509324e-01 -4.524277e-04 0.0
9.514724e-01 -5.069166e-04 0.0
9.520525e-01 -5.470390e-04 0.0
9.526598e-01 -5.742907e-04 0.0
9.532830e-01 -5.901732e-04 0.0
9.539121e-01 -5.961084e-04 0.0
9.545385e-01 -5.933537e-04 0.0
9.551549e-01 -5.833179e-04 0.0
9.557553e-01 -5.673976e-04 0.0
9.563352e-01 -5.468549e-04 0.0
9.568910e-01 -5.228098e-04 0.0
9.574203e-01 -4.962432e-04 0.0
9.579213e-01 -4.680015e-04 0.0
9.583931e-01 -4.388042e-04 0.0
9.588354e-01 -4.092522e-04 0.0
9.592483e-01 -3.798379e-04 0.0
9.596322e-01 -3.509564e-04 0.0
9.599882e-01 -3.229164e-04 0.0
9.603171e-01 -2.959515e-04 0.0
9.606204e-01 -2.702314e-04 0.0
9.608992e-01 -2.458750e-04 0.0
9.611552e-01 -2.229635e-04 0.0
9.613898e-01 -2.015487e-04 0.0
9.616044e-01 -1.816527e-04 0.0
9.618007e-01 -1.632619e-04 0.0
9.619800e-01 -1.463234e-04 0.0
9.621438e-01 -1.307531e-04 0.0
9.622932e-01 -1.164526e-04 0.0
9.624296e-01 -1.033267e-04 0.0
9.625538e-01 -9.129107e-05 0.0
9.626671e-01 -8.027273e-05 0.0
9.627703e-01 -7.020604e-05 0.0
9.628643e-01 -6.103092e-05 0.0
9.629500e-01 -5.269528e-05 0.0
9.630282e-01 -4.514286e-05 0.0
9.630995e-01 -3.832492e-05 0.0
9.631647e-01 -3.220057e-05 0.0
9.632244e-01 -2.673772e-05 0.0
9.632793e-01 -2.191811e-05 0.0
9.633301e-01 -1.775188e-05 0.0
9.633773e-01 -1.426857e-05 0.0
9.634219e-01 -1.156381e-05 0.0
9.634647e-01 -9.831040e-06 0.0
9.635071e-01 -9.448642e-06 0.0
9.635512e-01 -1.105676e-05 0.0
9.636001e-01 -1.597829e-05 0.0
9.636602e-01 -2.710951e-05 0.0
9.637451e-01 -5.185008e-05 0.0
9.638863e-01 -1.082360e-04 0.0
9.642167e-01 -2.974783e-04 0.0
9.647568e-01 -5.070289e-04 0.0
0.000000e+00 -5.018131e-04 0.0
1.000000e+00 -6.065856e-02 0.0
1.030295e+00 -6.014710e-02 0.0
1.063832e+00 -6.663841e-02 0.0
1.104033e+00 -7.979616e-02 0.0
1.154335e+00 -9.951231e-02 0.0
1.218124e+00 -1.253002e-01 0.0
1.295469e+00 -1.511296e-01 0.0
1.393297e+00 -1.852807e-01 0.0
1.482939e+00 -1.735759e-01 0.0
1.552554e+00 -1.381765e-01 0.0
1.602126e+00 -9.958390e-02 0.0
1.634341e+00 -6.460531e-02 0.0
1.651631e+00 -3.412825e-02 0.0
1.656297e+00 -8.351568e-03 0.0
1.650507e+00 1.300141e-02 0.0
1.635765e+00 3.122276e-02 0.0
1.613162e+00 4.719112e-02 0.0
1.583564e+00 6.138699e-02 0.0
1.547749e+00 7.398329e-02 0.0
1.506504e+00 8.493640e-02 0.0
1.460670e+00 9.411485e-02 0.0
1.411135e+00 1.014359e-01 0.0
1.358831e+00 1.068491e-01 0.0
1.304837e+00 1.100393e-01 0.0
1.250685e+00 1.100438e-01 0.0
1.198642e+00 1.054816e-01 0.0
1.151348e+00 9.560014e-02 0.0
1.111086e+00 8.110883e-02 0.0
1.079056e+00 6.419272e-02 0.0
1.055111e+00 4.760732e-02 0.0
1.038042e+00 3.352071e-02 0.0
1.026173e+00 2.289226e-02 0.0
1.017891e+00 1.559018e-02 0.0
1.011939e+00 1.089571e-02 0.0
1.007470e+00 7.973497e-03 0.0
1.003967e+00 6.138020e-03 0.0
1.001134e+00 4.923266e-03 0.0
9.988107e-01 4.045484e-03 0.0
9.969048e-01 3.347240e-03 0.0
9.953622e-01 2.747790e-03 0.0
9.941450e-01 2.208523e-03 0.0
9.932230e-01 1.712752e-03 0.0
9.925682e-01 1.254564e-03 0.0
9.921538e-01 8.327874e-04 0.0
9.919526e-01 4.485045e-04 0.0
9.919370e-01 1.036684e-04 0.0
9.920812e-01 -1.997865e-04 0.0
9.923623e-01 -4.615327e-04 0.0
9.927589e-01 -6.826811e-04 0.0
9.932504e-01 -8.650742e-04 0.0
9.938176e-01 -1.011009e-03 0.0
9.944425e-01 -1.123141e-03 0.0
9.951085e-01 -1.204415e-03 0.0
9.958008e-01 -1.257989e-03 0.0
9.965064e-01 -1.287158e-03 0.0
9.972142e-01 -1.295309e-03 0.0
9.979153e-01 -1.285859e-03 0.0
9.986025e-01 -1.261828e-03 0.0
9.992696e-01 -1.225943e-03 0.0
9.999121e-01 -1.180716e-03 0.0
1.000526e+00 -1.128420e-03 0.0
1.001110e+00 -1.071067e-03 0.0
1.001661e+00 -1.010410e-03 0.0
1.002179e+00 -9.479404e-04 0.0
1.002663e+00 -8.849058e-04 0.0
1.003114e+00 -8.223260e-04 0.0
1.003533e+00 -7.610158e-04 0.0
1.003920e+00 -7.016084e-04 0.0
1.004277e+00 -6.445795e-04 0.0
1.004606e+00 -5.902721e-04 0.0
1.004907e+00 -5.389203e-04 0.0
1.005184e+00 -4.906695e-04 0.0
1.005436e+00 -4.455880e-04 0.0
1.005667e+00 -4.036735e-04 0.0
1.005877e+00 -3.648614e-04 0.0
1.006069e+00 -3.290401e-04 0.0
1.006242e+00 -2.960691e-04 0.0
1.006400e+00 -2.657959e-04 0.0
1.006544e+00 -2.380643e-04 0.0
1.006674e+00 -2.127183e-04 0.0
1.006792e+00 -1.896030e-04 0.0
1.006899e+00 -1.685667e-04 0.0
1.006996e+00 -1.494636e-04 0.0
1.007084e+00 -1.321562e-04 0.0
1.007164e+00 -1.165144e-04 0.0
1.007236e+00 -1.024226e-04 0.0
1.007303e+00 -8.978152e-05 0.0
1.007363e+00 -7.851397e-05 0.0
1.007418e+00 -6.857284e-05 0.0
1.007469e+00 -5.995532e-05 0.0
1.007516e+00 -5.271940e-05 0.0
1.007560e+00 -4.702502e-05 0.0
1.007602e+00 -4.318216e-05 0.0
1.007643e+00 -4.174936e-05 0.0
1.007684e+00 -4.382941e-05 0.0
1.007729e+00 -5.143241e-05 0.0
1.007778e+00 -6.841015e-05 0.0
1.007838e+00 -1.026173e-04 0.0
1.007907e+00 -1.691086e-04 0.0
1.007922e+00 -3.040319e-04 0.0
1.007896e+00 -4.717088e-04 0.0
0.000000e+00 -4.662393e-04 0.0
1.000000e+00 -8.772145e-02 0.0
1.026841e+00 -8.695459e-02 0.0
1.057022e+00 -9.681100e-02 0.0
1.094255e+00 -1.170205e-01 0.0
1.142759e+00 -1.480075e-01 0.0
1.207543e+00 -1.900759e-01 0.0
1.289935e+00 -2.335129e-01 0.0
1.408711e+00 -3.040480e-01 0.0
1.504274e+00 -2.691309e-01 0.0
1.569917e+00 -2.038103e-01 0.0
1.613853e+00 -1.435112e-01 0.0
1.642002e+00 -9.274591e-02 0.0
1.656933e+00 -4.905020e-02 0.0
1.660302e+00 -1.171255e-02 0.0
1.654004e+00 1.930799e-02 0.0
1.639264e+00 4.597206e-02 0.0
1.617027e+00 6.943676e-02 0.0
1.588084e+00 9.033796e-02 0.0
1.553127e+00 1.089489e-01 0.0
1.512814e+00 1.252588e-01 0.0
1.467839e+00 1.390985e-01 0.0
1.418982e+00 1.503015e-01 0.0
1.367132e+00 1.587077e-01 0.0
1.313371e+00 1.638082e-01 0.0
1.259270e+00 1.641536e-01 0.0
1.207146e+00 1.576149e-01 0.0
1.159614e+00 1.431403e-01 0.0
1.118832e+00 1.218997e-01 0.0
1.085867e+00 9.716616e-02 0.0
1.060545e+00 7.293753e-02 0.0
1.041783e+00 5.229141e-02 0.0
1.028124e+00 3.656032e-02 0.0
1.018175e+00 2.554728e-02 0.0
1.010830e+00 1.824977e-02 0.0
1.005297e+00 1.351476e-02 0.0
1.001052e+00 1.039200e-02 0.0
9.977587e-01 8.225264e-03 0.0
9.952034e-01 6.609398e-03 0.0
9.932445e-01 5.314800e-03 0.0
9.917814e-01 4.219504e-03 0.0
9.907380e-01 3.260465e-03 0.0
9.900533e-01 2.406128e-03 0.0
9.896747e-01 1.641738e-03 0.0
9.895564e-01 9.597521e-04 0.0
9.896565e-01 3.569806e-04 0.0
9.899386e-01 -1.697471e-04 0.0
9.903715e-01 -6.241058e-04 0.0
9.909277e-01 -1.009127e-03 0.0
9.915820e-01 -1.328298e-03 0.0
9.923112e-01 -1.585664e-03 0.0
9.930946e-01 -1.785771e-03 0.0
9.939136e-01 -1.933596e-03 0.0
9.947523e-01 -2.034432e-03 0.0
9.955966e-01 -2.093752e-03 0.0
9.964352e-01 -2.117069e-03 0.0
9.972583e-01 -2.109794e-03 0.0
9.980581e-01 -2.077084e-03 0.0
9.988286e-01 -2.023683e-03 0.0
9.995652e-01 -1.953915e-03 0.0
1.000265e+00 -1.871667e-03 0.0
1.000925e+00 -1.780374e-03 0.0
1.001546e+00 -1.683013e-03 0.0
1.002126e+00 -1.582125e-03 0.0
1.002667e+00 -1.479840e-03 0.0
1.003168e+00 -1.377903e-03 0.0
1.003632e+00 -1.277716e-03 0.0
1.004060e+00 -1.180376e-03 0.0
1.004454e+00 -1.086712e-03 0.0
1.004815e+00 -9.973278e-04 0.0
1.005146e+00 -9.126381e-04 0.0
1.005449e+00 -8.329006e-04 0.0
1.005725e+00 -7.582442e-04 0.0
1.005977e+00 -6.886889e-04 0.0
1.006206e+00 -6.241625e-04 0.0
1.006414e+00 -5.645200e-04 0.0
1.006603e+00 -5.095657e-04 0.0
1.006775e+00 -4.590729e-04 0.0
1.006931e+00 -4.127991e-04 0.0
1.007072e+00 -3.704936e-04 0.0
1.007199e+00 -3.319030e-04 0.0
1.007315e+00 -2.967754e-04 0.0
1.007420e+00 -2.648643e-04 0.0
1.007515e+00 -2.359327e-04 0.0
1.007601e+00 -2.097567e-04 0.0
1.007680e+00 -1.861281e-04 0.0
1.007751e+00 -1.648594e-04 0.0
1.007815e+00 -1.457887e-04 0.0
1.007874e+00 -1.287862e-04 0.0
1.007928e+00 -1.137651e-04 0.0
1.007977e+00 -1.006981e-04 0.0
1.008023e+00 -8.964246e-05 0.0
1.008065e+00 -8.078339e-05 0.0
1.008105e+00 -7.450016e-05 0.0
1.008143e+00 -7.149139e-05 0.0
1.008181e+00 -7.301159e-05 0.0
1.008220e+00 -8.122128e-05 0.0
1.008260e+00 -9.983215e-05 0.0
1.008301e+00 -1.351124e-04 0.0
1.008337e+00 -1.966241e-04 0.0
1.008336e+00 -2.949329e-04 0.0
1.008296e+00 -4.224733e-04 0.0
0.000000e+00 -4.168575e-04 0.0
1.000000e+00 -1.094783e-01 0.0
1.021547e+00 -1.084686e-01 0.0
1.046364e+00 -1.216188e-01 0.0
1.078407e+00 -1.490557e-01 0.0
1.123040e+00 -1.926313e-01 0.0
1.187915e+00 -2.549424e-01 0.0
1.278774e+00 -3.243631e-01 0.0
1.430832e+00 -4.560977e-01 0.0
1.522133e+00 -3.604231e-01 0.0
1.571346e+00 -2.530150e-01 0.0
1.602338e+00 -1.744947e-01 0.0
1.623239e+00 -1.136378e-01 0.0
1.635505e+00 -6.130726e-02 0.0
1.638541e+00 -1.473997e-02 0.0
1.632940e+00 2.491771e-02 0.0
1.619361e+00 5.955892e-02 0.0
1.598563e+00 9.024396e-02 0.0
1.571290e+00 1.176199e-01 0.0
1.538156e+00 1.420906e-01 0.0
1.499672e+00 1.637522e-01 0.0
1.456349e+00 1.824301e-01 0.0
1.408833e+00 1.978261e-01 0.0
1.357971e+00 2.095782e-01 0.0
1.304821e+00 2.169663e-01 0.0
1.250856e+00 2.181271e-01 0.0
1.198467e+00 2.100129e-01 0.0
1.150401e+00 1.912149e-01 0.0
1.108912e+00 1.633969e-01 0.0
1.075146e+00 1.309414e-01 0.0
1.049019e+00 9.907260e-02 0.0
1.029555e+00 7.176403e-02 0.0
1.015388e+00 5.073673e-02 0.0
1.005180e+00 3.576373e-02 0.0
9.978418e-01 2.559635e-02 0.0
9.925723e-01 1.879288e-02 0.0
9.888132e-01 1.415972e-02 0.0
9.861805e-01 1.086661e-02 0.0
9.844087e-01 8.389801e-03 0.0
9.833102e-01 6.421920e-03 0.0
9.827448e-01 4.793587e-03 0.0
9.826042e-01 3.409640e-03 0.0
9.828037e-01 2.215246e-03 0.0
9.832716e-01 1.182459e-03 0.0
9.839484e-01 2.916039e-04 0.0
9.847883e-01 -4.742381e-04 0.0
9.857539e-01 -1.126815e-03 0.0
9.868125e-01 -1.674089e-03 0.0
9.879350e-01 -2.123011e-03 0.0
9.890961e-01 -2.480694e-03 0.0
9.902737e-01 -2.754667e-03 0.0
9.914494e-01 -2.952850e-03 0.0
9.926079e-01 -3.083445e-03 0.0
9.937368e-01 -3.154751e-03 0.0
9.948266e-01 -3.174967e-03 0.0
9.958702e-01 -3.152022e-03 0.0
9.968624e-01 -3.093386e-03 0.0
9.977999e-01 -3.005987e-03 0.0
9.986810e-01 -2.896099e-03 0.0
9.995050e-01 -2.769308e-03 0.0
1.000272e+00 -2.630506e-03 0.0
1.000985e+00 -2.483896e-03 0.0
1.001643e+00 -2.333042e-03 0.0
1.002251e+00 -2.180909e-03 0.0
1.002809e+00 -2.029918e-03 0.0
1.003322e+00 -1.881995e-03 0.0
1.003792e+00 -1.738638e-03 0.0
1.004221e+00 -1.600970e-03 0.0
1.004612e+00 -1.469796e-03 0.0
1.004969e+00 -1.345656e-03 0.0
1.005294e+00 -1.228870e-03 0.0
1.005589e+00 -1.119580e-03 0.0
1.005858e+00 -1.017782e-03 0.0
1.006101e+00 -9.233543e-04 0.0
1.006321e+00 -8.360817e-04 0.0
1.006521e+00 -7.556793e-04 0.0
1.006702e+00 -6.818163e-04 0.0
1.006866e+00 -6.141354e-04 0.0
1.007014e+00 -5.522661e-04 0.0
1.007148e+00 -4.958335e-04 0.0
1.007269e+00 -4.444650e-04 0.0
1.007379e+00 -3.977953e-04 0.0
1.007478e+00 -3.554719e-04 0.0
1.007568e+00 -3.171586e-04 0.0
1.007649e+00 -2.825399e-04 0.0
1.007723e+00 -2.513240e-04 0.0
1.007790e+00 -2.232476e-04 0.0
1.007851e+00 -1.980809e-04 0.0
1.007906e+00 -1.756355e-04 0.0
1.007957e+00 -1.557758e-04 0.0
1.008003e+00 -1.384366e-04 0.0
1.008046e+00 -1.236508e-04 0.0
1.008085e+00 -1.115928e-04 0.0
1.008122e+00 -1.026473e-04 0.0
1.008157e+00 -9.752308e-05 0.0
1.008190e+00 -9.743135e-05 0.0
1.008221e+00 -1.043324e-04 0.0
1.008251e+00 -1.212686e-04 0.0
1.008277e+00 -1.526171e-04 0.0
1.008293e+00 -2.036904e-04 0.0
1.008284e+00 -2.768314e-04 0.0
1.008242e+00 -3.720553e-04 0.0
0.000000e+00 -3.663323e-04 0.0
1.000000e+00 -1.240357e-01 0.0
1.014368e+00 -1.228039e-01 0.0
1.031441e+00 -1.386828e-01 0.0
1.054965e+00 -1.725714e-01 0.0
1.091235e+00 -2.288919e-01 0.0
1.151107e+00 -3.148058e-01 0.0
1.249682e+00 -4.229299e-01 0.0
1.439811e+00 -6.462179e-01 0.0
1.497228e+00 -4.178316e-01 0.0
1.508522e+00 -2.643005e-01 0.0
1.514840e+00 -1.808039e-01 0.0
1.523664e+00 -1.224534e-01 0.0
1.534130e+00 -7.176452e-02 0.0
1.541182e+00 -2.178273e-02 0.0
1.540791e+00 2.531693e-02 0.0
1.532708e+00 6.765106e-02 0.0
1.517496e+00 1.054640e-01 0.0
1.495999e+00 1.391256e-01 0.0
1.468791e+00 1.693075e-01 0.0
1.436174e+00 1.963772e-01 0.0
1.398402e+00 2.202110e-01 0.0
1.355926e+00 2.403112e-01 0.0
1.309522e+00 2.559904e-01 0.0
1.260229e+00 2.662678e-01 0.0
1.209361e+00 2.690043e-01 0.0
1.159342e+00 2.600404e-01 0.0
1.113177e+00 2.373878e-01 0.0
1.073382e+00 2.032012e-01 0.0
1.041274e+00 1.630576e-01 0.0
1.016844e+00 1.235116e-01 0.0
9.991134e-01 8.950317e-02 0.0
9.866984e-01 6.316037e-02 0.0
9.782595e-01 4.421123e-02 0.0
9.727214e-01 3.114312e-02 0.0
9.692972e-01 2.222569e-02 0.0
9.674319e-01 1.603360e-02 0.0
9.667198e-01 1.158739e-02 0.0
9.668598e-01 8.258380e-03 0.0
9.676323e-01 5.658067e-03 0.0
9.688626e-01 3.571949e-03 0.0
9.704077e-01 1.873111e-03 0.0
9.721615e-01 4.700305e-04 0.0
9.740530e-01 -7.003458e-04 0.0
9.760313e-01 -1.678082e-03 0.0
9.780539e-01 -2.488194e-03 0.0
9.800838e-01 -3.148113e-03 0.0
9.820902e-01 -3.671849e-03 0.0
9.840480e-01 -4.072182e-03 0.0
9.859375e-01 -4.361593e-03 0.0
9.877439e-01 -4.552483e-03 0.0
9.894568e-01 -4.657085e-03 0.0
9.910693e-01 -4.687381e-03 0.0
9.925781e-01 -4.654881e-03 0.0
9.939821e-01 -4.570355e-03 0.0
9.952825e-01 -4.443791e-03 0.0
9.964820e-01 -4.284311e-03 0.0
9.975847e-01 -4.100039e-03 0.0
9.985953e-01 -3.898082e-03 0.0
9.995191e-01 -3.684554e-03 0.0
1.000362e+00 -3.464606e-03 0.0
1.001129e+00 -3.242545e-03 0.0
1.001827e+00 -3.021886e-03 0.0
1.002460e+00 -2.805443e-03 0.0
1.003034e+00 -2.595405e-03 0.0
1.003554e+00 -2.393427e-03 0.0
1.004025e+00 -2.200702e-03 0.0
1.004450e+00 -2.018040e-03 0.0
1.004835e+00 -1.845934e-03 0.0
1.005183e+00 -1.684613e-03 0.0
1.005496e+00 -1.534099e-03 0.0
1.005780e+00 -1.394247e-03 0.0
1.006035e+00 -1.264784e-03 0.0
1.006266e+00 -1.145335e-03 0.0
1.006474e+00 -1.035450e-03 0.0
1.006661e+00 -9.346317e-04 0.0
1.006831e+00 -8.423541e-04 0.0
1.006983e+00 -7.580793e-04 0.0
1.007121e+00 -6.812698e-04 0.0
1.007245e+00 -6.113965e-04 0.0
1.007357e+00 -5.479447e-04 0.0
1.007458e+00 -4.904197e-04 0.0
1.007550e+00 -4.383504e-04 0.0
1.007632e+00 -3.912927e-04 0.0
1.007707e+00 -3.488330e-04 0.0
1.007775e+00 -3.105908e-04 0.0
1.007837e+00 -2.762223e-04 0.0
1.007893e+00 -2.454255e-04 0.0
1.007944e+00 -2.179470e-04 0.0
1.007990e+00 -1.935933e-04 0.0
1.008032e+00 -1.722476e-04 0.0
1.008071e+00 -1.538955e-04 0.0
1.008107e+00 -1.386651e-04 0.0
1.008140e+00 -1.268873e-04 0.0
1.008170e+00 -1.191843e-04 0.0
1.008198e+00 -1.165916e-04 0.0
1.008223e+00 -1.206966e-04 0.0
1.008244e+00 -1.337521e-04 0.0
1.008259e+00 -1.585730e-04 0.0
1.008261e+00 -1.978832e-04 0.0
1.008244e+00 -2.514089e-04 0.0
1.008202e+00 -3.205731e-04 0.0
0.000000e+00 -3.147838e-04 0.0
1.000000e+00 -1.297413e-01 0.0
1.005548e+00 -1.283193e-01 0.0
1.012369e+00 -1.454945e-01 0.0
1.022821e+00 -1.830153e-01 0.0
1.042343e+00 -2.484045e-01 0.0
1.083063e+00 -3.555181e-01 0.0
1.172473e+00 -5.123309e-01 0.0
1.389688e+00 -8.634243e-01 0.0
1.358101e+00 -3.862362e-01 0.0
1.296173e+00 -2.023633e-01 0.0
1.261029e+00 -1.456518e-01 0.0
1.248735e+00 -1.101499e-01 0.0
1.256154e+00 -7.917548e-02 0.0
1.278113e+00 -4.373266e-02 0.0
1.296512e+00 6.926234e-03 0.0
1.305351e+00 5.882047e-02 0.0
1.306179e+00 1.046450e-01 0.0
1.300496e+00 1.448176e-01 0.0
1.288973e+00 1.808385e-01 0.0
1.271662e+00 2.136968e-01 0.0
1.248396e+00 2.434860e-01 0.0
1.219285e+00 2.694309e-01 0.0
1.184958e+00 2.903260e-01 0.0
1.146505e+00 3.047297e-01 0.0
1.105322e+00 3.101952e-01 0.0
1.063959e+00 3.014118e-01 0.0
1.025793e+00 2.755630e-01 0.0
9.935762e-01 2.354266e-01 0.0
9.686498e-01 1.879926e-01 0.0
9.509087e-01 1.412613e-01 0.0
9.393169e-01 1.011035e-01 0.0
9.325303e-01 6.995564e-02 0.0
9.293142e-01 4.743599e-02 0.0
9.287046e-01 3.176127e-02 0.0
9.299730e-01 2.096601e-02 0.0
9.325882e-01 1.342698e-02 0.0
9.361098e-01 8.074360e-03 0.0
9.401592e-01 4.217675e-03 0.0
9.444642e-01 1.361677e-03 0.0
9.488586e-01 -8.138122e-04 0.0
9.532491e-01 -2.508745e-03 0.0
9.575657e-01 -3.837993e-03 0.0
9.617523e-01 -4.878334e-03 0.0
9.657646e-01 -5.681775e-03 0.0
9.695706e-01 -6.285541e-03 0.0
9.731487e-01 -6.717615e-03 0.0
9.764863e-01 -7.000835e-03 0.0
9.795780e-01 -7.155243e-03 0.0
9.824243e-01 -7.199248e-03 0.0
9.850305e-01 -7.150087e-03 0.0
9.874056e-01 -7.023566e-03 0.0
9.895611e-01 -6.834249e-03 0.0
9.915103e-01 -6.595421e-03 0.0
9.932675e-01 -6.319031e-03 0.0
9.948480e-01 -6.015605e-03 0.0
9.962666e-01 -5.694278e-03 0.0
9.975379e-01 -5.362769e-03 0.0
9.986759e-01 -5.027477e-03 0.0
9.996937e-01 -4.693682e-03 0.0
1.000603e+00 -4.365627e-03 0.0
1.001416e+00 -4.046636e-03 0.0
1.002142e+00 -3.739242e-03 0.0
1.002790e+00 -3.445296e-03 0.0
1.003370e+00 -3.166078e-03 0.0
1.003887e+00 -2.902390e-03 0.0
1.004350e+00 -2.654646e-03 0.0
1.004763e+00 -2.422940e-03 0.0
1.005133e+00 -2.207119e-03 0.0
1.005464e+00 -2.006833e-03 0.0
1.005760e+00 -1.821581e-03 0.0
1.006025e+00 -1.650754e-03 0.0
1.006263e+00 -1.493664e-03 0.0
1.006476e+00 -1.349565e-03 0.0
1.006666e+00 -1.217685e-03 0.0
1.006838e+00 -1.097238e-03 0.0
1.006991e+00 -9.874426e-04 0.0
1.007129e+00 -8.875341e-04 0.0
1.007253e+00 -7.967722e-04 0.0
1.007365e+00 -7.144467e-04 0.0
1.007466e+00 -6.398816e-04 0.0
1.007556e+00 -5.724377e-04 0.0
1.007638e+00 -5.115154e-04 0.0
1.007712e+00 -4.565559e-04 0.0
1.007779e+00 -4.070424e-04 0.0
1.007839e+00 -3.625020e-04 0.0
1.007894e+00 -3.225075e-04 0.0
1.007944e+00 -2.866812e-04 0.0
1.007989e+00 -2.547002e-04 0.0
1.008031e+00 -2.263054e-04 0.0
1.008068e+00 -2.013160e-04 0.0
1.008103e+00 -1.796510e-04 0.0
1.008134e+00 -1.613623e-04 0.0
1.008162e+00 -1.466809e-04 0.0
1.008188e+00 -1.360796e-04 0.0
1.008210e+00 -1.303460e-04 0.0
1.008229e+00 -1.306430e-04 0.0
1.008242e+00 -1.385015e-04 0.0
1.008248e+00 -1.556038e-04 0.0
1.008242e+00 -1.832136e-04 0.0
1.008219e+00 -2.203307e-04 0.0
1.008175e+00 -2.679857e-04 0.0
0.000000e+00 -2.621747e-04 0.0
1.000000e+00 -1.257153e-01 0.0
9.958607e-01 -1.241468e-01 0.0
9.905707e-01 -1.401959e-01 0.0
9.832837e-01 -1.757197e-01 0.0
9.743887e-01 -2.395009e-01 0.0
9.685251e-01 -3.496459e-01 0.0
9.912902e-01 -5.350874e-01 0.0
1.143698e+00 -1.015824e+00 0.0
9.569781e-01 -1.995318e-01 0.0
7.797480e-01 -2.514909e-02 0.0
6.958995e-01 -6.179472e-02 0.0
6.526853e-01 -6.692702e-02 0.0
6.465670e-01 -7.304862e-02 0.0
6.933137e-01 -9.047067e-02 0.0
7.681182e-01 -6.786964e-02 0.0
8.359096e-01 -8.962320e-03 0.0
8.825894e-01 5.797389e-02 0.0
9.165555e-01 1.108601e-01 0.0
9.410865e-01 1.563161e-01 0.0
9.568171e-01 1.979749e-01 0.0
9.634377e-01 2.368741e-01 0.0
9.609986e-01 2.718786e-01 0.0
9.503348e-01 3.009985e-01 0.0
9.331009e-01 3.219722e-01 0.0
9.118272e-01 3.314775e-01 0.0
8.897279e-01 3.235198e-01 0.0
8.702448e-01 2.950547e-01 0.0
8.557111e-01 2.499690e-01 0.0
8.469086e-01 1.968037e-01 0.0
8.434624e-01 1.447161e-01 0.0
8.444674e-01 1.001072e-01 0.0
8.489163e-01 6.551537e-02 0.0
8.558710e-01 4.048996e-02 0.0
8.645525e-01 2.308833e-02 0.0
8.741702e-01 1.135701e-02 0.0
8.841049e-01 3.500911e-03 0.0
8.940470e-01 -1.859144e-03 0.0
9.038807e-01 -5.607353e-03 0.0
9.134750e-01 -8.224073e-03 0.0
9.226943e-01 -1.002449e-02 0.0
9.314176e-01 -1.122335e-02 0.0
9.395603e-01 -1.197211e-02 0.0
9.470729e-01 -1.238235e-02 0.0
9.539365e-01 -1.253667e-02 0.0
9.601563e-01 -1.249677e-02 0.0
9.657550e-01 -1.230766e-02 0.0
9.707661e-01 -1.200329e-02 0.0
9.752299e-01 -1.161046e-02 0.0
9.791900e-01 -1.115073e-02 0.0
9.826909e-01 -1.064238e-02 0.0
9.857771e-01 -1.010115e-02 0.0
9.884918e-01 -9.540301e-03 0.0
9.908758e-01 -8.970852e-03 0.0
9.929672e-01 -8.401739e-03 0.0
9.948003e-01 -7.840098e-03 0.0
9.964063e-01 -7.291728e-03 0.0
9.978133e-01 -6.761115e-03 0.0
9.990460e-01 -6.251607e-03 0.0
1.000127e+00 -5.765603e-03 0.0
1.001074e+00 -5.304697e-03 0.0
1.001906e+00 -4.869817e-03 0.0
1.002637e+00 -4.461348e-03 0.0
1.003279e+00 -4.079239e-03 0.0
1.003845e+00 -3.723090e-03 0.0
1.004343e+00 -3.392235e-03 0.0
1.004783e+00 -3.085803e-03 0.0
1.005172e+00 -2.802776e-03 0.0
1.005515e+00 -2.542031e-03 0.0
1.005819e+00 -2.302381e-03 0.0
1.006089e+00 -2.082600e-03 0.0
1.006328e+00 -1.881451e-03 0.0
1.006541e+00 -1.697703e-03 0.0
1.006730e+00 -1.530145e-03 0.0
1.006899e+00 -1.377598e-03 0.0
1.007049e+00 -1.238929e-03 0.0
1.007183e+00 -1.113054e-03 0.0
1.007303e+00 -9.989452e-04 0.0
1.007411e+00 -8.956336e-04 0.0
1.007507e+00 -8.022090e-04 0.0
1.007594e+00 -7.178207e-04 0.0
1.007671e+00 -6.416770e-04 0.0
1.007742e+00 -5.730443e-04 0.0
1.007805e+00 -5.112459e-04 0.0
1.007862e+00 -4.556609e-04 0.0
1.007914e+00 -4.057234e-04 0.0
1.007961e+00 -3.609231e-04 0.0
1.008004e+00 -3.208055e-04 0.0
1.008043e+00 -2.849760e-04 0.0
1.008078e+00 -2.531053e-04 0.0
1.008110e+00 -2.249399e-04 0.0
1.008139e+00 -2.003180e-04 0.0
1.008166e+00 -1.791930e-04 0.0
1.008189e+00 -1.616658e-04 0.0
1.008210e+00 -1.480238e-04 0.0
1.008227e+00 -1.387787e-04 0.0
1.008240e+00 -1.346809e-04 0.0
1.008246e+00 -1.366637e-04 0.0
1.008245e+00 -1.456323e-04 0.0
1.008233e+00 -1.620526e-04 0.0
1.008206e+00 -1.848732e-04 0.0
1.008161e+00 -2.142455e-04 0.0
0.000000e+00 -2.084611e-04 0.0
1.000000e+00 -1.125132e-01 0.0
9.867378e-01 -1.108515e-01 0.0
9.695444e-01 -1.229939e-01 0.0
9.432377e-01 -1.494043e-01 0.0
8.990483e-01 -1.953028e-01 0.0
8.198361e-01 -2.704251e-01 0.0
6.799879e-01 -3.952305e-01 0.0
1.994828e-01 -5.353347e-01 0.0
-9.596855e-01 5.398102e-01 0.0
0.000000e+00 -7.374340e-02 0.0
-1.565558e-01 6.964514e-02 0.0
-1.739020e-01 -4.957220e-02 0.0
-1.201040e-01 -1.268380e-01 0.0
3.985968e-02 -2.504257e-01 0.0
1.811117e-01 -2.091130e-01 0.0
3.107413e-01 -1.385833e-01 0.0
4.190508e-01 -5.032694e-02 0.0
4.973026e-01 3.261694e-02 0.0
5.590621e-01 9.456524e-02 0.0
6.075359e-01 1.495097e-01 0.0
6.426125e-01 2.018061e-01 0.0
6.648486e-01 2.496512e-01 0.0
6.759624e-01 2.898933e-01 0.0
6.789093e-01 3.190339e-01 0.0
6.782852e-01 3.321102e-01 0.0
6.786418e-01 3.231718e-01 0.0
6.824092e-01 2.912960e-01 0.0
6.900816e-01 2.423052e-01 0.0
7.009998e-01 1.858942e-01 0.0
7.143855e-01 1.313391e-01 0.0
7.296574e-01 8.484391e-02 0.0
7.463232e-01 4.885818e-02 0.0
7.637682e-01 2.305360e-02 0.0
7.818147e-01 5.050410e-03 0.0
8.005140e-01 -7.333613e-03 0.0
8.197110e-01 -1.568747e-02 0.0
8.389712e-01 -2.111069e-02 0.0
8.577374e-01 -2.436493e-02 0.0
8.755367e-01 -2.601479e-02 0.0
8.920344e-01 -2.651359e-02 0.0
9.070400e-01 -2.622031e-02 0.0
9.204817e-01 -2.540520e-02 0.0
9.323775e-01 -2.426953e-02 0.0
9.428063e-01 -2.295683e-02 0.0
9.518819e-01 -2.156373e-02 0.0
9.597364e-01 -2.015357e-02 0.0
9.665077e-01 -1.876600e-02 0.0
9.723301e-01 -1.742419e-02 0.0
9.773276e-01 -1.613961e-02 0.0
9.816124e-01 -1.491856e-02 0.0
9.852839e-01 -1.376409e-02 0.0
9.884294e-01 -1.267714e-02 0.0
9.911244e-01 -1.165723e-02 0.0
9.934343e-01 -1.070301e-02 0.0
9.954154e-01 -9.812548e-03 0.0
9.971158e-01 -8.983570e-03 0.0
9.985769e-01 -8.213549e-03 0.0
9.998337e-01 -7.499779e-03 0.0
1.000916e+00 -6.839447e-03 0.0
1.001850e+00 -6.229682e-03 0.0
1.002656e+00 -5.667604e-03 0.0
1.003354e+00 -5.150349e-03 0.0
1.003958e+00 -4.675107e-03 0.0
1.004483e+00 -4.239136e-03 0.0
1.004939e+00 -3.839782e-03 0.0
1.005336e+00 -3.474492e-03 0.0
1.005683e+00 -3.140821e-03 0.0
1.005986e+00 -2.836438e-03 0.0
1.006251e+00 -2.559131e-03 0.0
1.006484e+00 -2.306807e-03 0.0
1.006689e+00 -2.077490e-03 0.0
1.006869e+00 -1.869324e-03 0.0
1.007028e+00 -1.680568e-03 0.0
1.007169e+00 -1.509592e-03 0.0
1.007293e+00 -1.354879e-03 0.0
1.007404e+00 -1.215019e-03 0.0
1.007502e+00 -1.088703e-03 0.0
1.007590e+00 -9.747226e-04 0.0
1.007668e+00 -8.719620e-04 0.0
1.007738e+00 -7.793935e-04 0.0
1.007801e+00 -6.960730e-04 0.0
1.007858e+00 -6.211351e-04 0.0
1.007909e+00 -5.537886e-04 0.0
1.007956e+00 -4.933124e-04 0.0
1.007997e+00 -4.390525e-04 0.0
1.008036e+00 -3.904186e-04 0.0
1.008070e+00 -3.468831e-04 0.0
1.008102e+00 -3.079811e-04 0.0
1.008131e+00 -2.733122e-04 0.0
1.008157e+00 -2.425463e-04 0.0
1.008181e+00 -2.154323e-04 0.0
1.008202e+00 -1.918122e-04 0.0
1.008220e+00 -1.716398e-04 0.0
1.008236e+00 -1.550008e-04 0.0
1.008248e+00 -1.421286e-04 0.0
1.008255e+00 -1.333970e-04 0.0
1.008256e+00 -1.292608e-04 0.0
1.008250e+00 -1.300979e-04 0.0
1.008232e+00 -1.359467e-04 0.0
1.008202e+00 -1.459575e-04 0.0
1.008155e+00 -1.593100e-04 0.0
0.000000e+00 -1.536037e-04 0.0
1.000000e+00 -9.239885e-02 0.0
9.798821e-01 -9.070048e-02 0.0
9.540358e-01 -9.713902e-02 0.0
9.146225e-01 -1.099823e-01 0.0
8.475667e-01 -1.282383e-01 0.0
7.237516e-01 -1.466014e-01 0.0
4.683708e-01 -1.398410e-01 0.0
-6.149723e-03 -6.083001e-02 0.0
3.356722e-05 0.000000e+00 0.0
0.000000e+00 -0.000000e+00 0.0
0.000000e+00 -1.319850e-01 0.0
-1.795099e-01 1.299463e-01 0.0
-1.774816e-01 -1.288576e-01 0.0