# vtk DataFile Version 3.0
Vector Field
ASCII
DATASET RECTILINEAR_GRID
DIMENSIONS 102 22 1
X_COORDINATES 102 double
0.000000 0.100000 0.200000 0.300000 0.400000 0.500000 0.600000 0.700000 0.800000 0.900000 1.000000 1.100000 1.200000 1.300000 1.400000 1.500000 1.600000 1.700000 1.800000 1.900000 2.000000 2.100000 2.200000 2.300000 2.400000 2.500000 2.600000 2.700000 2.800000 2.900000 3.000000 3.100000 3.200000 3.300000 3.400000 3.500000 3.600000 3.700000 3.800000 3.900000 4.000000 4.100000 4.200000 4.300000 4.400000 4.500000 4.600000 4.700000 4.800000 4.900000 5.000000 5.100000 5.200000 5.300000 5.400000 5.500000 5.600000 5.700000 5.800000 5.900000 6.000000 6.100000 6.200000 6.300000 6.400000 6.500000 6.600000 6.700000 6.800000 6.900000 7.000000 7.100000 7.200000 7.300000 7.400000 7.500000 7.600000 7.700000 7.800000 7.900000 8.000000 8.100000 8.200000 8.300000 8.400000 8.500000 8.600000 8.700000 8.800000 8.900000 9.000000 9.100000 9.200000 9.300000 9.400000 9.500000 9.600000 9.700000 9.800000 9.900000 10.000000 10.100000 
Y_COORDINATES 22 double
0.000000 0.100000 0.200000 0.300000 0.400000 0.500000 0.600000 0.700000 0.800000 0.900000 1.000000 1.100000 1.200000 1.300000 1.400000 1.500000 1.600000 1.700000 1.800000 1.900000 2.000000 2.100000 
Z_COORDINATES 1 double
0.0
POINT_DATA 2244
VECTORS Velocity double
0.000000e+00 0.000000e+00 0.0
-1.023439e+00 0.000000e+00 0.0
-1.049919e+00 0.000000e+00 0.0
-1.082288e+00 0.000000e+00 0.0
-1.123406e+00 0.000000e+00 0.0
-1.175716e+00 0.000000e+00 0.0
-1.239397e+00 0.000000e+00 0.0
-1.315216e+00 0.000000e+00 0.0
-1.389008e+00 0.000000e+00 0.0
-1.451851e+00 0.000000e+00 0.0
-1.502747e+00 0.000000e+00 0.0
-1.544293e+00 0.000000e+00 0.0
-1.579426e+00 0.000000e+00 0.0
-1.610066e+00 0.000000e+00 0.0
-1.636644e+00 0.000000e+00 0.0
-1.658184e+00 0.000000e+00 0.0
-1.672953e+00 0.000000e+00 0.0
-1.679598e+00 0.000000e+00 0.0
-1.678061e+00 0.000000e+00 0.0
-1.669147e+00 0.000000e+00 0.0
-1.653939e+00 0.000000e+00 0.0
-1.633482e+00 0.000000e+00 0.0
-1.608543e+00 0.000000e+00 0.0
-1.579506e+00 0.000000e+00 0.0
-1.546385e+00 0.000000e+00 0.0
-1.508945e+00 0.000000e+00 0.0
-1.466864e+00 0.000000e+00 0.0
-1.419902e+00 0.000000e+00 0.0
-1.368010e+00 0.000000e+00 0.0
-1.311347e+00 0.000000e+00 0.0
-1.250239e+00 0.000000e+00 0.0
-1.185270e+00 0.000000e+00 0.0
-1.117742e+00 0.000000e+00 0.0
-1.050255e+00 0.000000e+00 0.0
-9.870825e-01 0.000000e+00 0.0
-9.344469e-01 0.000000e+00 0.0
-8.999331e-01 0.000000e+00 0.0
-8.905816e-01 0.000000e+00 0.0
-9.103082e-01 0.000000e+00 0.0
-9.599683e-01 0.000000e+00 0.0
-1.038716e+00 0.000000e+00 0.0
-1.143712e+00 0.000000e+00 0.0
-1.268548e+00 0.000000e+00 0.0
-1.400310e+00 0.000000e+00 0.0
-1.522284e+00 0.000000e+00 0.0
-1.617361e+00 0.000000e+00 0.0
-1.672636e+00 0.000000e+00 0.0
-1.684988e+00 0.000000e+00 0.0
-1.660726e+00 0.000000e+00 0.0
-1.606183e+00 0.000000e+00 0.0
-1.527451e+00 0.000000e+00 0.0
-1.431048e+00 0.000000e+00 0.0
-1.324037e+00 0.000000e+00 0.0
-1.213651e+00 0.000000e+00 0.0
-1.107136e+00 0.000000e+00 0.0
-1.011404e+00 0.000000e+00 0.0
-9.323091e-01 0.000000e+00 0.0
-8.739144e-01 0.000000e+00 0.0
-8.379166e-01 0.000000e+00 0.0
-8.235543e-01 0.000000e+00 0.0
-8.279096e-01 0.000000e+00 0.0
-8.471305e-01 0.000000e+00 0.0
-8.776376e-01 0.000000e+00 0.0
-9.162103e-01 0.000000e+00 0.0
-9.600021e-01 0.000000e+00 0.0
-1.006493e+00 0.000000e+00 0.0
-1.053500e+00 0.000000e+00 0.0
-1.099150e+00 0.000000e+00 0.0
-1.141873e+00 0.000000e+00 0.0
-1.180378e+00 0.000000e+00 0.0
-1.213658e+00 0.000000e+00 0.0
-1.241012e+00 0.000000e+00 0.0
-1.262005e+00 0.000000e+00 0.0
-1.276518e+00 0.000000e+00 0.0
-1.284746e+00 0.000000e+00 0.0
-1.287035e+00 0.000000e+00 0.0
-1.283446e+00 0.000000e+00 0.0
-1.273862e+00 0.000000e+00 0.0
-1.258152e+00 0.000000e+00 0.0
-1.236341e+00 0.000000e+00 0.0
-1.208993e+00 0.000000e+00 0.0
-1.177746e+00 0.000000e+00 0.0
-1.145574e+00 0.000000e+00 0.0
-1.116172e+00 0.000000e+00 0.0
-1.092712e+00 0.000000e+00 0.0
-1.076916e+00 0.000000e+00 0.0
-1.069027e+00 0.000000e+00 0.0
-1.068078e+00 0.000000e+00 0.0
-1.072328e+00 0.000000e+00 0.0
-1.079900e+00 0.000000e+00 0.0
-1.089202e+00 0.000000e+00 0.0
-1.099048e+00 0.000000e+00 0.0
-1.108608e+00 0.000000e+00 0.0
-1.117367e+00 0.000000e+00 0.0
-1.125057e+00 0.000000e+00 0.0
-1.131587e+00 0.000000e+00 0.0
-1.136969e+00 0.000000e+00 0.0
-1.141267e+00 0.000000e+00 0.0
-1.144545e+00 0.000000e+00 0.0
-1.146921e+00 0.000000e+00 0.0
-1.146921e+00 0.000000e+00 0.0
0.000000e+00 0.000000e+00 0.0
1.000000e+00 -2.373369e-02 0.0
1.023350e+00 -2.365277e-02 0.0
1.049735e+00 -2.655985e-02 0.0
1.081989e+00 -3.242882e-02 0.0
1.122959e+00 -4.114414e-02 0.0
1.175069e+00 -5.228390e-02 0.0
1.238478e+00 -6.358360e-02 0.0
1.313897e+00 -7.559308e-02 0.0
1.387165e+00 -7.344330e-02 0.0
1.449394e+00 -6.240317e-02 0.0
1.499635e+00 -5.041473e-02 0.0
1.540564e+00 -4.110352e-02 0.0
1.575235e+00 -3.484595e-02 0.0
1.605721e+00 -3.066040e-02 0.0
1.632601e+00 -2.705420e-02 0.0
1.654978e+00 -2.255159e-02 0.0
1.671045e+00 -1.624131e-02 0.0
1.679197e+00 -8.327072e-03 0.0
1.679091e+00 -6.884761e-05 0.0
1.671435e+00 7.481990e-03 0.0
1.657287e+00 1.397307e-02 0.0
1.637721e+00 1.939155e-02 0.0
1.613565e+00 2.398102e-02 0.0
1.585266e+00 2.812440e-02 0.0
1.552886e+00 3.220591e-02 0.0
1.516208e+00 3.650334e-02 0.0
1.474900e+00 4.113284e-02 0.0
1.428687e+00 4.603825e-02 0.0
1.377479e+00 5.103398e-02 0.0
1.321405e+00 5.589906e-02 0.0
1.260776e+00 6.045427e-02 0.0
1.196122e+00 6.447857e-02 0.0
1.128577e+00 6.737087e-02 0.0
1.060475e+00 6.792640e-02 0.0
9.957236e-01 6.457686e-02 0.0
9.401424e-01 5.540627e-02 0.0
9.010776e-01 3.888991e-02 0.0
8.857706e-01 1.513203e-02 0.0
8.987345e-01 -1.313880e-02 0.0
9.412581e-01 -4.269859e-02 0.0
1.012770e+00 -7.168695e-02 0.0
1.111135e+00 -9.854017e-02 0.0
1.231294e+00 -1.203339e-01 0.0
1.362253e+00 -1.311339e-01 0.0
1.488155e+00 -1.260772e-01 0.0
1.591987e+00 -1.040075e-01 0.0
1.659325e+00 -6.751245e-02 0.0
1.683894e+00 -2.474450e-02 0.0
1.669923e+00 1.379575e-02 0.0
1.623915e+00 4.583234e-02 0.0
1.551640e+00 7.209964e-02 0.0
1.459326e+00 9.213914e-02 0.0
1.353948e+00 1.052030e-01 0.0
1.243026e+00 1.107461e-01 0.0
1.134128e+00 1.087228e-01 0.0
1.034570e+00 9.938279e-02 0.0
9.506502e-01 8.374449e-02 0.0
8.869411e-01 6.353371e-02 0.0
8.456639e-01 4.110179e-02 0.0
8.265220e-01 1.896646e-02 0.0
8.269669e-01 -6.203394e-04 0.0
8.431180e-01 -1.632660e-02 0.0
8.712784e-01 -2.833590e-02 0.0
9.081125e-01 -3.700961e-02 0.0
9.506864e-01 -4.274943e-02 0.0
9.964148e-01 -4.590400e-02 0.0
1.043057e+00 -4.681747e-02 0.0
1.088696e+00 -4.581470e-02 0.0
1.131727e+00 -4.320640e-02 0.0
1.170822e+00 -3.927085e-02 0.0
1.204933e+00 -3.428702e-02 0.0
1.233314e+00 -2.855660e-02 0.0
1.255489e+00 -2.235014e-02 0.0
1.271273e+00 -1.596025e-02 0.0
1.280802e+00 -9.704106e-03 0.0
1.284421e+00 -3.794957e-03 0.0
1.282282e+00 1.962741e-03 0.0
1.274302e+00 7.804264e-03 0.0
1.260359e+00 1.376725e-02 0.0
1.240428e+00 1.975504e-02 0.0
1.214896e+00 2.535626e-02 0.0
1.185063e+00 2.965790e-02 0.0
1.153511e+00 3.137588e-02 0.0
1.123755e+00 2.957973e-02 0.0
1.099113e+00 2.446636e-02 0.0
1.081654e+00 1.728348e-02 0.0
1.071962e+00 9.516440e-03 0.0
1.069365e+00 2.420358e-03 0.0
1.072314e+00 -3.124153e-03 0.0
1.078963e+00 -6.825442e-03 0.0
1.087672e+00 -8.884865e-03 0.0
1.097184e+00 -9.687538e-03 0.0
1.106605e+00 -9.596954e-03 0.0
1.115357e+00 -8.928059e-03 0.0
1.123124e+00 -7.942764e-03 0.0
1.129776e+00 -6.827703e-03 0.0
1.135299e+00 -5.699465e-03 0.0
1.139739e+00 -4.615931e-03 0.0
1.143148e+00 -3.584807e-03 0.0
1.145634e+00 -2.661890e-03 0.0
1.146921e+00 -1.462298e-03 0.0
0.000000e+00 -1.361249e-03 0.0
1.000000e+00 -4.768405e-02 0.0
1.023690e+00 -4.751756e-02 0.0
1.050457e+00 -5.337233e-02 0.0
1.083261e+00 -6.527790e-02 0.0
1.125260e+00 -8.318820e-02 0.0
1.179536e+00 -1.066059e-01 0.0
1.246461e+00 -1.305544e-01 0.0
1.331220e+00 -1.603970e-01 0.0
1.409605e+00 -1.518742e-01 0.0
1.472415e+00 -1.252586e-01 0.0
1.521356e+00 -9.940143e-02 0.0
1.560810e+00 -8.060226e-02 0.0
1.594467e+00 -6.854874e-02 0.0
1.624663e+00 -6.090208e-02 0.0
1.652124e+00 -5.456031e-02 0.0
1.675986e+00 -4.645912e-02 0.0
1.694243e+00 -3.454401e-02 0.0
1.704843e+00 -1.897292e-02 0.0
1.707056e+00 -2.326997e-03 0.0
1.701654e+00 1.283820e-02 0.0
1.689810e+00 2.577158e-02 0.0
1.672684e+00 3.647203e-02 0.0
1.651164e+00 4.545519e-02 0.0
1.625718e+00 5.352497e-02 0.0
1.596398e+00 6.148065e-02 0.0
1.562965e+00 6.989040e-02 0.0
1.525064e+00 7.898795e-02 0.0
1.482395e+00 8.866211e-02 0.0
1.434853e+00 9.853043e-02 0.0
1.382595e+00 1.081112e-01 0.0
1.326051e+00 1.169527e-01 0.0
1.265935e+00 1.245487e-01 0.0
1.203293e+00 1.299675e-01 0.0
1.139798e+00 1.313756e-01 0.0
1.078466e+00 1.258634e-01 0.0
1.023791e+00 1.100353e-01 0.0
9.814728e-01 8.116274e-02 0.0
9.571547e-01 3.940450e-02 0.0
9.538860e-01 -9.915732e-03 0.0
9.704827e-01 -5.934102e-02 0.0
1.005353e+00 -1.066032e-01 0.0
1.060181e+00 -1.534135e-01 0.0
1.136539e+00 -1.967376e-01 0.0
1.231508e+00 -2.261487e-01 0.0
1.334454e+00 -2.290691e-01 0.0
1.431395e+00 -2.009941e-01 0.0
1.508203e+00 -1.443664e-01 0.0
1.554126e+00 -7.071265e-02 0.0
1.565471e+00 2.405104e-03 0.0
1.547793e+00 6.346434e-02 0.0
1.507159e+00 1.126877e-01 0.0
1.449161e+00 1.500913e-01 0.0
1.378681e+00 1.756375e-01 0.0
1.300145e+00 1.892362e-01 0.0
1.218849e+00 1.899736e-01 0.0
1.140791e+00 1.773944e-01 0.0
1.071162e+00 1.533282e-01 0.0
1.014067e+00 1.205830e-01 0.0
9.721768e-01 8.294588e-02 0.0
9.466479e-01 4.444957e-02 0.0
9.371899e-01 8.791879e-03 0.0
9.417972e-01 -2.097972e-02 0.0
9.574770e-01 -4.406148e-02 0.0
9.813575e-01 -6.093588e-02 0.0
1.010951e+00 -7.238875e-02 0.0
1.044036e+00 -7.903439e-02 0.0
1.078619e+00 -8.144653e-02 0.0
1.113100e+00 -8.034157e-02 0.0
1.146123e+00 -7.627516e-02 0.0
1.176514e+00 -6.970747e-02 0.0
1.203289e+00 -6.110774e-02 0.0
1.225668e+00 -5.098153e-02 0.0
1.243133e+00 -3.986103e-02 0.0
1.255415e+00 -2.828879e-02 0.0
1.262378e+00 -1.671236e-02 0.0
1.263739e+00 -5.202354e-03 0.0
1.259032e+00 6.624698e-03 0.0
1.248077e+00 1.871285e-02 0.0
1.231008e+00 3.079001e-02 0.0
1.208536e+00 4.218199e-02 0.0
1.182307e+00 5.153918e-02 0.0
1.155118e+00 5.680137e-02 0.0
1.130643e+00 5.580458e-02 0.0
1.112129e+00 4.804770e-02 0.0
1.101407e+00 3.514274e-02 0.0
1.098728e+00 1.991677e-02 0.0
1.102876e+00 5.322231e-03 0.0
1.111726e+00 -6.475609e-03 0.0
1.123214e+00 -1.465783e-02 0.0
1.135687e+00 -1.934442e-02 0.0
1.147947e+00 -2.119058e-02 0.0
1.159247e+00 -2.103318e-02 0.0
1.169234e+00 -1.963065e-02 0.0
1.177815e+00 -1.755476e-02 0.0
1.185032e+00 -1.520526e-02 0.0
1.191008e+00 -1.284943e-02 0.0
1.195902e+00 -1.063971e-02 0.0
1.199866e+00 -8.625964e-03 0.0
1.202996e+00 -6.760757e-03 0.0
1.205262e+00 -4.973214e-03 0.0
1.206039e+00 -2.285038e-03 0.0
0.000000e+00 -2.080708e-03 0.0
1.000000e+00 -6.849024e-02 0.0
1.020554e+00 -6.824617e-02 0.0
1.044262e+00 -7.712520e-02 0.0
1.074348e+00 -9.540988e-02 0.0
1.114710e+00 -1.235958e-01 0.0
1.169976e+00 -1.619171e-01 0.0
1.241771e+00 -2.023952e-01 0.0
1.345466e+00 -2.641376e-01 0.0
1.429200e+00 -2.356531e-01 0.0
1.487329e+00 -1.834339e-01 0.0
1.528625e+00 -1.407422e-01 0.0
1.560666e+00 -1.126890e-01 0.0
1.588023e+00 -9.595162e-02 0.0
1.613369e+00 -8.629368e-02 0.0
1.637865e+00 -7.910095e-02 0.0
1.660918e+00 -6.955829e-02 0.0
1.680256e+00 -5.392697e-02 0.0
1.692877e+00 -3.163996e-02 0.0
1.696892e+00 -6.387261e-03 0.0
1.692966e+00 1.671819e-02 0.0
1.682500e+00 3.619194e-02 0.0
1.666847e+00 5.208019e-02 0.0
1.647048e+00 6.520802e-02 0.0
1.623651e+00 7.687684e-02 0.0
1.596726e+00 8.836031e-02 0.0
1.565987e+00 1.005836e-01 0.0
1.530980e+00 1.139491e-01 0.0
1.491298e+00 1.282983e-01 0.0
1.446751e+00 1.430317e-01 0.0
1.397473e+00 1.573436e-01 0.0
1.343944e+00 1.704369e-01 0.0
1.286938e+00 1.815084e-01 0.0
1.227552e+00 1.893077e-01 0.0
1.167498e+00 1.913840e-01 0.0
1.109582e+00 1.837342e-01 0.0
1.057440e+00 1.621321e-01 0.0
1.014324e+00 1.242327e-01 0.0
9.817370e-01 7.194592e-02 0.0
9.596596e-01 1.211595e-02 0.0
9.485764e-01 -4.830348e-02 0.0
9.513644e-01 -1.094368e-01 0.0
9.719982e-01 -1.740929e-01 0.0
1.012957e+00 -2.377416e-01 0.0
1.074128e+00 -2.873660e-01 0.0
1.150371e+00 -3.053573e-01 0.0
1.231149e+00 -2.818181e-01 0.0
1.305022e+00 -2.182853e-01 0.0
1.361409e+00 -1.271455e-01 0.0
1.392705e+00 -2.893663e-02 0.0
1.399394e+00 5.673003e-02 0.0
1.386035e+00 1.260013e-01 0.0
1.356971e+00 1.791092e-01 0.0
1.316005e+00 2.165579e-01 0.0
1.266610e+00 2.385850e-01 0.0
1.211962e+00 2.445765e-01 0.0
1.155938e+00 2.333722e-01 0.0
1.103061e+00 2.061597e-01 0.0
1.057171e+00 1.664270e-01 0.0
1.020821e+00 1.192503e-01 0.0
9.952000e-01 7.002473e-02 0.0
9.807809e-01 2.316519e-02 0.0
9.772115e-01 -1.745617e-02 0.0
9.828039e-01 -4.969965e-02 0.0
9.955708e-01 -7.374861e-02 0.0
1.013795e+00 -9.065839e-02 0.0
1.035934e+00 -1.012199e-01 0.0
1.060481e+00 -1.060388e-01 0.0
1.085864e+00 -1.057707e-01 0.0
1.110661e+00 -1.011179e-01 0.0
1.133629e+00 -9.272082e-02 0.0
1.153736e+00 -8.126117e-02 0.0
1.170186e+00 -6.747739e-02 0.0
1.182419e+00 -5.213909e-02 0.0
1.190048e+00 -3.596381e-02 0.0
1.192675e+00 -1.938518e-02 0.0
1.189562e+00 -2.135483e-03 0.0
1.180266e+00 1.587489e-02 0.0
1.164939e+00 3.399351e-02 0.0
1.144408e+00 5.127515e-02 0.0
1.120522e+00 6.602286e-02 0.0
1.096380e+00 7.563472e-02 0.0
1.076020e+00 7.711595e-02 0.0
1.062544e+00 6.923444e-02 0.0
1.056873e+00 5.367265e-02 0.0
1.058265e+00 3.370482e-02 0.0
1.064938e+00 1.319849e-02 0.0
1.074701e+00 -4.487293e-03 0.0
1.085942e+00 -1.776225e-02 0.0
1.097574e+00 -2.633570e-02 0.0
1.108888e+00 -3.070370e-02 0.0
1.119455e+00 -3.180419e-02 0.0
1.129051e+00 -3.067431e-02 0.0
1.137515e+00 -2.814107e-02 0.0
1.144773e+00 -2.485847e-02 0.0
1.150838e+00 -2.131657e-02 0.0
1.155797e+00 -1.785373e-02 0.0
1.159775e+00 -1.466426e-02 0.0
1.162907e+00 -1.180333e-02 0.0
1.165285e+00 -9.184708e-03 0.0
1.166922e+00 -6.656003e-03 0.0
1.167384e+00 -2.792779e-03 0.0
0.000000e+00 -2.463185e-03 0.0
1.000000e+00 -8.448417e-02 0.0
1.015753e+00 -8.417396e-02 0.0
1.034564e+00 -9.598131e-02 0.0
1.059874e+00 -1.207653e-01 0.0
1.096653e+00 -1.604199e-01 0.0
1.152104e+00 -2.174138e-01 0.0
1.231961e+00 -2.822977e-01 0.0
1.367296e+00 -3.995188e-01 0.0
1.448094e+00 -3.164966e-01 0.0
1.489499e+00 -2.248846e-01 0.0
1.513919e+00 -1.652074e-01 0.0
1.530982e+00 -1.297977e-01 0.0
1.545180e+00 -1.101947e-01 0.0
1.559450e+00 -1.006096e-01 0.0
1.575880e+00 -9.557640e-02 0.0
1.594995e+00 -8.871890e-02 0.0
1.614877e+00 -7.385390e-02 0.0
1.631615e+00 -4.842368e-02 0.0
1.640763e+00 -1.558151e-02 0.0
1.641181e+00 1.625523e-02 0.0
1.634692e+00 4.263497e-02 0.0
1.622953e+00 6.377339e-02 0.0
1.607300e+00 8.081568e-02 0.0
1.588384e+00 9.574746e-02 0.0
1.566246e+00 1.104526e-01 0.0
1.540489e+00 1.262955e-01 0.0
1.510488e+00 1.439037e-01 0.0
1.475648e+00 1.630935e-01 0.0
1.435614e+00 1.830199e-01 0.0
1.390436e+00 2.024759e-01 0.0
1.340628e+00 2.201996e-01 0.0
1.287115e+00 2.349758e-01 0.0
1.231096e+00 2.452804e-01 0.0
1.174190e+00 2.482449e-01 0.0
1.119034e+00 2.388448e-01 0.0
1.068509e+00 2.126109e-01 0.0
1.023320e+00 1.693764e-01 0.0
9.807812e-01 1.144390e-01 0.0
9.401873e-01 5.266422e-02 0.0
9.089525e-01 -1.711433e-02 0.0
8.956619e-01 -9.619188e-02 0.0
9.033013e-01 -1.817780e-01 0.0
9.287733e-01 -2.632593e-01 0.0
9.677612e-01 -3.263995e-01 0.0
1.017853e+00 -3.554951e-01 0.0
1.074587e+00 -3.385975e-01 0.0
1.131972e+00 -2.757161e-01 0.0
1.183003e+00 -1.782227e-01 0.0
1.220627e+00 -6.660635e-02 0.0
1.240647e+00 3.666440e-02 0.0
1.244926e+00 1.216773e-01 0.0
1.236074e+00 1.879147e-01 0.0
1.216764e+00 2.358228e-01 0.0
1.189608e+00 2.656950e-01 0.0
1.156992e+00 2.771467e-01 0.0
1.121236e+00 2.690824e-01 0.0
1.085222e+00 2.421277e-01 0.0
1.051695e+00 1.999089e-01 0.0
1.022971e+00 1.479287e-01 0.0
1.000771e+00 9.217887e-02 0.0
9.858143e-01 3.807572e-02 0.0
9.783259e-01 -1.001358e-02 0.0
9.779649e-01 -4.938436e-02 0.0
9.840573e-01 -7.988686e-02 0.0
9.955667e-01 -1.022136e-01 0.0
1.011212e+00 -1.169106e-01 0.0
1.029527e+00 -1.244000e-01 0.0
1.048931e+00 -1.252209e-01 0.0
1.067942e+00 -1.201742e-01 0.0
1.085275e+00 -1.100997e-01 0.0
1.099898e+00 -9.592982e-02 0.0
1.111023e+00 -7.864907e-02 0.0
1.118054e+00 -5.921521e-02 0.0
1.120432e+00 -3.838821e-02 0.0
1.117361e+00 -1.636007e-02 0.0
1.107930e+00 7.249777e-03 0.0
1.092418e+00 3.134152e-02 0.0
1.071862e+00 5.450366e-02 0.0
1.048397e+00 7.469436e-02 0.0
1.025407e+00 8.896708e-02 0.0
1.007078e+00 9.391770e-02 0.0
9.965237e-01 8.762417e-02 0.0
9.939261e-01 7.178613e-02 0.0
9.978109e-01 4.974197e-02 0.0
1.005929e+00 2.554063e-02 0.0
1.016067e+00 3.014972e-03 0.0
1.026876e+00 -1.534187e-02 0.0
1.037817e+00 -2.875002e-02 0.0
1.048644e+00 -3.720802e-02 0.0
1.059170e+00 -4.127535e-02 0.0
1.069194e+00 -4.187477e-02 0.0
1.078467e+00 -3.999250e-02 0.0
1.086757e+00 -3.647757e-02 0.0
1.093915e+00 -3.206237e-02 0.0
1.099884e+00 -2.733138e-02 0.0
1.104691e+00 -2.270659e-02 0.0
1.108420e+00 -1.843927e-02 0.0
1.111179e+00 -1.460818e-02 0.0
1.113072e+00 -1.112356e-02 0.0
1.114146e+00 -7.775830e-03 0.0
1.114248e+00 -2.939972e-03 0.0
0.000000e+00 -2.433508e-03 0.0
1.000000e+00 -9.398232e-02 0.0
1.009272e+00 -9.362013e-02 0.0
1.021037e+00 -1.077917e-01 0.0
1.038518e+00 -1.382925e-01 0.0
1.067586e+00 -1.895329e-01 0.0
1.118699e+00 -2.685720e-01 0.0
1.206593e+00 -3.702374e-01 0.0
1.381214e+00 -5.741851e-01 0.0
1.433116e+00 -3.684447e-01 0.0
1.437964e+00 -2.297774e-01 0.0
1.432141e+00 -1.594303e-01 0.0
1.423873e+00 -1.215752e-01 0.0
1.415168e+00 -1.015349e-01 0.0
1.408229e+00 -9.371669e-02 0.0
1.406492e+00 -9.388495e-02 0.0
1.413515e+00 -9.578740e-02 0.0
1.429655e+00 -9.003907e-02 0.0
1.451495e+00 -7.030936e-02 0.0
1.472914e+00 -3.704638e-02 0.0
1.485635e+00 3.489457e-03 0.0
1.490253e+00 3.797108e-02 0.0
1.489144e+00 6.483635e-02 0.0
1.484268e+00 8.564697e-02 0.0
1.476474e+00 1.034951e-01 0.0
1.465730e+00 1.211518e-01 0.0
1.451428e+00 1.405512e-01 0.0
1.432624e+00 1.626624e-01 0.0
1.408371e+00 1.873012e-01 0.0
1.378016e+00 2.133291e-01 0.0
1.341418e+00 2.390285e-01 0.0
1.299049e+00 2.625223e-01 0.0
1.251967e+00 2.820131e-01 0.0
1.201574e+00 2.956273e-01 0.0
1.149330e+00 3.004429e-01 0.0
1.097007e+00 2.911227e-01 0.0
1.045899e+00 2.636729e-01 0.0
9.946241e-01 2.206057e-01 0.0
9.399860e-01 1.690314e-01 0.0
8.859533e-01 1.066512e-01 0.0
8.481734e-01 2.061996e-02 0.0
8.384101e-01 -8.647423e-02 0.0
8.500309e-01 -1.934445e-01 0.0
8.722409e-01 -2.855150e-01 0.0
8.994038e-01 -3.536080e-01 0.0
9.305504e-01 -3.866875e-01 0.0
9.657692e-01 -3.738619e-01 0.0
1.003824e+00 -3.138163e-01 0.0
1.041931e+00 -2.163753e-01 0.0
1.075508e+00 -1.002294e-01 0.0
1.099198e+00 1.292895e-02 0.0
1.111926e+00 1.089029e-01 0.0
1.114645e+00 1.851507e-01 0.0
1.108906e+00 2.415161e-01 0.0
1.096534e+00 2.780211e-01 0.0
1.079357e+00 2.942773e-01 0.0
1.058819e+00 2.895755e-01 0.0
1.036545e+00 2.643553e-01 0.0
1.014294e+00 2.221139e-01 0.0
9.937175e-01 1.684599e-01 0.0
9.761182e-01 1.097324e-01 0.0
9.624774e-01 5.167081e-02 0.0
9.538638e-01 -1.445770e-03 0.0
9.512055e-01 -4.677188e-02 0.0
9.545729e-01 -8.330003e-02 0.0
9.632137e-01 -1.109003e-01 0.0
9.758400e-01 -1.295827e-01 0.0
9.909003e-01 -1.395061e-01 0.0
1.006769e+00 -1.411351e-01 0.0
1.021889e+00 -1.353408e-01 0.0
1.034954e+00 -1.232098e-01 0.0
1.044948e+00 -1.059700e-01 0.0
1.051103e+00 -8.485029e-02 0.0
1.052761e+00 -6.091867e-02 0.0
1.049146e+00 -3.481893e-02 0.0
1.039166e+00 -6.426286e-03 0.0
1.022987e+00 2.338289e-02 0.0
1.001960e+00 5.232268e-02 0.0
9.784858e-01 7.793236e-02 0.0
9.561054e-01 9.702895e-02 0.0
9.389239e-01 1.061027e-01 0.0
9.299494e-01 1.028464e-01 0.0
9.288315e-01 8.869620e-02 0.0
9.336121e-01 6.695964e-02 0.0
9.418073e-01 4.150091e-02 0.0
9.512922e-01 1.600993e-02 0.0
9.608588e-01 -6.597583e-03 0.0
9.704540e-01 -2.498290e-02 0.0
9.802633e-01 -3.860524e-02 0.0
9.903900e-01 -4.738059e-02 0.0
1.000727e+00 -5.165825e-02 0.0
1.010959e+00 -5.215234e-02 0.0
1.020663e+00 -4.974233e-02 0.0
1.029458e+00 -4.531858e-02 0.0
1.037061e+00 -3.971135e-02 0.0
1.043307e+00 -3.362335e-02 0.0
1.048138e+00 -2.758324e-02 0.0
1.051575e+00 -2.192252e-02 0.0
1.053695e+00 -1.677442e-02 0.0
1.054631e+00 -1.210510e-02 0.0
1.054517e+00 -7.707524e-03 0.0
1.054016e+00 -2.484819e-03 0.0
0.000000e+00 -1.739250e-03 0.0
1.000000e+00 -9.556015e-02 0.0
1.001367e+00 -9.516171e-02 0.0
1.003857e+00 -1.103271e-01 0.0
1.009369e+00 -1.438496e-01 0.0
1.023012e+00 -2.032217e-01 0.0
1.056770e+00 -3.023752e-01 0.0
1.137851e+00 -4.513639e-01 0.0
1.343976e+00 -7.803554e-01 0.0
1.318692e+00 -3.432062e-01 0.0
1.258305e+00 -1.694361e-01 0.0
1.209476e+00 -1.106466e-01 0.0
1.168201e+00 -8.034557e-02 0.0
1.128803e+00 -6.218313e-02 0.0
1.089571e+00 -5.453029e-02 0.0
1.053965e+00 -5.832425e-02 0.0
1.032996e+00 -7.486429e-02 0.0
1.034046e+00 -9.113456e-02 0.0
1.055540e+00 -9.184881e-02 0.0
1.092078e+00 -7.362977e-02 0.0
1.134757e+00 -3.923518e-02 0.0
1.169076e+00 3.606912e-03 0.0
1.193581e+00 4.028559e-02 0.0
1.213364e+00 6.581802e-02 0.0
1.229923e+00 8.689091e-02 0.0
1.243200e+00 1.078297e-01 0.0
1.252361e+00 1.313443e-01 0.0
1.255925e+00 1.590530e-01 0.0
1.252401e+00 1.907788e-01 0.0
1.240696e+00 2.249887e-01 0.0
1.220403e+00 2.592762e-01 0.0
1.191935e+00 2.909449e-01 0.0
1.156575e+00 3.173270e-01 0.0
1.116396e+00 3.357606e-01 0.0
1.073102e+00 3.436917e-01 0.0
1.024391e+00 3.397877e-01 0.0
9.617535e-01 3.262648e-01 0.0
8.803319e-01 3.019817e-01 0.0
7.990656e-01 2.502521e-01 0.0
7.532114e-01 1.524598e-01 0.0
7.534091e-01 2.037661e-02 0.0
7.784527e-01 -1.115635e-01 0.0
8.075126e-01 -2.225501e-01 0.0
8.321233e-01 -3.101714e-01 0.0
8.521337e-01 -3.736641e-01 0.0
8.706573e-01 -4.052568e-01 0.0
8.904785e-01 -3.937288e-01 0.0
9.128171e-01 -3.362007e-01 0.0
9.376384e-01 -2.412423e-01 0.0
9.628635e-01 -1.255002e-01 0.0
9.842429e-01 -8.496167e-03 0.0
9.989044e-01 9.419574e-02 0.0
1.006510e+00 1.774996e-01 0.0
1.007729e+00 2.402506e-01 0.0
1.003747e+00 2.819580e-01 0.0
9.959024e-01 3.020759e-01 0.0
9.851563e-01 3.002758e-01 0.0
9.722840e-01 2.771819e-01 0.0
9.581419e-01 2.362102e-01 0.0
9.437069e-01 1.828492e-01 0.0
9.301839e-01 1.232096e-01 0.0
9.191249e-01 6.268403e-02 0.0
9.122921e-01 5.341183e-03 0.0
9.111492e-01 -4.567473e-02 0.0
9.158567e-01 -8.805330e-02 0.0
9.253846e-01 -1.204740e-01 0.0
9.381336e-01 -1.423775e-01 0.0
9.523795e-01 -1.537978e-01 0.0
9.664833e-01 -1.552846e-01 0.0
9.789165e-01 -1.478198e-01 0.0
9.884317e-01 -1.327708e-01 0.0
9.940784e-01 -1.116625e-01 0.0
9.951067e-01 -8.592443e-02 0.0
9.907878e-01 -5.664563e-02 0.0
9.802480e-01 -2.432501e-02 0.0
9.632757e-01 1.050016e-02 0.0
9.417503e-01 4.486247e-02 0.0
9.182835e-01 7.574361e-02 0.0
8.964069e-01 9.976311e-02 0.0
8.799199e-01 1.134701e-01 0.0
8.714496e-01 1.145272e-01 0.0
8.704553e-01 1.037948e-01 0.0
8.746746e-01 8.443102e-02 0.0
8.816087e-01 5.997969e-02 0.0
8.892841e-01 3.377963e-02 0.0
8.967681e-01 8.480022e-03 0.0
9.042891e-01 -1.416447e-02 0.0
9.124838e-01 -3.322347e-02 0.0
9.217437e-01 -4.791097e-02 0.0
9.320766e-01 -5.775942e-02 0.0
9.431433e-01 -6.277083e-02 0.0
9.543603e-01 -6.341514e-02 0.0
9.650792e-01 -6.050715e-02 0.0
9.747292e-01 -5.501451e-02 0.0
9.828761e-01 -4.790414e-02 0.0
9.892329e-01 -4.002594e-02 0.0
9.936446e-01 -3.204091e-02 0.0
9.960709e-01 -2.439469e-02 0.0
9.965870e-01 -1.733636e-02 0.0
9.954394e-01 -1.100344e-02 0.0
9.930736e-01 -5.387541e-03 0.0
9.916909e-01 -1.148049e-03 0.0
0.000000e+00 -1.325266e-04 0.0
1.000000e+00 -8.854391e-02 0.0
9.927888e-01 -8.812486e-02 0.0
9.844188e-01 -1.020026e-01 0.0
9.737370e-01 -1.332134e-01 0.0
9.610325e-01 -1.905627e-01 0.0
9.510913e-01 -2.924795e-01 0.0
9.699182e-01 -4.702364e-01 0.0
1.119478e+00 -9.299610e-01 0.0
9.560881e-01 -1.797326e-01 0.0
8.035965e-01 -1.686119e-02 0.0
7.184967e-01 -2.559233e-02 0.0
6.572136e-01 -1.910803e-02 0.0
5.983142e-01 -3.329241e-03 0.0
5.315079e-01 1.223050e-02 0.0
4.623885e-01 1.074959e-02 0.0
4.160463e-01 -2.856763e-02 0.0
4.106602e-01 -8.579394e-02 0.0
4.427005e-01 -1.239347e-01 0.0
4.979991e-01 -1.289740e-01 0.0
5.694126e-01 -1.106942e-01 0.0
6.496242e-01 -7.665031e-02 0.0
7.266505e-01 -3.678627e-02 0.0
7.912602e-01 1.162758e-03 0.0
8.463172e-01 3.178836e-02 0.0
8.956254e-01 5.847597e-02 0.0
9.391922e-01 8.773193e-02 0.0
9.747848e-01 1.234149e-01 0.0
1.000230e+00 1.652876e-01 0.0
1.013855e+00 2.113190e-01 0.0
1.014823e+00 2.582619e-01 0.0
1.003005e+00 3.027172e-01 0.0
9.785826e-01 3.417041e-01 0.0
9.412132e-01 3.730844e-01 0.0
8.883684e-01 3.964909e-01 0.0
8.136638e-01 4.144466e-01 0.0
7.200813e-01 4.198017e-01 0.0
6.411613e-01 3.808561e-01 0.0
6.143014e-01 2.770663e-01 0.0
6.417441e-01 1.249714e-01 0.0
6.950007e-01 -3.292571e-02 0.0
7.472842e-01 -1.638927e-01 0.0
7.879413e-01 -2.632528e-01 0.0
8.139534e-01 -3.362292e-01 0.0
8.279988e-01 -3.877552e-01 0.0
8.361001e-01 -4.134038e-01 0.0
8.436280e-01 -4.013023e-01 0.0
8.532964e-01 -3.459148e-01 0.0
8.662021e-01 -2.541938e-01 0.0
8.818148e-01 -1.411587e-01 0.0
8.973911e-01 -2.411809e-02 0.0
9.096762e-01 8.186484e-02 0.0
9.175050e-01 1.696252e-01 0.0
9.208831e-01 2.368267e-01 0.0
9.204724e-01 2.823229e-01 0.0
9.171597e-01 3.053429e-01 0.0
9.114863e-01 3.059034e-01 0.0
9.035846e-01 2.850378e-01 0.0
8.937237e-01 2.460254e-01 0.0
8.827752e-01 1.937518e-01 0.0
8.724971e-01 1.334420e-01 0.0
8.652404e-01 6.989495e-02 0.0
8.630890e-01 7.446769e-03 0.0
8.670460e-01 -4.967756e-02 0.0
8.764203e-01 -9.747335e-02 0.0
8.894525e-01 -1.335520e-01 0.0
9.041879e-01 -1.571588e-01 0.0
9.188748e-01 -1.685306e-01 0.0
9.320012e-01 -1.684568e-01 0.0
9.422183e-01 -1.580827e-01 0.0
9.484274e-01 -1.390258e-01 0.0
9.497611e-01 -1.130419e-01 0.0
9.454952e-01 -8.170440e-02 0.0
9.349760e-01 -4.617229e-02 0.0
9.179459e-01 -7.340696e-03 0.0
8.964318e-01 3.196839e-02 0.0
8.733102e-01 6.793822e-02 0.0
8.519659e-01 9.704210e-02 0.0
8.357674e-01 1.159157e-01 0.0
8.268413e-01 1.223504e-01 0.0
8.247343e-01 1.165883e-01 0.0
8.271158e-01 1.013675e-01 0.0
8.316532e-01 7.984767e-02 0.0
8.366271e-01 5.495993e-02 0.0
8.413527e-01 2.900820e-02 0.0
8.461843e-01 3.602569e-03 0.0
8.521135e-01 -2.013961e-02 0.0
8.598432e-01 -4.099901e-02 0.0
8.695215e-01 -5.763515e-02 0.0
8.808154e-01 -6.909921e-02 0.0
8.930626e-01 -7.506393e-02 0.0
9.054307e-01 -7.582905e-02 0.0
9.170715e-01 -7.219385e-02 0.0
9.272576e-01 -6.524645e-02 0.0
9.354254e-01 -5.611783e-02 0.0
9.411789e-01 -4.582535e-02 0.0
9.442873e-01 -3.519518e-02 0.0
9.447047e-01 -2.485800e-02 0.0
9.426394e-01 -1.531694e-02 0.0
9.386977e-01 -7.107665e-03 0.0
9.340402e-01 -7.759176e-04 0.0
9.319507e-01 8.955474e-04 0.0
0.000000e+00 2.100143e-03 0.0
1.000000e+00 -7.360702e-02 0.0
9.848819e-01 -7.318116e-02 0.0
9.660097e-01 -8.317583e-02 0.0
9.380903e-01 -1.053395e-01 0.0
8.924522e-01 -1.449701e-01 0.0
8.117666e-01 -2.118394e-01 0.0
6.697480e-01 -3.282632e-01 0.0
1.799904e-01 -4.401200e-01 0.0
-9.544656e-01 4.409383e-01 0.0
0.000000e+00 -9.506659e-03 0.0
-5.230942e-02 9.681461e-03 0.0
-6.293678e-02 -8.526199e-03 0.0
-4.320920e-02 -2.310235e-02 0.0
-3.184075e-03 -2.784015e-02 0.0
2.085403e-02 -1.333405e-02 0.0
1.816594e-02 -2.592507e-02 0.0
1.840835e-03 -6.951437e-02 0.0
2.072255e-04 -1.223466e-01 0.0
2.985022e-02 -1.586625e-01 0.0
8.751105e-02 -1.684006e-01 0.0
1.689097e-01 -1.580946e-01 0.0
2.651013e-01 -1.330234e-01 0.0
3.670155e-01 -1.007970e-01 0.0
4.654684e-01 -6.671009e-02 0.0
5.502897e-01 -2.639091e-02 0.0
6.198413e-01 1.813473e-02 0.0
6.777562e-01 6.545443e-02 0.0
7.225497e-01 1.204485e-01 0.0
7.518166e-01 1.820066e-01 0.0
7.639433e-01 2.460895e-01 0.0
7.575438e-01 3.090712e-01 0.0
7.308780e-01 3.683242e-01 0.0
6.816788e-01 4.222380e-01 0.0
6.091514e-01 4.689726e-01 0.0
5.252922e-01 4.982602e-01 0.0
4.691216e-01 4.759267e-01 0.0
4.674239e-01 3.825082e-01 0.0
5.179318e-01 2.265128e-01 0.0
5.971548e-01 4.570275e-02 0.0
6.756835e-01 -1.115001e-01 0.0
7.416836e-01 -2.299384e-01 0.0
7.898959e-01 -3.115107e-01 0.0
8.180078e-01 -3.643868e-01 0.0
8.277062e-01 -3.974993e-01 0.0
8.261767e-01 -4.119200e-01 0.0
8.223320e-01 -3.975033e-01 0.0
8.208858e-01 -3.445142e-01 0.0
8.232125e-01 -2.565662e-01 0.0
8.292232e-01 -1.472151e-01 0.0
8.372729e-01 -3.221354e-02 0.0
8.446129e-01 7.447917e-02 0.0
8.496822e-01 1.645102e-01 0.0
8.520110e-01 2.344521e-01 0.0
8.517867e-01 2.825016e-01 0.0
8.493757e-01 3.077081e-01 0.0
8.448536e-01 3.103798e-01 0.0
8.380363e-01 2.918093e-01 0.0
8.293475e-01 2.546684e-01 0.0
8.204128e-01 2.026407e-01 0.0
8.138625e-01 1.399465e-01 0.0
8.123065e-01 7.140523e-02 0.0
8.172739e-01 2.433562e-03 0.0
8.284728e-01 -6.092228e-02 0.0
8.440205e-01 -1.130668e-01 0.0
8.614929e-01 -1.510702e-01 0.0
8.787292e-01 -1.744408e-01 0.0
8.940880e-01 -1.839353e-01 0.0
9.062928e-01 -1.807073e-01 0.0
9.143105e-01 -1.661463e-01 0.0
9.172742e-01 -1.420353e-01 0.0
9.144565e-01 -1.102700e-01 0.0
9.053043e-01 -7.259807e-02 0.0
8.897274e-01 -3.064124e-02 0.0
8.693043e-01 1.303655e-02 0.0
8.472376e-01 5.398925e-02 0.0
8.266697e-01 8.846024e-02 0.0
8.105005e-01 1.131655e-01 0.0
8.004518e-01 1.259186e-01 0.0
7.962384e-01 1.265180e-01 0.0
7.958152e-01 1.169656e-01 0.0
7.971443e-01 9.999256e-02 0.0
7.988158e-01 7.813031e-02 0.0
8.003522e-01 5.337759e-02 0.0
8.021739e-01 2.714071e-02 0.0
8.052640e-01 4.665906e-04 0.0
8.106272e-01 -2.554868e-02 0.0
8.186483e-01 -4.906600e-02 0.0
8.291098e-01 -6.814257e-02 0.0
8.413607e-01 -8.139596e-02 0.0
8.544973e-01 -8.824642e-02 0.0
8.675126e-01 -8.889022e-02 0.0
8.794298e-01 -8.415698e-02 0.0
8.894259e-01 -7.528839e-02 0.0
8.968607e-01 -6.359856e-02 0.0
9.012891e-01 -5.029962e-02 0.0
9.024975e-01 -3.644940e-02 0.0
9.005958e-01 -2.300224e-02 0.0
8.961677e-01 -1.093469e-02 0.0
8.904203e-01 -1.406120e-03 0.0
8.851976e-01 4.400816e-03 0.0
8.830540e-01 2.993291e-03 0.0
0.000000e+00 4.289068e-03 0.0
1.000000e+00 -5.299633e-02 0.0
9.792189e-01 -5.257446e-02 0.0
9.530334e-01 -5.703579e-02 0.0
9.136448e-01 -6.599632e-02 0.0
8.472568e-01 -7.862761e-02 0.0
7.246608e-01 -8.928888e-02 0.0
4.735859e-01 -7.723381e-02 0.0
-4.213078e-03 3.776242e-02 0.0
-1.252134e-04 0.000000e+00 0.0
0.000000e+00 -0.000000e+00 0.0
0.000000e+00 6.468545e-03 0.0
2.764942e-03 -1.133666e-02 0.0
-4.435510e-02 2.397217e-02 0.0
-9.317435e-02 2.093357e-02 0.0
-1.329716e-01 2.641766e-02 0.0
-1.653213e-01 6.379154e-03 0.0
-1.989603e-01 -3.592093e-02 0.0