# vtk DataFile Version 3.0
Scalar Field
ASCII
DATASET RECTILINEAR_GRID
DIMENSIONS 102 22 1
X_COORDINATES 102 double
0.000000 0.100000 0.200000 0.300000 0.400000 0.500000 0.600000 0.700000 0.800000 0.900000 1.000000 1.100000 1.200000 1.300000 1.400000 1.500000 1.600000 1.700000 1.800000 1.900000 2.000000 2.100000 2.200000 2.300000 2.400000 2.500000 2.600000 2.700000 2.800000 2.900000 3.000000 3.100000 3.200000 3.300000 3.400000 3.500000 3.600000 3.700000 3.800000 3.900000 4.000000 4.100000 4.200000 4.300000 4.400000 4.500000 4.600000 4.700000 4.800000 4.900000 5.000000 5.100000 5.200000 5.300000 5.400000 5.500000 5.600000 5.700000 5.800000 5.900000 6.000000 6.100000 6.200000 6.300000 6.400000 6.500000 6.600000 6.700000 6.800000 6.900000 7.000000 7.100000 7.200000 7.300000 7.400000 7.500000 7.600000 7.700000 7.800000 7.900000 8.000000 8.100000 8.200000 8.300000 8.400000 8.500000 8.600000 8.700000 8.800000 8.900000 9.000000 9.100000 9.200000 9.300000 9.400000 9.500000 9.600000 9.700000 9.800000 9.900000 10.000000 10.100000 
Y_COORDINATES 22 double
0.000000 0.100000 0.200000 0.300000 0.400000 0.500000 0.600000 0.700000 0.800000 0.900000 1.000000 1.100000 1.200000 1.300000 1.400000 1.500000 1.600000 1.700000 1.800000 1.900000 2.000000 2.100000 
Z_COORDINATES 1 double
0.0
POINT_DATA 2244
SCALARS Pressure double 1
LOOKUP_TABLE default
0.000000e+00
0.000000e+00
0.000000e+00
0.000000e+00
0.000000e+00
0.000000e+00
0.000000e+00
0.000000e+00
0.000000e+00
0.000000e+00
-9.000340e+02
-9.000488e+02
-9.000529e+02
-9.000558e+02
-9.000580e+02
-9.000591e+02
-9.000581e+02
-9.000536e+02
-9.000442e+02
-9.000280e+02
-9.000036e+02
-8.999702e+02
-8.999291e+02
-8.998840e+02
-8.998395e+02
-8.998002e+02
-8.997687e+02
-8.997462e+02
-8.997322e+02
-8.997252e+02
-8.997233e+02
-8.997246e+02
-8.997280e+02
-8.997325e+02
-8.997374e+02
-8.997426e+02
-8.997478e+02
-8.997529e+02
-8.997578e+02
-8.997625e+02
-8.997669e+02
-8.997712e+02
-8.997753e+02
-8.997792e+02
-8.997830e+02
-8.997866e+02
-8.997901e+02
-8.997935e+02
-8.997968e+02
-8.998000e+02
-8.998031e+02
-8.998061e+02
-8.998090e+02
-8.998119e+02
-8.998147e+02
-8.998175e+02
-8.998201e+02
-8.998228e+02
-8.998253e+02
-8.998279e+02
-8.998303e+02
-8.998328e+02
-8.998351e+02
-8.998374e+02
-8.998397e+02
-8.998419e+02
-8.998441e+02
-8.998462e+02
-8.998483e+02
-8.998504e+02
-8.998523e+02
-8.998543e+02
-8.998562e+02
-8.998581e+02
-8.998599e+02
-8.998616e+02
-8.998634e+02
-8.998650e+02
-8.998667e+02
-8.998683e+02
-8.998698e+02
-8.998713e+02
-8.998728e+02
-8.998742e+02
-8.998755e+02
-8.998769e+02
-8.998781e+02
-8.998794e+02
-8.998806e+02
-8.998817e+02
-8.998828e+02
-8.998839e+02
-8.998849e+02
-8.998859e+02
-8.998869e+02
-8.998878e+02
-8.998888e+02
-8.998897e+02
-8.998907e+02
-8.998917e+02
-8.998926e+02
0.000000e+00
0.000000e+00
0.000000e+00
0.000000e+00
0.000000e+00
0.000000e+00
0.000000e+00
0.000000e+00
0.000000e+00
0.000000e+00
0.000000e+00
-9.000488e+02
-9.000636e+02
-9.000677e+02
-9.000706e+02
-9.000729e+02
-9.000739e+02
-9.000729e+02
-9.000685e+02
-9.000590e+02
-9.000428e+02
-9.000184e+02
-8.999851e+02
-8.999439e+02
-8.998988e+02
-8.998543e+02
-8.998150e+02
-8.997836e+02
-8.997610e+02
-8.997470e+02
-8.997400e+02
-8.997381e+02
-8.997394e+02
-8.997428e+02
-8.997473e+02
-8.997522e+02
-8.997574e+02
-8.997626e+02
-8.997677e+02
-8.997726e+02
-8.997773e+02
-8.997817e+02
-8.997860e+02
-8.997901e+02
-8.997940e+02
-8.997978e+02
-8.998014e+02
-8.998049e+02
-8.998083e+02
-8.998116e+02
-8.998148e+02
-8.998179e+02
-8.998209e+02
-8.998238e+02
-8.998267e+02
-8.998295e+02
-8.998323e+02
-8.998350e+02
-8.998376e+02
-8.998402e+02
-8.998427e+02
-8.998451e+02
-8.998476e+02
-8.998499e+02
-8.998522e+02
-8.998545e+02
-8.998567e+02
-8.998589e+02
-8.998610e+02
-8.998631e+02
-8.998652e+02
-8.998672e+02
-8.998691e+02
-8.998710e+02
-8.998729e+02
-8.998747e+02
-8.998764e+02
-8.998782e+02
-8.998798e+02
-8.998815e+02
-8.998831e+02
-8.998846e+02
-8.998861e+02
-8.998876e+02
-8.998890e+02
-8.998903e+02
-8.998917e+02
-8.998929e+02
-8.998942e+02
-8.998954e+02
-8.998965e+02
-8.998976e+02
-8.998987e+02
-8.998997e+02
-8.999007e+02
-8.999017e+02
-8.999027e+02
-8.999036e+02
-8.999046e+02
-8.999055e+02
-8.999065e+02
-8.999074e+02
-8.998926e+02
0.000000e+00
0.000000e+00
0.000000e+00
0.000000e+00
0.000000e+00
0.000000e+00
0.000000e+00
0.000000e+00
0.000000e+00
0.000000e+00
-9.000484e+02
-9.000632e+02
-9.000663e+02
-9.000687e+02
-9.000709e+02
-9.000726e+02
-9.000727e+02
-9.000700e+02
-9.000626e+02
-9.000488e+02
-9.000268e+02
-8.999953e+02
-8.999551e+02
-8.999095e+02
-8.998636e+02
-8.998222e+02
-8.997880e+02
-8.997641e+02
-8.997496e+02
-8.997424e+02
-8.997402e+02
-8.997413e+02
-8.997444e+02
-8.997486e+02
-8.997535e+02
-8.997586e+02
-8.997637e+02
-8.997687e+02
-8.997735e+02
-8.997781e+02
-8.997825e+02
-8.997867e+02
-8.997908e+02
-8.997947e+02
-8.997984e+02
-8.998020e+02
-8.998055e+02
-8.998089e+02
-8.998122e+02
-8.998154e+02
-8.998184e+02
-8.998215e+02
-8.998244e+02
-8.998273e+02
-8.998301e+02
-8.998328e+02
-8.998355e+02
-8.998381e+02
-8.998407e+02
-8.998432e+02
-8.998457e+02
-8.998481e+02
-8.998505e+02
-8.998528e+02
-8.998550e+02
-8.998573e+02
-8.998594e+02
-8.998616e+02
-8.998637e+02
-8.998657e+02
-8.998677e+02
-8.998696e+02
-8.998715e+02
-8.998734e+02
-8.998752e+02
-8.998770e+02
-8.998787e+02
-8.998804e+02
-8.998820e+02
-8.998836e+02
-8.998851e+02
-8.998866e+02
-8.998881e+02
-8.998895e+02
-8.998909e+02
-8.998922e+02
-8.998935e+02
-8.998947e+02
-8.998959e+02
-8.998970e+02
-8.998981e+02
-8.998992e+02
-8.999002e+02
-8.999012e+02
-8.999022e+02
-8.999032e+02
-8.999041e+02
-8.999051e+02
-8.999061e+02
-8.999071e+02
-8.999079e+02
-8.998931e+02
0.000000e+00
0.000000e+00
0.000000e+00
0.000000e+00
0.000000e+00
0.000000e+00
0.000000e+00
0.000000e+00
0.000000e+00
0.000000e+00
-9.000485e+02
-9.000633e+02
-9.000663e+02
-9.000689e+02
-9.000720e+02
-9.000751e+02
-9.000774e+02
-9.000777e+02
-9.000742e+02
-9.000647e+02
-9.000469e+02
-9.000173e+02
-8.999758e+02
-8.999265e+02
-8.998760e+02
-8.998283e+02
-8.997915e+02
-8.997666e+02
-8.997517e+02
-8.997443e+02
-8.997420e+02
-8.997429e+02
-8.997459e+02
-8.997500e+02
-8.997546e+02
-8.997595e+02
-8.997644e+02
-8.997692e+02
-8.997739e+02
-8.997785e+02
-8.997828e+02
-8.997870e+02
-8.997910e+02
-8.997948e+02
-8.997986e+02
-8.998021e+02
-8.998056e+02
-8.998089e+02
-8.998122e+02
-8.998154e+02
-8.998184e+02
-8.998214e+02
-8.998244e+02
-8.998272e+02
-8.998300e+02
-8.998328e+02
-8.998354e+02
-8.998381e+02
-8.998406e+02
-8.998431e+02
-8.998456e+02
-8.998480e+02
-8.998504e+02
-8.998527e+02
-8.998550e+02
-8.998572e+02
-8.998594e+02
-8.998615e+02
-8.998636e+02
-8.998656e+02
-8.998676e+02
-8.998695e+02
-8.998714e+02
-8.998733e+02
-8.998751e+02
-8.998769e+02
-8.998786e+02
-8.998803e+02
-8.998819e+02
-8.998835e+02
-8.998851e+02
-8.998866e+02
-8.998880e+02
-8.998894e+02
-8.998908e+02
-8.998921e+02
-8.998934e+02
-8.998946e+02
-8.998958e+02
-8.998969e+02
-8.998981e+02
-8.998991e+02
-8.999001e+02
-8.999011e+02
-8.999021e+02
-8.999030e+02
-8.999039e+02
-8.999049e+02
-8.999058e+02
-8.999069e+02
-8.999074e+02
-8.998926e+02
0.000000e+00
0.000000e+00
0.000000e+00
0.000000e+00
0.000000e+00
0.000000e+00
0.000000e+00
0.000000e+00
0.000000e+00
0.000000e+00
-9.000516e+02
-9.000664e+02
-9.000694e+02
-9.000726e+02
-9.000766e+02
-9.000813e+02
-9.000860e+02
-9.000896e+02
-9.000904e+02
-9.000859e+02
-9.000728e+02
-9.000436e+02
-8.999990e+02
-8.999442e+02
-8.998868e+02
-8.998350e+02
-8.997963e+02
-8.997704e+02
-8.997549e+02
-8.997471e+02
-8.997445e+02
-8.997453e+02
-8.997480e+02
-8.997518e+02
-8.997562e+02
-8.997609e+02
-8.997656e+02
-8.997702e+02
-8.997747e+02
-8.997791e+02
-8.997833e+02
-8.997874e+02
-8.997913e+02
-8.997951e+02
-8.997987e+02
-8.998023e+02
-8.998057e+02
-8.998090e+02
-8.998123e+02
-8.998154e+02
-8.998185e+02
-8.998214e+02
-8.998244e+02
-8.998272e+02
-8.998300e+02
-8.998327e+02
-8.998354e+02
-8.998380e+02
-8.998406e+02
-8.998431e+02
-8.998455e+02
-8.998479e+02
-8.998503e+02
-8.998526e+02
-8.998549e+02
-8.998571e+02
-8.998593e+02
-8.998614e+02
-8.998635e+02
-8.998655e+02
-8.998675e+02
-8.998695e+02
-8.998714e+02
-8.998732e+02
-8.998750e+02
-8.998768e+02
-8.998785e+02
-8.998802e+02
-8.998818e+02
-8.998834e+02
-8.998850e+02
-8.998865e+02
-8.998879e+02
-8.998893e+02
-8.998907e+02
-8.998920e+02
-8.998933e+02
-8.998945e+02
-8.998957e+02
-8.998968e+02
-8.998979e+02
-8.998990e+02
-8.999000e+02
-8.999010e+02
-8.999019e+02
-8.999028e+02
-8.999037e+02
-8.999046e+02
-8.999055e+02
-8.999064e+02
-8.999065e+02
-8.998917e+02
0.000000e+00
0.000000e+00
0.000000e+00
0.000000e+00
0.000000e+00
0.000000e+00
0.000000e+00
0.000000e+00
0.000000e+00
0.000000e+00
-9.000572e+02
-9.000720e+02
-9.000748e+02
-9.000781e+02
-9.000824e+02
-9.000882e+02
-9.000947e+02
-9.001012e+02
-9.001061e+02
-9.001064e+02
-9.000950e+02
-9.000636e+02
-9.000157e+02
-8.999570e+02
-8.998959e+02
-8.998418e+02
-8.998020e+02
-8.997754e+02
-8.997594e+02
-8.997512e+02
-8.997482e+02
-8.997485e+02
-8.997508e+02
-8.997543e+02
-8.997583e+02
-8.997626e+02
-8.997670e+02
-8.997714e+02
-8.997757e+02
-8.997799e+02
-8.997839e+02
-8.997879e+02
-8.997917e+02
-8.997954e+02
-8.997990e+02
-8.998025e+02
-8.998058e+02
-8.998091e+02
-8.998123e+02
-8.998154e+02
-8.998185e+02
-8.998214e+02
-8.998243e+02
-8.998272e+02
-8.998300e+02
-8.998327e+02
-8.998353e+02
-8.998380e+02
-8.998405e+02
-8.998430e+02
-8.998455e+02
-8.998479e+02
-8.998502e+02
-8.998525e+02
-8.998548e+02
-8.998570e+02
-8.998592e+02
-8.998613e+02
-8.998634e+02
-8.998654e+02
-8.998674e+02
-8.998694e+02
-8.998713e+02
-8.998731e+02
-8.998749e+02
-8.998767e+02
-8.998784e+02
-8.998801e+02
-8.998817e+02
-8.998833e+02
-8.998849e+02
-8.998864e+02
-8.998878e+02
-8.998892e+02
-8.998906e+02
-8.998919e+02
-8.998932e+02
-8.998944e+02
-8.998956e+02
-8.998967e+02
-8.998978e+02
-8.998989e+02
-8.998999e+02
-8.999008e+02
-8.999017e+02
-8.999026e+02
-8.999034e+02
-8.999042e+02
-8.999050e+02
-8.999057e+02
-8.999055e+02
-8.998907e+02
0.000000e+00
0.000000e+00
0.000000e+00
0.000000e+00
0.000000e+00
0.000000e+00
0.000000e+00
0.000000e+00
0.000000e+00
0.000000e+00
-9.000638e+02
-9.000786e+02
-9.000805e+02
-9.000827e+02
-9.000863e+02
-9.000921e+02
-9.000995e+02
-9.001077e+02
-9.001153e+02
-9.001192e+02
-9.001077e+02
-9.000755e+02
-9.000256e+02
-8.999646e+02
-8.999015e+02
-8.998476e+02
-8.998083e+02
-8.997817e+02
-8.997655e+02
-8.997567e+02
-8.997531e+02
-8.997528e+02
-8.997545e+02
-8.997574e+02
-8.997610e+02
-8.997648e+02
-8.997688e+02
-8.997729e+02
-8.997769e+02
-8.997808e+02
-8.997847e+02
-8.997885e+02
-8.997922e+02
-8.997958e+02
-8.997993e+02
-8.998027e+02
-8.998060e+02
-8.998092e+02
-8.998124e+02
-8.998155e+02
-8.998185e+02
-8.998214e+02
-8.998243e+02
-8.998272e+02
-8.998299e+02
-8.998326e+02
-8.998353e+02
-8.998379e+02
-8.998404e+02
-8.998429e+02
-8.998454e+02
-8.998478e+02
-8.998501e+02
-8.998525e+02
-8.998547e+02
-8.998569e+02
-8.998591e+02
-8.998612e+02
-8.998633e+02
-8.998653e+02
-8.998673e+02
-8.998693e+02
-8.998712e+02
-8.998730e+02
-8.998748e+02
-8.998766e+02
-8.998783e+02
-8.998800e+02
-8.998816e+02
-8.998832e+02
-8.998848e+02
-8.998863e+02
-8.998877e+02
-8.998891e+02
-8.998905e+02
-8.998918e+02
-8.998931e+02
-8.998943e+02
-8.998955e+02
-8.998966e+02
-8.998977e+02
-8.998988e+02
-8.998998e+02
-8.999007e+02
-8.999016e+02
-8.999024e+02
-8.999031e+02
-8.999038e+02
-8.999044e+02
-8.999050e+02
-8.999045e+02
-8.998896e+02
0.000000e+00
0.000000e+00
0.000000e+00
0.000000e+00
0.000000e+00
0.000000e+00
0.000000e+00
0.000000e+00
0.000000e+00
0.000000e+00
-9.000703e+02
-9.000851e+02
-9.000847e+02
-9.000845e+02
-9.000864e+02
-9.000916e+02
-9.000997e+02
-9.001098e+02
-9.001207e+02
-9.001249e+02
-9.001118e+02
-9.000782e+02
-9.000270e+02
-8.999658e+02
-8.999035e+02
-8.998526e+02
-8.998150e+02
-8.997892e+02
-8.997729e+02
-8.997637e+02
-8.997593e+02
-8.997582e+02
-8.997591e+02
-8.997613e+02
-8.997642e+02
-8.997675e+02
-8.997710e+02
-8.997746e+02
-8.997783e+02
-8.997820e+02
-8.997856e+02
-8.997892e+02
-8.997928e+02
-8.997962e+02
-8.997996e+02
-8.998029e+02
-8.998062e+02
-8.998094e+02
-8.998125e+02
-8.998155e+02
-8.998185e+02
-8.998214e+02
-8.998243e+02
-8.998271e+02
-8.998299e+02
-8.998326e+02
-8.998352e+02
-8.998378e+02
-8.998404e+02
-8.998429e+02
-8.998453e+02
-8.998477e+02
-8.998501e+02
-8.998524e+02
-8.998546e+02
-8.998568e+02
-8.998590e+02
-8.998611e+02
-8.998632e+02
-8.998652e+02
-8.998672e+02
-8.998692e+02
-8.998711e+02
-8.998729e+02
-8.998748e+02
-8.998765e+02
-8.998782e+02
-8.998799e+02
-8.998816e+02
-8.998831e+02
-8.998847e+02
-8.998862e+02
-8.998876e+02
-8.998891e+02
-8.998904e+02
-8.998917e+02
-8.998930e+02
-8.998942e+02
-8.998954e+02
-8.998965e+02
-8.998976e+02
-8.998987e+02
-8.998996e+02
-8.999005e+02
-8.999014e+02
-8.999022e+02
-8.999029e+02
-8.999035e+02
-8.999040e+02
-8.999043e+02
-8.999036e+02
-8.998888e+02
0.000000e+00
0.000000e+00
0.000000e+00
0.000000e+00
0.000000e+00
0.000000e+00
0.000000e+00
0.000000e+00
0.000000e+00
0.000000e+00
-9.000779e+02
-9.000927e+02
-9.000875e+02
-9.000826e+02
-9.000821e+02
-9.000868e+02
-9.000955e+02
-9.001084e+02
-9.001204e+02
-9.001222e+02
-9.001064e+02
-9.000712e+02
-9.000203e+02
-8.999609e+02
-8.999034e+02
-8.998571e+02
-8.998224e+02
-8.997978e+02
-8.997817e+02
-8.997719e+02
-8.997667e+02
-8.997646e+02
-8.997646e+02
-8.997659e+02
-8.997680e+02
-8.997706e+02
-8.997736e+02
-8.997767e+02
-8.997800e+02
-8.997833e+02
-8.997867e+02
-8.997901e+02
-8.997934e+02
-8.997968e+02
-8.998000e+02
-8.998032e+02
-8.998064e+02
-8.998095e+02
-8.998126e+02
-8.998156e+02
-8.998185e+02
-8.998214e+02
-8.998243e+02
-8.998271e+02
-8.998298e+02
-8.998325e+02
-8.998351e+02
-8.998377e+02
-8.998403e+02
-8.998428e+02
-8.998452e+02
-8.998476e+02
-8.998500e+02
-8.998523e+02
-8.998545e+02
-8.998567e+02
-8.998589e+02
-8.998610e+02
-8.998631e+02
-8.998652e+02
-8.998671e+02
-8.998691e+02
-8.998710e+02
-8.998728e+02
-8.998747e+02
-8.998764e+02
-8.998781e+02
-8.998798e+02
-8.998815e+02
-8.998831e+02
-8.998846e+02
-8.998861e+02
-8.998876e+02
-8.998890e+02
-8.998903e+02
-8.998916e+02
-8.998929e+02
-8.998941e+02
-8.998953e+02
-8.998965e+02
-8.998975e+02
-8.998986e+02
-8.998995e+02
-8.999004e+02
-8.999012e+02
-8.999020e+02
-8.999026e+02
-8.999032e+02
-8.999036e+02
-8.999037e+02
-8.999029e+02
-8.998881e+02
0.000000e+00
0.000000e+00
0.000000e+00
0.000000e+00
0.000000e+00
0.000000e+00
0.000000e+00
0.000000e+00
0.000000e+00
0.000000e+00
-9.000919e+02
-9.001067e+02
-9.000898e+02
-9.000772e+02
-9.000742e+02
-9.000793e+02
-9.000895e+02
-9.001033e+02
-9.001126e+02
-9.001102e+02
-9.000914e+02
-9.000557e+02
-9.000072e+02
-8.999526e+02
-8.999027e+02
-8.998619e+02
-8.998304e+02
-8.998075e+02
-8.997916e+02
-8.997813e+02
-8.997751e+02
-8.997719e+02
-8.997708e+02
-8.997711e+02
-8.997723e+02
-8.997742e+02
-8.997765e+02
-8.997791e+02
-8.997820e+02
-8.997849e+02
-8.997880e+02
-8.997911e+02
-8.997943e+02
-8.997974e+02
-8.998005e+02
-8.998036e+02
-8.998067e+02
-8.998097e+02
-8.998127e+02
-8.998157e+02
-8.998186e+02
-8.998215e+02
-8.998243e+02
-8.998270e+02
-8.998298e+02
-8.998324e+02
-8.998351e+02
-8.998376e+02
-8.998402e+02
-8.998427e+02
-8.998451e+02
-8.998475e+02
-8.998499e+02
-8.998522e+02
-8.998544e+02
-8.998566e+02
-8.998588e+02
-8.998609e+02
-8.998630e+02
-8.998651e+02
-8.998670e+02
-8.998690e+02
-8.998709e+02
-8.998728e+02
-8.998746e+02
-8.998763e+02
-8.998781e+02
-8.998797e+02
-8.998814e+02
-8.998830e+02
-8.998845e+02
-8.998860e+02
-8.998875e+02
-8.998889e+02
-8.998902e+02
-8.998916e+02
-8.998928e+02
-8.998941e+02
-8.998952e+02
-8.998964e+02
-8.998974e+02
-8.998985e+02
-8.998994e+02
-8.999003e+02
-8.999011e+02
-8.999018e+02
-8.999025e+02
-8.999029e+02
-8.999032e+02
-8.999033e+02
-8.999024e+02
-8.998876e+02
-8.995186e+02
-8.995334e+02
-8.996046e+02
-8.996614e+02
-8.997151e+02
-8.997664e+02
-8.998162e+02
-8.998663e+02
-8.999194e+02
-8.999779e+02
-9.000798e+02
-9.001361e+02
-9.000884e+02
-9.000689e+02
-9.000659e+02
-9.000719e+02
-9.000817e+02
-9.000916e+02
-9.000958e+02
-9.000890e+02
-9.000683e+02
-9.000342e+02
-8.999904e+02
-8.999440e+02
-8.999023e+02
-8.998671e+02
-8.998391e+02
-8.998178e+02
-8.998023e+02
-8.997915e+02
-8.997843e+02
-8.997799e+02
-8.997776e+02
-8.997768e+02
-8.997771e+02
-8.997782e+02
-8.997798e+02
-8.997819e+02
-8.997842e+02
-8.997868e+02
-8.997895e+02
-8.997923e+02
-8.997952e+02
-8.997982e+02
-8.998011e+02
-8.998041e+02
-8.998071e+02
-8.998100e+02
-8.998129e+02
-8.998158e+02
-8.998187e+02
-8.998215e+02
-8.998243e+02
-8.998270e+02
-8.998297e+02
-8.998324e+02
-8.998350e+02
-8.998376e+02
-8.998401e+02
-8.998426e+02
-8.998450e+02
-8.998474e+02
-8.998498e+02
-8.998521e+02
-8.998543e+02
-8.998565e+02
-8.998587e+02
-8.998608e+02
-8.998629e+02
-8.998650e+02
-8.998670e+02
-8.998689e+02
-8.998708e+02
-8.998727e+02
-8.998745e+02
-8.998762e+02
-8.998780e+02
-8.998797e+02
-8.998813e+02
-8.998829e+02
-8.998844e+02
-8.998859e+02
-8.998874e+02
-8.998888e+02
-8.998902e+02
-8.998915e+02
-8.998928e+02
-8.998940e+02
-8.998952e+02
-8.998963e+02
-8.998974e+02
-8.998984e+02
-8.998993e+02
-8.999002e+02
-8.999010e+02
-8.999017e+02
-8.999023e+02
-8.999028e+02
-8.999030e+02
-8.999030e+02
-8.999021e+02
-8.998873e+02
-8.995334e+02
-8.995482e+02
-8.996194e+02
-8.996762e+02
-8.997299e+02
-8.997812e+02
-8.998311e+02
-8.998811e+02
-8.999342e+02
-8.999927e+02
-9.000532e+02
-9.000857e+02
-9.000738e+02
-9.000617e+02
-9.000580e+02
-9.000609e+02
-9.000666e+02
-9.000713e+02
-9.000708e+02
-9.000612e+02
-9.000409e+02
-9.000109e+02
-8.999740e+02
-8.999369e+02
-8.999026e+02
-8.998728e+02
-8.998481e+02
-8.998284e+02
-8.998132e+02
-8.998019e+02
-8.997938e+02
-8.997883e+02
-8.997849e+02
-8.997830e+02
-8.997823e+02
-8.997825e+02
-8.997834e+02
-8.997849e+02
-8.997867e+02
-8.997888e+02
-8.997912e+02
-8.997937e+02
-8.997963e+02
-8.997991e+02
-8.998018e+02
-8.998047e+02
-8.998075e+02
-8.998103e+02
-8.998132e+02
-8.998160e+02
-8.998188e+02
-8.998216e+02
-8.998243e+02
-8.998270e+02
-8.998297e+02
-8.998323e+02
-8.998349e+02
-8.998375e+02
-8.998400e+02
-8.998425e+02
-8.998449e+02
-8.998473e+02
-8.998497e+02
-8.998520e+02
-8.998542e+02
-8.998565e+02
-8.998586e+02
-8.998608e+02
-8.998628e+02
-8.998649e+02
-8.998669e+02
-8.998688e+02
-8.998707e+02
-8.998726e+02
-8.998744e+02
-8.998762e+02
-8.998779e+02
-8.998796e+02
-8.998812e+02
-8.998828e+02
-8.998844e+02
-8.998859e+02
-8.998873e+02
-8.998887e+02
-8.998901e+02
-8.998914e+02
-8.998927e+02
-8.998939e+02
-8.998951e+02
-8.998962e+02
-8.998973e+02
-8.998983e+02
-8.998993e+02
-8.999001e+02
-8.999009e+02
-8.999016e+02
-8.999022e+02
-8.999027e+02
-8.999029e+02
-8.999029e+02
-8.999020e+02
-8.998872e+02
-8.995566e+02
-8.995714e+02
-8.996266e+02
-8.996764e+02
-8.997261e+02
-8.997749e+02
-8.998229e+02
-8.998708e+02
-8.999199e+02
-8.999695e+02
-9.000147e+02
-9.000427e+02
-9.000461e+02
-9.000427e+02
-9.000412e+02
-9.000426e+02
-9.000451e+02
-9.000462e+02
-9.000428e+02
-9.000325e+02
-9.000146e+02
-8.999899e+02
-8.999610e+02
-8.999315e+02
-8.999035e+02
-8.998784e+02
-8.998567e+02
-8.998386e+02
-8.998238e+02
-8.998122e+02
-8.998033e+02
-8.997968e+02
-8.997922e+02
-8.997893e+02
-8.997877e+02
-8.997871e+02
-8.997873e+02
-8.997881e+02
-8.997894e+02
-8.997911e+02
-8.997931e+02
-8.997952e+02
-8.997976e+02
-8.998001e+02
-8.998027e+02
-8.998053e+02
-8.998080e+02
-8.998107e+02
-8.998135e+02
-8.998162e+02
-8.998189e+02
-8.998217e+02
-8.998244e+02
-8.998271e+02
-8.998297e+02
-8.998323e+02
-8.998349e+02
-8.998375e+02
-8.998400e+02
-8.998424e+02
-8.998449e+02
-8.998473e+02
-8.998496e+02
-8.998519e+02
-8.998542e+02
-8.998564e+02
-8.998585e+02
-8.998607e+02
-8.998628e+02
-8.998648e+02
-8.998668e+02
-8.998687e+02
-8.998706e+02
-8.998725e+02
-8.998743e+02
-8.998761e+02
-8.998778e+02
-8.998795e+02
-8.998811e+02
-8.998827e+02
-8.998843e+02
-8.998858e+02
-8.998872e+02
-8.998887e+02
-8.998900e+02
-8.998913e+02
-8.998926e+02
-8.998939e+02
-8.998950e+02
-8.998962e+02
-8.998972e+02
-8.998983e+02
-8.998992e+02
-8.999001e+02
-8.999009e+02
-8.999016e+02
-8.999022e+02
-8.999026e+02
-8.999029e+02
-8.999029e+02
-8.999020e+02
-8.998872e+02
-8.995569e+02
-8.995717e+02
-8.996256e+02
-8.996729e+02
-8.997205e+02
-8.997674e+02
-8.998134e+02
-8.998586e+02
-8.999031e+02
-8.999457e+02
-8.999825e+02
-9.000074e+02
-9.000174e+02
-9.000202e+02
-9.000213e+02
-9.000225e+02
-9.000233e+02
-9.000222e+02
-9.000176e+02
-9.000080e+02
-8.999930e+02
-8.999735e+02
-8.999512e+02
-8.999282e+02
-8.999057e+02
-8.998847e+02
-8.998656e+02
-8.998488e+02
-8.998343e+02
-8.998223e+02
-8.998125e+02
-8.998050e+02
-8.997995e+02
-8.997957e+02
-8.997931e+02
-8.997918e+02
-8.997913e+02
-8.997915e+02
-8.997922e+02
-8.997935e+02
-8.997950e+02
-8.997969e+02
-8.997989e+02
-8.998012e+02
-8.998035e+02
-8.998060e+02
-8.998086e+02
-8.998112e+02
-8.998138e+02
-8.998165e+02
-8.998191e+02
-8.998218e+02
-8.998245e+02
-8.998271e+02
-8.998297e+02
-8.998323e+02
-8.998349e+02
-8.998374e+02
-8.998399e+02
-8.998424e+02
-8.998448e+02
-8.998472e+02
-8.998495e+02
-8.998518e+02
-8.998541e+02
-8.998563e+02
-8.998585e+02
-8.998606e+02
-8.998627e+02
-8.998647e+02
-8.998667e+02
-8.998687e+02
-8.998706e+02
-8.998724e+02
-8.998742e+02
-8.998760e+02
-8.998777e+02
-8.998794e+02
-8.998811e+02
-8.998827e+02
-8.998842e+02
-8.998857e+02
-8.998872e+02
-8.998886e+02
-8.998900e+02
-8.998913e+02
-8.998926e+02
-8.998938e+02
-8.998950e+02
-8.998961e+02
-8.998972e+02
-8.998982e+02
-8.998992e+02
-8.999001e+02
-8.999009e+02
-8.999016e+02
-8.999022e+02
-8.999027e+02
-8.999030e+02
-8.999031e+02
-8.999023e+02
-8.998874e+02
-8.995544e+02
-8.995692e+02
-8.996221e+02
-8.996679e+02
-8.997141e+02
-8.997597e+02
-8.998041e+02
-8.998470e+02
-8.998880e+02
-8.999257e+02
-8.999574e+02
-8.999801e+02
-8.999927e+02
-8.999988e+02
-9.000018e+02
-9.000032e+02
-9.000032e+02
-9.000010e+02
-8.999959e+02
-8.999873e+02
-8.999756e+02
-8.999611e+02
-8.999446e+02
-8.999270e+02
-8.999093e+02
-8.998918e+02
-8.998749e+02
-8.998591e+02
-8.998446e+02
-8.998320e+02
-8.998213e+02
-8.998129e+02
-8.998064e+02
-8.998017e+02
-8.997984e+02
-8.997963e+02
-8.997951e+02
-8.997947e+02
-8.997950e+02
-8.997958e+02
-8.997970e+02
-8.997985e+02
-8.998003e+02
-8.998023e+02
-8.998044e+02
-8.998067e+02
-8.998091e+02
-8.998116e+02
-8.998142e+02
-8.998167e+02
-8.998194e+02
-8.998220e+02
-8.998246e+02
-8.998272e+02
-8.998298e+02
-8.998324e+02
-8.998349e+02
-8.998374e+02
-8.998399e+02
-8.998424e+02
-8.998448e+02
-8.998471e+02
-8.998495e+02
-8.998518e+02
-8.998540e+02
-8.998562e+02
-8.998584e+02
-8.998605e+02
-8.998626e+02
-8.998647e+02
-8.998666e+02
-8.998686e+02
-8.998705e+02
-8.998724e+02
-8.998742e+02
-8.998760e+02
-8.998777e+02
-8.998794e+02
-8.998810e+02
-8.998826e+02
-8.998842e+02
-8.998857e+02
-8.998871e+02
-8.998885e+02
-8.998899e+02
-8.998912e+02
-8.998925e+02
-8.998937e+02
-8.998949e+02
-8.998961e+02
-8.998972e+02
-8.998982e+02
-8.998992e+02
-8.999001e+02
-8.999009e+02
-8.999017e+02
-8.999023e+02
-8.999028e+02
-8.999032e+02
-8.999034e+02
-8.999026e+02
-8.998878e+02
-8.995528e+02
-8.995676e+02
-8.996195e+02
-8.996641e+02
-8.997092e+02
-8.997538e+02
-8.997969e+02
-8.998378e+02
-8.998758e+02
-8.999097e+02
-8.999379e+02
-8.999587e+02
-8.999720e+02
-8.999795e+02
-8.999834e+02
-8.999848e+02
-8.999843e+02
-8.999817e+02
-8.999771e+02
-8.999705e+02
-8.999621e+02
-8.999519e+02
-8.999402e+02
-8.999273e+02
-8.999135e+02
-8.998989e+02
-8.998838e+02
-8.998686e+02
-8.998539e+02
-8.998406e+02
-8.998291e+02
-8.998199e+02
-8.998127e+02
-8.998072e+02
-8.998032e+02
-8.998004e+02
-8.997986e+02
-8.997977e+02
-8.997975e+02
-8.997979e+02
-8.997987e+02
-8.998000e+02
-8.998015e+02
-8.998033e+02
-8.998052e+02
-8.998074e+02
-8.998097e+02
-8.998120e+02
-8.998145e+02
-8.998170e+02
-8.998196e+02
-8.998221e+02
-8.998247e+02
-8.998273e+02
-8.998298e+02
-8.998324e+02
-8.998349e+02
-8.998374e+02
-8.998399e+02
-8.998423e+02
-8.998447e+02
-8.998471e+02
-8.998494e+02
-8.998517e+02
-8.998540e+02
-8.998562e+02
-8.998584e+02
-8.998605e+02
-8.998626e+02
-8.998646e+02
-8.998666e+02
-8.998685e+02
-8.998704e+02
-8.998723e+02
-8.998741e+02
-8.998759e+02
-8.998776e+02
-8.998793e+02
-8.998810e+02
-8.998825e+02
-8.998841e+02
-8.998856e+02
-8.998871e+02
-8.998885e+02
-8.998899e+02
-8.998912e+02
-8.998925e+02
-8.998937e+02
-8.998949e+02
-8.998960e+02
-8.998971e+02
-8.998982e+02
-8.998992e+02
-8.999001e+02
-8.999009e+02
-8.999017e+02
-8.999024e+02
-8.999030e+02
-8.999035e+02
-8.999038e+02
-8.999032e+02
-8.998884e+02
-8.995533e+02
-8.995682e+02
-8.996193e+02
-8.996631e+02
-8.997074e+02
-8.997508e+02
-8.997923e+02
-8.998310e+02
-8.998662e+02
-8.998969e+02
-8.999222e+02
-8.999413e+02
-8.999543e+02
-8.999622e+02
-8.999665e+02
-8.999681e+02
-8.999677e+02
-8.999655e+02
-8.999621e+02
-8.999577e+02
-8.999522e+02
-8.999455e+02
-8.999377e+02
-8.999285e+02
-8.999177e+02
-8.999053e+02
-8.998914e+02
-8.998766e+02
-8.998616e+02
-8.998476e+02
-8.998357e+02
-8.998259e+02
-8.998180e+02
-8.998119e+02
-8.998072e+02
-8.998038e+02
-8.998015e+02
-8.998002e+02
-8.997996e+02
-8.997996e+02
-8.998002e+02
-8.998012e+02
-8.998025e+02
-8.998041e+02
-8.998059e+02
-8.998079e+02
-8.998101e+02
-8.998124e+02
-8.998148e+02
-8.998172e+02
-8.998197e+02
-8.998223e+02
-8.998248e+02
-8.998274e+02
-8.998299e+02
-8.998324e+02
-8.998349e+02
-8.998374e+02
-8.998399e+02
-8.998423e+02
-8.998447e+02
-8.998471e+02
-8.998494e+02
-8.998517e+02
-8.998539e+02
-8.998562e+02
-8.998583e+02
-8.998604e+02
-8.998625e+02
-8.998646e+02
-8.998665e+02
-8.998685e+02
-8.998704e+02
-8.998723e+02
-8.998741e+02
-8.998758e+02
-8.998776e+02
-8.998793e+02
-8.998809e+02
-8.998825e+02
-8.998840e+02
-8.998856e+02
-8.998870e+02
-8.998884e+02
-8.998898e+02
-8.998911e+02
-8.998924e+02
-8.998937e+02
-8.998949e+02
-8.998960e+02
-8.998971e+02
-8.998982e+02
-8.998992e+02
-8.999001e+02
-8.999010e+02
-8.999018e+02
-8.999026e+02
-8.999032e+02
-8.999038e+02
-8.999044e+02
-8.999038e+02
-8.998890e+02
-8.995551e+02
-8.995699e+02
-8.996203e+02
-8.996638e+02
-8.997075e+02
-8.997500e+02
-8.997899e+02
-8.998265e+02
-8.998591e+02
-8.998871e+02
-8.999101e+02
-8.999276e+02
-8.999400e+02
-8.999480e+02
-8.999527e+02
-8.999547e+02
-8.999549e+02
-8.999538e+02
-8.999518e+02
-8.999493e+02
-8.999460e+02
-8.999419e+02
-8.999367e+02
-8.999300e+02
-8.999212e+02
-8.999102e+02
-8.998971e+02
-8.998824e+02
-8.998671e+02
-8.998531e+02
-8.998409e+02
-8.998305e+02
-8.998221e+02
-8.998154e+02
-8.998102e+02
-8.998063e+02
-8.998036e+02
-8.998019e+02
-8.998011e+02
-8.998009e+02
-8.998013e+02
-8.998021e+02
-8.998033e+02
-8.998047e+02
-8.998064e+02
-8.998083e+02
-8.998104e+02
-8.998127e+02
-8.998150e+02
-8.998174e+02
-8.998199e+02
-8.998224e+02
-8.998249e+02
-8.998274e+02
-8.998299e+02
-8.998325e+02
-8.998350e+02
-8.998374e+02
-8.998399e+02
-8.998423e+02
-8.998447e+02
-8.998471e+02
-8.998494e+02
-8.998517e+02
-8.998539e+02
-8.998561e+02
-8.998583e+02
-8.998604e+02
-8.998625e+02
-8.998645e+02
-8.998665e+02
-8.998684e+02
-8.998704e+02
-8.998722e+02
-8.998740e+02
-8.998758e+02
-8.998775e+02
-8.998792e+02
-8.998809e+02
-8.998824e+02
-8.998840e+02
-8.998855e+02
-8.998870e+02
-8.998884e+02
-8.998898e+02
-8.998911e+02
-8.998924e+02
-8.998936e+02
-8.998948e+02
-8.998960e+02
-8.998971e+02
-8.998981e+02
-8.998992e+02
-8.999001e+02
-8.999010e+02
-8.999019e+02
-8.999027e+02
-8.999035e+02
-8.999042e+02
-8.999049e+02
-8.999045e+02
-8.998897e+02
-8.995571e+02
-8.995719e+02
-8.996213e+02
-8.996650e+02
-8.997086e+02
-8.997504e+02
-8.997890e+02
-8.998238e+02
-8.998544e+02
-8.998803e+02
-8.999015e+02
-8.999179e+02
-8.999300e+02
-8.999383e+02
-8.999437e+02
-8.999466e+02
-8.999478e+02
-8.999479e+02
-8.999470e+02
-8.999456e+02
-8.999435e+02
-8.999407e+02
-8.999368e+02
-8.999312e+02
-8.999234e+02
-8.999131e+02
-8.999005e+02
-8.998859e+02
-8.998709e+02
-8.998568e+02
-8.998443e+02
-8.998336e+02
-8.998248e+02
-8.998176e+02
-8.998120e+02
-8.998078e+02
-8.998049e+02
-8.998030e+02
-8.998019e+02
-8.998016e+02
-8.998019e+02
-8.998026e+02
-8.998037e+02
-8.998050e+02
-8.998067e+02
-8.998086e+02
-8.998106e+02
-8.998128e+02
-8.998151e+02
-8.998175e+02
-8.998199e+02
-8.998224e+02
-8.998249e+02
-8.998274e+02
-8.998300e+02
-8.998325e+02
-8.998350e+02
-8.998374e+02
-8.998399e+02
-8.998423e+02
-8.998447e+02
-8.998470e+02
-8.998494e+02
-8.998516e+02
-8.998539e+02
-8.998561e+02
-8.998582e+02
-8.998604e+02
-8.998624e+02
-8.998645e+02
-8.998665e+02
-8.998684e+02
-8.998703e+02
-8.998722e+02
-8.998740e+02
-8.998758e+02
-8.998775e+02
-8.998792e+02
-8.998808e+02
-8.998824e+02
-8.998840e+02
-8.998855e+02
-8.998869e+02
-8.998883e+02
-8.998897e+02
-8.998911e+02
-8.998923e+02
-8.998936e+02
-8.998948e+02
-8.998959e+02
-8.998971e+02
-8.998981e+02
-8.998991e+02
-8.999001e+02
-8.999011e+02
-8.999020e+02
-8.999028e+02
-8.999036e+02
-8.999044e+02
-8.999052e+02
-8.999051e+02
-8.998903e+02
-8.995549e+02
-8.995697e+02
-8.996190e+02
-8.996644e+02
-8.997092e+02
-8.997512e+02
-8.997894e+02
-8.998232e+02
-8.998525e+02
-8.998773e+02
-8.998977e+02
-8.999138e+02
-8.999260e+02
-8.999349e+02
-8.999411e+02
-8.999449e+02
-8.999469e+02
-8.999476e+02
-8.999472e+02
-8.999462e+02
-8.999443e+02
-8.999417e+02
-8.999377e+02
-8.999321e+02
-8.999243e+02
-8.999141e+02
-8.999016e+02
-8.998873e+02
-8.998726e+02
-8.998585e+02
-8.998458e+02
-8.998350e+02
-8.998259e+02
-8.998185e+02
-8.998127e+02
-8.998084e+02
-8.998054e+02
-8.998034e+02
-8.998023e+02
-8.998019e+02
-8.998021e+02
-8.998027e+02
-8.998038e+02
-8.998052e+02
-8.998068e+02
-8.998087e+02
-8.998107e+02
-8.998129e+02
-8.998152e+02
-8.998175e+02
-8.998200e+02
-8.998224e+02
-8.998249e+02
-8.998274e+02
-8.998299e+02
-8.998324e+02
-8.998349e+02
-8.998374e+02
-8.998398e+02
-8.998423e+02
-8.998447e+02
-8.998470e+02
-8.998493e+02
-8.998516e+02
-8.998538e+02
-8.998560e+02
-8.998582e+02
-8.998603e+02
-8.998624e+02
-8.998644e+02
-8.998664e+02
-8.998684e+02
-8.998703e+02
-8.998721e+02
-8.998739e+02
-8.998757e+02
-8.998774e+02
-8.998791e+02
-8.998808e+02
-8.998824e+02
-8.998839e+02
-8.998854e+02
-8.998869e+02
-8.998883e+02
-8.998897e+02
-8.998910e+02
-8.998923e+02
-8.998935e+02
-8.998947e+02
-8.998959e+02
-8.998970e+02
-8.998981e+02
-8.998991e+02
-8.999001e+02
-8.999010e+02
-8.999020e+02
-8.999028e+02
-8.999036e+02
-8.999044e+02
-8.999052e+02
-8.999055e+02
-8.998907e+02
-8.995326e+02
-8.995474e+02
-8.996116e+02
-8.996632e+02
-8.997112e+02
-8.997547e+02
-8.997933e+02
-8.998269e+02
-8.998556e+02
-8.998799e+02
-8.998999e+02
-8.999160e+02
-8.999283e+02