# vtk DataFile Version 3.0
Scalar Field
ASCII
DATASET RECTILINEAR_GRID
DIMENSIONS 102 22 1
X_COORDINATES 102 double
0.000000 0.100000 0.200000 0.300000 0.400000 0.500000 0.600000 0.700000 0.800000 0.900000 1.000000 1.100000 1.200000 1.300000 1.400000 1.500000 1.600000 1.700000 1.800000 1.900000 2.000000 2.100000 2.200000 2.300000 2.400000 2.500000 2.600000 2.700000 2.800000 2.900000 3.000000 3.100000 3.200000 3.300000 3.400000 3.500000 3.600000 3.700000 3.800000 3.900000 4.000000 4.100000 4.200000 4.300000 4.400000 4.500000 4.600000 4.700000 4.800000 4.900000 5.000000 5.100000 5.200000 5.300000 5.400000 5.500000 5.600000 5.700000 5.800000 5.900000 6.000000 6.100000 6.200000 6.300000 6.400000 6.500000 6.600000 6.700000 6.800000 6.900000 7.000000 7.100000 7.200000 7.300000 7.400000 7.500000 7.600000 7.700000 7.800000 7.900000 8.000000 8.100000 8.200000 8.300000 8.400000 8.500000 8.600000 8.700000 8.800000 8.900000 9.000000 9.100000 9.200000 9.300000 9.400000 9.500000 9.600000 9.700000 9.800000 9.900000 10.000000 10.100000 
Y_COORDINATES 22 double
0.000000 0.100000 0.200000 0.300000 0.400000 0.500000 0.600000 0.700000 0.800000 0.900000 1.000000 1.100000 1.200000 1.300000 1.400000 1.500000 1.600000 1.700000 1.800000 1.900000 2.000000 2.100000 
Z_COORDINATES 1 double
0.0
POINT_DATA 2244
SCALARS Pressure double 1
LOOKUP_TABLE default
0.000000e+00
0.000000e+00
0.000000e+00
0.000000e+00
0.000000e+00
0.000000e+00
0.000000e+00
0.000000e+00
0.000000e+00
0.000000e+00
-4.384405e+01
-4.387531e+01
-4.386830e+01
-4.384276e+01
-4.381008e+01
-4.377592e+01
-4.374287e+01
-4.371115e+01
-4.368047e+01
-4.365043e+01
-4.362065e+01
-4.359078e+01
-4.356056e+01
-4.352977e+01
-4.349826e+01
-4.346566e+01
-4.343195e+01
-4.339712e+01
-4.336116e+01
-4.332406e+01
-4.328583e+01
-4.324650e+01
-4.320610e+01
-4.316465e+01
-4.312220e+01
-4.307879e+01
-4.303448e+01
-4.298932e+01
-4.294335e+01
-4.289663e+01
-4.284924e+01
-4.280121e+01
-4.275262e+01
-4.270352e+01
-4.265398e+01
-4.260405e+01
-4.255382e+01
-4.250332e+01
-4.245264e+01
-4.240184e+01
-4.235097e+01
-4.230011e+01
-4.224931e+01
-4.219865e+01
-4.214818e+01
-4.209797e+01
-4.204808e+01
-4.199857e+01
-4.194951e+01
-4.190095e+01
-4.185296e+01
-4.180560e+01
-4.175892e+01
-4.171299e+01
-4.166787e+01
-4.162360e+01
-4.158024e+01
-4.153786e+01
-4.149650e+01
-4.145622e+01
-4.141706e+01
-4.137908e+01
-4.134232e+01
-4.130684e+01
-4.127268e+01
-4.123988e+01
-4.120849e+01
-4.117855e+01
-4.115009e+01
-4.112317e+01
-4.109781e+01
-4.107405e+01
-4.105193e+01
-4.103147e+01
-4.101271e+01
-4.099569e+01
-4.098042e+01
-4.096694e+01
-4.095527e+01
-4.094546e+01
-4.093752e+01
-4.093151e+01
-4.092747e+01
-4.092546e+01
-4.092555e+01
-4.092787e+01
-4.093262e+01
-4.094020e+01
-4.095034e+01
-4.096288e+01
-4.093171e+01
0.000000e+00
0.000000e+00
0.000000e+00
0.000000e+00
0.000000e+00
0.000000e+00
0.000000e+00
0.000000e+00
0.000000e+00
0.000000e+00
0.000000e+00
-4.387531e+01
-4.390656e+01
-4.389957e+01
-4.387402e+01
-4.384136e+01
-4.380721e+01
-4.377417e+01
-4.374246e+01
-4.371179e+01
-4.368176e+01
-4.365199e+01
-4.362214e+01
-4.359193e+01
-4.356117e+01
-4.352968e+01
-4.349709e+01
-4.346341e+01
-4.342860e+01
-4.339266e+01
-4.335558e+01
-4.331738e+01
-4.327808e+01
-4.323770e+01
-4.319627e+01
-4.315385e+01
-4.311047e+01
-4.306619e+01
-4.302105e+01
-4.297511e+01
-4.292842e+01
-4.288105e+01
-4.283305e+01
-4.278449e+01
-4.273542e+01
-4.268591e+01
-4.263602e+01
-4.258581e+01
-4.253535e+01
-4.248470e+01
-4.243392e+01
-4.238309e+01
-4.233225e+01
-4.228149e+01
-4.223086e+01
-4.218042e+01
-4.213024e+01
-4.208037e+01
-4.203090e+01
-4.198186e+01
-4.193334e+01
-4.188538e+01
-4.183805e+01
-4.179140e+01
-4.174550e+01
-4.170040e+01
-4.165616e+01
-4.161283e+01
-4.157047e+01
-4.152914e+01
-4.148888e+01
-4.144975e+01
-4.141179e+01
-4.137506e+01
-4.133960e+01
-4.130546e+01
-4.127268e+01
-4.124131e+01
-4.121139e+01
-4.118296e+01
-4.115605e+01
-4.113071e+01
-4.110697e+01
-4.108486e+01
-4.106442e+01
-4.104568e+01
-4.102867e+01
-4.101341e+01
-4.099994e+01
-4.098829e+01
-4.097849e+01
-4.097056e+01
-4.096456e+01
-4.096053e+01
-4.095852e+01
-4.095862e+01
-4.096095e+01
-4.096570e+01
-4.097329e+01
-4.098343e+01
-4.099597e+01
-4.096480e+01
-4.093171e+01
0.000000e+00
0.000000e+00
0.000000e+00
0.000000e+00
0.000000e+00
0.000000e+00
0.000000e+00
0.000000e+00
0.000000e+00
0.000000e+00
-4.388340e+01
-4.391466e+01
-4.390025e+01
-4.387596e+01
-4.384560e+01
-4.381276e+01
-4.378005e+01
-4.374805e+01
-4.371678e+01
-4.368604e+01
-4.365556e+01
-4.362505e+01
-4.359424e+01
-4.356292e+01
-4.353089e+01
-4.349795e+01
-4.346400e+01
-4.342901e+01
-4.339294e+01
-4.335577e+01
-4.331751e+01
-4.327817e+01
-4.323778e+01
-4.319637e+01
-4.315398e+01
-4.311065e+01
-4.306642e+01
-4.302136e+01
-4.297550e+01
-4.292890e+01
-4.288163e+01
-4.283373e+01
-4.278528e+01
-4.273633e+01
-4.268693e+01
-4.263716e+01
-4.258708e+01
-4.253675e+01
-4.248623e+01
-4.243559e+01
-4.238488e+01
-4.233419e+01
-4.228356e+01
-4.223306e+01
-4.218276e+01
-4.213272e+01
-4.208299e+01
-4.203365e+01
-4.198475e+01
-4.193636e+01
-4.188854e+01
-4.184134e+01
-4.179482e+01
-4.174905e+01
-4.170408e+01
-4.165997e+01
-4.161677e+01
-4.157453e+01
-4.153332e+01
-4.149318e+01
-4.145416e+01
-4.141632e+01
-4.137970e+01
-4.134435e+01
-4.131032e+01
-4.127764e+01
-4.124638e+01
-4.121655e+01
-4.118821e+01
-4.116140e+01
-4.113614e+01
-4.111249e+01
-4.109046e+01
-4.107010e+01
-4.105143e+01
-4.103449e+01
-4.101930e+01
-4.100590e+01
-4.099432e+01
-4.098458e+01
-4.097672e+01
-4.097078e+01
-4.096682e+01
-4.096490e+01
-4.096512e+01
-4.096761e+01
-4.097257e+01
-4.098033e+01
-4.099126e+01
-4.100615e+01
-4.104730e+01
-4.101421e+01
0.000000e+00
0.000000e+00
0.000000e+00
0.000000e+00
0.000000e+00
0.000000e+00
0.000000e+00
0.000000e+00
0.000000e+00
0.000000e+00
-4.390012e+01
-4.393137e+01
-4.391077e+01
-4.388389e+01
-4.385260e+01
-4.381905e+01
-4.378525e+01
-4.375206e+01
-4.371970e+01
-4.368802e+01
-4.365675e+01
-4.362558e+01
-4.359423e+01
-4.356245e+01
-4.353005e+01
-4.349683e+01
-4.346269e+01
-4.342756e+01
-4.339139e+01
-4.335417e+01
-4.331589e+01
-4.327656e+01
-4.323620e+01
-4.319483e+01
-4.315249e+01
-4.310923e+01
-4.306508e+01
-4.302009e+01
-4.297433e+01
-4.292783e+01
-4.288066e+01
-4.283288e+01
-4.278454e+01
-4.273571e+01
-4.268644e+01
-4.263679e+01
-4.258684e+01
-4.253664e+01
-4.248625e+01
-4.243574e+01
-4.238517e+01
-4.233461e+01
-4.228412e+01
-4.223376e+01
-4.218359e+01
-4.213368e+01
-4.208410e+01
-4.203489e+01
-4.198613e+01
-4.193787e+01
-4.189018e+01
-4.184311e+01
-4.179673e+01
-4.175109e+01
-4.170624e+01
-4.166225e+01
-4.161918e+01
-4.157707e+01
-4.153597e+01
-4.149595e+01
-4.145705e+01
-4.141932e+01
-4.138281e+01
-4.134757e+01
-4.131364e+01
-4.128107e+01
-4.124990e+01
-4.122017e+01
-4.119192e+01
-4.116520e+01
-4.114003e+01
-4.111646e+01
-4.109451e+01
-4.107423e+01
-4.105564e+01
-4.103877e+01
-4.102366e+01
-4.101032e+01
-4.099880e+01
-4.098913e+01
-4.098134e+01
-4.097548e+01
-4.097160e+01
-4.096978e+01
-4.097014e+01
-4.097284e+01
-4.097815e+01
-4.098652e+01
-4.099863e+01
-4.101575e+01
-4.104982e+01
-4.101673e+01
0.000000e+00
0.000000e+00
0.000000e+00
0.000000e+00
0.000000e+00
0.000000e+00
0.000000e+00
0.000000e+00
0.000000e+00
0.000000e+00
-4.392977e+01
-4.396103e+01
-4.393462e+01
-4.390135e+01
-4.386496e+01
-4.382766e+01
-4.379103e+01
-4.375575e+01
-4.372185e+01
-4.368904e+01
-4.365695e+01
-4.362518e+01
-4.359338e+01
-4.356127e+01
-4.352861e+01
-4.349522e+01
-4.346097e+01
-4.342578e+01
-4.338958e+01
-4.335236e+01
-4.331410e+01
-4.327480e+01
-4.323448e+01
-4.319318e+01
-4.315091e+01
-4.310773e+01
-4.306367e+01
-4.301878e+01
-4.297311e+01
-4.292672e+01
-4.287966e+01
-4.283199e+01
-4.278376e+01
-4.273504e+01
-4.268589e+01
-4.263637e+01
-4.258654e+01
-4.253646e+01
-4.248620e+01
-4.243582e+01
-4.238538e+01
-4.233495e+01
-4.228458e+01
-4.223435e+01
-4.218432e+01
-4.213454e+01
-4.208508e+01
-4.203600e+01
-4.198737e+01
-4.193924e+01
-4.189167e+01
-4.184473e+01
-4.179847e+01
-4.175295e+01
-4.170822e+01
-4.166436e+01
-4.162140e+01
-4.157940e+01
-4.153842e+01
-4.149851e+01
-4.145972e+01
-4.142209e+01
-4.138569e+01
-4.135055e+01
-4.131672e+01
-4.128424e+01
-4.125316e+01
-4.122353e+01
-4.119537e+01
-4.116873e+01
-4.114364e+01
-4.112015e+01
-4.109828e+01
-4.107807e+01
-4.105955e+01
-4.104276e+01
-4.102771e+01
-4.101444e+01
-4.100298e+01
-4.099336e+01
-4.098562e+01
-4.097981e+01
-4.097597e+01
-4.097418e+01
-4.097454e+01
-4.097721e+01
-4.098239e+01
-4.099039e+01
-4.100158e+01
-4.101634e+01
-4.103924e+01
-4.100616e+01
0.000000e+00
0.000000e+00
0.000000e+00
0.000000e+00
0.000000e+00
0.000000e+00
0.000000e+00
0.000000e+00
0.000000e+00
0.000000e+00
-4.397586e+01
-4.400712e+01
-4.397229e+01
-4.392821e+01
-4.388244e+01
-4.383827e+01
-4.379699e+01
-4.375869e+01
-4.372285e+01
-4.368882e+01
-4.365596e+01
-4.362370e+01
-4.359160e+01
-4.355929e+01
-4.352652e+01
-4.349308e+01
-4.345882e+01
-4.342364e+01
-4.338748e+01
-4.335031e+01
-4.331211e+01
-4.327288e+01
-4.323265e+01
-4.319143e+01
-4.314925e+01
-4.310616e+01
-4.306220e+01
-4.301741e+01
-4.297185e+01
-4.292556e+01
-4.287861e+01
-4.283105e+01
-4.278294e+01
-4.273433e+01
-4.268530e+01
-4.263590e+01
-4.258618e+01
-4.253623e+01
-4.248608e+01
-4.243582e+01
-4.238551e+01
-4.233520e+01
-4.228496e+01
-4.223485e+01
-4.218493e+01
-4.213528e+01
-4.208594e+01
-4.203698e+01
-4.198847e+01
-4.194046e+01
-4.189301e+01
-4.184619e+01
-4.180004e+01
-4.175464e+01
-4.171003e+01
-4.166627e+01
-4.162342e+01
-4.158153e+01
-4.154066e+01
-4.150085e+01
-4.146216e+01
-4.142464e+01
-4.138833e+01
-4.135329e+01
-4.131955e+01
-4.128716e+01
-4.125618e+01
-4.122662e+01
-4.119855e+01
-4.117199e+01
-4.114698e+01
-4.112356e+01
-4.110177e+01
-4.108163e+01
-4.106318e+01
-4.104644e+01
-4.103145e+01
-4.101824e+01
-4.100683e+01
-4.099726e+01
-4.098955e+01
-4.098374e+01
-4.097989e+01
-4.097803e+01
-4.097824e+01
-4.098061e+01
-4.098523e+01
-4.099219e+01
-4.100149e+01
-4.101290e+01
-4.102786e+01
-4.099478e+01
0.000000e+00
0.000000e+00
0.000000e+00
0.000000e+00
0.000000e+00
0.000000e+00
0.000000e+00
0.000000e+00
0.000000e+00
0.000000e+00
-4.404700e+01
-4.407826e+01
-4.402775e+01
-4.396481e+01
-4.390383e+01
-4.384944e+01
-4.380191e+01
-4.375997e+01
-4.372209e+01
-4.368695e+01
-4.365351e+01
-4.362098e+01
-4.358878e+01
-4.355647e+01
-4.352375e+01
-4.349038e+01
-4.345621e+01
-4.342113e+01
-4.338508e+01
-4.334802e+01
-4.330993e+01
-4.327082e+01
-4.323069e+01
-4.318958e+01
-4.314751e+01
-4.310453e+01
-4.306067e+01
-4.301599e+01
-4.297054e+01
-4.292436e+01
-4.287752e+01
-4.283007e+01
-4.278207e+01
-4.273358e+01
-4.268466e+01
-4.263537e+01
-4.258577e+01
-4.253593e+01
-4.248590e+01
-4.243576e+01
-4.238556e+01
-4.233536e+01
-4.228524e+01
-4.223524e+01
-4.218544e+01
-4.213590e+01
-4.208668e+01
-4.203784e+01
-4.198944e+01
-4.194154e+01
-4.189420e+01
-4.184749e+01
-4.180146e+01
-4.175616e+01
-4.171166e+01
-4.166800e+01
-4.162526e+01
-4.158347e+01
-4.154270e+01
-4.150299e+01
-4.146439e+01
-4.142697e+01
-4.139075e+01
-4.135579e+01
-4.132214e+01
-4.128984e+01
-4.125893e+01
-4.122946e+01
-4.120146e+01
-4.117498e+01
-4.115004e+01
-4.112670e+01
-4.110497e+01
-4.108489e+01
-4.106650e+01
-4.104982e+01
-4.103489e+01
-4.102172e+01
-4.101035e+01
-4.100080e+01
-4.099310e+01
-4.098727e+01
-4.098335e+01
-4.098134e+01
-4.098128e+01
-4.098318e+01
-4.098702e+01
-4.099272e+01
-4.100006e+01
-4.100859e+01
-4.101853e+01
-4.098545e+01
0.000000e+00
0.000000e+00
0.000000e+00
0.000000e+00
0.000000e+00
0.000000e+00
0.000000e+00
0.000000e+00
0.000000e+00
0.000000e+00
-4.415952e+01
-4.419078e+01
-4.410726e+01
-4.401018e+01
-4.392595e+01
-4.385824e+01
-4.380370e+01
-4.375826e+01
-4.371876e+01
-4.368297e+01
-4.364936e+01
-4.361691e+01
-4.358488e+01
-4.355279e+01
-4.352029e+01
-4.348714e+01
-4.345318e+01
-4.341829e+01
-4.338242e+01
-4.334553e+01
-4.330759e+01
-4.326862e+01
-4.322863e+01
-4.318765e+01
-4.314570e+01
-4.310284e+01
-4.305910e+01
-4.301454e+01
-4.296919e+01
-4.292313e+01
-4.287640e+01
-4.282906e+01
-4.278117e+01
-4.273278e+01
-4.268397e+01
-4.263479e+01
-4.258530e+01
-4.253557e+01
-4.248565e+01
-4.243562e+01
-4.238553e+01
-4.233544e+01
-4.228542e+01
-4.223554e+01
-4.218585e+01
-4.213642e+01
-4.208730e+01
-4.203857e+01
-4.199027e+01
-4.194248e+01
-4.189525e+01
-4.184864e+01
-4.180271e+01
-4.175751e+01
-4.171311e+01
-4.166955e+01
-4.162690e+01
-4.158521e+01
-4.154453e+01
-4.150491e+01
-4.146641e+01
-4.142907e+01
-4.139294e+01
-4.135806e+01
-4.132449e+01
-4.129227e+01
-4.126144e+01
-4.123204e+01
-4.120412e+01
-4.117770e+01
-4.115283e+01
-4.112955e+01
-4.110788e+01
-4.108786e+01
-4.106953e+01
-4.105290e+01
-4.103801e+01
-4.102488e+01
-4.101354e+01
-4.100400e+01
-4.099629e+01
-4.099042e+01
-4.098638e+01
-4.098419e+01
-4.098381e+01
-4.098519e+01
-4.098824e+01
-4.099276e+01
-4.099846e+01
-4.100485e+01
-4.101167e+01
-4.097859e+01
0.000000e+00
0.000000e+00
0.000000e+00
0.000000e+00
0.000000e+00
0.000000e+00
0.000000e+00
0.000000e+00
0.000000e+00
0.000000e+00
-4.434837e+01
-4.437962e+01
-4.421816e+01
-4.405798e+01
-4.394156e+01
-4.385974e+01
-4.379948e+01
-4.375201e+01
-4.371206e+01
-4.367649e+01
-4.364335e+01
-4.361142e+01
-4.357991e+01
-4.354829e+01
-4.351621e+01
-4.348342e+01
-4.344977e+01
-4.341516e+01
-4.337954e+01
-4.334285e+01
-4.330511e+01
-4.326632e+01
-4.322649e+01
-4.318565e+01
-4.314384e+01
-4.310111e+01
-4.305749e+01
-4.301305e+01
-4.296782e+01
-4.292187e+01
-4.287525e+01
-4.282801e+01
-4.278023e+01
-4.273195e+01
-4.268324e+01
-4.263417e+01
-4.258478e+01
-4.253515e+01
-4.248534e+01
-4.243541e+01
-4.238542e+01
-4.233544e+01
-4.228552e+01
-4.223574e+01
-4.218615e+01
-4.213682e+01
-4.208780e+01
-4.203917e+01
-4.199097e+01
-4.194328e+01
-4.189614e+01
-4.184963e+01
-4.180379e+01
-4.175869e+01
-4.171438e+01
-4.167092e+01
-4.162836e+01
-4.158675e+01
-4.154616e+01
-4.150663e+01
-4.146821e+01
-4.143094e+01
-4.139489e+01
-4.136010e+01
-4.132660e+01
-4.129445e+01
-4.126369e+01
-4.123436e+01
-4.120650e+01
-4.118015e+01
-4.115534e+01
-4.113212e+01
-4.111050e+01
-4.109054e+01
-4.107225e+01
-4.105567e+01
-4.104082e+01
-4.102772e+01
-4.101640e+01
-4.100687e+01
-4.099913e+01
-4.099320e+01
-4.098906e+01
-4.098667e+01
-4.098598e+01
-4.098690e+01
-4.098927e+01
-4.099285e+01
-4.099733e+01
-4.100226e+01
-4.100719e+01
-4.097411e+01
0.000000e+00
0.000000e+00
0.000000e+00
0.000000e+00
0.000000e+00
0.000000e+00
0.000000e+00
0.000000e+00
0.000000e+00
0.000000e+00
-4.469657e+01
-4.472781e+01
-4.435954e+01
-4.408658e+01
-4.393712e+01
-4.384745e+01
-4.378640e+01
-4.374003e+01
-4.370158e+01
-4.366743e+01
-4.363554e+01
-4.360465e+01
-4.357401e+01
-4.354310e+01
-4.351161e+01
-4.347931e+01
-4.344608e+01
-4.341182e+01
-4.337649e+01
-4.334006e+01
-4.330254e+01
-4.326394e+01
-4.322429e+01
-4.318361e+01
-4.314196e+01
-4.309936e+01
-4.305587e+01
-4.301154e+01
-4.296643e+01
-4.292059e+01
-4.287407e+01
-4.282694e+01
-4.277926e+01
-4.273109e+01
-4.268248e+01
-4.263350e+01
-4.258421e+01
-4.253468e+01
-4.248496e+01
-4.243513e+01
-4.238524e+01
-4.233535e+01
-4.228553e+01
-4.223584e+01
-4.218635e+01
-4.213711e+01
-4.208819e+01
-4.203964e+01
-4.199154e+01
-4.194394e+01
-4.189689e+01
-4.185047e+01
-4.180472e+01
-4.175970e+01
-4.171548e+01
-4.167210e+01
-4.162962e+01
-4.158810e+01
-4.154759e+01
-4.150813e+01
-4.146979e+01
-4.143260e+01
-4.139662e+01
-4.136190e+01
-4.132847e+01
-4.129639e+01
-4.126569e+01
-4.123643e+01
-4.120862e+01
-4.118233e+01
-4.115758e+01
-4.113440e+01
-4.111284e+01
-4.109292e+01
-4.107468e+01
-4.105813e+01
-4.104331e+01
-4.103024e+01
-4.101893e+01
-4.100940e+01
-4.100165e+01
-4.099567e+01
-4.099143e+01
-4.098889e+01
-4.098796e+01
-4.098852e+01
-4.099040e+01
-4.099333e+01
-4.099701e+01
-4.100105e+01
-4.100488e+01
-4.097180e+01
-4.329693e+01
-4.332804e+01
-4.342046e+01
-4.347856e+01
-4.352408e+01
-4.356314e+01
-4.359895e+01
-4.363526e+01
-4.367919e+01
-4.375115e+01
-4.428953e+01
-4.492791e+01
-4.447811e+01
-4.404118e+01
-4.389559e+01
-4.381674e+01
-4.376350e+01
-4.372245e+01
-4.368771e+01
-4.365622e+01
-4.362630e+01
-4.359692e+01
-4.356743e+01
-4.353743e+01
-4.350667e+01
-4.347496e+01
-4.344221e+01
-4.340835e+01
-4.337335e+01
-4.333721e+01
-4.329994e+01
-4.326155e+01
-4.322208e+01
-4.318157e+01
-4.314006e+01
-4.309760e+01
-4.305424e+01
-4.301003e+01
-4.296503e+01
-4.291930e+01
-4.287289e+01
-4.282586e+01
-4.277827e+01
-4.273019e+01
-4.268168e+01
-4.263279e+01
-4.258360e+01
-4.253415e+01
-4.248453e+01
-4.243478e+01
-4.238498e+01
-4.233518e+01
-4.228545e+01
-4.223585e+01
-4.218644e+01
-4.213729e+01
-4.208845e+01
-4.203999e+01
-4.199198e+01
-4.194446e+01
-4.189749e+01
-4.185115e+01
-4.180548e+01
-4.176055e+01
-4.171640e+01
-4.167310e+01
-4.163070e+01
-4.158925e+01
-4.154881e+01
-4.150943e+01
-4.147115e+01
-4.143404e+01
-4.139812e+01
-4.136346e+01
-4.133010e+01
-4.129808e+01
-4.126744e+01
-4.123823e+01
-4.121048e+01
-4.118424e+01
-4.115954e+01
-4.113641e+01
-4.111489e+01
-4.109501e+01
-4.107680e+01
-4.106029e+01
-4.104550e+01
-4.103244e+01
-4.102115e+01
-4.101162e+01
-4.100386e+01
-4.099784e+01
-4.099355e+01
-4.099091e+01
-4.098984e+01
-4.099021e+01
-4.099181e+01
-4.099440e+01
-4.099767e+01
-4.100127e+01
-4.100458e+01
-4.097151e+01
-4.332804e+01
-4.335915e+01
-4.345157e+01
-4.350968e+01
-4.355521e+01
-4.359427e+01
-4.363009e+01
-4.366642e+01
-4.371036e+01
-4.378233e+01
-4.371358e+01
-4.396238e+01
-4.400502e+01
-4.388911e+01
-4.382172e+01
-4.377297e+01
-4.373441e+01
-4.370160e+01
-4.367195e+01
-4.364387e+01
-4.361634e+01
-4.358871e+01
-4.356054e+01
-4.353157e+01
-4.350160e+01
-4.347054e+01
-4.343830e+01
-4.340487e+01
-4.337022e+01
-4.333438e+01
-4.329735e+01
-4.325918e+01
-4.321991e+01
-4.317956e+01
-4.313820e+01
-4.309588e+01
-4.305264e+01
-4.300854e+01
-4.296365e+01
-4.291802e+01
-4.287170e+01
-4.282477e+01
-4.277727e+01
-4.272928e+01
-4.268085e+01
-4.263205e+01
-4.258294e+01
-4.253358e+01
-4.248404e+01
-4.243437e+01
-4.238465e+01
-4.233493e+01
-4.228528e+01
-4.223576e+01
-4.218643e+01
-4.213736e+01
-4.208860e+01
-4.204022e+01
-4.199228e+01
-4.194484e+01
-4.189795e+01
-4.185168e+01
-4.180609e+01
-4.176122e+01
-4.171715e+01
-4.167392e+01
-4.163159e+01
-4.159021e+01
-4.154983e+01
-4.151052e+01
-4.147231e+01
-4.143525e+01
-4.139940e+01
-4.136480e+01
-4.133149e+01
-4.129952e+01
-4.126894e+01
-4.123978e+01
-4.121208e+01
-4.118588e+01
-4.116122e+01
-4.113813e+01
-4.111665e+01
-4.109681e+01
-4.107863e+01
-4.106214e+01
-4.104737e+01
-4.103434e+01
-4.102306e+01
-4.101353e+01
-4.100577e+01
-4.099975e+01
-4.099544e+01
-4.099279e+01
-4.099169e+01
-4.099202e+01
-4.099359e+01
-4.099614e+01
-4.099937e+01
-4.100294e+01
-4.100623e+01
-4.097316e+01
-4.335378e+01
-4.338489e+01
-4.347384e+01
-4.351974e+01
-4.355932e+01
-4.359554e+01
-4.362988e+01
-4.366457e+01
-4.370352e+01
-4.375184e+01
-4.379323e+01
-4.384836e+01
-4.386192e+01
-4.380550e+01
-4.376615e+01
-4.373486e+01
-4.370724e+01
-4.368148e+01
-4.365654e+01
-4.363172e+01
-4.360653e+01
-4.358063e+01
-4.355378e+01
-4.352582e+01
-4.349666e+01
-4.346623e+01
-4.343451e+01
-4.340149e+01
-4.336719e+01
-4.333164e+01
-4.329486e+01
-4.325690e+01
-4.321780e+01
-4.317762e+01
-4.313640e+01
-4.309420e+01
-4.305107e+01
-4.300709e+01
-4.296229e+01
-4.291675e+01
-4.287053e+01
-4.282368e+01
-4.277626e+01
-4.272835e+01
-4.268000e+01
-4.263128e+01
-4.258224e+01
-4.253296e+01
-4.248349e+01
-4.243390e+01
-4.238425e+01
-4.233460e+01
-4.228503e+01
-4.223558e+01
-4.218632e+01
-4.213732e+01
-4.208863e+01
-4.204032e+01
-4.199245e+01
-4.194508e+01
-4.189826e+01
-4.185206e+01
-4.180653e+01
-4.176173e+01
-4.171772e+01
-4.167456e+01
-4.163229e+01
-4.159097e+01
-4.155066e+01
-4.151140e+01
-4.147324e+01
-4.143624e+01
-4.140045e+01
-4.136590e+01
-4.133264e+01
-4.130072e+01
-4.127019e+01
-4.124107e+01
-4.121341e+01
-4.118726e+01
-4.116263e+01
-4.113958e+01
-4.111813e+01
-4.109831e+01
-4.108016e+01
-4.106369e+01
-4.104894e+01
-4.103592e+01
-4.102466e+01
-4.101515e+01
-4.100740e+01
-4.100140e+01
-4.099712e+01
-4.099452e+01
-4.099351e+01
-4.099397e+01
-4.099573e+01
-4.099854e+01
-4.100210e+01
-4.100603e+01
-4.100980e+01
-4.097672e+01
-4.338511e+01
-4.341623e+01
-4.348702e+01
-4.352798e+01
-4.356467e+01
-4.359896e+01
-4.363197e+01
-4.366497e+01
-4.369932e+01
-4.373474e+01
-4.376478e+01
-4.378863e+01
-4.379024e+01
-4.376010e+01
-4.373192e+01
-4.370802e+01
-4.368613e+01
-4.366479e+01
-4.364320e+01
-4.362092e+01
-4.359767e+01
-4.357326e+01
-4.354756e+01
-4.352051e+01
-4.349207e+01
-4.346222e+01
-4.343097e+01
-4.339834e+01
-4.336436e+01
-4.332907e+01
-4.329252e+01
-4.325475e+01
-4.321581e+01
-4.317577e+01
-4.313468e+01
-4.309259e+01
-4.304957e+01
-4.300568e+01
-4.296097e+01
-4.291552e+01
-4.286937e+01
-4.282259e+01
-4.277525e+01
-4.272741e+01
-4.267913e+01
-4.263048e+01
-4.258151e+01
-4.253229e+01
-4.248289e+01
-4.243337e+01
-4.238378e+01
-4.233420e+01
-4.228469e+01
-4.223531e+01
-4.218611e+01
-4.213717e+01
-4.208855e+01
-4.204030e+01
-4.199249e+01
-4.194518e+01
-4.189842e+01
-4.185228e+01
-4.180681e+01
-4.176208e+01
-4.171812e+01
-4.167501e+01
-4.163280e+01
-4.159154e+01
-4.155128e+01
-4.151207e+01
-4.147397e+01
-4.143702e+01
-4.140127e+01
-4.136677e+01
-4.133356e+01
-4.130168e+01
-4.127119e+01
-4.124211e+01
-4.121449e+01
-4.118836e+01
-4.116377e+01
-4.114075e+01
-4.111932e+01
-4.109953e+01
-4.108139e+01
-4.106495e+01
-4.105021e+01
-4.103720e+01
-4.102595e+01
-4.101646e+01
-4.100873e+01
-4.100278e+01
-4.099857e+01
-4.099608e+01
-4.099526e+01
-4.099600e+01
-4.099816e+01
-4.100152e+01
-4.100577e+01
-4.101052e+01
-4.101533e+01
-4.098226e+01
-4.341006e+01
-4.344117e+01
-4.350035e+01
-4.353635e+01
-4.357044e+01
-4.360282e+01
-4.363396e+01
-4.366422e+01
-4.369354e+01
-4.372046e+01
-4.374142e+01
-4.375306e+01
-4.375027e+01
-4.373164e+01
-4.371025e+01
-4.369023e+01
-4.367123e+01
-4.365230e+01
-4.363275e+01
-4.361216e+01
-4.359029e+01
-4.356700e+01
-4.354222e+01
-4.351590e+01
-4.348806e+01
-4.345869e+01
-4.342784e+01
-4.339553e+01
-4.336182e+01
-4.332676e+01
-4.329039e+01
-4.325278e+01
-4.321399e+01
-4.317407e+01
-4.313308e+01
-4.309109e+01
-4.304815e+01
-4.300434e+01
-4.295971e+01
-4.291432e+01
-4.286824e+01
-4.282153e+01
-4.277425e+01
-4.272647e+01
-4.267825e+01
-4.262966e+01
-4.258075e+01
-4.253159e+01
-4.248224e+01
-4.243278e+01
-4.238325e+01
-4.233373e+01
-4.228427e+01
-4.223494e+01
-4.218581e+01
-4.213692e+01
-4.208835e+01
-4.204016e+01
-4.199241e+01
-4.194515e+01
-4.189844e+01
-4.185236e+01
-4.180694e+01
-4.176225e+01
-4.171835e+01
-4.167529e+01
-4.163313e+01
-4.159191e+01
-4.155170e+01
-4.151254e+01
-4.147448e+01
-4.143758e+01
-4.140187e+01
-4.136741e+01
-4.133424e+01
-4.130240e+01
-4.127194e+01
-4.124289e+01
-4.121531e+01
-4.118921e+01
-4.116465e+01
-4.114165e+01
-4.112024e+01
-4.110046e+01
-4.108234e+01
-4.106591e+01
-4.105118e+01
-4.103818e+01
-4.102694e+01
-4.101746e+01
-4.100977e+01
-4.100386e+01
-4.099974e+01
-4.099741e+01
-4.099683e+01
-4.099796e+01
-4.100070e+01
-4.100488e+01
-4.101022e+01
-4.101631e+01
-4.102294e+01
-4.098987e+01
-4.342620e+01
-4.345732e+01
-4.351054e+01
-4.354308e+01
-4.357504e+01
-4.360567e+01
-4.363482e+01
-4.366224e+01
-4.368727e+01
-4.370842e+01
-4.372336e+01
-4.372976e+01
-4.372598e+01
-4.371283e+01
-4.369593e+01
-4.367856e+01
-4.366127e+01
-4.364367e+01
-4.362526e+01
-4.360568e+01
-4.358468e+01
-4.356214e+01
-4.353798e+01
-4.351219e+01
-4.348478e+01
-4.345577e+01
-4.342521e+01
-4.339315e+01
-4.335965e+01
-4.332475e+01
-4.328853e+01
-4.325105e+01
-4.321236e+01
-4.317253e+01
-4.313162e+01
-4.308970e+01
-4.304684e+01
-4.300308e+01
-4.295851e+01
-4.291318e+01
-4.286715e+01
-4.282049e+01
-4.277326e+01
-4.272553e+01
-4.267736e+01
-4.262881e+01
-4.257995e+01
-4.253084e+01
-4.248155e+01
-4.243213e+01
-4.238265e+01
-4.233318e+01
-4.228377e+01
-4.223449e+01
-4.218540e+01
-4.213656e+01
-4.208804e+01
-4.203990e+01
-4.199219e+01
-4.194498e+01
-4.189832e+01
-4.185228e+01
-4.180691e+01
-4.176226e+01
-4.171841e+01
-4.167539e+01
-4.163327e+01
-4.159210e+01
-4.155192e+01
-4.151280e+01
-4.147478e+01
-4.143792e+01
-4.140224e+01
-4.136782e+01
-4.133468e+01
-4.130287e+01
-4.127244e+01
-4.124343e+01
-4.121587e+01
-4.118980e+01
-4.116525e+01
-4.114227e+01
-4.112088e+01
-4.110112e+01
-4.108301e+01
-4.106658e+01
-4.105186e+01
-4.103887e+01
-4.102763e+01
-4.101816e+01
-4.101049e+01
-4.100463e+01
-4.100060e+01
-4.099842e+01
-4.099811e+01
-4.099967e+01
-4.100308e+01
-4.100829e+01
-4.101510e+01
-4.102313e+01
-4.103273e+01
-4.099966e+01
-4.343319e+01
-4.346431e+01
-4.351575e+01
-4.354685e+01
-4.357754e+01
-4.360686e+01
-4.363434e+01
-4.365942e+01
-4.368128e+01
-4.369865e+01
-4.371002e+01
-4.371410e+01
-4.371052e+01
-4.370038e+01
-4.368651e+01
-4.367115e+01
-4.365507e+01
-4.363827e+01
-4.362049e+01
-4.360143e+01
-4.358090e+01
-4.355877e+01
-4.353497e+01
-4.350949e+01
-4.348234e+01
-4.345356e+01
-4.342319e+01
-4.339128e+01
-4.335790e+01
-4.332312e+01
-4.328698e+01
-4.324957e+01
-4.321095e+01
-4.317118e+01
-4.313033e+01
-4.308846e+01
-4.304563e+01
-4.300192e+01
-4.295739e+01
-4.291210e+01
-4.286611e+01
-4.281948e+01
-4.277229e+01
-4.272460e+01
-4.267647e+01
-4.262796e+01
-4.257913e+01
-4.253006e+01
-4.248081e+01
-4.243143e+01
-4.238199e+01
-4.233255e+01
-4.228318e+01
-4.223394e+01
-4.218490e+01
-4.213610e+01
-4.208762e+01
-4.203952e+01
-4.199185e+01
-4.194467e+01
-4.189805e+01
-4.185205e+01
-4.180672e+01
-4.176211e+01
-4.171829e+01
-4.167531e+01
-4.163323e+01
-4.159209e+01
-4.155195e+01
-4.151286e+01
-4.147487e+01
-4.143804e+01
-4.140240e+01
-4.136800e+01
-4.133489e+01
-4.130311e+01
-4.127271e+01
-4.124371e+01
-4.121617e+01
-4.119012e+01
-4.116560e+01
-4.114263e+01
-4.112125e+01
-4.110150e+01
-4.108340e+01
-4.106697e+01
-4.105225e+01
-4.103926e+01
-4.102802e+01
-4.101855e+01
-4.101089e+01
-4.100506e+01
-4.100110e+01
-4.099904e+01
-4.099894e+01
-4.100088e+01
-4.100494e+01
-4.101121e+01
-4.101973e+01
-4.103035e+01
-4.104472e+01
-4.101165e+01
-4.343033e+01
-4.346146e+01
-4.351532e+01
-4.354708e+01
-4.357757e+01
-4.360626e+01
-4.363270e+01
-4.365624e+01
-4.367606e+01
-4.369118e+01
-4.370064e+01
-4.370383e+01
-4.370084e+01
-4.369261e+01
-4.368083e+01
-4.366699e+01
-4.365184e+01
-4.363557e+01
-4.361810e+01
-4.359926e+01
-4.357889e+01
-4.355691e+01
-4.353324e+01
-4.350787e+01
-4.348082e+01
-4.345212e+01
-4.342181e+01
-4.338996e+01
-4.335663e+01
-4.332188e+01
-4.328578e+01
-4.324839e+01
-4.320979e+01
-4.317004e+01
-4.312921e+01
-4.308736e+01
-4.304456e+01
-4.300087e+01
-4.295635e+01
-4.291108e+01
-4.286511e+01
-4.281851e+01
-4.277135e+01
-4.272368e+01
-4.267557e+01
-4.262708e+01
-4.257829e+01
-4.252925e+01
-4.248002e+01
-4.243067e+01
-4.238126e+01
-4.233186e+01
-4.228252e+01
-4.223331e+01
-4.218430e+01
-4.213553e+01
-4.208708e+01
-4.203901e+01
-4.199137e+01
-4.194423e+01
-4.189764e+01
-4.185167e+01
-4.180637e+01
-4.176179e+01
-4.171800e+01
-4.167505e+01
-4.163300e+01
-4.159189e+01
-4.155178e+01
-4.151272e+01
-4.147476e+01
-4.143794e+01
-4.140233e+01
-4.136796e+01
-4.133487e+01
-4.130311e+01
-4.127273e+01
-4.124375e+01
-4.121623e+01
-4.119020e+01
-4.116568e+01
-4.114273e+01
-4.112136e+01
-4.110161e+01
-4.108351e+01
-4.106708e+01
-4.105236e+01
-4.103936e+01
-4.102812e+01
-4.101865e+01
-4.101098e+01
-4.100516e+01
-4.100121e+01
-4.099920e+01
-4.099922e+01
-4.100137e+01
-4.100586e+01
-4.101294e+01
-4.102299e+01
-4.103647e+01
-4.105824e+01
-4.102517e+01
-4.341701e+01
-4.344813e+01
-4.350971e+01
-4.354385e+01
-4.357516e+01
-4.360413e+01
-4.363037e+01
-4.365323e+01
-4.367201e+01
-4.368601e+01
-4.369467e+01
-4.369773e+01
-4.369545e+01
-4.368861e+01
-4.367831e+01
-4.366560e+01
-4.365114e+01
-4.363520e+01
-4.361785e+01
-4.359900e+01
-4.357859e+01
-4.355653e+01
-4.353279e+01
-4.350735e+01
-4.348024e+01
-4.345148e+01
-4.342113e+01
-4.338923e+01
-4.335586e+01
-4.332107e+01
-4.328494e+01
-4.324753e+01
-4.320890e+01
-4.316913e+01
-4.312829e+01
-4.308642e+01
-4.304361e+01
-4.299992e+01
-4.295541e+01
-4.291013e+01
-4.286417e+01
-4.281758e+01
-4.277042e+01
-4.272276e+01
-4.267467e+01
-4.262620e+01
-4.257742e+01
-4.252840e+01
-4.247919e+01
-4.242986e+01
-4.238047e+01
-4.233109e+01
-4.228178e+01
-4.223259e+01
-4.218360e+01
-4.213486e+01
-4.208644e+01
-4.203839e+01
-4.199077e+01
-4.194366e+01
-4.189709e+01
-4.185114e+01
-4.180586e+01
-4.176131e+01
-4.171755e+01
-4.167462e+01
-4.163258e+01
-4.159150e+01
-4.155141e+01
-4.151237e+01
-4.147443e+01
-4.143764e+01
-4.140204e+01
-4.136769e+01
-4.133462e+01
-4.130288e+01
-4.127251e+01
-4.124355e+01
-4.121604e+01
-4.119001e+01
-4.116551e+01
-4.114256e+01
-4.112120e+01
-4.110146e+01
-4.108336e+01
-4.106693e+01
-4.105220e+01
-4.103920e+01
-4.102794e+01
-4.101846e+01
-4.101078e+01
-4.100493e+01
-4.100097e+01
-4.099894e+01
-4.099893e+01
-4.100107e+01
-4.100556e+01
-4.101276e+01
-4.102330e+01
-4.103835e+01
-4.107001e+01
-4.103694e+01
-4.339525e+01
-4.342637e+01
-4.350065e+01
-4.353765e+01
-4.357099e+01
-4.360130e+01
-4.362815e+01
-4.365102e+01
-4.366951e+01
-4.368319e+01
-4.369175e+01
-4.369514e+01
-4.369364e+01
-4.368789e+01
-4.367870e+01
-4.366681e+01
-4.365280e+01
-4.363701e+01
-4.361959e+01
-4.360056e+01
-4.357991e+01
-4.355759e+01
-4.353360e+01
-4.350793e+01
-4.348061e+01
-4.345166e+01
-4.342114e+01
-4.338909e+01
-4.335559e+01
-4.332069e+01
-4.328447e+01
-4.324697e+01
-4.320828e+01
-4.316845e+01
-4.312755e+01
-4.308565e+01
-4.304281e+01
-4.299908e+01
-4.295455e+01
-4.290926e+01
-4.286329e+01
-4.281668e+01
-4.276952e+01
-4.272185e+01
-4.267376e+01
-4.262530e+01
-4.257653e+01
-4.252751e+01
-4.247831e+01
-4.242900e+01
-4.237962e+01
-4.233026e+01
-4.228096e+01
-4.223179e+01
-4.218281e+01
-4.213408e+01
-4.208568e+01
-4.203764e+01
-4.199005e+01
-4.194294e+01
-4.189640e+01
-4.185046e+01
-4.180520e+01
-4.176067e+01
-4.171692e+01
-4.167401e+01
-4.163199e+01
-4.159091e+01
-4.155084e+01
-4.151182e+01
-4.147389e+01
-4.143711e+01
-4.140153e+01
-4.136719e+01
-4.133413e+01
-4.130241e+01
-4.127205e+01
-4.124310e+01
-4.121560e+01
-4.118958e+01
-4.116509e+01
-4.114214e+01
-4.112079e+01
-4.110104e+01
-4.108294e+01
-4.106651e+01
-4.105178e+01
-4.103877e+01
-4.102750e+01
-4.101800e+01
-4.101030e+01
-4.100443e+01
-4.100042e+01
-4.099832e+01
-4.099820e+01
-4.100014e+01
-4.100424e+01
-4.101068e+01
-4.101966e+01
-4.103142e+01
-4.106655e+01
-4.103348e+01
-4.337858e+01
-4.340970e+01
-4.348156e+01
-4.352888e+01
-4.356735e+01
-4.359979e+01
-4.362750e+01
-4.365060e+01
-4.366918e+01
-4.368301e+01
-4.369190e+01
-4.369583e+01
-4.369510e+01