# vtk DataFile Version 3.0
Scalar Field
ASCII
DATASET RECTILINEAR_GRID
DIMENSIONS 102 22 1
X_COORDINATES 102 double
0.000000 0.100000 0.200000 0.300000 0.400000 0.500000 0.600000 0.700000 0.800000 0.900000 1.000000 1.100000 1.200000 1.300000 1.400000 1.500000 1.600000 1.700000 1.800000 1.900000 2.000000 2.100000 2.200000 2.300000 2.400000 2.500000 2.600000 2.700000 2.800000 2.900000 3.000000 3.100000 3.200000 3.300000 3.400000 3.500000 3.600000 3.700000 3.800000 3.900000 4.000000 4.100000 4.200000 4.300000 4.400000 4.500000 4.600000 4.700000 4.800000 4.900000 5.000000 5.100000 5.200000 5.300000 5.400000 5.500000 5.600000 5.700000 5.800000 5.900000 6.000000 6.100000 6.200000 6.300000 6.400000 6.500000 6.600000 6.700000 6.800000 6.900000 7.000000 7.100000 7.200000 7.300000 7.400000 7.500000 7.600000 7.700000 7.800000 7.900000 8.000000 8.100000 8.200000 8.300000 8.400000 8.500000 8.600000 8.700000 8.800000 8.900000 9.000000 9.100000 9.200000 9.300000 9.400000 9.500000 9.600000 9.700000 9.800000 9.900000 10.000000 10.100000 
Y_COORDINATES 22 double
0.000000 0.100000 0.200000 0.300000 0.400000 0.500000 0.600000 0.700000 0.800000 0.900000 1.000000 1.100000 1.200000 1.300000 1.400000 1.500000 1.600000 1.700000 1.800000 1.900000 2.000000 2.100000 
Z_COORDINATES 1 double
0.0
POINT_DATA 2244
SCALARS Pressure double 1
LOOKUP_TABLE default
0.000000e+00
0.000000e+00
0.000000e+00
0.000000e+00
0.000000e+00
0.000000e+00
0.000000e+00
0.000000e+00
0.000000e+00
0.000000e+00
-3.800996e+02
-3.801247e+02
-3.801247e+02
-3.801154e+02
-3.800988e+02
-3.800764e+02
-3.800504e+02
-3.800236e+02
-3.799988e+02
-3.799782e+02
-3.799630e+02
-3.799530e+02
-3.799475e+02
-3.799456e+02
-3.799465e+02
-3.799493e+02
-3.799534e+02
-3.799585e+02
-3.799642e+02
-3.799703e+02
-3.799767e+02
-3.799832e+02
-3.799897e+02
-3.799962e+02
-3.800026e+02
-3.800090e+02
-3.800154e+02
-3.800217e+02
-3.800278e+02
-3.800340e+02
-3.800400e+02
-3.800460e+02
-3.800519e+02
-3.800577e+02
-3.800635e+02
-3.800692e+02
-3.800748e+02
-3.800804e+02
-3.800860e+02
-3.800915e+02
-3.800969e+02
-3.801023e+02
-3.801076e+02
-3.801129e+02
-3.801181e+02
-3.801233e+02
-3.801284e+02
-3.801335e+02
-3.801386e+02
-3.801435e+02
-3.801485e+02
-3.801534e+02
-3.801582e+02
-3.801630e+02
-3.801678e+02
-3.801725e+02
-3.801772e+02
-3.801818e+02
-3.801863e+02
-3.801909e+02
-3.801953e+02
-3.801998e+02
-3.802041e+02
-3.802085e+02
-3.802128e+02
-3.802170e+02
-3.802212e+02
-3.802253e+02
-3.802294e+02
-3.802335e+02
-3.802375e+02
-3.802414e+02
-3.802453e+02
-3.802492e+02
-3.802530e+02
-3.802567e+02
-3.802604e+02
-3.802641e+02
-3.802677e+02
-3.802713e+02
-3.802748e+02
-3.802783e+02
-3.802817e+02
-3.802852e+02
-3.802886e+02
-3.802921e+02
-3.802956e+02
-3.802993e+02
-3.803032e+02
-3.803074e+02
-3.803112e+02
0.000000e+00
0.000000e+00
0.000000e+00
0.000000e+00
0.000000e+00
0.000000e+00
0.000000e+00
0.000000e+00
0.000000e+00
0.000000e+00
0.000000e+00
-3.801247e+02
-3.801498e+02
-3.801498e+02
-3.801405e+02
-3.801239e+02
-3.801015e+02
-3.800755e+02
-3.800488e+02
-3.800239e+02
-3.800034e+02
-3.799881e+02
-3.799781e+02
-3.799726e+02
-3.799707e+02
-3.799717e+02
-3.799744e+02
-3.799786e+02
-3.799836e+02
-3.799893e+02
-3.799955e+02
-3.800018e+02
-3.800083e+02
-3.800148e+02
-3.800213e+02
-3.800278e+02
-3.800342e+02
-3.800405e+02
-3.800468e+02
-3.800530e+02
-3.800591e+02
-3.800651e+02
-3.800711e+02
-3.800770e+02
-3.800828e+02
-3.800886e+02
-3.800943e+02
-3.801000e+02
-3.801056e+02
-3.801111e+02
-3.801166e+02
-3.801220e+02
-3.801274e+02
-3.801327e+02
-3.801380e+02
-3.801432e+02
-3.801484e+02
-3.801536e+02
-3.801586e+02
-3.801637e+02
-3.801687e+02
-3.801736e+02
-3.801785e+02
-3.801834e+02
-3.801882e+02
-3.801929e+02
-3.801976e+02
-3.802023e+02
-3.802069e+02
-3.802115e+02
-3.802160e+02
-3.802205e+02
-3.802249e+02
-3.802293e+02
-3.802336e+02
-3.802379e+02
-3.802421e+02
-3.802463e+02
-3.802505e+02
-3.802545e+02
-3.802586e+02
-3.802626e+02
-3.802665e+02
-3.802704e+02
-3.802743e+02
-3.802781e+02
-3.802819e+02
-3.802856e+02
-3.802892e+02
-3.802928e+02
-3.802964e+02
-3.802999e+02
-3.803034e+02
-3.803069e+02
-3.803103e+02
-3.803137e+02
-3.803172e+02
-3.803207e+02
-3.803244e+02
-3.803283e+02
-3.803325e+02
-3.803364e+02
-3.803112e+02
0.000000e+00
0.000000e+00
0.000000e+00
0.000000e+00
0.000000e+00
0.000000e+00
0.000000e+00
0.000000e+00
0.000000e+00
0.000000e+00
-3.801318e+02
-3.801569e+02
-3.801557e+02
-3.801466e+02
-3.801304e+02
-3.801081e+02
-3.800811e+02
-3.800531e+02
-3.800273e+02
-3.800061e+02
-3.799905e+02
-3.799804e+02
-3.799749e+02
-3.799730e+02
-3.799737e+02
-3.799764e+02
-3.799805e+02
-3.799855e+02
-3.799911e+02
-3.799972e+02
-3.800035e+02
-3.800099e+02
-3.800164e+02
-3.800228e+02
-3.800292e+02
-3.800356e+02
-3.800419e+02
-3.800481e+02
-3.800543e+02
-3.800604e+02
-3.800664e+02
-3.800723e+02
-3.800782e+02
-3.800840e+02
-3.800898e+02
-3.800955e+02
-3.801011e+02
-3.801067e+02
-3.801122e+02
-3.801177e+02
-3.801232e+02
-3.801285e+02
-3.801339e+02
-3.801391e+02
-3.801444e+02
-3.801495e+02
-3.801547e+02
-3.801598e+02
-3.801648e+02
-3.801698e+02
-3.801747e+02
-3.801796e+02
-3.801845e+02
-3.801893e+02
-3.801940e+02
-3.801987e+02
-3.802034e+02
-3.802080e+02
-3.802126e+02
-3.802171e+02
-3.802216e+02
-3.802260e+02
-3.802304e+02
-3.802347e+02
-3.802390e+02
-3.802432e+02
-3.802474e+02
-3.802516e+02
-3.802557e+02
-3.802597e+02
-3.802637e+02
-3.802676e+02
-3.802715e+02
-3.802754e+02
-3.802792e+02
-3.802830e+02
-3.802867e+02
-3.802903e+02
-3.802939e+02
-3.802975e+02
-3.803010e+02
-3.803045e+02
-3.803079e+02
-3.803114e+02
-3.803148e+02
-3.803182e+02
-3.803217e+02
-3.803253e+02
-3.803293e+02
-3.803337e+02
-3.803366e+02
-3.803114e+02
0.000000e+00
0.000000e+00
0.000000e+00
0.000000e+00
0.000000e+00
0.000000e+00
0.000000e+00
0.000000e+00
0.000000e+00
0.000000e+00
-3.801440e+02
-3.801691e+02
-3.801679e+02
-3.801589e+02
-3.801423e+02
-3.801188e+02
-3.800893e+02
-3.800581e+02
-3.800298e+02
-3.800071e+02
-3.799910e+02
-3.799808e+02
-3.799754e+02
-3.799736e+02
-3.799745e+02
-3.799773e+02
-3.799814e+02
-3.799863e+02
-3.799919e+02
-3.799979e+02
-3.800041e+02
-3.800104e+02
-3.800168e+02
-3.800232e+02
-3.800296e+02
-3.800359e+02
-3.800421e+02
-3.800483e+02
-3.800545e+02
-3.800605e+02
-3.800665e+02
-3.800724e+02
-3.800783e+02
-3.800841e+02
-3.800899e+02
-3.800955e+02
-3.801012e+02
-3.801068e+02
-3.801123e+02
-3.801178e+02
-3.801232e+02
-3.801285e+02
-3.801339e+02
-3.801391e+02
-3.801444e+02
-3.801495e+02
-3.801547e+02
-3.801598e+02
-3.801648e+02
-3.801698e+02
-3.801747e+02
-3.801796e+02
-3.801845e+02
-3.801893e+02
-3.801940e+02
-3.801987e+02
-3.802034e+02
-3.802080e+02
-3.802126e+02
-3.802171e+02
-3.802216e+02
-3.802260e+02
-3.802304e+02
-3.802347e+02
-3.802390e+02
-3.802432e+02
-3.802474e+02
-3.802516e+02
-3.802556e+02
-3.802597e+02
-3.802637e+02
-3.802676e+02
-3.802715e+02
-3.802754e+02
-3.802792e+02
-3.802830e+02
-3.802867e+02
-3.802903e+02
-3.802939e+02
-3.802975e+02
-3.803010e+02
-3.803045e+02
-3.803079e+02
-3.803113e+02
-3.803146e+02
-3.803180e+02
-3.803214e+02
-3.803249e+02
-3.803285e+02
-3.803325e+02
-3.803343e+02
-3.803091e+02
0.000000e+00
0.000000e+00
0.000000e+00
0.000000e+00
0.000000e+00
0.000000e+00
0.000000e+00
0.000000e+00
0.000000e+00
0.000000e+00
-3.801627e+02
-3.801879e+02
-3.801875e+02
-3.801792e+02
-3.801624e+02
-3.801371e+02
-3.801037e+02
-3.800672e+02
-3.800341e+02
-3.800085e+02
-3.799910e+02
-3.799805e+02
-3.799752e+02
-3.799737e+02
-3.799748e+02
-3.799778e+02
-3.799819e+02
-3.799869e+02
-3.799925e+02
-3.799985e+02
-3.800046e+02
-3.800109e+02
-3.800172e+02
-3.800235e+02
-3.800298e+02
-3.800361e+02
-3.800423e+02
-3.800485e+02
-3.800546e+02
-3.800607e+02
-3.800666e+02
-3.800725e+02
-3.800784e+02
-3.800842e+02
-3.800899e+02
-3.800956e+02
-3.801012e+02
-3.801068e+02
-3.801123e+02
-3.801178e+02
-3.801232e+02
-3.801285e+02
-3.801339e+02
-3.801391e+02
-3.801444e+02
-3.801495e+02
-3.801547e+02
-3.801597e+02
-3.801648e+02
-3.801698e+02
-3.801747e+02
-3.801796e+02
-3.801844e+02
-3.801892e+02
-3.801940e+02
-3.801987e+02
-3.802034e+02
-3.802080e+02
-3.802125e+02
-3.802171e+02
-3.802215e+02
-3.802260e+02
-3.802303e+02
-3.802347e+02
-3.802390e+02
-3.802432e+02
-3.802474e+02
-3.802515e+02
-3.802556e+02
-3.802597e+02
-3.802637e+02
-3.802676e+02
-3.802715e+02
-3.802754e+02
-3.802792e+02
-3.802829e+02
-3.802866e+02
-3.802903e+02
-3.802939e+02
-3.802974e+02
-3.803010e+02
-3.803044e+02
-3.803078e+02
-3.803112e+02
-3.803145e+02
-3.803178e+02
-3.803211e+02
-3.803243e+02
-3.803276e+02
-3.803309e+02
-3.803320e+02
-3.803069e+02
0.000000e+00
0.000000e+00
0.000000e+00
0.000000e+00
0.000000e+00
0.000000e+00
0.000000e+00
0.000000e+00
0.000000e+00
0.000000e+00
-3.801889e+02
-3.802140e+02
-3.802155e+02
-3.802096e+02
-3.801947e+02
-3.801677e+02
-3.801285e+02
-3.800827e+02
-3.800410e+02
-3.800103e+02
-3.799907e+02
-3.799797e+02
-3.799745e+02
-3.799733e+02
-3.799747e+02
-3.799778e+02
-3.799821e+02
-3.799872e+02
-3.799928e+02
-3.799988e+02
-3.800049e+02
-3.800112e+02
-3.800175e+02
-3.800238e+02
-3.800300e+02
-3.800363e+02
-3.800425e+02
-3.800486e+02
-3.800547e+02
-3.800607e+02
-3.800667e+02
-3.800726e+02
-3.800784e+02
-3.800842e+02
-3.800899e+02
-3.800956e+02
-3.801012e+02
-3.801067e+02
-3.801123e+02
-3.801177e+02
-3.801231e+02
-3.801285e+02
-3.801338e+02
-3.801391e+02
-3.801443e+02
-3.801495e+02
-3.801546e+02
-3.801597e+02
-3.801647e+02
-3.801697e+02
-3.801747e+02
-3.801795e+02
-3.801844e+02
-3.801892e+02
-3.801939e+02
-3.801987e+02
-3.802033e+02
-3.802079e+02
-3.802125e+02
-3.802170e+02
-3.802215e+02
-3.802259e+02
-3.802303e+02
-3.802346e+02
-3.802389e+02
-3.802432e+02
-3.802473e+02
-3.802515e+02
-3.802556e+02
-3.802596e+02
-3.802636e+02
-3.802676e+02
-3.802715e+02
-3.802753e+02
-3.802791e+02
-3.802829e+02
-3.802866e+02
-3.802903e+02
-3.802939e+02
-3.802974e+02
-3.803009e+02
-3.803043e+02
-3.803077e+02
-3.803111e+02
-3.803144e+02
-3.803176e+02
-3.803207e+02
-3.803238e+02
-3.803268e+02
-3.803294e+02
-3.803304e+02
-3.803052e+02
0.000000e+00
0.000000e+00
0.000000e+00
0.000000e+00
0.000000e+00
0.000000e+00
0.000000e+00
0.000000e+00
0.000000e+00
0.000000e+00
-3.802230e+02
-3.802481e+02
-3.802517e+02
-3.802510e+02
-3.802416e+02
-3.802129e+02
-3.801627e+02
-3.801031e+02
-3.800494e+02
-3.800123e+02
-3.799903e+02
-3.799786e+02
-3.799735e+02
-3.799725e+02
-3.799742e+02
-3.799776e+02
-3.799820e+02
-3.799872e+02
-3.799929e+02
-3.799989e+02
-3.800050e+02
-3.800113e+02
-3.800176e+02
-3.800239e+02
-3.800301e+02
-3.800363e+02
-3.800425e+02
-3.800486e+02
-3.800547e+02
-3.800607e+02
-3.800666e+02
-3.800725e+02
-3.800783e+02
-3.800841e+02
-3.800898e+02
-3.800955e+02
-3.801011e+02
-3.801067e+02
-3.801122e+02
-3.801177e+02
-3.801231e+02
-3.801284e+02
-3.801337e+02
-3.801390e+02
-3.801442e+02
-3.801494e+02
-3.801545e+02
-3.801596e+02
-3.801647e+02
-3.801696e+02
-3.801746e+02
-3.801795e+02
-3.801843e+02
-3.801891e+02
-3.801939e+02
-3.801986e+02
-3.802033e+02
-3.802079e+02
-3.802124e+02
-3.802170e+02
-3.802214e+02
-3.802259e+02
-3.802302e+02
-3.802346e+02
-3.802389e+02
-3.802431e+02
-3.802473e+02
-3.802514e+02
-3.802555e+02
-3.802596e+02
-3.802636e+02
-3.802675e+02
-3.802714e+02
-3.802753e+02
-3.802791e+02
-3.802828e+02
-3.802866e+02
-3.802902e+02
-3.802938e+02
-3.802974e+02
-3.803009e+02
-3.803043e+02
-3.803077e+02
-3.803110e+02
-3.803142e+02
-3.803174e+02
-3.803204e+02
-3.803234e+02
-3.803261e+02
-3.803284e+02
-3.803292e+02
-3.803040e+02
0.000000e+00
0.000000e+00
0.000000e+00
0.000000e+00
0.000000e+00
0.000000e+00
0.000000e+00
0.000000e+00
0.000000e+00
0.000000e+00
-3.802630e+02
-3.802881e+02
-3.802917e+02
-3.802950e+02
-3.802902e+02
-3.802567e+02
-3.801946e+02
-3.801208e+02
-3.800561e+02
-3.800141e+02
-3.799901e+02
-3.799778e+02
-3.799726e+02
-3.799718e+02
-3.799737e+02
-3.799772e+02
-3.799818e+02
-3.799871e+02
-3.799929e+02
-3.799989e+02
-3.800051e+02
-3.800113e+02
-3.800176e+02
-3.800238e+02
-3.800301e+02
-3.800363e+02
-3.800425e+02
-3.800486e+02
-3.800546e+02
-3.800606e+02
-3.800665e+02
-3.800724e+02
-3.800782e+02
-3.800840e+02
-3.800897e+02
-3.800954e+02
-3.801010e+02
-3.801066e+02
-3.801121e+02
-3.801176e+02
-3.801230e+02
-3.801283e+02
-3.801337e+02
-3.801389e+02
-3.801442e+02
-3.801493e+02
-3.801545e+02
-3.801595e+02
-3.801646e+02
-3.801696e+02
-3.801745e+02
-3.801794e+02
-3.801843e+02
-3.801891e+02
-3.801938e+02
-3.801985e+02
-3.802032e+02
-3.802078e+02
-3.802124e+02
-3.802169e+02
-3.802214e+02
-3.802258e+02
-3.802302e+02
-3.802345e+02
-3.802388e+02
-3.802430e+02
-3.802472e+02
-3.802514e+02
-3.802555e+02
-3.802595e+02
-3.802635e+02
-3.802675e+02
-3.802714e+02
-3.802752e+02
-3.802790e+02
-3.802828e+02
-3.802865e+02
-3.802902e+02
-3.802938e+02
-3.802973e+02
-3.803008e+02
-3.803042e+02
-3.803076e+02
-3.803109e+02
-3.803141e+02
-3.803172e+02
-3.803202e+02
-3.803230e+02
-3.803255e+02
-3.803276e+02
-3.803283e+02
-3.803032e+02
0.000000e+00
0.000000e+00
0.000000e+00
0.000000e+00
0.000000e+00
0.000000e+00
0.000000e+00
0.000000e+00
0.000000e+00
0.000000e+00
-3.803051e+02
-3.803302e+02
-3.803285e+02
-3.803331e+02
-3.803275e+02
-3.802856e+02
-3.802121e+02
-3.801281e+02
-3.800592e+02
-3.800156e+02
-3.799907e+02
-3.799779e+02
-3.799725e+02
-3.799716e+02
-3.799735e+02
-3.799771e+02
-3.799817e+02
-3.799871e+02
-3.799928e+02
-3.799988e+02
-3.800050e+02
-3.800113e+02
-3.800175e+02
-3.800238e+02
-3.800300e+02
-3.800362e+02
-3.800424e+02
-3.800485e+02
-3.800545e+02
-3.800605e+02
-3.800664e+02
-3.800723e+02
-3.800781e+02
-3.800839e+02
-3.800896e+02
-3.800953e+02
-3.801009e+02
-3.801065e+02
-3.801120e+02
-3.801174e+02
-3.801229e+02
-3.801282e+02
-3.801336e+02
-3.801388e+02
-3.801440e+02
-3.801492e+02
-3.801544e+02
-3.801594e+02
-3.801645e+02
-3.801695e+02
-3.801744e+02
-3.801793e+02
-3.801842e+02
-3.801890e+02
-3.801937e+02
-3.801984e+02
-3.802031e+02
-3.802077e+02
-3.802123e+02
-3.802168e+02
-3.802213e+02
-3.802257e+02
-3.802301e+02
-3.802344e+02
-3.802387e+02
-3.802430e+02
-3.802471e+02
-3.802513e+02
-3.802554e+02
-3.802594e+02
-3.802634e+02
-3.802674e+02
-3.802713e+02
-3.802752e+02
-3.802790e+02
-3.802827e+02
-3.802864e+02
-3.802901e+02
-3.802937e+02
-3.802972e+02
-3.803007e+02
-3.803042e+02
-3.803075e+02
-3.803108e+02
-3.803140e+02
-3.803170e+02
-3.803199e+02
-3.803226e+02
-3.803250e+02
-3.803270e+02
-3.803278e+02
-3.803027e+02
0.000000e+00
0.000000e+00
0.000000e+00
0.000000e+00
0.000000e+00
0.000000e+00
0.000000e+00
0.000000e+00
0.000000e+00
0.000000e+00
-3.803480e+02
-3.803732e+02
-3.803579e+02
-3.803594e+02
-3.803434e+02
-3.802905e+02
-3.802096e+02
-3.801232e+02
-3.800583e+02
-3.800168e+02
-3.799923e+02
-3.799792e+02
-3.799734e+02
-3.799722e+02
-3.799739e+02
-3.799773e+02
-3.799819e+02
-3.799872e+02
-3.799929e+02
-3.799989e+02
-3.800050e+02
-3.800112e+02
-3.800175e+02
-3.800237e+02
-3.800299e+02
-3.800361e+02
-3.800422e+02
-3.800483e+02
-3.800544e+02
-3.800603e+02
-3.800663e+02
-3.800721e+02
-3.800780e+02
-3.800837e+02
-3.800895e+02
-3.800951e+02
-3.801007e+02
-3.801063e+02
-3.801118e+02
-3.801173e+02
-3.801227e+02
-3.801281e+02
-3.801334e+02
-3.801387e+02
-3.801439e+02
-3.801491e+02
-3.801542e+02
-3.801593e+02
-3.801644e+02
-3.801694e+02
-3.801743e+02
-3.801792e+02
-3.801841e+02
-3.801889e+02
-3.801936e+02
-3.801983e+02
-3.802030e+02
-3.802076e+02
-3.802122e+02
-3.802167e+02
-3.802212e+02
-3.802256e+02
-3.802300e+02
-3.802343e+02
-3.802386e+02
-3.802429e+02
-3.802471e+02
-3.802512e+02
-3.802553e+02
-3.802594e+02
-3.802634e+02
-3.802673e+02
-3.802712e+02
-3.802751e+02
-3.802789e+02
-3.802827e+02
-3.802864e+02
-3.802900e+02
-3.802936e+02
-3.802972e+02
-3.803007e+02
-3.803041e+02
-3.803074e+02
-3.803107e+02
-3.803139e+02
-3.803169e+02
-3.803198e+02
-3.803224e+02
-3.803247e+02
-3.803267e+02
-3.803274e+02
-3.803023e+02
-3.796597e+02
-3.796849e+02
-3.797674e+02
-3.798289e+02
-3.798874e+02
-3.799438e+02
-3.799993e+02
-3.800560e+02
-3.801180e+02
-3.801830e+02
-3.803239e+02
-3.804212e+02
-3.803715e+02
-3.803582e+02
-3.803287e+02
-3.802683e+02
-3.801879e+02
-3.801100e+02
-3.800539e+02
-3.800168e+02
-3.799940e+02
-3.799813e+02
-3.799753e+02
-3.799738e+02
-3.799751e+02
-3.799783e+02
-3.799826e+02
-3.799877e+02
-3.799933e+02
-3.799992e+02
-3.800052e+02
-3.800113e+02
-3.800175e+02
-3.800237e+02
-3.800299e+02
-3.800360e+02
-3.800421e+02
-3.800482e+02
-3.800542e+02
-3.800602e+02
-3.800661e+02
-3.800720e+02
-3.800778e+02
-3.800836e+02
-3.800893e+02
-3.800950e+02
-3.801006e+02
-3.801062e+02
-3.801117e+02
-3.801172e+02
-3.801226e+02
-3.801280e+02
-3.801333e+02
-3.801386e+02
-3.801438e+02
-3.801490e+02
-3.801541e+02
-3.801592e+02
-3.801642e+02
-3.801692e+02
-3.801742e+02
-3.801791e+02
-3.801839e+02
-3.801887e+02
-3.801935e+02
-3.801982e+02
-3.802029e+02
-3.802075e+02
-3.802121e+02
-3.802166e+02
-3.802211e+02
-3.802255e+02
-3.802299e+02
-3.802342e+02
-3.802385e+02
-3.802428e+02
-3.802470e+02
-3.802511e+02
-3.802552e+02
-3.802593e+02
-3.802633e+02
-3.802672e+02
-3.802711e+02
-3.802750e+02
-3.802788e+02
-3.802826e+02
-3.802863e+02
-3.802899e+02
-3.802936e+02
-3.802971e+02
-3.803006e+02
-3.803040e+02
-3.803074e+02
-3.803106e+02
-3.803138e+02
-3.803168e+02
-3.803196e+02
-3.803222e+02
-3.803245e+02
-3.803264e+02
-3.803272e+02
-3.803021e+02
-3.796849e+02
-3.797100e+02
-3.797925e+02
-3.798540e+02
-3.799125e+02
-3.799689e+02
-3.800244e+02
-3.800812e+02
-3.801431e+02
-3.802082e+02
-3.802769e+02
-3.803361e+02
-3.803337e+02
-3.803179e+02
-3.802826e+02
-3.802252e+02
-3.801553e+02
-3.800936e+02
-3.800473e+02
-3.800154e+02
-3.799953e+02
-3.799836e+02
-3.799779e+02
-3.799762e+02
-3.799772e+02
-3.799800e+02
-3.799840e+02
-3.799888e+02
-3.799941e+02
-3.799997e+02
-3.800056e+02
-3.800116e+02
-3.800177e+02
-3.800238e+02
-3.800299e+02
-3.800360e+02
-3.800421e+02
-3.800481e+02
-3.800541e+02
-3.800600e+02
-3.800660e+02
-3.800718e+02
-3.800776e+02
-3.800834e+02
-3.800891e+02
-3.800948e+02
-3.801004e+02
-3.801060e+02
-3.801115e+02
-3.801170e+02
-3.801224e+02
-3.801278e+02
-3.801331e+02
-3.801384e+02
-3.801436e+02
-3.801488e+02
-3.801540e+02
-3.801591e+02
-3.801641e+02
-3.801691e+02
-3.801741e+02
-3.801790e+02
-3.801838e+02
-3.801886e+02
-3.801934e+02
-3.801981e+02
-3.802028e+02
-3.802074e+02
-3.802120e+02
-3.802165e+02
-3.802210e+02
-3.802254e+02
-3.802298e+02
-3.802341e+02
-3.802384e+02
-3.802426e+02
-3.802468e+02
-3.802510e+02
-3.802551e+02
-3.802591e+02
-3.802632e+02
-3.802671e+02
-3.802710e+02
-3.802749e+02
-3.802787e+02
-3.802825e+02
-3.802862e+02
-3.802899e+02
-3.802935e+02
-3.802970e+02
-3.803005e+02
-3.803040e+02
-3.803073e+02
-3.803106e+02
-3.803137e+02
-3.803167e+02
-3.803196e+02
-3.803221e+02
-3.803244e+02
-3.803263e+02
-3.803271e+02
-3.803020e+02
-3.797100e+02
-3.797351e+02
-3.798007e+02
-3.798548e+02
-3.799089e+02
-3.799625e+02
-3.800156e+02
-3.800692e+02
-3.801252e+02
-3.801797e+02
-3.802304e+02
-3.802695e+02
-3.802748e+02
-3.802604e+02
-3.802280e+02
-3.801799e+02
-3.801258e+02
-3.800780e+02
-3.800405e+02
-3.800139e+02
-3.799965e+02
-3.799862e+02
-3.799810e+02
-3.799793e+02
-3.799800e+02
-3.799823e+02
-3.799859e+02
-3.799903e+02
-3.799953e+02
-3.800007e+02
-3.800063e+02
-3.800121e+02
-3.800180e+02
-3.800240e+02
-3.800300e+02
-3.800360e+02
-3.800420e+02
-3.800480e+02
-3.800540e+02
-3.800599e+02
-3.800658e+02
-3.800717e+02
-3.800775e+02
-3.800832e+02
-3.800889e+02
-3.800946e+02
-3.801002e+02
-3.801058e+02
-3.801113e+02
-3.801168e+02
-3.801222e+02
-3.801276e+02
-3.801330e+02
-3.801382e+02
-3.801435e+02
-3.801487e+02
-3.801538e+02
-3.801589e+02
-3.801640e+02
-3.801690e+02
-3.801739e+02
-3.801788e+02
-3.801837e+02
-3.801885e+02
-3.801932e+02
-3.801980e+02
-3.802026e+02
-3.802073e+02
-3.802118e+02
-3.802164e+02
-3.802208e+02
-3.802253e+02
-3.802296e+02
-3.802340e+02
-3.802383e+02
-3.802425e+02
-3.802467e+02
-3.802509e+02
-3.802550e+02
-3.802590e+02
-3.802630e+02
-3.802670e+02
-3.802709e+02
-3.802748e+02
-3.802786e+02
-3.802824e+02
-3.802861e+02
-3.802898e+02
-3.802934e+02
-3.802969e+02
-3.803005e+02
-3.803039e+02
-3.803072e+02
-3.803105e+02
-3.803137e+02
-3.803167e+02
-3.803195e+02
-3.803221e+02
-3.803244e+02
-3.803263e+02
-3.803271e+02
-3.803020e+02
-3.797103e+02
-3.797354e+02
-3.797995e+02
-3.798509e+02
-3.799027e+02
-3.799541e+02
-3.800048e+02
-3.800549e+02
-3.801044e+02
-3.801506e+02
-3.801901e+02
-3.802172e+02
-3.802228e+02
-3.802105e+02
-3.801832e+02
-3.801451e+02
-3.801035e+02
-3.800657e+02
-3.800354e+02
-3.800133e+02
-3.799985e+02
-3.799894e+02
-3.799846e+02
-3.799828e+02
-3.799832e+02
-3.799852e+02
-3.799883e+02
-3.799923e+02
-3.799968e+02
-3.800019e+02
-3.800072e+02
-3.800128e+02
-3.800185e+02
-3.800244e+02
-3.800303e+02
-3.800362e+02
-3.800421e+02
-3.800480e+02
-3.800540e+02
-3.800598e+02
-3.800657e+02
-3.800715e+02
-3.800773e+02
-3.800831e+02
-3.800888e+02
-3.800945e+02
-3.801001e+02
-3.801056e+02
-3.801112e+02
-3.801166e+02
-3.801221e+02
-3.801275e+02
-3.801328e+02
-3.801381e+02
-3.801433e+02
-3.801485e+02
-3.801537e+02
-3.801588e+02
-3.801638e+02
-3.801688e+02
-3.801738e+02
-3.801787e+02
-3.801835e+02
-3.801883e+02
-3.801931e+02
-3.801978e+02
-3.802025e+02
-3.802071e+02
-3.802117e+02
-3.802162e+02
-3.802207e+02
-3.802251e+02
-3.802295e+02
-3.802338e+02
-3.802381e+02
-3.802424e+02
-3.802466e+02
-3.802507e+02
-3.802548e+02
-3.802589e+02
-3.802629e+02
-3.802669e+02
-3.802708e+02
-3.802747e+02
-3.802785e+02
-3.802823e+02
-3.802860e+02
-3.802897e+02
-3.802933e+02
-3.802969e+02
-3.803004e+02
-3.803038e+02
-3.803072e+02
-3.803105e+02
-3.803136e+02
-3.803167e+02
-3.803195e+02
-3.803222e+02
-3.803245e+02
-3.803264e+02
-3.803272e+02
-3.803021e+02
-3.797073e+02
-3.797324e+02
-3.797954e+02
-3.798451e+02
-3.798955e+02
-3.799454e+02
-3.799942e+02
-3.800415e+02
-3.800862e+02
-3.801259e+02
-3.801577e+02
-3.801779e+02
-3.801822e+02
-3.801718e+02
-3.801496e+02
-3.801197e+02
-3.800872e+02
-3.800572e+02
-3.800325e+02
-3.800140e+02
-3.800013e+02
-3.799932e+02
-3.799887e+02
-3.799868e+02
-3.799868e+02
-3.799884e+02
-3.799910e+02
-3.799945e+02
-3.799987e+02
-3.800034e+02
-3.800084e+02
-3.800137e+02
-3.800192e+02
-3.800249e+02
-3.800306e+02
-3.800364e+02
-3.800423e+02
-3.800481e+02
-3.800540e+02
-3.800598e+02
-3.800656e+02
-3.800714e+02
-3.800772e+02
-3.800829e+02
-3.800886e+02
-3.800943e+02
-3.800999e+02
-3.801055e+02
-3.801110e+02
-3.801165e+02
-3.801219e+02
-3.801273e+02
-3.801326e+02
-3.801379e+02
-3.801432e+02
-3.801483e+02
-3.801535e+02
-3.801586e+02
-3.801636e+02
-3.801686e+02
-3.801736e+02
-3.801785e+02
-3.801834e+02
-3.801882e+02
-3.801929e+02
-3.801977e+02
-3.802023e+02
-3.802070e+02
-3.802115e+02
-3.802161e+02
-3.802205e+02
-3.802250e+02
-3.802294e+02
-3.802337e+02
-3.802380e+02
-3.802422e+02
-3.802464e+02
-3.802506e+02
-3.802547e+02
-3.802588e+02
-3.802628e+02
-3.802667e+02
-3.802707e+02
-3.802745e+02
-3.802784e+02
-3.802821e+02
-3.802859e+02
-3.802896e+02
-3.802932e+02
-3.802968e+02
-3.803003e+02
-3.803037e+02
-3.803071e+02
-3.803104e+02
-3.803136e+02
-3.803167e+02
-3.803196e+02
-3.803223e+02
-3.803247e+02
-3.803267e+02
-3.803275e+02
-3.803024e+02
-3.797048e+02
-3.797300e+02
-3.797919e+02
-3.798403e+02
-3.798894e+02
-3.799382e+02
-3.799854e+02
-3.800300e+02
-3.800705e+02
-3.801049e+02
-3.801311e+02
-3.801466e+02
-3.801499e+02
-3.801417e+02
-3.801245e+02
-3.801013e+02
-3.800759e+02
-3.800519e+02
-3.800317e+02
-3.800162e+02
-3.800051e+02
-3.799977e+02
-3.799933e+02
-3.799911e+02
-3.799908e+02
-3.799918e+02
-3.799940e+02
-3.799970e+02
-3.800008e+02
-3.800050e+02
-3.800097e+02
-3.800148e+02
-3.800200e+02
-3.800255e+02
-3.800311e+02
-3.800368e+02
-3.800425e+02
-3.800483e+02
-3.800540e+02
-3.800598e+02
-3.800656e+02
-3.800714e+02
-3.800771e+02
-3.800828e+02
-3.800885e+02
-3.800942e+02
-3.800998e+02
-3.801053e+02
-3.801108e+02
-3.801163e+02
-3.801217e+02
-3.801271e+02
-3.801325e+02
-3.801377e+02
-3.801430e+02
-3.801482e+02
-3.801533e+02
-3.801584e+02
-3.801635e+02
-3.801685e+02
-3.801734e+02
-3.801783e+02
-3.801832e+02
-3.801880e+02
-3.801928e+02
-3.801975e+02
-3.802022e+02
-3.802068e+02
-3.802114e+02
-3.802159e+02
-3.802204e+02
-3.802248e+02
-3.802292e+02
-3.802335e+02
-3.802378e+02
-3.802421e+02
-3.802463e+02
-3.802504e+02
-3.802545e+02
-3.802586e+02
-3.802626e+02
-3.802666e+02
-3.802705e+02
-3.802744e+02
-3.802782e+02
-3.802820e+02
-3.802857e+02
-3.802894e+02
-3.802931e+02
-3.802967e+02
-3.803002e+02
-3.803037e+02
-3.803071e+02
-3.803104e+02
-3.803136e+02
-3.803167e+02
-3.803197e+02
-3.803225e+02
-3.803251e+02
-3.803272e+02
-3.803280e+02
-3.803028e+02
-3.797043e+02
-3.797294e+02
-3.797905e+02
-3.798381e+02
-3.798863e+02
-3.799336e+02
-3.799787e+02
-3.800203e+02
-3.800570e+02
-3.800872e+02
-3.801094e+02
-3.801223e+02
-3.801253e+02
-3.801194e+02
-3.801064e+02
-3.800888e+02
-3.800690e+02
-3.800498e+02
-3.800331e+02
-3.800198e+02
-3.800097e+02
-3.800027e+02
-3.799982e+02
-3.799957e+02
-3.799949e+02
-3.799954e+02
-3.799971e+02
-3.799996e+02
-3.800029e+02
-3.800068e+02
-3.800112e+02
-3.800159e+02
-3.800210e+02
-3.800262e+02
-3.800316e+02
-3.800372e+02
-3.800428e+02
-3.800485e+02
-3.800542e+02
-3.800599e+02
-3.800656e+02
-3.800714e+02
-3.800771e+02
-3.800828e+02
-3.800884e+02
-3.800940e+02
-3.800996e+02
-3.801052e+02
-3.801107e+02
-3.801162e+02
-3.801216e+02
-3.801270e+02
-3.801323e+02
-3.801376e+02
-3.801428e+02
-3.801480e+02
-3.801531e+02
-3.801582e+02
-3.801633e+02
-3.801683e+02
-3.801733e+02
-3.801782e+02
-3.801830e+02
-3.801878e+02
-3.801926e+02
-3.801973e+02
-3.802020e+02
-3.802066e+02
-3.802112e+02
-3.802157e+02
-3.802202e+02
-3.802246e+02
-3.802290e+02
-3.802334e+02
-3.802377e+02
-3.802419e+02
-3.802461e+02
-3.802503e+02
-3.802544e+02
-3.802584e+02
-3.802625e+02
-3.802664e+02
-3.802704e+02
-3.802742e+02
-3.802781e+02
-3.802819e+02
-3.802856e+02
-3.802893e+02
-3.802930e+02
-3.802966e+02
-3.803001e+02
-3.803036e+02
-3.803070e+02
-3.803104e+02
-3.803137e+02
-3.803168e+02
-3.803199e+02
-3.803228e+02
-3.803255e+02
-3.803279e+02
-3.803287e+02
-3.803036e+02
-3.797050e+02
-3.797301e+02
-3.797905e+02
-3.798376e+02
-3.798850e+02
-3.799309e+02
-3.799738e+02
-3.800126e+02
-3.800460e+02
-3.800729e+02
-3.800924e+02
-3.801038e+02
-3.801072e+02
-3.801035e+02
-3.800944e+02
-3.800813e+02
-3.800661e+02
-3.800507e+02
-3.800367e+02
-3.800248e+02
-3.800153e+02
-3.800083e+02
-3.800034e+02
-3.800004e+02
-3.799990e+02
-3.799990e+02
-3.800001e+02
-3.800022e+02
-3.800051e+02
-3.800086e+02
-3.800127e+02
-3.800171e+02
-3.800219e+02
-3.800270e+02
-3.800322e+02
-3.800376e+02
-3.800431e+02
-3.800487e+02
-3.800543e+02
-3.800600e+02
-3.800657e+02
-3.800714e+02
-3.800770e+02
-3.800827e+02
-3.800883e+02
-3.800939e+02
-3.800995e+02
-3.801050e+02
-3.801105e+02
-3.801160e+02
-3.801214e+02
-3.801268e+02
-3.801321e+02
-3.801374e+02
-3.801426e+02
-3.801478e+02
-3.801530e+02
-3.801581e+02
-3.801631e+02
-3.801681e+02
-3.801731e+02
-3.801780e+02
-3.801828e+02
-3.801877e+02
-3.801924e+02
-3.801971e+02
-3.802018e+02
-3.802064e+02
-3.802110e+02
-3.802155e+02
-3.802200e+02
-3.802245e+02
-3.802288e+02
-3.802332e+02
-3.802375e+02
-3.802417e+02
-3.802459e+02
-3.802501e+02
-3.802542e+02
-3.802583e+02
-3.802623e+02
-3.802663e+02
-3.802702e+02
-3.802741e+02
-3.802779e+02
-3.802817e+02
-3.802854e+02
-3.802892e+02
-3.802928e+02
-3.802964e+02
-3.803000e+02
-3.803035e+02
-3.803070e+02
-3.803104e+02
-3.803137e+02
-3.803170e+02
-3.803201e+02
-3.803232e+02
-3.803261e+02
-3.803289e+02
-3.803299e+02
-3.803048e+02
-3.797059e+02
-3.797311e+02
-3.797907e+02
-3.798379e+02
-3.798849e+02
-3.799296e+02
-3.799707e+02
-3.800070e+02
-3.800378e+02
-3.800623e+02
-3.800800e+02
-3.800908e+02
-3.800950e+02
-3.800936e+02
-3.800879e+02
-3.800784e+02
-3.800667e+02
-3.800540e+02
-3.800416e+02
-3.800305e+02
-3.800211e+02
-3.800138e+02
-3.800084e+02
-3.800048e+02
-3.800028e+02
-3.800023e+02
-3.800029e+02
-3.800045e+02
-3.800070e+02
-3.800102e+02
-3.800140e+02
-3.800182e+02
-3.800228e+02
-3.800277e+02
-3.800328e+02
-3.800380e+02
-3.800434e+02
-3.800489e+02
-3.800545e+02
-3.800601e+02
-3.800657e+02
-3.800714e+02
-3.800770e+02
-3.800826e+02
-3.800882e+02
-3.800938e+02
-3.800994e+02
-3.801049e+02
-3.801104e+02
-3.801159e+02
-3.801213e+02
-3.801266e+02
-3.801319e+02
-3.801372e+02
-3.801425e+02
-3.801476e+02
-3.801528e+02
-3.801579e+02
-3.801629e+02
-3.801679e+02
-3.801729e+02
-3.801778e+02
-3.801826e+02
-3.801875e+02
-3.801922e+02
-3.801969e+02
-3.802016e+02
-3.802062e+02
-3.802108e+02
-3.802153e+02
-3.802198e+02
-3.802243e+02
-3.802286e+02
-3.802330e+02
-3.802373e+02
-3.802415e+02
-3.802457e+02
-3.802499e+02
-3.802540e+02
-3.802581e+02
-3.802621e+02
-3.802661e+02
-3.802700e+02
-3.802739e+02
-3.802777e+02
-3.802815e+02
-3.802853e+02
-3.802890e+02
-3.802927e+02
-3.802963e+02
-3.802999e+02
-3.803034e+02
-3.803069e+02
-3.803104e+02
-3.803138e+02
-3.803171e+02
-3.803204e+02
-3.803236e+02
-3.803268e+02
-3.803302e+02
-3.803314e+02
-3.803062e+02
-3.797029e+02
-3.797281e+02
-3.797877e+02
-3.798366e+02
-3.798846e+02
-3.799293e+02
-3.799694e+02
-3.800043e+02
-3.800333e+02
-3.800564e+02
-3.800734e+02
-3.800842e+02
-3.800894e+02
-3.800900e+02
-3.800864e+02
-3.800792e+02
-3.800695e+02
-3.800582e+02
-3.800466e+02
-3.800356e+02
-3.800261e+02
-3.800182e+02
-3.800123e+02
-3.800081e+02
-3.800057e+02
-3.800047e+02
-3.800049e+02
-3.800062e+02
-3.800084e+02
-3.800114e+02
-3.800149e+02
-3.800190e+02
-3.800234e+02
-3.800282e+02
-3.800331e+02
-3.800383e+02
-3.800436e+02
-3.800491e+02
-3.800546e+02
-3.800601e+02
-3.800657e+02
-3.800713e+02
-3.800769e+02
-3.800826e+02
-3.800881e+02
-3.800937e+02
-3.800993e+02
-3.801048e+02
-3.801102e+02
-3.801157e+02
-3.801211e+02
-3.801264e+02
-3.801318e+02
-3.801370e+02
-3.801423e+02
-3.801474e+02
-3.801526e+02
-3.801577e+02
-3.801627e+02
-3.801677e+02
-3.801727e+02
-3.801776e+02
-3.801824e+02
-3.801873e+02
-3.801920e+02
-3.801967e+02
-3.802014e+02
-3.802060e+02
-3.802106e+02
-3.802151e+02
-3.802196e+02
-3.802240e+02
-3.802284e+02
-3.802328e+02
-3.802371e+02
-3.802413e+02
-3.802455e+02
-3.802497e+02
-3.802538e+02
-3.802579e+02
-3.802619e+02
-3.802659e+02
-3.802698e+02
-3.802737e+02
-3.802775e+02
-3.802813e+02
-3.802851e+02
-3.802888e+02
-3.802925e+02
-3.802961e+02
-3.802997e+02
-3.803033e+02
-3.803068e+02
-3.803103e+02
-3.803138e+02
-3.803172e+02
-3.803206e+02
-3.803239e+02
-3.803274e+02
-3.803312e+02
-3.803327e+02
-3.803076e+02
-3.796800e+02
-3.797051e+02
-3.797799e+02
-3.798350e+02
-3.798860e+02
-3.799320e+02
-3.799723e+02
-3.800065e+02
-3.800347e+02
-3.800570e+02
-3.800736e+02
-3.800845e+02
-3.800902e+02