# vtk DataFile Version 3.0
Scalar Field
ASCII
DATASET RECTILINEAR_GRID
DIMENSIONS 102 22 1
X_COORDINATES 102 double
0.000000 0.100000 0.200000 0.300000 0.400000 0.500000 0.600000 0.700000 0.800000 0.900000 1.000000 1.100000 1.200000 1.300000 1.400000 1.500000 1.600000 1.700000 1.800000 1.900000 2.000000 2.100000 2.200000 2.300000 2.400000 2.500000 2.600000 2.700000 2.800000 2.900000 3.000000 3.100000 3.200000 3.300000 3.400000 3.500000 3.600000 3.700000 3.800000 3.900000 4.000000 4.100000 4.200000 4.300000 4.400000 4.500000 4.600000 4.700000 4.800000 4.900000 5.000000 5.100000 5.200000 5.300000 5.400000 5.500000 5.600000 5.700000 5.800000 5.900000 6.000000 6.100000 6.200000 6.300000 6.400000 6.500000 6.600000 6.700000 6.800000 6.900000 7.000000 7.100000 7.200000 7.300000 7.400000 7.500000 7.600000 7.700000 7.800000 7.900000 8.000000 8.100000 8.200000 8.300000 8.400000 8.500000 8.600000 8.700000 8.800000 8.900000 9.000000 9.100000 9.200000 9.300000 9.400000 9.500000 9.600000 9.700000 9.800000 9.900000 10.000000 10.100000 
Y_COORDINATES 22 double
0.000000 0.100000 0.200000 0.300000 0.400000 0.500000 0.600000 0.700000 0.800000 0.900000 1.000000 1.100000 1.200000 1.300000 1.400000 1.500000 1.600000 1.700000 1.800000 1.900000 2.000000 2.100000 
Z_COORDINATES 1 double
0.0
POINT_DATA 2244
SCALARS Pressure double 1
LOOKUP_TABLE default
0.000000e+00
0.000000e+00
0.000000e+00
0.000000e+00
0.000000e+00
0.000000e+00
0.000000e+00
0.000000e+00
0.000000e+00
0.000000e+00
-6.701752e+02
-6.701950e+02
-6.701990e+02
-6.701991e+02
-6.701953e+02
-6.701866e+02
-6.701717e+02
-6.701495e+02
-6.701199e+02
-6.700841e+02
-6.700456e+02
-6.700081e+02
-6.699747e+02
-6.699480e+02
-6.699288e+02
-6.699168e+02
-6.699105e+02
-6.699084e+02
-6.699092e+02
-6.699119e+02
-6.699158e+02
-6.699204e+02
-6.699254e+02
-6.699306e+02
-6.699358e+02
-6.699411e+02
-6.699462e+02
-6.699512e+02
-6.699562e+02
-6.699610e+02
-6.699656e+02
-6.699702e+02
-6.699746e+02
-6.699789e+02
-6.699832e+02
-6.699873e+02
-6.699913e+02
-6.699953e+02
-6.699991e+02
-6.700029e+02
-6.700067e+02
-6.700103e+02
-6.700139e+02
-6.700174e+02
-6.700209e+02
-6.700243e+02
-6.700276e+02
-6.700309e+02
-6.700342e+02
-6.700373e+02
-6.700405e+02
-6.700435e+02
-6.700466e+02
-6.700495e+02
-6.700524e+02
-6.700553e+02
-6.700581e+02
-6.700609e+02
-6.700636e+02
-6.700662e+02
-6.700688e+02
-6.700714e+02
-6.700739e+02
-6.700763e+02
-6.700787e+02
-6.700811e+02
-6.700834e+02
-6.700856e+02
-6.700878e+02
-6.700900e+02
-6.700921e+02
-6.700941e+02
-6.700961e+02
-6.700980e+02
-6.700999e+02
-6.701018e+02
-6.701035e+02
-6.701053e+02
-6.701070e+02
-6.701086e+02
-6.701102e+02
-6.701118e+02
-6.701133e+02
-6.701148e+02
-6.701162e+02
-6.701177e+02
-6.701192e+02
-6.701207e+02
-6.701223e+02
-6.701239e+02
-6.701255e+02
0.000000e+00
0.000000e+00
0.000000e+00
0.000000e+00
0.000000e+00
0.000000e+00
0.000000e+00
0.000000e+00
0.000000e+00
0.000000e+00
0.000000e+00
-6.701950e+02
-6.702147e+02
-6.702188e+02
-6.702188e+02
-6.702150e+02
-6.702063e+02
-6.701914e+02
-6.701692e+02
-6.701396e+02
-6.701038e+02
-6.700653e+02
-6.700278e+02
-6.699944e+02
-6.699677e+02
-6.699485e+02
-6.699365e+02
-6.699302e+02
-6.699281e+02
-6.699289e+02
-6.699317e+02
-6.699355e+02
-6.699401e+02
-6.699451e+02
-6.699503e+02
-6.699556e+02
-6.699608e+02
-6.699659e+02
-6.699710e+02
-6.699759e+02
-6.699807e+02
-6.699853e+02
-6.699899e+02
-6.699943e+02
-6.699987e+02
-6.700029e+02
-6.700070e+02
-6.700110e+02
-6.700150e+02
-6.700189e+02
-6.700227e+02
-6.700264e+02
-6.700300e+02
-6.700336e+02
-6.700371e+02
-6.700406e+02
-6.700440e+02
-6.700474e+02
-6.700506e+02
-6.700539e+02
-6.700571e+02
-6.700602e+02
-6.700632e+02
-6.700663e+02
-6.700692e+02
-6.700721e+02
-6.700750e+02
-6.700778e+02
-6.700806e+02
-6.700833e+02
-6.700859e+02
-6.700885e+02
-6.700911e+02
-6.700936e+02
-6.700960e+02
-6.700984e+02
-6.701008e+02
-6.701031e+02
-6.701053e+02
-6.701075e+02
-6.701097e+02
-6.701118e+02
-6.701138e+02
-6.701158e+02
-6.701177e+02
-6.701196e+02
-6.701215e+02
-6.701233e+02
-6.701250e+02
-6.701267e+02
-6.701283e+02
-6.701299e+02
-6.701315e+02
-6.701330e+02
-6.701345e+02
-6.701359e+02
-6.701374e+02
-6.701389e+02
-6.701404e+02
-6.701420e+02
-6.701436e+02
-6.701452e+02
-6.701255e+02
0.000000e+00
0.000000e+00
0.000000e+00
0.000000e+00
0.000000e+00
0.000000e+00
0.000000e+00
0.000000e+00
0.000000e+00
0.000000e+00
-6.701961e+02
-6.702158e+02
-6.702189e+02
-6.702192e+02
-6.702166e+02
-6.702097e+02
-6.701968e+02
-6.701764e+02
-6.701480e+02
-6.701126e+02
-6.700735e+02
-6.700348e+02
-6.699991e+02
-6.699707e+02
-6.699510e+02
-6.699387e+02
-6.699323e+02
-6.699301e+02
-6.699307e+02
-6.699332e+02
-6.699370e+02
-6.699415e+02
-6.699464e+02
-6.699516e+02
-6.699568e+02
-6.699619e+02
-6.699670e+02
-6.699720e+02
-6.699769e+02
-6.699816e+02
-6.699863e+02
-6.699908e+02
-6.699952e+02
-6.699995e+02
-6.700037e+02
-6.700078e+02
-6.700119e+02
-6.700158e+02
-6.700197e+02
-6.700234e+02
-6.700272e+02
-6.700308e+02
-6.700344e+02
-6.700379e+02
-6.700414e+02
-6.700448e+02
-6.700481e+02
-6.700514e+02
-6.700546e+02
-6.700578e+02
-6.700609e+02
-6.700640e+02
-6.700670e+02
-6.700700e+02
-6.700729e+02
-6.700758e+02
-6.700786e+02
-6.700813e+02
-6.700840e+02
-6.700867e+02
-6.700893e+02
-6.700918e+02
-6.700943e+02
-6.700968e+02
-6.700992e+02
-6.701015e+02
-6.701038e+02
-6.701061e+02
-6.701083e+02
-6.701104e+02
-6.701125e+02
-6.701146e+02
-6.701165e+02
-6.701185e+02
-6.701204e+02
-6.701222e+02
-6.701240e+02
-6.701257e+02
-6.701274e+02
-6.701291e+02
-6.701307e+02
-6.701322e+02
-6.701337e+02
-6.701352e+02
-6.701367e+02
-6.701381e+02
-6.701396e+02
-6.701411e+02
-6.701427e+02
-6.701445e+02
-6.701458e+02
-6.701261e+02
0.000000e+00
0.000000e+00
0.000000e+00
0.000000e+00
0.000000e+00
0.000000e+00
0.000000e+00
0.000000e+00
0.000000e+00
0.000000e+00
-6.702002e+02
-6.702199e+02
-6.702233e+02
-6.702248e+02
-6.702244e+02
-6.702205e+02
-6.702108e+02
-6.701933e+02
-6.701659e+02
-6.701290e+02
-6.700866e+02
-6.700429e+02
-6.700029e+02
-6.699726e+02
-6.699522e+02
-6.699398e+02
-6.699334e+02
-6.699312e+02
-6.699318e+02
-6.699343e+02
-6.699379e+02
-6.699423e+02
-6.699471e+02
-6.699521e+02
-6.699572e+02
-6.699623e+02
-6.699673e+02
-6.699723e+02
-6.699771e+02
-6.699818e+02
-6.699864e+02
-6.699909e+02
-6.699953e+02
-6.699996e+02
-6.700038e+02
-6.700079e+02
-6.700119e+02
-6.700158e+02
-6.700197e+02
-6.700234e+02
-6.700271e+02
-6.700308e+02
-6.700344e+02
-6.700379e+02
-6.700413e+02
-6.700447e+02
-6.700481e+02
-6.700513e+02
-6.700546e+02
-6.700577e+02
-6.700609e+02
-6.700639e+02
-6.700669e+02
-6.700699e+02
-6.700728e+02
-6.700757e+02
-6.700785e+02
-6.700812e+02
-6.700839e+02
-6.700866e+02
-6.700892e+02
-6.700918e+02
-6.700943e+02
-6.700967e+02
-6.700991e+02
-6.701015e+02
-6.701038e+02
-6.701060e+02
-6.701082e+02
-6.701103e+02
-6.701124e+02
-6.701145e+02
-6.701165e+02
-6.701184e+02
-6.701203e+02
-6.701221e+02
-6.701239e+02
-6.701256e+02
-6.701273e+02
-6.701290e+02
-6.701306e+02
-6.701321e+02
-6.701336e+02
-6.701351e+02
-6.701365e+02
-6.701379e+02
-6.701393e+02
-6.701408e+02
-6.701423e+02
-6.701441e+02
-6.701448e+02
-6.701250e+02
0.000000e+00
0.000000e+00
0.000000e+00
0.000000e+00
0.000000e+00
0.000000e+00
0.000000e+00
0.000000e+00
0.000000e+00
0.000000e+00
-6.702090e+02
-6.702287e+02
-6.702327e+02
-6.702358e+02
-6.702382e+02
-6.702380e+02
-6.702327e+02
-6.702191e+02
-6.701929e+02
-6.701530e+02
-6.701044e+02
-6.700528e+02
-6.700081e+02
-6.699753e+02
-6.699537e+02
-6.699410e+02
-6.699345e+02
-6.699324e+02
-6.699330e+02
-6.699355e+02
-6.699390e+02
-6.699433e+02
-6.699480e+02
-6.699529e+02
-6.699579e+02
-6.699629e+02
-6.699678e+02
-6.699726e+02
-6.699774e+02
-6.699821e+02
-6.699866e+02
-6.699911e+02
-6.699954e+02
-6.699997e+02
-6.700039e+02
-6.700079e+02
-6.700119e+02
-6.700158e+02
-6.700197e+02
-6.700234e+02
-6.700271e+02
-6.700307e+02
-6.700343e+02
-6.700378e+02
-6.700413e+02
-6.700447e+02
-6.700480e+02
-6.700513e+02
-6.700545e+02
-6.700577e+02
-6.700608e+02
-6.700639e+02
-6.700669e+02
-6.700698e+02
-6.700727e+02
-6.700756e+02
-6.700784e+02
-6.700812e+02
-6.700839e+02
-6.700865e+02
-6.700891e+02
-6.700917e+02
-6.700942e+02
-6.700966e+02
-6.700990e+02
-6.701014e+02
-6.701037e+02
-6.701059e+02
-6.701081e+02
-6.701103e+02
-6.701123e+02
-6.701144e+02
-6.701164e+02
-6.701183e+02
-6.701202e+02
-6.701220e+02
-6.701238e+02
-6.701256e+02
-6.701272e+02
-6.701289e+02
-6.701304e+02
-6.701320e+02
-6.701335e+02
-6.701349e+02
-6.701363e+02
-6.701377e+02
-6.701390e+02
-6.701403e+02
-6.701417e+02
-6.701432e+02
-6.701433e+02
-6.701236e+02
0.000000e+00
0.000000e+00
0.000000e+00
0.000000e+00
0.000000e+00
0.000000e+00
0.000000e+00
0.000000e+00
0.000000e+00
0.000000e+00
-6.702215e+02
-6.702412e+02
-6.702455e+02
-6.702499e+02
-6.702551e+02
-6.702591e+02
-6.702588e+02
-6.702501e+02
-6.702234e+02
-6.701783e+02
-6.701217e+02
-6.700635e+02
-6.700140e+02
-6.699788e+02
-6.699560e+02
-6.699428e+02
-6.699361e+02
-6.699339e+02
-6.699344e+02
-6.699368e+02
-6.699402e+02
-6.699444e+02
-6.699490e+02
-6.699537e+02
-6.699586e+02
-6.699635e+02
-6.699683e+02
-6.699731e+02
-6.699778e+02
-6.699823e+02
-6.699868e+02
-6.699912e+02
-6.699956e+02
-6.699998e+02
-6.700039e+02
-6.700080e+02
-6.700119e+02
-6.700158e+02
-6.700196e+02
-6.700234e+02
-6.700271e+02
-6.700307e+02
-6.700343e+02
-6.700378e+02
-6.700412e+02
-6.700446e+02
-6.700479e+02
-6.700512e+02
-6.700544e+02
-6.700576e+02
-6.700607e+02
-6.700638e+02
-6.700668e+02
-6.700697e+02
-6.700726e+02
-6.700755e+02
-6.700783e+02
-6.700811e+02
-6.700838e+02
-6.700864e+02
-6.700890e+02
-6.700916e+02
-6.700941e+02
-6.700965e+02
-6.700989e+02
-6.701013e+02
-6.701036e+02
-6.701058e+02
-6.701080e+02
-6.701102e+02
-6.701123e+02
-6.701143e+02
-6.701163e+02
-6.701182e+02
-6.701201e+02
-6.701219e+02
-6.701237e+02
-6.701255e+02
-6.701271e+02
-6.701288e+02
-6.701303e+02
-6.701318e+02
-6.701333e+02
-6.701347e+02
-6.701361e+02
-6.701374e+02
-6.701386e+02
-6.701398e+02
-6.701410e+02
-6.701421e+02
-6.701418e+02
-6.701221e+02
0.000000e+00
0.000000e+00
0.000000e+00
0.000000e+00
0.000000e+00
0.000000e+00
0.000000e+00
0.000000e+00
0.000000e+00
0.000000e+00
-6.702354e+02
-6.702551e+02
-6.702591e+02
-6.702639e+02
-6.702710e+02
-6.702784e+02
-6.702828e+02
-6.702764e+02
-6.702482e+02
-6.701984e+02
-6.701357e+02
-6.700718e+02
-6.700192e+02
-6.699826e+02
-6.699591e+02
-6.699454e+02
-6.699384e+02
-6.699359e+02
-6.699362e+02
-6.699384e+02
-6.699416e+02
-6.699456e+02
-6.699500e+02
-6.699546e+02
-6.699593e+02
-6.699641e+02
-6.699688e+02
-6.699735e+02
-6.699781e+02
-6.699826e+02
-6.699871e+02
-6.699914e+02
-6.699957e+02
-6.699998e+02
-6.700039e+02
-6.700080e+02
-6.700119e+02
-6.700158e+02
-6.700196e+02
-6.700233e+02
-6.700270e+02
-6.700306e+02
-6.700342e+02
-6.700377e+02
-6.700411e+02
-6.700445e+02
-6.700478e+02
-6.700511e+02
-6.700543e+02
-6.700575e+02
-6.700606e+02
-6.700637e+02
-6.700667e+02
-6.700696e+02
-6.700725e+02
-6.700754e+02
-6.700782e+02
-6.700810e+02
-6.700837e+02
-6.700863e+02
-6.700889e+02
-6.700915e+02
-6.700940e+02
-6.700964e+02
-6.700988e+02
-6.701012e+02
-6.701035e+02
-6.701057e+02
-6.701079e+02
-6.701101e+02
-6.701122e+02
-6.701142e+02
-6.701162e+02
-6.701181e+02
-6.701200e+02
-6.701218e+02
-6.701236e+02
-6.701254e+02
-6.701270e+02
-6.701286e+02
-6.701302e+02
-6.701317e+02
-6.701332e+02
-6.701345e+02
-6.701359e+02
-6.701371e+02
-6.701383e+02
-6.701393e+02
-6.701403e+02
-6.701410e+02
-6.701405e+02
-6.701207e+02
0.000000e+00
0.000000e+00
0.000000e+00
0.000000e+00
0.000000e+00
0.000000e+00
0.000000e+00
0.000000e+00
0.000000e+00
0.000000e+00
-6.702485e+02
-6.702682e+02
-6.702703e+02
-6.702737e+02
-6.702816e+02
-6.702919e+02
-6.703009e+02
-6.702954e+02
-6.702642e+02
-6.702099e+02
-6.701429e+02
-6.700757e+02
-6.700230e+02
-6.699863e+02
-6.699628e+02
-6.699489e+02
-6.699416e+02
-6.699387e+02
-6.699386e+02
-6.699404e+02
-6.699433e+02
-6.699470e+02
-6.699512e+02
-6.699556e+02
-6.699601e+02
-6.699647e+02
-6.699693e+02
-6.699739e+02
-6.699784e+02
-6.699829e+02
-6.699872e+02
-6.699915e+02
-6.699958e+02
-6.699999e+02
-6.700040e+02
-6.700080e+02
-6.700119e+02
-6.700157e+02
-6.700195e+02
-6.700233e+02
-6.700269e+02
-6.700305e+02
-6.700341e+02
-6.700376e+02
-6.700410e+02
-6.700444e+02
-6.700477e+02
-6.700510e+02
-6.700542e+02
-6.700574e+02
-6.700605e+02
-6.700636e+02
-6.700666e+02
-6.700695e+02
-6.700724e+02
-6.700753e+02
-6.700781e+02
-6.700809e+02
-6.700836e+02
-6.700862e+02
-6.700888e+02
-6.700914e+02
-6.700939e+02
-6.700963e+02
-6.700987e+02
-6.701011e+02
-6.701034e+02
-6.701056e+02
-6.701078e+02
-6.701100e+02
-6.701121e+02
-6.701141e+02
-6.701161e+02
-6.701180e+02
-6.701199e+02
-6.701217e+02
-6.701235e+02
-6.701253e+02
-6.701269e+02
-6.701285e+02
-6.701301e+02
-6.701316e+02
-6.701330e+02
-6.701344e+02
-6.701357e+02
-6.701368e+02
-6.701379e+02
-6.701389e+02
-6.701397e+02
-6.701402e+02
-6.701394e+02
-6.701197e+02
0.000000e+00
0.000000e+00
0.000000e+00
0.000000e+00
0.000000e+00
0.000000e+00
0.000000e+00
0.000000e+00
0.000000e+00
0.000000e+00
-6.702608e+02
-6.702805e+02
-6.702774e+02
-6.702777e+02
-6.702863e+02
-6.703001e+02
-6.703118e+02
-6.703032e+02
-6.702679e+02
-6.702102e+02
-6.701414e+02
-6.700751e+02
-6.700249e+02
-6.699898e+02
-6.699669e+02
-6.699530e+02
-6.699455e+02
-6.699422e+02
-6.699417e+02
-6.699430e+02
-6.699455e+02
-6.699488e+02
-6.699526e+02
-6.699568e+02
-6.699611e+02
-6.699655e+02
-6.699700e+02
-6.699744e+02
-6.699788e+02
-6.699832e+02
-6.699874e+02
-6.699917e+02
-6.699958e+02
-6.699999e+02
-6.700040e+02
-6.700079e+02
-6.700118e+02
-6.700157e+02
-6.700195e+02
-6.700232e+02
-6.700268e+02
-6.700304e+02
-6.700340e+02
-6.700375e+02
-6.700409e+02
-6.700443e+02
-6.700476e+02
-6.700509e+02
-6.700541e+02
-6.700573e+02
-6.700604e+02
-6.700635e+02
-6.700665e+02
-6.700694e+02
-6.700723e+02
-6.700752e+02
-6.700780e+02
-6.700808e+02
-6.700835e+02
-6.700861e+02
-6.700887e+02
-6.700913e+02
-6.700938e+02
-6.700962e+02
-6.700986e+02
-6.701010e+02
-6.701033e+02
-6.701055e+02
-6.701077e+02
-6.701099e+02
-6.701120e+02
-6.701140e+02
-6.701160e+02
-6.701179e+02
-6.701198e+02
-6.701216e+02
-6.701234e+02
-6.701252e+02
-6.701268e+02
-6.701284e+02
-6.701300e+02
-6.701315e+02
-6.701329e+02
-6.701342e+02
-6.701355e+02
-6.701366e+02
-6.701376e+02
-6.701385e+02
-6.701391e+02
-6.701395e+02
-6.701386e+02
-6.701189e+02
0.000000e+00
0.000000e+00
0.000000e+00
0.000000e+00
0.000000e+00
0.000000e+00
0.000000e+00
0.000000e+00
0.000000e+00
0.000000e+00
-6.702763e+02
-6.702960e+02
-6.702799e+02
-6.702741e+02
-6.702848e+02
-6.703013e+02
-6.703103e+02
-6.702968e+02
-6.702577e+02
-6.701990e+02
-6.701318e+02
-6.700714e+02
-6.700255e+02
-6.699929e+02
-6.699711e+02
-6.699576e+02
-6.699499e+02
-6.699463e+02
-6.699453e+02
-6.699461e+02
-6.699481e+02
-6.699510e+02
-6.699544e+02
-6.699582e+02
-6.699623e+02
-6.699664e+02
-6.699707e+02
-6.699750e+02
-6.699792e+02
-6.699835e+02
-6.699877e+02
-6.699918e+02
-6.699960e+02
-6.700000e+02
-6.700040e+02
-6.700079e+02
-6.700118e+02
-6.700156e+02
-6.700194e+02
-6.700231e+02
-6.700267e+02
-6.700303e+02
-6.700339e+02
-6.700374e+02
-6.700408e+02
-6.700442e+02
-6.700475e+02
-6.700508e+02
-6.700540e+02
-6.700572e+02
-6.700603e+02
-6.700633e+02
-6.700663e+02
-6.700693e+02
-6.700722e+02
-6.700751e+02
-6.700779e+02
-6.700806e+02
-6.700834e+02
-6.700860e+02
-6.700886e+02
-6.700912e+02
-6.700937e+02
-6.700961e+02
-6.700985e+02
-6.701009e+02
-6.701032e+02
-6.701054e+02
-6.701076e+02
-6.701098e+02
-6.701119e+02
-6.701139e+02
-6.701159e+02
-6.701178e+02
-6.701197e+02
-6.701216e+02
-6.701233e+02
-6.701251e+02
-6.701267e+02
-6.701283e+02
-6.701299e+02
-6.701314e+02
-6.701328e+02
-6.701341e+02
-6.701353e+02
-6.701364e+02
-6.701374e+02
-6.701382e+02
-6.701387e+02
-6.701390e+02
-6.701381e+02
-6.701184e+02
-6.696597e+02
-6.696794e+02
-6.697559e+02
-6.698149e+02
-6.698708e+02
-6.699245e+02
-6.699769e+02
-6.700298e+02
-6.700864e+02
-6.701487e+02
-6.702590e+02
-6.703240e+02
-6.702754e+02
-6.702652e+02
-6.702774e+02
-6.702920e+02
-6.702942e+02
-6.702752e+02
-6.702345e+02
-6.701787e+02
-6.701177e+02
-6.700658e+02
-6.700254e+02
-6.699959e+02
-6.699757e+02
-6.699627e+02
-6.699549e+02
-6.699508e+02
-6.699494e+02
-6.699497e+02
-6.699512e+02
-6.699536e+02
-6.699566e+02
-6.699600e+02
-6.699637e+02
-6.699676e+02
-6.699716e+02
-6.699757e+02
-6.699798e+02
-6.699839e+02
-6.699880e+02
-6.699921e+02
-6.699961e+02
-6.700001e+02
-6.700040e+02
-6.700079e+02
-6.700118e+02
-6.700156e+02
-6.700193e+02
-6.700230e+02
-6.700266e+02
-6.700302e+02
-6.700338e+02
-6.700372e+02
-6.700407e+02
-6.700441e+02
-6.700474e+02
-6.700506e+02
-6.700539e+02
-6.700570e+02
-6.700602e+02
-6.700632e+02
-6.700662e+02
-6.700692e+02
-6.700721e+02
-6.700750e+02
-6.700778e+02
-6.700805e+02
-6.700832e+02
-6.700859e+02
-6.700885e+02
-6.700911e+02
-6.700936e+02
-6.700960e+02
-6.700984e+02
-6.701008e+02
-6.701031e+02
-6.701053e+02
-6.701075e+02
-6.701097e+02
-6.701118e+02
-6.701138e+02
-6.701158e+02
-6.701177e+02
-6.701196e+02
-6.701215e+02
-6.701232e+02
-6.701250e+02
-6.701266e+02
-6.701282e+02
-6.701298e+02
-6.701313e+02
-6.701327e+02
-6.701340e+02
-6.701352e+02
-6.701363e+02
-6.701372e+02
-6.701380e+02
-6.701385e+02
-6.701387e+02
-6.701377e+02
-6.701180e+02
-6.696794e+02
-6.696991e+02
-6.697756e+02
-6.698346e+02
-6.698905e+02
-6.699442e+02
-6.699966e+02
-6.700495e+02
-6.701061e+02
-6.701685e+02
-6.702334e+02
-6.702702e+02
-6.702612e+02
-6.702567e+02
-6.702627e+02
-6.702687e+02
-6.702637e+02
-6.702419e+02
-6.702036e+02
-6.701542e+02
-6.701039e+02
-6.700604e+02
-6.700255e+02
-6.699993e+02
-6.699807e+02
-6.699682e+02
-6.699604e+02
-6.699560e+02
-6.699540e+02
-6.699537e+02
-6.699547e+02
-6.699566e+02
-6.699591e+02
-6.699621e+02
-6.699654e+02
-6.699690e+02
-6.699727e+02
-6.699766e+02
-6.699805e+02
-6.699844e+02
-6.699884e+02
-6.699924e+02
-6.699963e+02
-6.700002e+02
-6.700041e+02
-6.700080e+02
-6.700118e+02
-6.700155e+02
-6.700193e+02
-6.700229e+02
-6.700266e+02
-6.700301e+02
-6.700337e+02
-6.700371e+02
-6.700406e+02
-6.700439e+02
-6.700473e+02
-6.700505e+02
-6.700538e+02
-6.700569e+02
-6.700600e+02
-6.700631e+02
-6.700661e+02
-6.700691e+02
-6.700720e+02
-6.700749e+02
-6.700777e+02
-6.700804e+02
-6.700831e+02
-6.700858e+02
-6.700884e+02
-6.700910e+02
-6.700935e+02
-6.700959e+02
-6.700983e+02
-6.701007e+02
-6.701030e+02
-6.701052e+02
-6.701074e+02
-6.701096e+02
-6.701117e+02
-6.701137e+02
-6.701157e+02
-6.701176e+02
-6.701195e+02
-6.701214e+02
-6.701232e+02
-6.701249e+02
-6.701265e+02
-6.701282e+02
-6.701297e+02
-6.701312e+02
-6.701326e+02
-6.701339e+02
-6.701351e+02
-6.701362e+02
-6.701371e+02
-6.701378e+02
-6.701383e+02
-6.701385e+02
-6.701376e+02
-6.701179e+02
-6.697035e+02
-6.697232e+02
-6.697832e+02
-6.698350e+02
-6.698869e+02
-6.699379e+02
-6.699883e+02
-6.700389e+02
-6.700911e+02
-6.701440e+02
-6.701927e+02
-6.702243e+02
-6.702309e+02
-6.702325e+02
-6.702357e+02
-6.702361e+02
-6.702275e+02
-6.702063e+02
-6.701732e+02
-6.701328e+02
-6.700925e+02
-6.700565e+02
-6.700267e+02
-6.700035e+02
-6.699864e+02
-6.699744e+02
-6.699665e+02
-6.699616e+02
-6.699591e+02
-6.699582e+02
-6.699586e+02
-6.699600e+02
-6.699620e+02
-6.699645e+02
-6.699674e+02
-6.699706e+02
-6.699740e+02
-6.699776e+02
-6.699813e+02
-6.699851e+02
-6.699889e+02
-6.699927e+02
-6.699966e+02
-6.700004e+02
-6.700042e+02
-6.700080e+02
-6.700118e+02
-6.700155e+02
-6.700192e+02
-6.700229e+02
-6.700265e+02
-6.700301e+02
-6.700336e+02
-6.700370e+02
-6.700405e+02
-6.700438e+02
-6.700472e+02
-6.700504e+02
-6.700536e+02
-6.700568e+02
-6.700599e+02
-6.700630e+02
-6.700660e+02
-6.700690e+02
-6.700719e+02
-6.700748e+02
-6.700776e+02
-6.700803e+02
-6.700830e+02
-6.700857e+02
-6.700883e+02
-6.700909e+02
-6.700934e+02
-6.700958e+02
-6.700982e+02
-6.701006e+02
-6.701029e+02
-6.701051e+02
-6.701073e+02
-6.701095e+02
-6.701116e+02
-6.701136e+02
-6.701156e+02
-6.701176e+02
-6.701194e+02
-6.701213e+02
-6.701231e+02
-6.701248e+02
-6.701265e+02
-6.701281e+02
-6.701296e+02
-6.701311e+02
-6.701325e+02
-6.701338e+02
-6.701350e+02
-6.701361e+02
-6.701371e+02
-6.701378e+02
-6.701383e+02
-6.701385e+02
-6.701376e+02
-6.701179e+02
-6.697040e+02
-6.697237e+02
-6.697822e+02
-6.698314e+02
-6.698810e+02
-6.699300e+02
-6.699783e+02
-6.700259e+02
-6.700731e+02
-6.701186e+02
-6.701584e+02
-6.701861e+02
-6.701989e+02
-6.702045e+02
-6.702071e+02
-6.702051e+02
-6.701954e+02
-6.701766e+02
-6.701493e+02
-6.701171e+02
-6.700845e+02
-6.700547e+02
-6.700292e+02
-6.700086e+02
-6.699928e+02
-6.699812e+02
-6.699731e+02
-6.699678e+02
-6.699646e+02
-6.699631e+02
-6.699629e+02
-6.699636e+02
-6.699651e+02
-6.699671e+02
-6.699696e+02
-6.699724e+02
-6.699755e+02
-6.699788e+02
-6.699823e+02
-6.699858e+02
-6.699895e+02
-6.699932e+02
-6.699969e+02
-6.700007e+02
-6.700044e+02
-6.700081e+02
-6.700119e+02
-6.700156e+02
-6.700192e+02
-6.700229e+02
-6.700264e+02
-6.700300e+02
-6.700335e+02
-6.700370e+02
-6.700404e+02
-6.700437e+02
-6.700470e+02
-6.700503e+02
-6.700535e+02
-6.700567e+02
-6.700598e+02
-6.700629e+02
-6.700659e+02
-6.700689e+02
-6.700718e+02
-6.700746e+02
-6.700775e+02
-6.700802e+02
-6.700829e+02
-6.700856e+02
-6.700882e+02
-6.700908e+02
-6.700933e+02
-6.700957e+02
-6.700981e+02
-6.701005e+02
-6.701028e+02
-6.701050e+02
-6.701072e+02
-6.701094e+02
-6.701115e+02
-6.701135e+02
-6.701155e+02
-6.701175e+02
-6.701194e+02
-6.701212e+02
-6.701230e+02
-6.701247e+02
-6.701264e+02
-6.701280e+02
-6.701296e+02
-6.701310e+02
-6.701325e+02
-6.701338e+02
-6.701350e+02
-6.701361e+02
-6.701371e+02
-6.701379e+02
-6.701385e+02
-6.701387e+02
-6.701378e+02
-6.701181e+02
-6.697016e+02
-6.697213e+02
-6.697787e+02
-6.698262e+02
-6.698743e+02
-6.699219e+02
-6.699683e+02
-6.700135e+02
-6.700569e+02
-6.700970e+02
-6.701311e+02
-6.701561e+02
-6.701708e+02
-6.701784e+02
-6.701810e+02
-6.701785e+02
-6.701694e+02
-6.701534e+02
-6.701315e+02
-6.701060e+02
-6.700798e+02
-6.700550e+02
-6.700331e+02
-6.700147e+02
-6.699999e+02
-6.699885e+02
-6.699801e+02
-6.699742e+02
-6.699704e+02
-6.699682e+02
-6.699673e+02
-6.699674e+02
-6.699683e+02
-6.699698e+02
-6.699718e+02
-6.699743e+02
-6.699770e+02
-6.699800e+02
-6.699833e+02
-6.699866e+02
-6.699901e+02
-6.699937e+02
-6.699973e+02
-6.700009e+02
-6.700046e+02
-6.700083e+02
-6.700120e+02
-6.700156e+02
-6.700192e+02
-6.700228e+02
-6.700264e+02
-6.700299e+02
-6.700334e+02
-6.700369e+02
-6.700403e+02
-6.700436e+02
-6.700470e+02
-6.700502e+02
-6.700534e+02
-6.700566e+02
-6.700597e+02
-6.700628e+02
-6.700658e+02
-6.700688e+02
-6.700717e+02
-6.700745e+02
-6.700774e+02
-6.700801e+02
-6.700828e+02
-6.700855e+02
-6.700881e+02
-6.700907e+02
-6.700932e+02
-6.700956e+02
-6.700980e+02
-6.701004e+02
-6.701027e+02
-6.701049e+02
-6.701071e+02
-6.701093e+02
-6.701114e+02
-6.701134e+02
-6.701154e+02
-6.701174e+02
-6.701193e+02
-6.701211e+02
-6.701229e+02
-6.701246e+02
-6.701263e+02
-6.701279e+02
-6.701295e+02
-6.701310e+02
-6.701324e+02
-6.701338e+02
-6.701350e+02
-6.701362e+02
-6.701372e+02
-6.701380e+02
-6.701387e+02
-6.701391e+02
-6.701383e+02
-6.701185e+02
-6.697000e+02
-6.697197e+02
-6.697760e+02
-6.698223e+02
-6.698692e+02
-6.699156e+02
-6.699606e+02
-6.700035e+02
-6.700435e+02
-6.700795e+02
-6.701096e+02
-6.701321e+02
-6.701467e+02
-6.701547e+02
-6.701575e+02
-6.701553e+02
-6.701479e+02
-6.701355e+02
-6.701188e+02
-6.700991e+02
-6.700782e+02
-6.700577e+02
-6.700388e+02
-6.700220e+02
-6.700078e+02
-6.699963e+02
-6.699874e+02
-6.699809e+02
-6.699763e+02
-6.699734e+02
-6.699717e+02
-6.699712e+02
-6.699715e+02
-6.699725e+02
-6.699741e+02
-6.699761e+02
-6.699785e+02
-6.699813e+02
-6.699843e+02
-6.699874e+02
-6.699908e+02
-6.699942e+02
-6.699977e+02
-6.700012e+02
-6.700048e+02
-6.700085e+02
-6.700121e+02
-6.700157e+02
-6.700193e+02
-6.700229e+02
-6.700264e+02
-6.700299e+02
-6.700334e+02
-6.700368e+02
-6.700402e+02
-6.700436e+02
-6.700469e+02
-6.700501e+02
-6.700534e+02
-6.700565e+02
-6.700596e+02
-6.700627e+02
-6.700657e+02
-6.700687e+02
-6.700716e+02
-6.700745e+02
-6.700773e+02
-6.700800e+02
-6.700827e+02
-6.700854e+02
-6.700880e+02
-6.700906e+02
-6.700931e+02
-6.700955e+02
-6.700979e+02
-6.701003e+02
-6.701026e+02
-6.701048e+02
-6.701070e+02
-6.701092e+02
-6.701113e+02
-6.701133e+02
-6.701153e+02
-6.701173e+02
-6.701192e+02
-6.701210e+02
-6.701228e+02
-6.701246e+02
-6.701262e+02
-6.701279e+02
-6.701294e+02
-6.701310e+02
-6.701324e+02
-6.701338e+02
-6.701351e+02
-6.701363e+02
-6.701373e+02
-6.701383e+02
-6.701391e+02
-6.701396e+02
-6.701389e+02
-6.701192e+02
-6.697005e+02
-6.697202e+02
-6.697756e+02
-6.698211e+02
-6.698671e+02
-6.699122e+02
-6.699554e+02
-6.699959e+02
-6.700328e+02
-6.700652e+02
-6.700920e+02
-6.701122e+02
-6.701260e+02
-6.701340e+02
-6.701371e+02
-6.701360e+02
-6.701310e+02
-6.701224e+02
-6.701102e+02
-6.700955e+02
-6.700791e+02
-6.700621e+02
-6.700454e+02
-6.700298e+02
-6.700158e+02
-6.700041e+02
-6.699946e+02
-6.699873e+02
-6.699819e+02
-6.699782e+02
-6.699759e+02
-6.699747e+02
-6.699744e+02
-6.699749e+02
-6.699761e+02
-6.699778e+02
-6.699799e+02
-6.699824e+02
-6.699852e+02
-6.699882e+02
-6.699914e+02
-6.699947e+02
-6.699981e+02
-6.700016e+02
-6.700051e+02
-6.700086e+02
-6.700122e+02
-6.700158e+02
-6.700193e+02
-6.700229e+02
-6.700264e+02
-6.700299e+02
-6.700334e+02
-6.700368e+02
-6.700402e+02
-6.700435e+02
-6.700468e+02
-6.700501e+02
-6.700533e+02
-6.700564e+02
-6.700595e+02
-6.700626e+02
-6.700656e+02
-6.700686e+02
-6.700715e+02
-6.700744e+02
-6.700772e+02
-6.700799e+02
-6.700826e+02
-6.700853e+02
-6.700879e+02
-6.700905e+02
-6.700930e+02
-6.700954e+02
-6.700978e+02
-6.701002e+02
-6.701025e+02
-6.701048e+02
-6.701070e+02
-6.701091e+02
-6.701112e+02
-6.701133e+02
-6.701153e+02
-6.701172e+02
-6.701191e+02
-6.701210e+02
-6.701227e+02
-6.701245e+02
-6.701262e+02
-6.701278e+02
-6.701294e+02
-6.701309e+02
-6.701324e+02
-6.701338e+02
-6.701351e+02
-6.701364e+02
-6.701375e+02
-6.701386e+02
-6.701395e+02
-6.701403e+02
-6.701397e+02
-6.701200e+02
-6.697021e+02
-6.697218e+02
-6.697765e+02
-6.698215e+02
-6.698669e+02
-6.699109e+02
-6.699524e+02
-6.699906e+02
-6.700247e+02
-6.700541e+02
-6.700781e+02
-6.700964e+02
-6.701092e+02
-6.701171e+02
-6.701210e+02
-6.701215e+02
-6.701192e+02
-6.701138e+02
-6.701055e+02
-6.700946e+02
-6.700816e+02
-6.700671e+02
-6.700520e+02
-6.700370e+02
-6.700230e+02
-6.700108e+02
-6.700006e+02
-6.699927e+02
-6.699867e+02
-6.699824e+02
-6.699795e+02
-6.699777e+02
-6.699770e+02
-6.699770e+02
-6.699778e+02
-6.699792e+02
-6.699811e+02
-6.699834e+02
-6.699860e+02
-6.699889e+02
-6.699919e+02
-6.699951e+02
-6.699984e+02
-6.700018e+02
-6.700053e+02
-6.700088e+02
-6.700123e+02
-6.700159e+02
-6.700194e+02
-6.700229e+02
-6.700264e+02
-6.700299e+02
-6.700333e+02
-6.700368e+02
-6.700401e+02
-6.700435e+02
-6.700468e+02
-6.700500e+02
-6.700532e+02
-6.700564e+02
-6.700595e+02
-6.700625e+02
-6.700655e+02
-6.700685e+02
-6.700714e+02
-6.700743e+02
-6.700771e+02
-6.700798e+02
-6.700826e+02
-6.700852e+02
-6.700878e+02
-6.700904e+02
-6.700929e+02
-6.700953e+02
-6.700978e+02
-6.701001e+02
-6.701024e+02
-6.701047e+02
-6.701069e+02
-6.701090e+02
-6.701111e+02
-6.701132e+02
-6.701152e+02
-6.701171e+02
-6.701190e+02
-6.701209e+02
-6.701227e+02
-6.701244e+02
-6.701261e+02
-6.701278e+02
-6.701294e+02
-6.701309e+02
-6.701324e+02
-6.701338e+02
-6.701352e+02
-6.701365e+02
-6.701377e+02
-6.701389e+02
-6.701400e+02
-6.701411e+02
-6.701407e+02
-6.701210e+02
-6.697039e+02
-6.697236e+02
-6.697774e+02
-6.698225e+02
-6.698677e+02
-6.699109e+02
-6.699510e+02
-6.699872e+02
-6.700190e+02
-6.700461e+02
-6.700681e+02
-6.700851e+02
-6.700974e+02
-6.701057e+02
-6.701107e+02
-6.701130e+02
-6.701127e+02
-6.701096e+02
-6.701039e+02
-6.700955e+02
-6.700846e+02
-6.700717e+02
-6.700574e+02
-6.700426e+02
-6.700284e+02
-6.700158e+02
-6.700053e+02
-6.699968e+02
-6.699903e+02
-6.699854e+02
-6.699820e+02
-6.699798e+02
-6.699787e+02
-6.699785e+02
-6.699790e+02
-6.699802e+02
-6.699819e+02
-6.699841e+02
-6.699866e+02
-6.699893e+02
-6.699923e+02
-6.699954e+02
-6.699987e+02
-6.700020e+02
-6.700054e+02
-6.700089e+02
-6.700124e+02
-6.700159e+02
-6.700194e+02
-6.700229e+02
-6.700264e+02
-6.700299e+02
-6.700333e+02
-6.700367e+02
-6.700401e+02
-6.700434e+02
-6.700467e+02
-6.700499e+02
-6.700531e+02
-6.700563e+02
-6.700594e+02
-6.700624e+02
-6.700655e+02
-6.700684e+02
-6.700713e+02
-6.700742e+02
-6.700770e+02
-6.700798e+02
-6.700825e+02
-6.700851e+02
-6.700877e+02
-6.700903e+02
-6.700928e+02
-6.700953e+02
-6.700977e+02
-6.701000e+02
-6.701023e+02
-6.701046e+02
-6.701068e+02
-6.701089e+02
-6.701110e+02
-6.701131e+02
-6.701151e+02
-6.701170e+02
-6.701189e+02
-6.701208e+02
-6.701226e+02
-6.701243e+02
-6.701261e+02
-6.701277e+02
-6.701293e+02
-6.701309e+02
-6.701324e+02
-6.701338e+02
-6.701352e+02
-6.701366e+02
-6.701379e+02
-6.701392e+02
-6.701404e+02
-6.701417e+02
-6.701417e+02
-6.701219e+02
-6.697015e+02
-6.697212e+02
-6.697749e+02
-6.698218e+02
-6.698680e+02
-6.699114e+02
-6.699509e+02
-6.699860e+02
-6.700164e+02
-6.700423e+02
-6.700635e+02
-6.700800e+02
-6.700925e+02
-6.701015e+02
-6.701076e+02
-6.701108e+02
-6.701114e+02
-6.701094e+02
-6.701047e+02
-6.700972e+02
-6.700871e+02
-6.700746e+02
-6.700606e+02
-6.700459e+02
-6.700317e+02
-6.700189e+02
-6.700081e+02
-6.699993e+02
-6.699923e+02
-6.699871e+02
-6.699834e+02
-6.699810e+02
-6.699797e+02
-6.699793e+02
-6.699797e+02
-6.699807e+02
-6.699824e+02
-6.699844e+02
-6.699868e+02
-6.699895e+02
-6.699925e+02
-6.699955e+02
-6.699988e+02
-6.700021e+02
-6.700055e+02
-6.700089e+02
-6.700124e+02
-6.700159e+02
-6.700194e+02
-6.700229e+02
-6.700264e+02
-6.700298e+02
-6.700332e+02
-6.700366e+02
-6.700400e+02
-6.700433e+02
-6.700466e+02
-6.700499e+02
-6.700531e+02
-6.700562e+02
-6.700593e+02
-6.700624e+02
-6.700654e+02
-6.700683e+02
-6.700712e+02
-6.700741e+02
-6.700769e+02
-6.700797e+02
-6.700824e+02
-6.700850e+02
-6.700876e+02
-6.700902e+02
-6.700927e+02
-6.700952e+02
-6.700976e+02
-6.700999e+02
-6.701022e+02
-6.701045e+02
-6.701067e+02
-6.701088e+02
-6.701109e+02
-6.701130e+02
-6.701150e+02
-6.701169e+02
-6.701188e+02
-6.701207e+02
-6.701225e+02
-6.701243e+02
-6.701260e+02
-6.701276e+02
-6.701292e+02
-6.701308e+02
-6.701323e+02
-6.701338e+02
-6.701352e+02
-6.701366e+02
-6.701380e+02
-6.701393e+02
-6.701406e+02
-6.701420e+02
-6.701423e+02
-6.701226e+02
-6.696790e+02
-6.696987e+02
-6.697673e+02
-6.698204e+02
-6.698698e+02
-6.699147e+02
-6.699546e+02
-6.699894e+02
-6.700193e+02
-6.700446e+02
-6.700654e+02
-6.700820e+02
-6.700947e+02