# vtk DataFile Version 3.0
Scalar Field
ASCII
DATASET RECTILINEAR_GRID
DIMENSIONS 102 22 1
X_COORDINATES 102 double
0.000000 0.100000 0.200000 0.300000 0.400000 0.500000 0.600000 0.700000 0.800000 0.900000 1.000000 1.100000 1.200000 1.300000 1.400000 1.500000 1.600000 1.700000 1.800000 1.900000 2.000000 2.100000 2.200000 2.300000 2.400000 2.500000 2.600000 2.700000 2.800000 2.900000 3.000000 3.100000 3.200000 3.300000 3.400000 3.500000 3.600000 3.700000 3.800000 3.900000 4.000000 4.100000 4.200000 4.300000 4.400000 4.500000 4.600000 4.700000 4.800000 4.900000 5.000000 5.100000 5.200000 5.300000 5.400000 5.500000 5.600000 5.700000 5.800000 5.900000 6.000000 6.100000 6.200000 6.300000 6.400000 6.500000 6.600000 6.700000 6.800000 6.900000 7.000000 7.100000 7.200000 7.300000 7.400000 7.500000 7.600000 7.700000 7.800000 7.900000 8.000000 8.100000 8.200000 8.300000 8.400000 8.500000 8.600000 8.700000 8.800000 8.900000 9.000000 9.100000 9.200000 9.300000 9.400000 9.500000 9.600000 9.700000 9.800000 9.900000 10.000000 10.100000 
Y_COORDINATES 22 double
0.000000 0.100000 0.200000 0.300000 0.400000 0.500000 0.600000 0.700000 0.800000 0.900000 1.000000 1.100000 1.200000 1.300000 1.400000 1.500000 1.600000 1.700000 1.800000 1.900000 2.000000 2.100000 
Z_COORDINATES 1 double
0.0
POINT_DATA 2244
SCALARS Pressure double 1
LOOKUP_TABLE default
0.000000e+00
0.000000e+00
0.000000e+00
0.000000e+00
0.000000e+00
0.000000e+00
0.000000e+00
0.000000e+00
0.000000e+00
0.000000e+00
-3.843660e+01
-3.846804e+01
-3.842638e+01
-3.836252e+01
-3.828517e+01
-3.819697e+01
-3.809906e+01
-3.799208e+01
-3.787643e+01
-3.775243e+01
-3.762034e+01
-3.748039e+01
-3.733282e+01
-3.717776e+01
-3.701542e+01
-3.684607e+01
-3.666997e+01
-3.648736e+01
-3.629850e+01
-3.610366e+01
-3.590310e+01
-3.569708e+01
-3.548587e+01
-3.526974e+01
-3.504896e+01
-3.482380e+01
-3.459455e+01
-3.436148e+01
-3.412486e+01
-3.388499e+01
-3.364213e+01
-3.339658e+01
-3.314861e+01
-3.289851e+01
-3.264656e+01
-3.239304e+01
-3.213825e+01
-3.188245e+01
-3.162594e+01
-3.136900e+01
-3.111189e+01
-3.085492e+01
-3.059834e+01
-3.034244e+01
-3.008749e+01
-2.983376e+01
-2.958152e+01
-2.933104e+01
-2.908258e+01
-2.883640e+01
-2.859276e+01
-2.835190e+01
-2.811409e+01
-2.787956e+01
-2.764855e+01
-2.742131e+01
-2.719806e+01
-2.697903e+01
-2.676444e+01
-2.655452e+01
-2.634946e+01
-2.614949e+01
-2.595479e+01
-2.576557e+01
-2.558201e+01
-2.540430e+01
-2.523262e+01
-2.506712e+01
-2.490799e+01
-2.475538e+01
-2.460943e+01
-2.447031e+01
-2.433814e+01
-2.421307e+01
-2.409522e+01
-2.398473e+01
-2.388171e+01
-2.378629e+01
-2.369860e+01
-2.361876e+01
-2.354691e+01
-2.348323e+01
-2.342788e+01
-2.338113e+01
-2.334328e+01
-2.331480e+01
-2.329642e+01
-2.328935e+01
-2.329595e+01
-2.332106e+01
-2.335644e+01
0.000000e+00
0.000000e+00
0.000000e+00
0.000000e+00
0.000000e+00
0.000000e+00
0.000000e+00
0.000000e+00
0.000000e+00
0.000000e+00
0.000000e+00
-3.846804e+01
-3.849949e+01
-3.845785e+01
-3.839403e+01
-3.831671e+01
-3.822856e+01
-3.813070e+01
-3.802378e+01
-3.790821e+01
-3.778428e+01
-3.765227e+01
-3.751240e+01
-3.736492e+01
-3.720996e+01
-3.704773e+01
-3.687849e+01
-3.670249e+01
-3.651999e+01
-3.633125e+01
-3.613653e+01
-3.593609e+01
-3.573020e+01
-3.551911e+01
-3.530311e+01
-3.508247e+01
-3.485745e+01
-3.462833e+01
-3.439539e+01
-3.415892e+01
-3.391918e+01
-3.367647e+01
-3.343106e+01
-3.318323e+01
-3.293327e+01
-3.268147e+01
-3.242810e+01
-3.217344e+01
-3.191779e+01
-3.166142e+01
-3.140462e+01
-3.114766e+01
-3.089082e+01
-3.063438e+01
-3.037862e+01
-3.012381e+01
-2.987022e+01
-2.961811e+01
-2.936777e+01
-2.911944e+01
-2.887339e+01
-2.862987e+01
-2.838914e+01
-2.815145e+01
-2.791704e+01
-2.768615e+01
-2.745903e+01
-2.723589e+01
-2.701697e+01
-2.680250e+01
-2.659268e+01
-2.638773e+01
-2.618785e+01
-2.599326e+01
-2.580413e+01
-2.562067e+01
-2.544304e+01
-2.527144e+01
-2.510603e+01
-2.494698e+01
-2.479444e+01
-2.464857e+01
-2.450952e+01
-2.437742e+01
-2.425241e+01
-2.413462e+01
-2.402418e+01
-2.392122e+01
-2.382585e+01
-2.373820e+01
-2.365840e+01
-2.358660e+01
-2.352295e+01
-2.346764e+01
-2.342091e+01
-2.338309e+01
-2.335463e+01
-2.333627e+01
-2.332921e+01
-2.333583e+01
-2.336094e+01
-2.339632e+01
-2.335644e+01
0.000000e+00
0.000000e+00
0.000000e+00
0.000000e+00
0.000000e+00
0.000000e+00
0.000000e+00
0.000000e+00
0.000000e+00
0.000000e+00
-3.847469e+01
-3.850615e+01
-3.845980e+01
-3.839506e+01
-3.831657e+01
-3.822686e+01
-3.812727e+01
-3.801868e+01
-3.790163e+01
-3.777649e+01
-3.764350e+01
-3.750287e+01
-3.735480e+01
-3.719945e+01
-3.703702e+01
-3.686771e+01
-3.669176e+01
-3.650940e+01
-3.632087e+01
-3.612641e+01
-3.592628e+01
-3.572074e+01
-3.551005e+01
-3.529447e+01
-3.507427e+01
-3.484973e+01
-3.462111e+01
-3.438869e+01
-3.415275e+01
-3.391356e+01
-3.367140e+01
-3.342656e+01
-3.317932e+01
-3.292995e+01
-3.267874e+01
-3.242597e+01
-3.217192e+01
-3.191688e+01
-3.166112e+01
-3.140493e+01
-3.114858e+01
-3.089236e+01
-3.063653e+01
-3.038138e+01
-3.012718e+01
-2.987419e+01
-2.962269e+01
-2.937294e+01
-2.912520e+01
-2.887974e+01
-2.863680e+01
-2.839665e+01
-2.815952e+01
-2.792567e+01
-2.769533e+01
-2.746875e+01
-2.724614e+01
-2.702774e+01
-2.681378e+01
-2.660446e+01
-2.640000e+01
-2.620060e+01
-2.600647e+01
-2.581780e+01
-2.563477e+01
-2.545757e+01
-2.528639e+01
-2.512137e+01
-2.496271e+01
-2.481054e+01
-2.466502e+01
-2.452630e+01
-2.439452e+01
-2.426982e+01
-2.415232e+01
-2.404214e+01
-2.393942e+01
-2.384428e+01
-2.375683e+01
-2.367720e+01
-2.360552e+01
-2.354195e+01
-2.348666e+01
-2.343987e+01
-2.340186e+01
-2.337301e+01
-2.335387e+01
-2.334521e+01
-2.334807e+01
-2.336315e+01
-2.339509e+01
-2.335522e+01
0.000000e+00
0.000000e+00
0.000000e+00
0.000000e+00
0.000000e+00
0.000000e+00
0.000000e+00
0.000000e+00
0.000000e+00
0.000000e+00
-3.849478e+01
-3.852624e+01
-3.847552e+01
-3.840661e+01
-3.832413e+01
-3.823047e+01
-3.812733e+01
-3.801573e+01
-3.789624e+01
-3.776918e+01
-3.763473e+01
-3.749301e+01
-3.734414e+01
-3.718825e+01
-3.702547e+01
-3.685599e+01
-3.667999e+01
-3.649769e+01
-3.630930e+01
-3.611506e+01
-3.591522e+01
-3.571001e+01
-3.549970e+01
-3.528452e+01
-3.506477e+01
-3.484069e+01
-3.461255e+01
-3.438064e+01
-3.414522e+01
-3.390657e+01
-3.366496e+01
-3.342068e+01
-3.317400e+01
-3.292521e+01
-3.267459e+01
-3.242241e+01
-3.216896e+01
-3.191451e+01
-3.165936e+01
-3.140377e+01
-3.114802e+01
-3.089240e+01
-3.063718e+01
-3.038263e+01
-3.012902e+01
-2.987663e+01
-2.962572e+01
-2.937656e+01
-2.912940e+01
-2.888452e+01
-2.864215e+01
-2.840256e+01
-2.816599e+01
-2.793268e+01
-2.770289e+01
-2.747683e+01
-2.725475e+01
-2.703686e+01
-2.682340e+01
-2.661457e+01
-2.641059e+01
-2.621166e+01
-2.601798e+01
-2.582975e+01
-2.564716e+01
-2.547038e+01
-2.529960e+01
-2.513497e+01
-2.497668e+01
-2.482487e+01
-2.467970e+01
-2.454131e+01
-2.440984e+01
-2.428542e+01
-2.416819e+01
-2.405827e+01
-2.395577e+01
-2.386081e+01
-2.377352e+01
-2.369400e+01
-2.362237e+01
-2.355878e+01
-2.350337e+01
-2.345631e+01
-2.341781e+01
-2.338813e+01
-2.336757e+01
-2.335645e+01
-2.335494e+01
-2.336252e+01
-2.338012e+01
-2.334025e+01
0.000000e+00
0.000000e+00
0.000000e+00
0.000000e+00
0.000000e+00
0.000000e+00
0.000000e+00
0.000000e+00
0.000000e+00
0.000000e+00
-3.853372e+01
-3.856518e+01
-3.850847e+01
-3.843162e+01
-3.834137e+01
-3.824089e+01
-3.813216e+01
-3.801617e+01
-3.789334e+01
-3.776377e+01
-3.762747e+01
-3.748441e+01
-3.733458e+01
-3.717803e+01
-3.701484e+01
-3.684512e+01
-3.666903e+01
-3.648675e+01
-3.629847e+01
-3.610442e+01
-3.590482e+01
-3.569990e+01
-3.548993e+01
-3.527513e+01
-3.505578e+01
-3.483213e+01
-3.460445e+01
-3.437301e+01
-3.413807e+01
-3.389993e+01
-3.365884e+01
-3.341508e+01
-3.316894e+01
-3.292070e+01
-3.267062e+01
-3.241900e+01
-3.216611e+01
-3.191223e+01
-3.165764e+01
-3.140262e+01
-3.114744e+01
-3.089239e+01
-3.063774e+01
-3.038375e+01
-3.013071e+01
-2.987888e+01
-2.962853e+01
-2.937992e+01
-2.913331e+01
-2.888897e+01
-2.864714e+01
-2.840808e+01
-2.817203e+01
-2.793925e+01
-2.770996e+01
-2.748440e+01
-2.726281e+01
-2.704541e+01
-2.683242e+01
-2.662406e+01
-2.642053e+01
-2.622204e+01
-2.602879e+01
-2.584098e+01
-2.565879e+01
-2.548241e+01
-2.531200e+01
-2.514775e+01
-2.498981e+01
-2.483834e+01
-2.469349e+01
-2.455540e+01
-2.442422e+01
-2.430007e+01
-2.418309e+01
-2.407338e+01
-2.397108e+01
-2.387628e+01
-2.378909e+01
-2.370963e+01
-2.363799e+01
-2.357429e+01
-2.351864e+01
-2.347115e+01
-2.343195e+01
-2.340115e+01
-2.337885e+01
-2.336500e+01
-2.335930e+01
-2.336077e+01
-2.336868e+01
-2.332882e+01
0.000000e+00
0.000000e+00
0.000000e+00
0.000000e+00
0.000000e+00
0.000000e+00
0.000000e+00
0.000000e+00
0.000000e+00
0.000000e+00
-3.859766e+01
-3.862911e+01
-3.856188e+01
-3.847130e+01
-3.836823e+01
-3.825738e+01
-3.814080e+01
-3.801908e+01
-3.789213e+01
-3.775962e+01
-3.762123e+01
-3.747668e+01
-3.732583e+01
-3.716858e+01
-3.700494e+01
-3.683497e+01
-3.665877e+01
-3.647649e+01
-3.628830e+01
-3.609442e+01
-3.589503e+01
-3.569039e+01
-3.548072e+01
-3.526627e+01
-3.504729e+01
-3.482404e+01
-3.459679e+01
-3.436579e+01
-3.413131e+01
-3.389363e+01
-3.365303e+01
-3.340977e+01
-3.316413e+01
-3.291640e+01
-3.266684e+01
-3.241574e+01
-3.216337e+01
-3.191002e+01
-3.165596e+01
-3.140148e+01
-3.114684e+01
-3.089232e+01
-3.063820e+01
-3.038475e+01
-3.013224e+01
-2.988094e+01
-2.963111e+01
-2.938302e+01
-2.913693e+01
-2.889310e+01
-2.865177e+01
-2.841321e+01
-2.817766e+01
-2.794536e+01
-2.771655e+01
-2.749147e+01
-2.727034e+01
-2.705340e+01
-2.684085e+01
-2.663292e+01
-2.642982e+01
-2.623175e+01
-2.603890e+01
-2.585149e+01
-2.566968e+01
-2.549366e+01
-2.532362e+01
-2.515971e+01
-2.500210e+01
-2.485094e+01
-2.470639e+01
-2.456859e+01
-2.443768e+01
-2.431378e+01
-2.419701e+01
-2.408751e+01
-2.398537e+01
-2.389069e+01
-2.380359e+01
-2.372415e+01
-2.365245e+01
-2.358859e+01
-2.353262e+01
-2.348462e+01
-2.344462e+01
-2.341263e+01
-2.338856e+01
-2.337219e+01
-2.336301e+01
-2.336006e+01
-2.336220e+01
-2.332235e+01
0.000000e+00
0.000000e+00
0.000000e+00
0.000000e+00
0.000000e+00
0.000000e+00
0.000000e+00
0.000000e+00
0.000000e+00
0.000000e+00
-3.869757e+01
-3.872901e+01
-3.864123e+01
-3.852659e+01
-3.840349e+01
-3.827805e+01
-3.815146e+01
-3.802299e+01
-3.789149e+01
-3.775590e+01
-3.761540e+01
-3.746942e+01
-3.731759e+01
-3.715969e+01
-3.699563e+01
-3.682542e+01
-3.664912e+01
-3.646684e+01
-3.627874e+01
-3.608501e+01
-3.588583e+01
-3.568144e+01
-3.547206e+01
-3.525793e+01
-3.503930e+01
-3.481642e+01
-3.458956e+01
-3.435897e+01
-3.412492e+01
-3.388769e+01
-3.364753e+01
-3.340473e+01
-3.315957e+01
-3.291231e+01
-3.266323e+01
-3.241262e+01
-3.216075e+01
-3.190789e+01
-3.165433e+01
-3.140035e+01
-3.114621e+01
-3.089219e+01
-3.063857e+01
-3.038562e+01
-3.013361e+01
-2.988280e+01
-2.963346e+01
-2.938586e+01
-2.914026e+01
-2.889690e+01
-2.865606e+01
-2.841796e+01
-2.818288e+01
-2.795103e+01
-2.772267e+01
-2.749803e+01
-2.727734e+01
-2.706082e+01
-2.684869e+01
-2.664117e+01
-2.643846e+01
-2.624078e+01
-2.604832e+01
-2.586127e+01
-2.567982e+01
-2.550415e+01
-2.533444e+01
-2.517085e+01
-2.501355e+01
-2.486269e+01
-2.471842e+01
-2.458088e+01
-2.445022e+01
-2.432654e+01
-2.420999e+01
-2.410066e+01
-2.399866e+01
-2.390410e+01
-2.381706e+01
-2.373761e+01
-2.366584e+01
-2.360178e+01
-2.354548e+01
-2.349695e+01
-2.345617e+01
-2.342305e+01
-2.339743e+01
-2.337897e+01
-2.336715e+01
-2.336116e+01
-2.335991e+01
-2.332006e+01
0.000000e+00
0.000000e+00
0.000000e+00
0.000000e+00
0.000000e+00
0.000000e+00
0.000000e+00
0.000000e+00
0.000000e+00
0.000000e+00
-3.885547e+01
-3.888689e+01
-3.875431e+01
-3.859649e+01
-3.844341e+01
-3.829926e+01
-3.816130e+01
-3.802589e+01
-3.789005e+01
-3.775169e+01
-3.760938e+01
-3.746220e+01
-3.730957e+01
-3.715114e+01
-3.698677e+01
-3.681638e+01
-3.664001e+01
-3.645775e+01
-3.626975e+01
-3.607616e+01
-3.587719e+01
-3.567303e+01
-3.546392e+01
-3.525009e+01
-3.503179e+01
-3.480926e+01
-3.458276e+01
-3.435255e+01
-3.411890e+01
-3.388207e+01
-3.364234e+01
-3.339997e+01
-3.315524e+01
-3.290843e+01
-3.265980e+01
-3.240965e+01
-3.215823e+01
-3.190584e+01
-3.165275e+01
-3.139922e+01
-3.114555e+01
-3.089200e+01
-3.063885e+01
-3.038636e+01
-3.013482e+01
-2.988447e+01
-2.963559e+01
-2.938845e+01
-2.914330e+01
-2.890039e+01
-2.865999e+01
-2.842233e+01
-2.818768e+01
-2.795626e+01
-2.772832e+01
-2.750409e+01
-2.728380e+01
-2.706768e+01
-2.685594e+01
-2.664880e+01
-2.644647e+01
-2.624915e+01
-2.605704e+01
-2.587033e+01
-2.568922e+01
-2.551387e+01
-2.534447e+01
-2.518118e+01
-2.502417e+01
-2.487359e+01
-2.472958e+01
-2.459229e+01
-2.446185e+01
-2.433839e+01
-2.422202e+01
-2.411286e+01
-2.401100e+01
-2.391653e+01
-2.382954e+01
-2.375009e+01
-2.367823e+01
-2.361400e+01
-2.355739e+01
-2.350839e+01
-2.346692e+01
-2.343285e+01
-2.340595e+01
-2.338589e+01
-2.337218e+01
-2.336418e+01
-2.336089e+01
-2.332105e+01
0.000000e+00
0.000000e+00
0.000000e+00
0.000000e+00
0.000000e+00
0.000000e+00
0.000000e+00
0.000000e+00
0.000000e+00
0.000000e+00
-3.912135e+01
-3.915273e+01
-3.890809e+01
-3.867313e+01
-3.847940e+01
-3.831484e+01
-3.816641e+01
-3.802539e+01
-3.788638e+01
-3.774612e+01
-3.760263e+01
-3.745468e+01
-3.730154e+01
-3.714281e+01
-3.697824e+01
-3.680776e+01
-3.663139e+01
-3.644919e+01
-3.626130e+01
-3.606787e+01
-3.586909e+01
-3.566516e+01
-3.545631e+01
-3.524276e+01
-3.502476e+01
-3.480255e+01
-3.457639e+01
-3.434653e+01
-3.411325e+01
-3.387680e+01
-3.363745e+01
-3.339548e+01
-3.315116e+01
-3.290476e+01
-3.265655e+01
-3.240681e+01
-3.215583e+01
-3.190386e+01
-3.165120e+01
-3.139811e+01
-3.114487e+01
-3.089176e+01
-3.063904e+01
-3.038699e+01
-3.013587e+01
-2.988595e+01
-2.963750e+01
-2.939078e+01
-2.914605e+01
-2.890356e+01
-2.866356e+01
-2.842632e+01
-2.819206e+01
-2.796104e+01
-2.773349e+01
-2.750964e+01
-2.728973e+01
-2.707398e+01
-2.686260e+01
-2.665581e+01
-2.645383e+01
-2.625685e+01
-2.606507e+01
-2.587868e+01
-2.569788e+01
-2.552283e+01
-2.535372e+01
-2.519071e+01
-2.503397e+01
-2.488364e+01
-2.473987e+01
-2.460281e+01
-2.447258e+01
-2.434932e+01
-2.423313e+01
-2.412412e+01
-2.402239e+01
-2.392802e+01
-2.384109e+01
-2.376164e+01
-2.368973e+01
-2.362535e+01
-2.356850e+01
-2.351912e+01
-2.347711e+01
-2.344231e+01
-2.341447e+01
-2.339327e+01
-2.337828e+01
-2.336900e+01
-2.336449e+01
-2.332465e+01
0.000000e+00
0.000000e+00
0.000000e+00
0.000000e+00
0.000000e+00
0.000000e+00
0.000000e+00
0.000000e+00
0.000000e+00
0.000000e+00
-3.962754e+01
-3.965889e+01
-3.908827e+01
-3.873035e+01
-3.849528e+01
-3.831632e+01
-3.816256e+01
-3.801938e+01
-3.787940e+01
-3.773863e+01
-3.759482e+01
-3.744668e+01
-3.729342e+01
-3.713461e+01
-3.697002e+01
-3.679956e+01
-3.662325e+01
-3.644115e+01
-3.625338e+01
-3.606012e+01
-3.586153e+01
-3.565782e+01
-3.544920e+01
-3.523591e+01
-3.501819e+01
-3.479628e+01
-3.457043e+01
-3.434091e+01
-3.410796e+01
-3.387186e+01
-3.363287e+01
-3.339127e+01
-3.314732e+01
-3.290129e+01
-3.265347e+01
-3.240413e+01
-3.215353e+01
-3.190196e+01
-3.164970e+01
-3.139701e+01
-3.114417e+01
-3.089146e+01
-3.063914e+01
-3.038748e+01
-3.013676e+01
-2.988724e+01
-2.963919e+01
-2.939286e+01
-2.914851e+01
-2.890641e+01
-2.866679e+01
-2.842992e+01
-2.819604e+01
-2.796538e+01
-2.773819e+01
-2.751470e+01
-2.729513e+01
-2.707972e+01
-2.686868e+01
-2.666222e+01
-2.646055e+01
-2.626388e+01
-2.607241e+01
-2.588632e+01
-2.570580e+01
-2.553103e+01
-2.536219e+01
-2.519944e+01
-2.504294e+01
-2.489285e+01
-2.474931e+01
-2.461246e+01
-2.448243e+01
-2.435935e+01
-2.424333e+01
-2.413447e+01
-2.403287e+01
-2.393860e+01
-2.385173e+01
-2.377232e+01
-2.370038e+01
-2.363593e+01
-2.357892e+01
-2.352930e+01
-2.348693e+01
-2.345164e+01
-2.342319e+01
-2.340127e+01
-2.338549e+01
-2.337546e+01
-2.337024e+01
-2.333041e+01
-3.862237e+01
-3.865296e+01
-3.875970e+01
-3.879544e+01
-3.880434e+01
-3.879377e+01
-3.876747e+01
-3.872869e+01
-3.868414e+01
-3.865844e+01
-3.913492e+01
-3.991733e+01
-3.916378e+01
-3.870793e+01
-3.846934e+01
-3.829626e+01
-3.814726e+01
-3.800709e+01
-3.786891e+01
-3.772920e+01
-3.758602e+01
-3.743825e+01
-3.728523e+01
-3.712658e+01
-3.696212e+01
-3.679178e+01
-3.661559e+01
-3.643362e+01
-3.624601e+01
-3.605291e+01
-3.585451e+01
-3.565100e+01
-3.544261e+01
-3.522957e+01
-3.501210e+01
-3.479046e+01
-3.456490e+01
-3.433567e+01
-3.410303e+01
-3.386725e+01
-3.362859e+01
-3.338732e+01
-3.314371e+01
-3.289804e+01
-3.265057e+01
-3.240158e+01
-3.215134e+01
-3.190014e+01
-3.164824e+01
-3.139592e+01
-3.114344e+01
-3.089110e+01
-3.063914e+01
-3.038786e+01
-3.013750e+01
-2.988835e+01
-2.964065e+01
-2.939468e+01
-2.915069e+01
-2.890894e+01
-2.866967e+01
-2.843315e+01
-2.819960e+01
-2.796928e+01
-2.774242e+01
-2.751926e+01
-2.730001e+01
-2.708491e+01
-2.687418e+01
-2.666802e+01
-2.646665e+01
-2.627026e+01
-2.607906e+01
-2.589325e+01
-2.571299e+01
-2.553848e+01
-2.536988e+01
-2.520737e+01
-2.505110e+01
-2.490122e+01
-2.475789e+01
-2.462124e+01
-2.449140e+01
-2.436849e+01
-2.425263e+01
-2.414392e+01
-2.404244e+01
-2.394829e+01
-2.386151e+01
-2.378216e+01
-2.371026e+01
-2.364580e+01
-2.358874e+01
-2.353901e+01
-2.349648e+01
-2.346097e+01
-2.343223e+01
-2.340996e+01
-2.339381e+01
-2.338342e+01
-2.337788e+01
-2.333806e+01
-3.865296e+01
-3.868358e+01
-3.879033e+01
-3.882611e+01
-3.883505e+01
-3.882452e+01
-3.879828e+01
-3.875956e+01
-3.871509e+01
-3.868948e+01
-3.841494e+01
-3.871979e+01
-3.867795e+01
-3.854001e+01
-3.839577e+01
-3.825723e+01
-3.812317e+01
-3.799032e+01
-3.785603e+01
-3.771853e+01
-3.757666e+01
-3.742968e+01
-3.727717e+01
-3.711885e+01
-3.695463e+01
-3.678448e+01
-3.660846e+01
-3.642665e+01
-3.623919e+01
-3.604626e+01
-3.584804e+01
-3.564473e+01
-3.543655e+01
-3.522372e+01
-3.500649e+01
-3.478510e+01
-3.455979e+01
-3.433083e+01
-3.409847e+01
-3.386298e+01
-3.362462e+01
-3.338365e+01
-3.314035e+01
-3.289499e+01
-3.264784e+01
-3.239917e+01
-3.214927e+01
-3.189839e+01
-3.164682e+01
-3.139483e+01
-3.114269e+01
-3.089068e+01
-3.063906e+01
-3.038811e+01
-3.013809e+01
-2.988926e+01
-2.964189e+01
-2.939625e+01
-2.915258e+01
-2.891115e+01
-2.867221e+01
-2.843599e+01
-2.820276e+01
-2.797275e+01
-2.774619e+01
-2.752332e+01
-2.730436e+01
-2.708955e+01
-2.687909e+01
-2.667321e+01
-2.647210e+01
-2.627598e+01
-2.608504e+01
-2.589947e+01
-2.571945e+01
-2.554517e+01
-2.537680e+01
-2.521450e+01
-2.505844e+01
-2.490876e+01
-2.476562e+01
-2.462916e+01
-2.449949e+01
-2.437675e+01
-2.426104e+01
-2.415247e+01
-2.405113e+01
-2.395710e+01
-2.387043e+01
-2.379118e+01
-2.371937e+01
-2.365499e+01
-2.359800e+01
-2.354832e+01
-2.350584e+01
-2.347035e+01
-2.344163e+01
-2.341937e+01
-2.340323e+01
-2.339284e+01
-2.338730e+01
-2.334748e+01
-3.871480e+01
-3.874542e+01
-3.881055e+01
-3.882790e+01
-3.882980e+01
-3.881747e+01
-3.879246e+01
-3.875723e+01
-3.871601e+01
-3.867318e+01
-3.859586e+01
-3.861033e+01
-3.855483e+01
-3.845167e+01
-3.833929e+01
-3.822119e+01
-3.809905e+01
-3.797308e+01
-3.784285e+01
-3.770779e+01
-3.756742e+01
-3.742140e+01
-3.726950e+01
-3.711161e+01
-3.694768e+01
-3.677776e+01
-3.660191e+01
-3.642027e+01
-3.623297e+01
-3.604020e+01
-3.584214e+01
-3.563900e+01
-3.543101e+01
-3.521838e+01
-3.500136e+01
-3.478018e+01
-3.455511e+01
-3.432639e+01
-3.409428e+01
-3.385904e+01
-3.362094e+01
-3.338025e+01
-3.313723e+01
-3.289215e+01
-3.264529e+01
-3.239691e+01
-3.214730e+01
-3.189672e+01
-3.164545e+01
-3.139376e+01
-3.114192e+01
-3.089021e+01
-3.063889e+01
-3.038824e+01
-3.013851e+01
-2.988999e+01
-2.964292e+01
-2.939757e+01
-2.915420e+01
-2.891305e+01
-2.867439e+01
-2.843847e+01
-2.820551e+01
-2.797577e+01
-2.774949e+01
-2.752688e+01
-2.730819e+01
-2.709364e+01
-2.688343e+01
-2.667780e+01
-2.647693e+01
-2.628105e+01
-2.609033e+01
-2.590498e+01
-2.572518e+01
-2.555111e+01
-2.538294e+01
-2.522084e+01
-2.506497e+01
-2.491548e+01
-2.477251e+01
-2.463621e+01
-2.450671e+01
-2.438412e+01
-2.426856e+01
-2.416013e+01
-2.405893e+01
-2.396504e+01
-2.387851e+01
-2.379940e+01
-2.372773e+01
-2.366351e+01
-2.360670e+01
-2.355723e+01
-2.351499e+01
-2.347979e+01
-2.345140e+01
-2.342951e+01
-2.341374e+01
-2.340370e+01
-2.339847e+01
-2.335865e+01
-3.875183e+01
-3.878247e+01
-3.882713e+01
-3.883351e+01
-3.883000e+01
-3.881596e+01
-3.879187e+01
-3.875903e+01
-3.871930e+01
-3.867329e+01
-3.861715e+01
-3.857403e+01
-3.850444e+01
-3.840954e+01
-3.830588e+01
-3.819587e+01
-3.807999e+01
-3.795843e+01
-3.783117e+01
-3.769808e+01
-3.755902e+01
-3.741386e+01
-3.726254e+01
-3.710505e+01
-3.694141e+01
-3.677170e+01
-3.659603e+01
-3.641454e+01
-3.622738e+01
-3.603475e+01
-3.583683e+01
-3.563385e+01
-3.542601e+01
-3.521355e+01
-3.499671e+01
-3.477573e+01
-3.455086e+01
-3.432235e+01
-3.409045e+01
-3.385544e+01
-3.361758e+01
-3.337712e+01
-3.313434e+01
-3.288952e+01
-3.264291e+01
-3.239479e+01
-3.214544e+01
-3.189512e+01
-3.164411e+01
-3.139269e+01
-3.114112e+01
-3.088968e+01
-3.063863e+01
-3.038824e+01
-3.013879e+01
-2.989053e+01
-2.964372e+01
-2.939864e+01
-2.915552e+01
-2.891464e+01
-2.867624e+01
-2.844056e+01
-2.820786e+01
-2.797837e+01
-2.775232e+01
-2.752996e+01
-2.731150e+01
-2.709717e+01
-2.688720e+01
-2.668178e+01
-2.648113e+01
-2.628546e+01
-2.609495e+01
-2.590980e+01
-2.573019e+01
-2.555631e+01
-2.538832e+01
-2.522640e+01
-2.507070e+01
-2.492137e+01
-2.477856e+01
-2.464242e+01
-2.451306e+01
-2.439061e+01
-2.427520e+01
-2.416691e+01
-2.406585e+01
-2.397210e+01
-2.388573e+01
-2.380680e+01
-2.373533e+01
-2.367134e+01
-2.361482e+01
-2.356571e+01
-2.352390e+01
-2.348924e+01
-2.346149e+01
-2.344033e+01
-2.342535e+01
-2.341606e+01
-2.341151e+01
-2.337170e+01
-3.877478e+01
-3.880542e+01
-3.884012e+01
-3.883990e+01
-3.883275e+01
-3.881740e+01
-3.879355e+01
-3.876157e+01
-3.872196e+01
-3.867464e+01
-3.861901e+01
-3.855770e+01
-3.848076e+01
-3.838825e+01
-3.828731e+01
-3.818009e+01
-3.806685e+01
-3.794750e+01
-3.782194e+01
-3.769011e+01
-3.755194e+01
-3.740742e+01
-3.725654e+01
-3.709936e+01
-3.693594e+01
-3.676640e+01
-3.659087e+01
-3.640950e+01
-3.622245e+01
-3.602993e+01
-3.583213e+01
-3.562927e+01
-3.542157e+01
-3.520925e+01
-3.499256e+01
-3.477174e+01
-3.454703e+01
-3.431870e+01
-3.408700e+01
-3.385218e+01
-3.361451e+01
-3.337427e+01
-3.313170e+01
-3.288709e+01
-3.264070e+01
-3.239281e+01
-3.214369e+01
-3.189360e+01
-3.164283e+01
-3.139164e+01
-3.114030e+01
-3.088909e+01
-3.063828e+01
-3.038813e+01
-3.013891e+01
-2.989088e+01
-2.964431e+01
-2.939946e+01
-2.915657e+01
-2.891592e+01
-2.867774e+01
-2.844229e+01
-2.820980e+01
-2.798053e+01
-2.775469e+01
-2.753254e+01
-2.731429e+01
-2.710017e+01
-2.689039e+01
-2.668517e+01
-2.648471e+01
-2.628922e+01
-2.609889e+01
-2.591392e+01
-2.573448e+01
-2.556076e+01
-2.539294e+01
-2.523117e+01
-2.507562e+01
-2.492644e+01
-2.478377e+01
-2.464776e+01
-2.451854e+01
-2.439623e+01
-2.428094e+01
-2.417279e+01
-2.407188e+01
-2.397828e+01
-2.389208e+01
-2.381335e+01
-2.374212e+01
-2.367843e+01
-2.362228e+01
-2.357365e+01
-2.353246e+01
-2.349859e+01
-2.347181e+01
-2.345179e+01
-2.343806e+01
-2.343003e+01
-2.342669e+01
-2.338688e+01
-3.878702e+01
-3.881768e+01
-3.884763e+01
-3.884400e+01
-3.883497e+01
-3.881894e+01
-3.879512e+01
-3.876323e+01
-3.872307e+01
-3.867425e+01
-3.861616e+01
-3.854838e+01
-3.846840e+01
-3.837686e+01
-3.827712e+01
-3.817093e+01
-3.805863e+01
-3.794016e+01
-3.781537e+01
-3.768415e+01
-3.754646e+01
-3.740228e+01
-3.725166e+01
-3.709466e+01
-3.693138e+01
-3.676195e+01
-3.658649e+01
-3.640519e+01
-3.621822e+01
-3.602578e+01
-3.582806e+01
-3.562529e+01
-3.541768e+01
-3.520547e+01
-3.498890e+01
-3.476821e+01
-3.454364e+01
-3.431546e+01
-3.408391e+01
-3.384926e+01
-3.361176e+01
-3.337168e+01
-3.312930e+01
-3.288487e+01
-3.263867e+01
-3.239097e+01
-3.214204e+01
-3.189215e+01
-3.164158e+01
-3.139059e+01
-3.113946e+01
-3.088845e+01
-3.063784e+01
-3.038790e+01
-3.013888e+01
-2.989105e+01
-2.964468e+01
-2.940003e+01
-2.915734e+01
-2.891688e+01
-2.867890e+01
-2.844364e+01
-2.821134e+01
-2.798225e+01
-2.775661e+01
-2.753464e+01
-2.731656e+01
-2.710262e+01
-2.689301e+01
-2.668795e+01
-2.648766e+01
-2.629233e+01
-2.610216e+01
-2.591734e+01
-2.573805e+01
-2.556448e+01
-2.539679e+01
-2.523516e+01
-2.507974e+01
-2.493068e+01
-2.478814e+01
-2.465225e+01
-2.452315e+01
-2.440096e+01
-2.428580e+01
-2.417778e+01
-2.407700e+01
-2.398356e+01
-2.389753e+01
-2.381901e+01
-2.374805e+01
-2.368470e+01
-2.362899e+01
-2.358094e+01
-2.354052e+01
-2.350764e+01
-2.348214e+01
-2.346371e+01
-2.345184e+01
-2.344576e+01
-2.344441e+01
-2.340460e+01
-3.878929e+01
-3.881995e+01
-3.884849e+01
-3.884415e+01
-3.883495e+01
-3.881910e+01
-3.879554e+01
-3.876364e+01
-3.872292e+01
-3.867287e+01
-3.861294e+01
-3.854268e+01
-3.846168e+01
-3.837075e+01
-3.827178e+01
-3.816606e+01
-3.805407e+01
-3.793583e+01
-3.781123e+01
-3.768018e+01
-3.754262e+01
-3.739855e+01
-3.724800e+01
-3.709104e+01
-3.692779e+01
-3.675838e+01
-3.658294e+01
-3.640166e+01
-3.621472e+01
-3.602230e+01
-3.582463e+01
-3.562191e+01
-3.541437e+01
-3.520223e+01
-3.498575e+01
-3.476515e+01
-3.454069e+01
-3.431262e+01
-3.408119e+01
-3.384667e+01
-3.360931e+01
-3.336938e+01
-3.312714e+01
-3.288286e+01
-3.263682e+01
-3.238928e+01
-3.214051e+01
-3.189079e+01
-3.164038e+01
-3.138956e+01
-3.113859e+01
-3.088776e+01
-3.063732e+01
-3.038754e+01
-3.013869e+01
-2.989104e+01
-2.964484e+01
-2.940035e+01
-2.915783e+01
-2.891754e+01
-2.867972e+01
-2.844462e+01
-2.821248e+01
-2.798355e+01
-2.775806e+01
-2.753624e+01
-2.731832e+01
-2.710452e+01
-2.689506e+01
-2.669015e+01
-2.648999e+01
-2.629480e+01
-2.610476e+01
-2.592006e+01
-2.574090e+01
-2.556745e+01
-2.539988e+01
-2.523836e+01
-2.508305e+01
-2.493411e+01
-2.479167e+01
-2.465589e+01
-2.452689e+01
-2.440481e+01
-2.428976e+01
-2.418185e+01
-2.408120e+01
-2.398790e+01
-2.390205e+01
-2.382374e+01
-2.375304e+01
-2.369005e+01
-2.363481e+01
-2.358739e+01
-2.354783e+01
-2.351612e+01
-2.349219e+01
-2.347581e+01
-2.346650e+01
-2.346335e+01
-2.346531e+01
-2.342551e+01
-3.878070e+01
-3.881137e+01
-3.884184e+01
-3.883950e+01
-3.883197e+01
-3.881737e+01
-3.879464e+01
-3.876306e+01
-3.872213e+01
-3.867141e+01
-3.861057e+01
-3.853946e+01
-3.845830e+01
-3.836790e+01
-3.826951e+01
-3.816411e+01
-3.805219e+01
-3.793390e+01
-3.780920e+01
-3.767804e+01
-3.754037e+01
-3.739620e+01
-3.724556e+01
-3.708852e+01
-3.692520e+01
-3.675572e+01
-3.658023e+01
-3.639891e+01
-3.621194e+01
-3.601952e+01
-3.582184e+01
-3.561914e+01
-3.541162e+01
-3.519953e+01
-3.498310e+01
-3.476256e+01
-3.453818e+01
-3.431019e+01
-3.407885e+01
-3.384442e+01
-3.360716e+01
-3.336734e+01
-3.312522e+01
-3.288106e+01
-3.263514e+01
-3.238772e+01
-3.213908e+01
-3.188949e+01
-3.163922e+01
-3.138853e+01
-3.113771e+01
-3.088701e+01
-3.063670e+01
-3.038707e+01
-3.013836e+01
-2.989084e+01
-2.964477e+01
-2.940042e+01
-2.915804e+01
-2.891788e+01
-2.868020e+01
-2.844523e+01
-2.821322e+01
-2.798442e+01
-2.775906e+01
-2.753736e+01
-2.731957e+01
-2.710589e+01
-2.689654e+01
-2.669174e+01
-2.649170e+01
-2.629662e+01
-2.610668e+01
-2.592210e+01
-2.574304e+01
-2.556968e+01
-2.540221e+01
-2.524079e+01
-2.508557e+01
-2.493671e+01
-2.479437e+01
-2.465867e+01
-2.452976e+01
-2.440776e+01
-2.429280e+01
-2.418500e+01
-2.408446e+01
-2.399129e+01
-2.390559e+01
-2.382748e+01
-2.375704e+01
-2.369437e+01
-2.363959e+01
-2.359280e+01
-2.355411e+01
-2.352364e+01
-2.350145e+01
-2.348753e+01
-2.348157e+01
-2.348267e+01
-2.349022e+01
-2.345041e+01
-3.875877e+01
-3.878943e+01
-3.882701e+01
-3.882998e+01
-3.882614e+01
-3.881401e+01
-3.879278e+01
-3.876199e+01
-3.872131e+01
-3.867050e+01
-3.860944e+01
-3.853823e+01
-3.845730e+01
-3.836741e+01
-3.826948e+01
-3.816431e+01
-3.805238e+01
-3.793391e+01
-3.780896e+01
-3.767753e+01
-3.753960e+01
-3.739518e+01
-3.724432e+01
-3.708710e+01
-3.692361e+01
-3.675398e+01
-3.657838e+01
-3.639696e+01
-3.620991e+01
-3.601742e+01
-3.581971e+01
-3.561698e+01
-3.540945e+01
-3.519736e+01
-3.498095e+01
-3.476044e+01
-3.453609e+01
-3.430815e+01
-3.407687e+01
-3.384251e+01
-3.360532e+01
-3.336557e+01
-3.312353e+01
-3.287946e+01
-3.263363e+01
-3.238631e+01
-3.213777e+01
-3.188827e+01
-3.163810e+01
-3.138752e+01
-3.113680e+01
-3.088620e+01
-3.063600e+01
-3.038647e+01
-3.013787e+01
-2.989046e+01
-2.964450e+01
-2.940025e+01
-2.915797e+01
-2.891792e+01
-2.868034e+01
-2.844547e+01
-2.821357e+01
-2.798487e+01
-2.775960e+01
-2.753800e+01
-2.732030e+01
-2.710671e+01
-2.689746e+01
-2.669275e+01
-2.649280e+01
-2.629780e+01
-2.610795e+01
-2.592344e+01
-2.574446e+01
-2.557118e+01
-2.540379e+01
-2.524243e+01
-2.508729e+01
-2.493850e+01
-2.479622e+01
-2.466059e+01
-2.453175e+01
-2.440983e+01
-2.429494e+01
-2.418721e+01
-2.408676e+01
-2.399370e+01
-2.390813e+01
-2.383018e+01
-2.375995e+01
-2.369757e+01
-2.364318e+01
-2.359693e+01
-2.355904e+01
-2.352973e+01
-2.350928e+01
-2.349800e+01
-2.349604e+01
-2.350292e+01
-2.351974e+01
-2.347993e+01
-3.871894e+01
-3.874961e+01
-3.880406e+01
-3.881665e+01
-3.881869e+01
-3.881004e+01
-3.879080e+01
-3.876112e+01
-3.872104e+01
-3.867055e+01
-3.860973e+01
-3.853883e+01
-3.845832e+01
-3.836890e+01
-3.827134e+01
-3.816631e+01
-3.805430e+01
-3.793559e+01
-3.781030e+01
-3.767849e+01
-3.754019e+01
-3.739542e+01
-3.724425e+01
-3.708674e+01
-3.692300e+01
-3.675316e+01
-3.657737e+01
-3.639579e+01
-3.620861e+01
-3.601602e+01
-3.581822e+01
-3.561542e+01
-3.540785e+01
-3.519573e+01
-3.497929e+01
-3.475878e+01
-3.453444e+01
-3.430651e+01
-3.407526e+01
-3.384093e+01
-3.360378e+01
-3.336408e+01
-3.312208e+01
-3.287806e+01
-3.263229e+01
-3.238503e+01
-3.213656e+01
-3.188713e+01
-3.163703e+01
-3.138651e+01
-3.113586e+01
-3.088534e+01
-3.063522e+01
-3.038576e+01
-3.013723e+01
-2.988989e+01
-2.964401e+01
-2.939984e+01
-2.915763e+01
-2.891765e+01
-2.868014e+01
-2.844535e+01
-2.821351e+01
-2.798488e+01
-2.775969e+01
-2.753816e+01
-2.732052e+01
-2.710700e+01
-2.689781e+01
-2.669317e+01
-2.649327e+01
-2.629833e+01
-2.610855e+01
-2.592410e+01
-2.574517e+01
-2.557195e+01
-2.540461e+01
-2.524331e+01
-2.508821e+01
-2.493947e+01
-2.479724e+01
-2.466166e+01
-2.453287e+01
-2.441099e+01
-2.429616e+01
-2.418849e+01
-2.408810e+01
-2.399511e+01
-2.390964e+01
-2.383180e+01
-2.376172e+01
-2.369954e+01
-2.364543e+01
-2.359960e+01
-2.356230e+01
-2.353389e+01
-2.351488e+01
-2.350598e+01
-2.350814e+01
-2.352198e+01
-2.355205e+01
-2.351225e+01
-3.865403e+01
-3.868470e+01
-3.877397e+01
-3.880327e+01
-3.881266e+01
-3.880744e+01
-3.878993e+01
-3.876127e+01
-3.872189e+01
-3.867197e+01
-3.861166e+01
-3.854126e+01
-3.846124e+01