# vtk DataFile Version 3.0
Vector Field
ASCII
DATASET RECTILINEAR_GRID
DIMENSIONS 102 22 1
X_COORDINATES 102 double
0.000000 0.100000 0.200000 0.300000 0.400000 0.500000 0.600000 0.700000 0.800000 0.900000 1.000000 1.100000 1.200000 1.300000 1.400000 1.500000 1.600000 1.700000 1.800000 1.900000 2.000000 2.100000 2.200000 2.300000 2.400000 2.500000 2.600000 2.700000 2.800000 2.900000 3.000000 3.100000 3.200000 3.300000 3.400000 3.500000 3.600000 3.700000 3.800000 3.900000 4.000000 4.100000 4.200000 4.300000 4.400000 4.500000 4.600000 4.700000 4.800000 4.900000 5.000000 5.100000 5.200000 5.300000 5.400000 5.500000 5.600000 5.700000 5.800000 5.900000 6.000000 6.100000 6.200000 6.300000 6.400000 6.500000 6.600000 6.700000 6.800000 6.900000 7.000000 7.100000 7.200000 7.300000 7.400000 7.500000 7.600000 7.700000 7.800000 7.900000 8.000000 8.100000 8.200000 8.300000 8.400000 8.500000 8.600000 8.700000 8.800000 8.900000 9.000000 9.100000 9.200000 9.300000 9.400000 9.500000 9.600000 9.700000 9.800000 9.900000 10.000000 10.100000 
Y_COORDINATES 22 double
0.000000 0.100000 0.200000 0.300000 0.400000 0.500000 0.600000 0.700000 0.800000 0.900000 1.000000 1.100000 1.200000 1.300000 1.400000 1.500000 1.600000 1.700000 1.800000 1.900000 2.000000 2.100000 
Z_COORDINATES 1 double
0.0
POINT_DATA 2244
VECTORS Velocity double
0.000000e+00 0.000000e+00 0.0
-0.000000e+00 0.000000e+00 0.0
-0.000000e+00 0.000000e+00 0.0
-0.000000e+00 0.000000e+00 0.0
-0.000000e+00 0.000000e+00 0.0
-0.000000e+00 0.000000e+00 0.0
-0.000000e+00 0.000000e+00 0.0
-0.000000e+00 0.000000e+00 0.0
-0.000000e+00 0.000000e+00 0.0
-0.000000e+00 0.000000e+00 0.0
-0.000000e+00 0.000000e+00 0.0
-3.572054e-03 0.000000e+00 0.0
1.075979e-02 0.000000e+00 0.0
3.035238e-02 0.000000e+00 0.0
5.266527e-02 0.000000e+00 0.0
7.713065e-02 0.000000e+00 0.0
1.031059e-01 0.000000e+00 0.0
1.291546e-01 0.000000e+00 0.0
1.528631e-01 0.000000e+00 0.0
1.711022e-01 0.000000e+00 0.0
1.802637e-01 0.000000e+00 0.0
1.766994e-01 0.000000e+00 0.0
1.584174e-01 0.000000e+00 0.0
1.266342e-01 0.000000e+00 0.0
8.592847e-02 0.000000e+00 0.0
4.245964e-02 0.000000e+00 0.0
1.136836e-03 0.000000e+00 0.0
-3.338242e-02 0.000000e+00 0.0
-6.016019e-02 0.000000e+00 0.0
-8.005270e-02 0.000000e+00 0.0
-9.441495e-02 0.000000e+00 0.0
-1.046549e-01 0.000000e+00 0.0
-1.119988e-01 0.000000e+00 0.0
-1.172297e-01 0.000000e+00 0.0
-1.209149e-01 0.000000e+00 0.0
-1.234783e-01 0.000000e+00 0.0
-1.252636e-01 0.000000e+00 0.0
-1.265525e-01 0.000000e+00 0.0
-1.275105e-01 0.000000e+00 0.0
-1.282352e-01 0.000000e+00 0.0
-1.288038e-01 0.000000e+00 0.0
-1.292710e-01 0.000000e+00 0.0
-1.296711e-01 0.000000e+00 0.0
-1.300266e-01 0.000000e+00 0.0
-1.303535e-01 0.000000e+00 0.0
-1.306625e-01 0.000000e+00 0.0
-1.309604e-01 0.000000e+00 0.0
-1.312516e-01 0.000000e+00 0.0
-1.315391e-01 0.000000e+00 0.0
-1.318246e-01 0.000000e+00 0.0
-1.321093e-01 0.000000e+00 0.0
-1.323937e-01 0.000000e+00 0.0
-1.326780e-01 0.000000e+00 0.0
-1.329623e-01 0.000000e+00 0.0
-1.332465e-01 0.000000e+00 0.0
-1.335304e-01 0.000000e+00 0.0
-1.338139e-01 0.000000e+00 0.0
-1.340967e-01 0.000000e+00 0.0
-1.343788e-01 0.000000e+00 0.0
-1.346599e-01 0.000000e+00 0.0
-1.349399e-01 0.000000e+00 0.0
-1.352188e-01 0.000000e+00 0.0
-1.354965e-01 0.000000e+00 0.0
-1.357729e-01 0.000000e+00 0.0
-1.360481e-01 0.000000e+00 0.0
-1.363220e-01 0.000000e+00 0.0
-1.365946e-01 0.000000e+00 0.0
-1.368660e-01 0.000000e+00 0.0
-1.371362e-01 0.000000e+00 0.0
-1.374053e-01 0.000000e+00 0.0
-1.376732e-01 0.000000e+00 0.0
-1.379401e-01 0.000000e+00 0.0
-1.382059e-01 0.000000e+00 0.0
-1.384707e-01 0.000000e+00 0.0
-1.387345e-01 0.000000e+00 0.0
-1.389974e-01 0.000000e+00 0.0
-1.392594e-01 0.000000e+00 0.0
-1.395206e-01 0.000000e+00 0.0
-1.397808e-01 0.000000e+00 0.0
-1.400403e-01 0.000000e+00 0.0
-1.402990e-01 0.000000e+00 0.0
-1.405570e-01 0.000000e+00 0.0
-1.408144e-01 0.000000e+00 0.0
-1.410715e-01 0.000000e+00 0.0
-1.413286e-01 0.000000e+00 0.0
-1.415864e-01 0.000000e+00 0.0
-1.418456e-01 0.000000e+00 0.0
-1.421075e-01 0.000000e+00 0.0
-1.423738e-01 0.000000e+00 0.0
-1.426471e-01 0.000000e+00 0.0
-1.429311e-01 0.000000e+00 0.0
-1.432311e-01 0.000000e+00 0.0
-1.435549e-01 0.000000e+00 0.0
-1.439131e-01 0.000000e+00 0.0
-1.443202e-01 0.000000e+00 0.0
-1.447946e-01 0.000000e+00 0.0
-1.453574e-01 0.000000e+00 0.0
-1.460253e-01 0.000000e+00 0.0
-1.467949e-01 0.000000e+00 0.0
-1.476384e-01 0.000000e+00 0.0
-1.476384e-01 0.000000e+00 0.0
0.000000e+00 0.000000e+00 0.0
0.000000e+00 0.000000e+00 0.0
0.000000e+00 0.000000e+00 0.0
0.000000e+00 0.000000e+00 0.0
0.000000e+00 0.000000e+00 0.0
0.000000e+00 0.000000e+00 0.0
0.000000e+00 0.000000e+00 0.0
0.000000e+00 0.000000e+00 0.0
0.000000e+00 0.000000e+00 0.0
0.000000e+00 0.000000e+00 0.0
0.000000e+00 0.000000e+00 0.0
0.000000e+00 -9.830623e-03 0.0
3.682534e-03 9.583516e-03 0.0
-1.030679e-02 2.161730e-02 0.0
-2.954463e-02 2.686581e-02 0.0
-5.153671e-02 2.962004e-02 0.0
-7.575094e-02 3.184218e-02 0.0
-1.016046e-01 3.348162e-02 0.0
-1.277548e-01 3.377817e-02 0.0
-1.518691e-01 3.174217e-02 0.0
-1.708838e-01 2.664267e-02 0.0
-1.812099e-01 1.795395e-02 0.0
-1.791361e-01 5.554114e-03 0.0
-1.623685e-01 -9.139694e-03 0.0
-1.317324e-01 -2.300821e-02 0.0
-9.153188e-02 -3.257270e-02 0.0
-4.786361e-02 -3.604043e-02 0.0
-5.844911e-03 -3.439088e-02 0.0
2.968778e-02 -2.790489e-02 0.0
5.738846e-02 -2.007289e-02 0.0
7.801684e-02 -1.300060e-02 0.0
9.291441e-02 -7.269812e-03 0.0
1.035103e-01 -2.968137e-03 0.0
1.110763e-01 6.173035e-05 0.0
1.164526e-01 2.251350e-03 0.0
1.202270e-01 3.853341e-03 0.0
1.228428e-01 5.011823e-03 0.0
1.246478e-01 5.822610e-03 0.0
1.259376e-01 6.337832e-03 0.0
1.268882e-01 6.676988e-03 0.0
1.276007e-01 6.915089e-03 0.0
1.281548e-01 7.073550e-03 0.0
1.286067e-01 7.175578e-03 0.0
1.289918e-01 7.242439e-03 0.0
1.293329e-01 7.286369e-03 0.0
1.296462e-01 7.314184e-03 0.0
1.299424e-01 7.331275e-03 0.0
1.302283e-01 7.341603e-03 0.0
1.305082e-01 7.347514e-03 0.0
1.307850e-01 7.350581e-03 0.0
1.310604e-01 7.351932e-03 0.0
1.313355e-01 7.352303e-03 0.0
1.316106e-01 7.352177e-03 0.0
1.318861e-01 7.351869e-03 0.0
1.321618e-01 7.351575e-03 0.0
1.324376e-01 7.351412e-03 0.0
1.327134e-01 7.351439e-03 0.0
1.329890e-01 7.351678e-03 0.0
1.332641e-01 7.352127e-03 0.0
1.335385e-01 7.352769e-03 0.0
1.338121e-01 7.353578e-03 0.0
1.340847e-01 7.354524e-03 0.0
1.343562e-01 7.355578e-03 0.0
1.346266e-01 7.356710e-03 0.0
1.348958e-01 7.357893e-03 0.0
1.351638e-01 7.359104e-03 0.0
1.354305e-01 7.360325e-03 0.0
1.356960e-01 7.361540e-03 0.0
1.359603e-01 7.362736e-03 0.0
1.362234e-01 7.363905e-03 0.0
1.364853e-01 7.365041e-03 0.0
1.367461e-01 7.366140e-03 0.0
1.370059e-01 7.367202e-03 0.0
1.372646e-01 7.368226e-03 0.0
1.375223e-01 7.369214e-03 0.0
1.377790e-01 7.370169e-03 0.0
1.380348e-01 7.371093e-03 0.0
1.382897e-01 7.371988e-03 0.0
1.385437e-01 7.372856e-03 0.0
1.387969e-01 7.373694e-03 0.0
1.390492e-01 7.374497e-03 0.0
1.393008e-01 7.375253e-03 0.0
1.395517e-01 7.375937e-03 0.0
1.398019e-01 7.376503e-03 0.0
1.400519e-01 7.376850e-03 0.0
1.403019e-01 7.376799e-03 0.0
1.405525e-01 7.376174e-03 0.0
1.408045e-01 7.374733e-03 0.0
1.410591e-01 7.372109e-03 0.0
1.413181e-01 7.367754e-03 0.0
1.415840e-01 7.360866e-03 0.0
1.418604e-01 7.350299e-03 0.0
1.421527e-01 7.334436e-03 0.0
1.424684e-01 7.311048e-03 0.0
1.428180e-01 7.277162e-03 0.0
1.432156e-01 7.229068e-03 0.0
1.436795e-01 7.162806e-03 0.0
1.442302e-01 7.076003e-03 0.0
1.448841e-01 6.972864e-03 0.0
1.456374e-01 6.873420e-03 0.0
1.464629e-01 6.801169e-03 0.0
1.476384e-01 6.451169e-03 0.0
0.000000e+00 6.503835e-03 0.0
0.000000e+00 0.000000e+00 0.0
0.000000e+00 0.000000e+00 0.0
0.000000e+00 0.000000e+00 0.0
0.000000e+00 0.000000e+00 0.0
0.000000e+00 0.000000e+00 0.0
0.000000e+00 0.000000e+00 0.0
0.000000e+00 0.000000e+00 0.0
0.000000e+00 0.000000e+00 0.0
0.000000e+00 0.000000e+00 0.0
0.000000e+00 0.000000e+00 0.0
0.000000e+00 -2.589540e-02 0.0
-8.113934e-03 2.532543e-02 0.0
-4.142983e-02 5.692310e-02 0.0
-8.245223e-02 6.987811e-02 0.0
-1.250287e-01 7.418641e-02 0.0
-1.664088e-01 7.521215e-02 0.0
-2.044550e-01 7.351772e-02 0.0
-2.366552e-01 6.796832e-02 0.0
-2.602166e-01 5.729343e-02 0.0
-2.718169e-01 4.023285e-02 0.0
-2.676744e-01 1.580135e-02 0.0
-2.436973e-01 -1.643311e-02 0.0
-1.998934e-01 -5.095373e-02 0.0
-1.392719e-01 -8.163985e-02 0.0
-6.807774e-02 -1.017770e-01 0.0
6.596999e-03 -1.087253e-01 0.0
7.374467e-02 -9.954868e-02 0.0
1.308935e-01 -8.306383e-02 0.0
1.778603e-01 -6.504988e-02 0.0
2.152467e-01 -4.839717e-02 0.0
2.443339e-01 -3.436719e-02 0.0
2.666069e-01 -2.325124e-02 0.0
2.834654e-01 -1.480697e-02 0.0
2.962484e-01 -8.541870e-03 0.0
3.060779e-01 -3.986284e-03 0.0
3.138460e-01 -7.665198e-04 0.0
3.201732e-01 1.485257e-03 0.0
3.253743e-01 3.126557e-03 0.0
3.296942e-01 4.346841e-03 0.0
3.333211e-01 5.277962e-03 0.0
3.364276e-01 5.956888e-03 0.0
3.391395e-01 6.453495e-03 0.0
3.415445e-01 6.827130e-03 0.0
3.437092e-01 7.111434e-03 0.0
3.456860e-01 7.327176e-03 0.0
3.475143e-01 7.492729e-03 0.0
3.492235e-01 7.622189e-03 0.0
3.508363e-01 7.724425e-03 0.0
3.523706e-01 7.806072e-03 0.0
3.538400e-01 7.872251e-03 0.0
3.552554e-01 7.926644e-03 0.0
3.566253e-01 7.971967e-03 0.0
3.579566e-01 8.010279e-03 0.0
3.592548e-01 8.043113e-03 0.0
3.605243e-01 8.071625e-03 0.0
3.617688e-01 8.096684e-03 0.0
3.629912e-01 8.118943e-03 0.0
3.641941e-01 8.138894e-03 0.0
3.653797e-01 8.156910e-03 0.0
3.665497e-01 8.173273e-03 0.0
3.677057e-01 8.188199e-03 0.0
3.688491e-01 8.201856e-03 0.0
3.699811e-01 8.214379e-03 0.0
3.711028e-01 8.225876e-03 0.0
3.722151e-01 8.236438e-03 0.0
3.733189e-01 8.246144e-03 0.0
3.744151e-01 8.255064e-03 0.0
3.755042e-01 8.263264e-03 0.0
3.765869e-01 8.270802e-03 0.0
3.776639e-01 8.277736e-03 0.0
3.787355e-01 8.284120e-03 0.0
3.798023e-01 8.290006e-03 0.0
3.808648e-01 8.295443e-03 0.0
3.819231e-01 8.300479e-03 0.0
3.829777e-01 8.305157e-03 0.0
3.840289e-01 8.309519e-03 0.0
3.850769e-01 8.313601e-03 0.0
3.861220e-01 8.317431e-03 0.0
3.871642e-01 8.321030e-03 0.0
3.882039e-01 8.324405e-03 0.0
3.892412e-01 8.327544e-03 0.0
3.902764e-01 8.330407e-03 0.0
3.913096e-01 8.332909e-03 0.0
3.923411e-01 8.334908e-03 0.0
3.933713e-01 8.336136e-03 0.0
3.944011e-01 8.336006e-03 0.0
3.954314e-01 8.333983e-03 0.0
3.964639e-01 8.329232e-03 0.0
3.975008e-01 8.320488e-03 0.0
3.985453e-01 8.305889e-03 0.0
3.996025e-01 8.282734e-03 0.0
4.006793e-01 8.247160e-03 0.0
4.017862e-01 8.193705e-03 0.0
4.029382e-01 8.114764e-03 0.0
4.041568e-01 8.000007e-03 0.0
4.054732e-01 7.836059e-03 0.0
4.069315e-01 7.607294e-03 0.0
4.085940e-01 7.299863e-03 0.0
4.105462e-01 6.910825e-03 0.0
4.129039e-01 6.433068e-03 0.0
4.159013e-01 5.443291e-03 0.0
0.000000e+00 5.459830e-03 0.0
0.000000e+00 0.000000e+00 0.0
0.000000e+00 0.000000e+00 0.0
0.000000e+00 0.000000e+00 0.0
0.000000e+00 0.000000e+00 0.0
0.000000e+00 0.000000e+00 0.0
0.000000e+00 0.000000e+00 0.0
0.000000e+00 0.000000e+00 0.0
0.000000e+00 0.000000e+00 0.0
0.000000e+00 0.000000e+00 0.0
0.000000e+00 0.000000e+00 0.0
0.000000e+00 -4.741139e-02 0.0
-1.362491e-02 4.657831e-02 0.0
-5.211947e-02 9.740756e-02 0.0
-9.625558e-02 1.160041e-01 0.0
-1.392432e-01 1.191640e-01 0.0
-1.780600e-01 1.160188e-01 0.0
-2.108772e-01 1.083249e-01 0.0
-2.358714e-01 9.495242e-02 0.0
-2.505542e-01 7.396611e-02 0.0
-2.513518e-01 4.302037e-02 0.0
-2.334177e-01 -1.429069e-04 0.0
-1.941553e-01 -5.370566e-02 0.0
-1.353008e-01 -1.078183e-01 0.0
-6.214952e-02 -1.528012e-01 0.0
1.829628e-02 -1.802329e-01 0.0
9.386860e-02 -1.823078e-01 0.0
1.624476e-01 -1.661378e-01 0.0
2.225718e-01 -1.411982e-01 0.0
2.735865e-01 -1.140748e-01 0.0
3.158539e-01 -8.867468e-02 0.0
3.503310e-01 -6.685445e-02 0.0
3.782011e-01 -4.913154e-02 0.0
4.006543e-01 -3.527035e-02 0.0
4.188015e-01 -2.469918e-02 0.0
4.335847e-01 -1.677969e-02 0.0
4.457311e-01 -1.092314e-02 0.0
4.558084e-01 -6.602236e-03 0.0
4.643084e-01 -3.383638e-03 0.0
4.716187e-01 -9.735929e-04 0.0
4.780637e-01 8.227146e-04 0.0
4.838017e-01 2.208647e-03 0.0
4.889500e-01 3.294959e-03 0.0
4.936016e-01 4.165307e-03 0.0
4.978380e-01 4.864869e-03 0.0
5.017304e-01 5.424547e-03 0.0
5.053349e-01 5.877969e-03 0.0
5.086953e-01 6.251544e-03 0.0
5.118488e-01 6.560622e-03 0.0
5.148265e-01 6.818181e-03 0.0
5.176535e-01 7.034925e-03 0.0
5.203512e-01 7.218674e-03 0.0
5.229374e-01 7.375505e-03 0.0
5.254271e-01 7.510306e-03 0.0
5.278330e-01 7.626922e-03 0.0
5.301659e-01 7.728423e-03 0.0
5.324351e-01 7.817272e-03 0.0
5.346483e-01 7.895455e-03 0.0
5.368123e-01 7.964575e-03 0.0
5.389329e-01 8.025936e-03 0.0
5.410153e-01 8.080605e-03 0.0
5.430637e-01 8.129458e-03 0.0
5.450820e-01 8.173224e-03 0.0
5.470736e-01 8.212510e-03 0.0
5.490413e-01 8.247833e-03 0.0
5.509877e-01 8.279631e-03 0.0
5.529152e-01 8.308285e-03 0.0
5.548258e-01 8.334129e-03 0.0
5.567213e-01 8.357457e-03 0.0
5.586032e-01 8.378530e-03 0.0
5.604730e-01 8.397586e-03 0.0
5.623319e-01 8.414838e-03 0.0
5.641811e-01 8.430480e-03 0.0
5.660214e-01 8.444690e-03 0.0
5.678539e-01 8.457629e-03 0.0
5.696792e-01 8.469445e-03 0.0
5.714981e-01 8.480270e-03 0.0
5.733111e-01 8.490224e-03 0.0
5.751187e-01 8.499406e-03 0.0
5.769215e-01 8.507900e-03 0.0
5.787197e-01 8.515761e-03 0.0
5.805138e-01 8.523013e-03 0.0
5.823042e-01 8.529635e-03 0.0
5.840912e-01 8.535544e-03 0.0
5.858751e-01 8.540574e-03 0.0
5.876564e-01 8.544442e-03 0.0
5.894354e-01 8.546633e-03 0.0
5.912128e-01 8.546085e-03 0.0
5.929900e-01 8.541654e-03 0.0
5.947685e-01 8.531577e-03 0.0
5.965507e-01 8.513221e-03 0.0
5.983403e-01 8.482731e-03 0.0
6.001425e-01 8.434537e-03 0.0
6.019652e-01 8.360644e-03 0.0
6.038199e-01 8.249652e-03 0.0
6.057240e-01 8.085412e-03 0.0
6.077044e-01 7.845231e-03 0.0
6.098037e-01 7.497577e-03 0.0
6.120939e-01 6.999249e-03 0.0
6.147034e-01 6.290902e-03 0.0
6.178473e-01 5.278741e-03 0.0
6.215573e-01 3.722873e-03 0.0
0.000000e+00 3.705759e-03 0.0
0.000000e+00 0.000000e+00 0.0
0.000000e+00 0.000000e+00 0.0
0.000000e+00 0.000000e+00 0.0
0.000000e+00 0.000000e+00 0.0
0.000000e+00 0.000000e+00 0.0
0.000000e+00 0.000000e+00 0.0
0.000000e+00 0.000000e+00 0.0
0.000000e+00 0.000000e+00 0.0
0.000000e+00 0.000000e+00 0.0
0.000000e+00 0.000000e+00 0.0
0.000000e+00 -6.556809e-02 0.0
-1.035792e-02 6.456421e-02 0.0
-4.197936e-02 1.310189e-01 0.0
-7.743034e-02 1.534450e-01 0.0
-1.106737e-01 1.543973e-01 0.0
-1.390721e-01 1.464070e-01 0.0
-1.611483e-01 1.323910e-01 0.0
-1.754176e-01 1.112117e-01 0.0
-1.793725e-01 7.991087e-02 0.0
-1.685474e-01 3.418519e-02 0.0
-1.363502e-01 -3.035032e-02 0.0
-8.384916e-02 -1.042168e-01 0.0
-1.468394e-02 -1.749937e-01 0.0
6.059748e-02 -2.260928e-01 0.0
1.324610e-01 -2.501065e-01 0.0
1.988594e-01 -2.467163e-01 0.0
2.589277e-01 -2.242163e-01 0.0
3.118360e-01 -1.921167e-01 0.0
3.573927e-01 -1.576416e-01 0.0
3.959919e-01 -1.252840e-01 0.0
4.284050e-01 -9.727766e-02 0.0
4.555575e-01 -7.429421e-02 0.0
4.783669e-01 -5.608993e-02 0.0
4.976523e-01 -4.199470e-02 0.0
5.140876e-01 -3.122527e-02 0.0
5.281984e-01 -2.304412e-02 0.0
5.404056e-01 -1.681959e-02 0.0
5.510639e-01 -1.205214e-02 0.0
5.604565e-01 -8.376363e-03 0.0
5.687922e-01 -5.523240e-03 0.0
5.762654e-01 -3.274747e-03 0.0
5.830298e-01 -1.479627e-03 0.0
5.892259e-01 -4.108431e-05 0.0
5.949528e-01 1.127745e-03 0.0
6.002712e-01 2.095922e-03 0.0
6.052315e-01 2.907475e-03 0.0
6.098752e-01 3.597618e-03 0.0
6.142429e-01 4.182669e-03 0.0
6.183694e-01 4.681343e-03 0.0
6.222840e-01 5.110076e-03 0.0
6.260123e-01 5.480160e-03 0.0
6.295768e-01 5.800721e-03 0.0
6.329972e-01 6.079590e-03 0.0
6.362908e-01 6.323026e-03 0.0
6.394728e-01 6.536224e-03 0.0
6.425562e-01 6.723522e-03 0.0
6.455528e-01 6.888535e-03 0.0
6.484728e-01 7.034298e-03 0.0
6.513251e-01 7.163366e-03 0.0
6.541175e-01 7.277898e-03 0.0
6.568569e-01 7.379725e-03 0.0
6.595494e-01 7.470408e-03 0.0
6.622003e-01 7.551280e-03 0.0
6.648143e-01 7.623491e-03 0.0
6.673955e-01 7.688033e-03 0.0
6.699477e-01 7.745771e-03 0.0
6.724740e-01 7.797463e-03 0.0
6.749773e-01 7.843776e-03 0.0
6.774602e-01 7.885303e-03 0.0
6.799249e-01 7.922569e-03 0.0
6.823733e-01 7.956048e-03 0.0
6.848072e-01 7.986162e-03 0.0
6.872283e-01 8.013292e-03 0.0
6.896377e-01 8.037784e-03 0.0
6.920368e-01 8.059947e-03 0.0
6.944267e-01 8.080059e-03 0.0
6.968081e-01 8.098370e-03 0.0
6.991821e-01 8.115096e-03 0.0
7.015491e-01 8.130421e-03 0.0
7.039100e-01 8.144493e-03 0.0
7.062652e-01 8.157409e-03 0.0
7.086152e-01 8.169211e-03 0.0
7.109605e-01 8.179862e-03 0.0
7.133015e-01 8.189223e-03 0.0
7.156385e-01 8.197020e-03 0.0
7.179719e-01 8.202777e-03 0.0
7.203020e-01 8.205580e-03 0.0
7.226294e-01 8.203845e-03 0.0
7.249550e-01 8.195570e-03 0.0
7.272801e-01 8.177726e-03 0.0
7.296066e-01 8.145840e-03 0.0
7.319373e-01 8.093388e-03 0.0
7.342766e-01 8.010911e-03 0.0
7.366311e-01 7.884732e-03 0.0
7.390110e-01 7.695045e-03 0.0
7.414329e-01 7.412967e-03 0.0
7.439244e-01 6.995667e-03 0.0
7.465357e-01 6.377515e-03 0.0
7.493628e-01 5.453360e-03 0.0
7.525680e-01 4.063112e-03 0.0
7.560495e-01 2.230987e-03 0.0
0.000000e+00 2.200520e-03 0.0
0.000000e+00 0.000000e+00 0.0
0.000000e+00 0.000000e+00 0.0
0.000000e+00 0.000000e+00 0.0
0.000000e+00 0.000000e+00 0.0
0.000000e+00 0.000000e+00 0.0
0.000000e+00 0.000000e+00 0.0
0.000000e+00 0.000000e+00 0.0
0.000000e+00 0.000000e+00 0.0
0.000000e+00 0.000000e+00 0.0
0.000000e+00 0.000000e+00 0.0
0.000000e+00 -7.610828e-02 0.0
-2.832791e-03 7.502498e-02 0.0
-2.162177e-02 1.517978e-01 0.0
-4.205397e-02 1.758671e-01 0.0
-5.986276e-02 1.741959e-01 0.0
-7.293194e-02 1.614661e-01 0.0
-8.012853e-02 1.415775e-01 0.0
-8.017831e-02 1.132513e-01 0.0
-7.024911e-02 7.197156e-02 0.0
-4.088014e-02 6.806109e-03 0.0
1.084270e-02 -8.008328e-02 0.0
7.665831e-02 -1.680425e-01 0.0
1.458504e-01 -2.421959e-01 0.0
2.123197e-01 -2.905723e-01 0.0
2.725981e-01 -3.083951e-01 0.0
3.253825e-01 -2.975108e-01 0.0
3.713060e-01 -2.681500e-01 0.0
4.110445e-01 -2.298653e-01 0.0
4.451723e-01 -1.897796e-01 0.0
4.742967e-01 -1.524186e-01 0.0
4.991121e-01 -1.201032e-01 0.0
5.203539e-01 -9.354617e-02 0.0
5.387167e-01 -7.246292e-02 0.0
5.547906e-01 -5.607874e-02 0.0
5.690332e-01 -4.347803e-02 0.0
5.817793e-01 -3.380041e-02 0.0
5.932749e-01 -2.632535e-02 0.0
6.037066e-01 -2.049413e-02 0.0
6.132152e-01 -1.589510e-02 0.0
6.219086e-01 -1.222688e-02 0.0
6.298882e-01 -9.264522e-03 0.0
6.372450e-01 -6.846650e-03 0.0
6.440527e-01 -4.859008e-03 0.0
6.503790e-01 -3.208827e-03 0.0
6.562877e-01 -1.822954e-03 0.0
6.618345e-01 -6.495532e-04 0.0
6.670747e-01 3.471696e-04 0.0
6.720409e-01 1.206196e-03 0.0
6.767602e-01 1.951822e-03 0.0
6.812560e-01 2.603984e-03 0.0
6.855510e-01 3.174897e-03 0.0
6.896662e-01 3.675200e-03 0.0
6.936204e-01 4.115118e-03 0.0
6.974306e-01 4.502523e-03 0.0
7.011124e-01 4.844208e-03 0.0
7.046795e-01 5.146053e-03 0.0
7.081447e-01 5.413062e-03 0.0
7.115191e-01 5.649567e-03 0.0
7.148129e-01 5.859311e-03 0.0
7.180349e-01 6.045534e-03 0.0
7.211933e-01 6.211049e-03 0.0
7.242951e-01 6.358299e-03 0.0
7.273466e-01 6.489412e-03 0.0
7.303535e-01 6.606243e-03 0.0
7.333208e-01 6.710418e-03 0.0
7.362529e-01 6.803364e-03 0.0
7.391536e-01 6.886335e-03 0.0
7.420266e-01 6.960444e-03 0.0
7.448749e-01 7.026676e-03 0.0
7.477012e-01 7.085908e-03 0.0
7.505080e-01 7.138924e-03 0.0
7.532973e-01 7.186426e-03 0.0
7.560712e-01 7.229042e-03 0.0
7.588313e-01 7.267339e-03 0.0
7.615790e-01 7.301827e-03 0.0
7.643157e-01 7.332961e-03 0.0
7.670426e-01 7.361150e-03 0.0
7.697605e-01 7.386757e-03 0.0
7.724704e-01 7.410095e-03 0.0
7.751731e-01 7.431428e-03 0.0
7.778692e-01 7.450963e-03 0.0
7.805591e-01 7.468836e-03 0.0
7.832435e-01 7.485096e-03 0.0
7.859226e-01 7.499679e-03 0.0
7.885969e-01 7.512368e-03 0.0
7.912665e-01 7.522733e-03 0.0
7.939317e-01 7.530008e-03 0.0
7.965923e-01 7.532760e-03 0.0
7.992487e-01 7.528783e-03 0.0
8.019010e-01 7.514987e-03 0.0
8.045497e-01 7.486761e-03 0.0
8.071953e-01 7.437326e-03 0.0
8.098390e-01 7.356775e-03 0.0
8.124827e-01 7.230658e-03 0.0
8.151295e-01 7.037826e-03 0.0
8.177850e-01 6.747008e-03 0.0
8.204592e-01 6.311030e-03 0.0
8.231700e-01 5.656354e-03 0.0
8.259476e-01 4.665339e-03 0.0
8.288236e-01 3.176652e-03 0.0
8.316605e-01 1.383667e-03 0.0
0.000000e+00 1.358103e-03 0.0
0.000000e+00 0.000000e+00 0.0
0.000000e+00 0.000000e+00 0.0
0.000000e+00 0.000000e+00 0.0
0.000000e+00 0.000000e+00 0.0
0.000000e+00 0.000000e+00 0.0
0.000000e+00 0.000000e+00 0.0
0.000000e+00 0.000000e+00 0.0
0.000000e+00 0.000000e+00 0.0
0.000000e+00 0.000000e+00 0.0
0.000000e+00 0.000000e+00 0.0
0.000000e+00 -8.004653e-02 0.0
3.647697e-03 7.900526e-02 0.0
-9.383697e-04 1.583738e-01 0.0
-2.873054e-03 1.797917e-01 0.0
-8.427958e-04 1.741556e-01 0.0
5.863543e-03 1.567496e-01 0.0
1.832014e-02 1.311108e-01 0.0
3.895256e-02 9.460881e-02 0.0
7.353987e-02 3.937414e-02 0.0
1.287494e-01 -4.641351e-02 0.0
1.945907e-01 -1.439347e-01 0.0
2.633506e-01 -2.348126e-01 0.0
3.278707e-01 -3.047261e-01 0.0
3.840146e-01 -3.447263e-01 0.0
4.297880e-01 -3.521786e-01 0.0
4.662958e-01 -3.320287e-01 0.0
4.957530e-01 -2.956173e-01 0.0
5.199595e-01 -2.520820e-01 0.0
5.401453e-01 -2.079755e-01 0.0
5.571601e-01 -1.674436e-01 0.0
5.716661e-01 -1.326194e-01 0.0
5.842370e-01 -1.041272e-01 0.0
5.953733e-01 -8.160944e-02 0.0
6.054821e-01 -6.419770e-02 0.0
6.148598e-01 -5.086589e-02 0.0
6.236978e-01 -4.064859e-02 0.0
6.321060e-01 -3.274376e-02 0.0
6.401391e-01 -2.653742e-02 0.0
6.478174e-01 -2.158364e-02 0.0
6.551458e-01 -1.756543e-02 0.0
6.621289e-01 -1.425783e-02 0.0
6.687742e-01 -1.150225e-02 0.0
6.750902e-01 -9.185171e-03 0.0
6.810908e-01 -7.219667e-03 0.0
6.867963e-01 -5.538748e-03 0.0
6.922290e-01 -4.092494e-03 0.0
6.974083e-01 -2.842372e-03 0.0
7.023581e-01 -1.753774e-03 0.0
7.070997e-01 -8.001197e-04 0.0
7.116564e-01 3.708137e-05 0.0
7.160446e-01 7.764145e-04 0.0
7.202776e-01 1.431977e-03 0.0
7.243674e-01 2.014961e-03 0.0
7.283266e-01 2.533030e-03 0.0
7.321671e-01 2.993466e-03 0.0
7.358999e-01 3.402945e-03 0.0
7.395355e-01 3.767133e-03 0.0
7.430837e-01 4.091140e-03 0.0
7.465532e-01 4.379477e-03 0.0
7.499523e-01 4.636147e-03 0.0
7.532883e-01 4.864704e-03 0.0
7.565680e-01 5.068291e-03 0.0
7.597974e-01 5.249694e-03 0.0
7.629819e-01 5.411379e-03 0.0
7.661264e-01 5.555531e-03 0.0
7.692354e-01 5.684087e-03 0.0
7.723126e-01 5.798767e-03 0.0
7.753616e-01 5.901102e-03 0.0
7.783854e-01 5.992454e-03 0.0
7.813869e-01 6.074042e-03 0.0
7.843686e-01 6.146953e-03 0.0
7.873324e-01 6.212165e-03 0.0
7.902806e-01 6.270554e-03 0.0
7.932146e-01 6.322908e-03 0.0
7.961361e-01 6.369937e-03 0.0
7.990464e-01 6.412277e-03 0.0
8.019467e-01 6.450503e-03 0.0
8.048379e-01 6.485125e-03 0.0
8.077210e-01 6.516597e-03 0.0
8.105968e-01 6.545309e-03 0.0
8.134657e-01 6.571587e-03 0.0
8.163285e-01 6.595683e-03 0.0
8.191854e-01 6.617759e-03 0.0
8.220368e-01 6.637859e-03 0.0
8.248829e-01 6.655873e-03 0.0
8.277238e-01 6.671475e-03 0.0
8.305593e-01 6.684022e-03 0.0
8.333893e-01 6.692370e-03 0.0
8.362132e-01 6.694523e-03 0.0
8.390302e-01 6.687532e-03 0.0
8.418395e-01 6.667062e-03 0.0
8.446397e-01 6.626683e-03 0.0
8.474291e-01 6.556934e-03 0.0
8.502054e-01 6.443943e-03 0.0
8.529655e-01 6.267332e-03 0.0
8.557051e-01 5.996991e-03 0.0
8.584178e-01 5.587911e-03 0.0
8.610918e-01 4.971909e-03 0.0
8.636995e-01 4.047204e-03 0.0
8.661689e-01 2.696868e-03 0.0
8.683825e-01 1.159623e-03 0.0
0.000000e+00 1.147033e-03 0.0
0.000000e+00 0.000000e+00 0.0
0.000000e+00 0.000000e+00 0.0
0.000000e+00 0.000000e+00 0.0
0.000000e+00 0.000000e+00 0.0
0.000000e+00 0.000000e+00 0.0
0.000000e+00 0.000000e+00 0.0
0.000000e+00 0.000000e+00 0.0
0.000000e+00 0.000000e+00 0.0
0.000000e+00 0.000000e+00 0.0
0.000000e+00 0.000000e+00 0.0
0.000000e+00 -8.168317e-02 0.0
5.788273e-03 8.084498e-02 0.0
1.566599e-02 1.504859e-01 0.0
3.593188e-02 1.615157e-01 0.0
6.272480e-02 1.493526e-01 0.0
9.440287e-02 1.270615e-01 0.0
1.323727e-01 9.513087e-02 0.0
1.798175e-01 4.915388e-02 0.0
2.469417e-01 -2.576025e-02 0.0
3.221138e-01 -1.195957e-01 0.0
3.966045e-01 -2.164355e-01 0.0
4.638452e-01 -3.000634e-01 0.0
5.194292e-01 -3.583202e-01 0.0
5.616224e-01 -3.849296e-01 0.0
5.902788e-01 -3.788451e-01 0.0
6.093105e-01 -3.490706e-01 0.0
6.219495e-01 -3.062665e-01 0.0
6.305328e-01 -2.586755e-01 0.0
6.366339e-01 -2.120866e-01 0.0
6.412481e-01 -1.700680e-01 0.0
6.450008e-01 -1.343823e-01 0.0
6.483124e-01 -1.054489e-01 0.0
6.514903e-01 -8.279754e-02 0.0
6.547610e-01 -6.547852e-02 0.0
6.582735e-01 -5.238857e-02 0.0
6.621028e-01 -4.248807e-02 0.0
6.662609e-01 -3.491212e-02 0.0
6.707143e-01 -2.900096e-02 0.0
6.754015e-01 -2.428107e-02 0.0
6.802508e-01 -2.042492e-02 0.0
6.851927e-01 -1.720998e-02 0.0
6.901660e-01 -1.448578e-02 0.0
6.951195e-01 -1.214887e-02 0.0
7.000144e-01 -1.012477e-02 0.0
7.048238e-01 -8.358443e-03 0.0
7.095299e-01 -6.808767e-03 0.0
7.141207e-01 -5.443477e-03 0.0
7.185921e-01 -4.235424e-03 0.0
7.229447e-01 -3.162951e-03 0.0
7.271807e-01 -2.209124e-03 0.0
7.313052e-01 -1.358375e-03 0.0
7.353244e-01 -5.975626e-04 0.0
7.392461e-01 8.300295e-05 0.0
7.430758e-01 6.930755e-04 0.0
7.468187e-01 1.240247e-03 0.0
7.504804e-01 1.730931e-03 0.0
7.540670e-01 2.170274e-03 0.0
7.575844e-01 2.563439e-03 0.0
7.610385e-01 2.915030e-03 0.0
7.644351e-01 3.229278e-03 0.0
7.677794e-01 3.510035e-03 0.0
7.710766e-01 3.760788e-03 0.0
7.743313e-01 3.984690e-03 0.0
7.775478e-01 4.184581e-03 0.0
7.807299e-01 4.363013e-03 0.0
7.838814e-01 4.522280e-03 0.0
7.870054e-01 4.664439e-03 0.0
7.901048e-01 4.791333e-03 0.0
7.931823e-01 4.904619e-03 0.0
7.962402e-01 5.005783e-03 0.0
7.992806e-01 5.096159e-03 0.0
8.023054e-01 5.176950e-03 0.0
8.053164e-01 5.249238e-03 0.0
8.083149e-01 5.313997e-03 0.0
8.113024e-01 5.372108e-03 0.0
8.142799e-01 5.424365e-03 0.0
8.172485e-01 5.471486e-03 0.0
8.202092e-01 5.514115e-03 0.0
8.231625e-01 5.552830e-03 0.0
8.261093e-01 5.588142e-03 0.0
8.290500e-01 5.620496e-03 0.0
8.319850e-01 5.650260e-03 0.0
8.349147e-01 5.677717e-03 0.0
8.378391e-01 5.703043e-03 0.0
8.407583e-01 5.726270e-03 0.0
8.436721e-01 5.747232e-03 0.0
8.465802e-01 5.765478e-03 0.0
8.494821e-01 5.780128e-03 0.0
8.523765e-01 5.789658e-03 0.0
8.552621e-01 5.791563e-03 0.0
8.581366e-01 5.782112e-03 0.0
8.609971e-01 5.755741e-03 0.0
8.638394e-01 5.704206e-03 0.0
8.666576e-01 5.615364e-03 0.0
8.694431e-01 5.471409e-03 0.0
8.721834e-01 5.246274e-03 0.0
8.748589e-01 4.901931e-03 0.0
8.774367e-01 4.383702e-03 0.0
8.798555e-01 3.618037e-03 0.0
8.820024e-01 2.539533e-03 0.0
8.837953e-01 1.356284e-03 0.0
0.000000e+00 1.356951e-03 0.0
0.000000e+00 0.000000e+00 0.0
0.000000e+00 0.000000e+00 0.0
0.000000e+00 0.000000e+00 0.0
0.000000e+00 0.000000e+00 0.0
0.000000e+00 0.000000e+00 0.0
0.000000e+00 0.000000e+00 0.0
0.000000e+00 0.000000e+00 0.0
0.000000e+00 0.000000e+00 0.0
0.000000e+00 0.000000e+00 0.0
0.000000e+00 0.000000e+00 0.0
0.000000e+00 -8.530302e-02 0.0
3.667026e-03 8.480594e-02 0.0
3.284793e-02 1.232949e-01 0.0
8.128059e-02 1.150730e-01 0.0
1.378753e-01 9.474775e-02 0.0
1.993305e-01 6.759621e-02 0.0
2.696474e-01 2.680379e-02 0.0
3.557050e-01 -3.491375e-02 0.0
4.464412e-01 -1.145066e-01 0.0
5.325138e-01 -2.036784e-01 0.0
6.069690e-01 -2.889009e-01 0.0
6.655021e-01 -3.566067e-01 0.0
7.064536e-01 -3.972818e-01 0.0
7.303214e-01 -4.068075e-01 0.0
7.406775e-01 -3.872114e-01 0.0
7.424617e-01 -3.488649e-01 0.0
7.392259e-01 -3.010408e-01 0.0
7.334419e-01 -2.509017e-01 0.0
7.267227e-01 -2.033775e-01 0.0
7.200473e-01 -1.614028e-01 0.0
7.139628e-01 -1.263079e-01 0.0
7.087493e-01 -9.824560e-02 0.0
7.045393e-01 -7.659771e-02 0.0
7.013843e-01 -6.033368e-02 0.0
6.992847e-01 -4.829914e-02 0.0
6.982006e-01 -3.941413e-02 0.0
6.980581e-01 -3.277981e-02 0.0
6.987573e-01 -2.771040e-02 0.0
7.001825e-01 -2.371646e-02 0.0
7.022128e-01 -2.046543e-02 0.0
7.047315e-01 -1.773890e-02 0.0
7.076316e-01 -1.539614e-02 0.0
7.108191e-01 -1.334655e-02 0.0
7.142145e-01 -1.153041e-02 0.0
7.177531e-01 -9.907284e-03 0.0
7.213830e-01 -8.448878e-03 0.0
7.250634e-01 -7.134096e-03 0.0
7.287638e-01 -5.946107e-03 0.0
7.324620e-01 -4.871432e-03 0.0
7.361416e-01 -3.898952e-03 0.0
7.397915e-01 -3.018567e-03 0.0
7.434052e-01 -2.221490e-03 0.0
7.469782e-01 -1.500340e-03 0.0
7.505089e-01 -8.478875e-04 0.0
7.539967e-01 -2.577983e-04 0.0
7.574420e-01 2.752709e-04 0.0
7.608454e-01 7.565493e-04 0.0
7.642080e-01 1.190557e-03 0.0
7.675316e-01 1.581176e-03 0.0
7.708183e-01 1.932217e-03 0.0
7.740707e-01 2.247318e-03 0.0
7.772913e-01 2.529844e-03 0.0
7.804827e-01 2.782945e-03 0.0
7.836475e-01 3.009523e-03 0.0
7.867879e-01 3.212231e-03 0.0
7.899064e-01 3.393498e-03 0.0
7.930049e-01 3.555534e-03 0.0
7.960855e-01 3.700344e-03 0.0
7.991501e-01 3.829744e-03 0.0
8.022001e-01 3.945379e-03 0.0
8.052372e-01 4.048735e-03 0.0
8.082626e-01 4.141158e-03 0.0
8.112776e-01 4.223865e-03 0.0
8.142833e-01 4.297961e-03 0.0
8.172805e-01 4.364445e-03 0.0
8.202703e-01 4.424225e-03 0.0
8.232533e-01 4.478123e-03 0.0
8.262301e-01 4.526887e-03 0.0
8.292014e-01 4.571192e-03 0.0
8.321674e-01 4.611650e-03 0.0
8.351287e-01 4.648805e-03 0.0
8.380855e-01 4.683135e-03 0.0
8.410377e-01 4.715042e-03 0.0
8.439855e-01 4.744838e-03 0.0
8.469287e-01 4.772721e-03 0.0
8.498668e-01 4.798725e-03 0.0
8.527992e-01 4.822655e-03 0.0
8.557249e-01 4.843980e-03 0.0
8.586425e-01 4.861666e-03 0.0
8.615497e-01 4.873948e-03 0.0
8.644434e-01 4.878004e-03 0.0
8.673192e-01 4.869553e-03 0.0
8.701707e-01 4.842191e-03 0.0
8.729892e-01 4.786442e-03 0.0
8.757618e-01 4.688446e-03 0.0
8.784694e-01 4.528204e-03 0.0
8.810835e-01 4.277455e-03 0.0
8.835588e-01 3.897989e-03 0.0
8.858222e-01 3.344149e-03 0.0
8.877639e-01 2.587503e-03 0.0
8.893321e-01 1.777632e-03 0.0
0.000000e+00 1.789054e-03 0.0
0.000000e+00 0.000000e+00 0.0
0.000000e+00 0.000000e+00 0.0
0.000000e+00 0.000000e+00 0.0
0.000000e+00 0.000000e+00 0.0
0.000000e+00 0.000000e+00 0.0
0.000000e+00 0.000000e+00 0.0
0.000000e+00 0.000000e+00 0.0
0.000000e+00 0.000000e+00 0.0
0.000000e+00 0.000000e+00 0.0
0.000000e+00 0.000000e+00 0.0
0.000000e+00 -7.656891e-02 0.0
1.603067e-02 7.640326e-02 0.0
8.261996e-02 5.869556e-02 0.0
1.678974e-01 3.178543e-02 0.0
2.616446e-01 2.990480e-03 0.0
3.635592e-01 -3.232857e-02 0.0
4.704360e-01 -7.808307e-02 0.0
5.752727e-01 -1.377606e-01 0.0
6.714780e-01 -2.087221e-01 0.0
7.525620e-01 -2.827725e-01 0.0
8.140958e-01 -3.484448e-01 0.0
8.544966e-01 -3.950176e-01 0.0
8.748549e-01 -4.156502e-01 0.0
8.777565e-01 -4.077193e-01 0.0
8.695829e-01 -3.770478e-01 0.0