# vtk DataFile Version 3.0
Vector Field
ASCII
DATASET RECTILINEAR_GRID
DIMENSIONS 102 22 1
X_COORDINATES 102 double
0.000000 0.100000 0.200000 0.300000 0.400000 0.500000 0.600000 0.700000 0.800000 0.900000 1.000000 1.100000 1.200000 1.300000 1.400000 1.500000 1.600000 1.700000 1.800000 1.900000 2.000000 2.100000 2.200000 2.300000 2.400000 2.500000 2.600000 2.700000 2.800000 2.900000 3.000000 3.100000 3.200000 3.300000 3.400000 3.500000 3.600000 3.700000 3.800000 3.900000 4.000000 4.100000 4.200000 4.300000 4.400000 4.500000 4.600000 4.700000 4.800000 4.900000 5.000000 5.100000 5.200000 5.300000 5.400000 5.500000 5.600000 5.700000 5.800000 5.900000 6.000000 6.100000 6.200000 6.300000 6.400000 6.500000 6.600000 6.700000 6.800000 6.900000 7.000000 7.100000 7.200000 7.300000 7.400000 7.500000 7.600000 7.700000 7.800000 7.900000 8.000000 8.100000 8.200000 8.300000 8.400000 8.500000 8.600000 8.700000 8.800000 8.900000 9.000000 9.100000 9.200000 9.300000 9.400000 9.500000 9.600000 9.700000 9.800000 9.900000 10.000000 10.100000 
Y_COORDINATES 22 double
0.000000 0.100000 0.200000 0.300000 0.400000 0.500000 0.600000 0.700000 0.800000 0.900000 1.000000 1.100000 1.200000 1.300000 1.400000 1.500000 1.600000 1.700000 1.800000 1.900000 2.000000 2.100000 
Z_COORDINATES 1 double
0.0
POINT_DATA 2244
VECTORS Velocity double
0.000000e+00 0.000000e+00 0.0
-0.000000e+00 0.000000e+00 0.0
-0.000000e+00 0.000000e+00 0.0
-0.000000e+00 0.000000e+00 0.0
-0.000000e+00 0.000000e+00 0.0
-0.000000e+00 0.000000e+00 0.0
-0.000000e+00 0.000000e+00 0.0
-0.000000e+00 0.000000e+00 0.0
-0.000000e+00 0.000000e+00 0.0
-0.000000e+00 0.000000e+00 0.0
-0.000000e+00 0.000000e+00 0.0
5.169778e-04 0.000000e+00 0.0
4.897902e-03 0.000000e+00 0.0
1.167501e-02 0.000000e+00 0.0
1.965557e-02 0.000000e+00 0.0
2.845051e-02 0.000000e+00 0.0
3.815369e-02 0.000000e+00 0.0
4.905708e-02 0.000000e+00 0.0
6.151519e-02 0.000000e+00 0.0
7.587539e-02 0.000000e+00 0.0
9.240358e-02 0.000000e+00 0.0
1.111775e-01 0.000000e+00 0.0
1.319196e-01 0.000000e+00 0.0
1.538129e-01 0.000000e+00 0.0
1.752605e-01 0.000000e+00 0.0
1.935503e-01 0.000000e+00 0.0
2.051707e-01 0.000000e+00 0.0
2.061536e-01 0.000000e+00 0.0
1.933964e-01 0.000000e+00 0.0
1.659712e-01 0.000000e+00 0.0
1.255758e-01 0.000000e+00 0.0
7.627342e-02 0.000000e+00 0.0
2.079330e-02 0.000000e+00 0.0
-3.396132e-02 0.000000e+00 0.0
-8.080467e-02 0.000000e+00 0.0
-1.178036e-01 0.000000e+00 0.0
-1.451962e-01 0.000000e+00 0.0
-1.641119e-01 0.000000e+00 0.0
-1.759956e-01 0.000000e+00 0.0
-1.823407e-01 0.000000e+00 0.0
-1.845697e-01 0.000000e+00 0.0
-1.839675e-01 0.000000e+00 0.0
-1.812819e-01 0.000000e+00 0.0
-1.770595e-01 0.000000e+00 0.0
-1.718554e-01 0.000000e+00 0.0
-1.661346e-01 0.000000e+00 0.0
-1.602527e-01 0.000000e+00 0.0
-1.544465e-01 0.000000e+00 0.0
-1.488507e-01 0.000000e+00 0.0
-1.435479e-01 0.000000e+00 0.0
-1.385794e-01 0.000000e+00 0.0
-1.339632e-01 0.000000e+00 0.0
-1.296997e-01 0.000000e+00 0.0
-1.257774e-01 0.000000e+00 0.0
-1.221781e-01 0.000000e+00 0.0
-1.188813e-01 0.000000e+00 0.0
-1.158664e-01 0.000000e+00 0.0
-1.131128e-01 0.000000e+00 0.0
-1.106001e-01 0.000000e+00 0.0
-1.083089e-01 0.000000e+00 0.0
-1.062206e-01 0.000000e+00 0.0
-1.043181e-01 0.000000e+00 0.0
-1.025857e-01 0.000000e+00 0.0
-1.010081e-01 0.000000e+00 0.0
-9.957120e-02 0.000000e+00 0.0
-9.826183e-02 0.000000e+00 0.0
-9.706812e-02 0.000000e+00 0.0
-9.597936e-02 0.000000e+00 0.0
-9.498566e-02 0.000000e+00 0.0
-9.407779e-02 0.000000e+00 0.0
-9.324731e-02 0.000000e+00 0.0
-9.248663e-02 0.000000e+00 0.0
-9.178903e-02 0.000000e+00 0.0
-9.114854e-02 0.000000e+00 0.0
-9.055978e-02 0.000000e+00 0.0
-9.001796e-02 0.000000e+00 0.0
-8.951883e-02 0.000000e+00 0.0
-8.905869e-02 0.000000e+00 0.0
-8.863438e-02 0.000000e+00 0.0
-8.824321e-02 0.000000e+00 0.0
-8.788296e-02 0.000000e+00 0.0
-8.755183e-02 0.000000e+00 0.0
-8.724845e-02 0.000000e+00 0.0
-8.697187e-02 0.000000e+00 0.0
-8.672155e-02 0.000000e+00 0.0
-8.649737e-02 0.000000e+00 0.0
-8.629964e-02 0.000000e+00 0.0
-8.612909e-02 0.000000e+00 0.0
-8.598691e-02 0.000000e+00 0.0
-8.587478e-02 0.000000e+00 0.0
-8.579490e-02 0.000000e+00 0.0
-8.575020e-02 0.000000e+00 0.0
-8.574440e-02 0.000000e+00 0.0
-8.578007e-02 0.000000e+00 0.0
-8.585523e-02 0.000000e+00 0.0
-8.596340e-02 0.000000e+00 0.0
-8.609874e-02 0.000000e+00 0.0
-8.624994e-02 0.000000e+00 0.0
-8.639558e-02 0.000000e+00 0.0
-8.649218e-02 0.000000e+00 0.0
-8.649218e-02 0.000000e+00 0.0
0.000000e+00 0.000000e+00 0.0
0.000000e+00 0.000000e+00 0.0
0.000000e+00 0.000000e+00 0.0
0.000000e+00 0.000000e+00 0.0
0.000000e+00 0.000000e+00 0.0
0.000000e+00 0.000000e+00 0.0
0.000000e+00 0.000000e+00 0.0
0.000000e+00 0.000000e+00 0.0
0.000000e+00 0.000000e+00 0.0
0.000000e+00 0.000000e+00 0.0
0.000000e+00 0.000000e+00 0.0
0.000000e+00 -5.211035e-04 0.0
-5.235239e-04 5.168956e-04 0.0
-4.897522e-03 4.378334e-03 0.0
-1.166543e-02 6.777272e-03 0.0
-1.964257e-02 7.984910e-03 0.0
-2.844422e-02 8.801758e-03 0.0
-3.816026e-02 9.708277e-03 0.0
-4.907315e-02 1.090295e-02 0.0
-6.152994e-02 1.245210e-02 0.0
-7.587890e-02 1.435307e-02 0.0
-9.239415e-02 1.652551e-02 0.0
-1.111625e-01 1.877849e-02 0.0
-1.319102e-01 2.075130e-02 0.0
-1.538162e-01 2.190137e-02 0.0
-1.752759e-01 2.144909e-02 0.0
-1.935700e-01 1.828383e-02 0.0
-2.051839e-01 1.161092e-02 0.0
-2.061522e-01 9.754042e-04 0.0
-1.933797e-01 -1.275817e-02 0.0
-1.659491e-01 -2.741968e-02 0.0
-1.255635e-01 -4.038741e-02 0.0
-7.627990e-02 -4.929836e-02 0.0
-2.081101e-02 -5.548406e-02 0.0
3.395143e-02 -5.476340e-02 0.0
8.081662e-02 -4.685063e-02 0.0
1.178299e-01 -3.699814e-02 0.0
1.452140e-01 -2.738357e-02 0.0
1.641070e-01 -1.890602e-02 0.0
1.759784e-01 -1.188166e-02 0.0
1.823329e-01 -6.350952e-03 0.0
1.845795e-01 -2.235017e-03 0.0
1.839822e-01 6.035345e-04 0.0
1.812857e-01 2.692626e-03 0.0
1.770515e-01 4.227521e-03 0.0
1.718471e-01 5.203076e-03 0.0
1.661347e-01 5.716682e-03 0.0
1.602585e-01 5.880404e-03 0.0
1.544504e-01 5.808686e-03 0.0
1.488497e-01 5.599211e-03 0.0
1.435448e-01 5.304036e-03 0.0
1.385779e-01 4.967657e-03 0.0
1.339638e-01 4.615396e-03 0.0
1.297007e-01 4.263809e-03 0.0
1.257777e-01 3.923365e-03 0.0
1.221779e-01 3.600218e-03 0.0
1.188813e-01 3.297267e-03 0.0
1.158666e-01 3.015292e-03 0.0
1.131128e-01 2.754068e-03 0.0
1.105998e-01 2.513066e-03 0.0
1.083086e-01 2.291589e-03 0.0
1.062208e-01 2.088640e-03 0.0
1.043188e-01 1.902925e-03 0.0
1.025862e-01 1.733136e-03 0.0
1.010081e-01 1.578226e-03 0.0
9.957085e-02 1.437357e-03 0.0
9.826161e-02 1.309630e-03 0.0
9.706835e-02 1.193951e-03 0.0
9.597989e-02 1.089175e-03 0.0
9.498614e-02 9.943017e-04 0.0
9.407804e-02 9.085055e-04 0.0
9.324738e-02 8.310259e-04 0.0
9.248669e-02 7.610981e-04 0.0
9.178919e-02 6.979623e-04 0.0
9.114880e-02 6.408938e-04 0.0
9.056009e-02 5.892177e-04 0.0
9.001826e-02 5.423142e-04 0.0
8.951911e-02 4.996195e-04 0.0
8.905897e-02 4.606096e-04 0.0
8.863467e-02 4.247804e-04 0.0
8.824352e-02 3.916426e-04 0.0
8.788327e-02 3.607304e-04 0.0
8.755214e-02 3.316061e-04 0.0
8.724876e-02 3.038515e-04 0.0
8.697219e-02 2.770528e-04 0.0
8.672188e-02 2.507935e-04 0.0
8.649772e-02 2.246536e-04 0.0
8.629999e-02 1.982091e-04 0.0
8.612945e-02 1.710266e-04 0.0
8.598728e-02 1.426552e-04 0.0
8.587515e-02 1.126131e-04 0.0
8.579528e-02 8.035336e-05 0.0
8.575059e-02 4.518227e-05 0.0
8.574480e-02 6.268514e-06 0.0
8.578048e-02 -3.519525e-05 0.0
8.585564e-02 -7.467839e-05 0.0
8.596382e-02 -1.076957e-04 0.0
8.609916e-02 -1.348591e-04 0.0
8.625036e-02 -1.507132e-04 0.0
8.639600e-02 -1.451574e-04 0.0
8.649260e-02 -9.612736e-05 0.0
8.649218e-02 9.023338e-07 0.0
0.000000e+00 9.081145e-07 0.0
0.000000e+00 0.000000e+00 0.0
0.000000e+00 0.000000e+00 0.0
0.000000e+00 0.000000e+00 0.0
0.000000e+00 0.000000e+00 0.0
0.000000e+00 0.000000e+00 0.0
0.000000e+00 0.000000e+00 0.0
0.000000e+00 0.000000e+00 0.0
0.000000e+00 0.000000e+00 0.0
0.000000e+00 0.000000e+00 0.0
0.000000e+00 0.000000e+00 0.0
0.000000e+00 -6.336572e-03 0.0
-5.817046e-03 6.334146e-03 0.0
-1.943447e-02 1.800151e-02 0.0
-3.732843e-02 2.467404e-02 0.0
-5.736035e-02 2.801355e-02 0.0
-7.871392e-02 3.014768e-02 0.0
-1.012954e-01 3.228279e-02 0.0
-1.252333e-01 3.483958e-02 0.0
-1.506028e-01 3.782682e-02 0.0
-1.772530e-01 4.101115e-02 0.0
-2.046534e-01 4.393122e-02 0.0
-2.317767e-01 4.590121e-02 0.0
-2.569260e-01 4.589446e-02 0.0
-2.776437e-01 4.261052e-02 0.0
-2.907878e-01 3.458811e-02 0.0
-2.925382e-01 2.003575e-02 0.0
-2.781930e-01 -2.726222e-03 0.0
-2.450421e-01 -3.216492e-02 0.0
-1.942947e-01 -6.350049e-02 0.0
-1.288491e-01 -9.287119e-02 0.0
-5.133526e-02 -1.179153e-01 0.0
3.313794e-02 -1.337818e-01 0.0
1.136176e-01 -1.359595e-01 0.0
1.850083e-01 -1.261384e-01 0.0
2.472923e-01 -1.091229e-01 0.0
2.996822e-01 -8.939276e-02 0.0
3.421033e-01 -6.981979e-02 0.0
3.751162e-01 -5.192725e-02 0.0
3.996379e-01 -3.639642e-02 0.0
4.167394e-01 -2.343981e-02 0.0
4.275247e-01 -1.301669e-02 0.0
4.330550e-01 -4.933990e-03 0.0
4.346317e-01 1.108156e-03 0.0
4.331052e-01 5.754329e-03 0.0
4.291533e-01 9.160616e-03 0.0
4.233590e-01 1.151475e-02 0.0
4.162051e-01 1.303312e-02 0.0
4.081086e-01 1.390237e-02 0.0
3.994451e-01 1.426168e-02 0.0
3.905185e-01 1.423175e-02 0.0
3.815423e-01 1.394511e-02 0.0
3.726783e-01 1.347967e-02 0.0
3.640428e-01 1.289900e-02 0.0
3.557167e-01 1.224938e-02 0.0
3.477530e-01 1.156419e-02 0.0
3.401837e-01 1.086687e-02 0.0
3.330253e-01 1.017361e-02 0.0
3.262835e-01 9.495720e-03 0.0
3.199555e-01 8.841126e-03 0.0
3.140325e-01 8.215115e-03 0.0
3.085007e-01 7.620866e-03 0.0
3.033437e-01 7.060058e-03 0.0
2.985430e-01 6.533515e-03 0.0
2.940795e-01 6.041537e-03 0.0
2.899332e-01 5.583850e-03 0.0
2.860837e-01 5.159527e-03 0.0
2.825109e-01 4.767148e-03 0.0
2.791950e-01 4.405111e-03 0.0
2.761175e-01 4.071787e-03 0.0
2.732605e-01 3.765499e-03 0.0
2.706072e-01 3.484472e-03 0.0
2.681416e-01 3.226865e-03 0.0
2.658489e-01 2.990829e-03 0.0
2.637154e-01 2.774547e-03 0.0
2.617285e-01 2.576255e-03 0.0
2.598766e-01 2.394266e-03 0.0
2.581494e-01 2.226962e-03 0.0
2.565374e-01 2.072777e-03 0.0
2.550321e-01 1.930187e-03 0.0
2.536262e-01 1.797719e-03 0.0
2.523130e-01 1.673960e-03 0.0
2.510872e-01 1.557545e-03 0.0
2.499441e-01 1.447135e-03 0.0
2.488798e-01 1.341404e-03 0.0
2.478917e-01 1.239029e-03 0.0
2.469778e-01 1.138678e-03 0.0
2.461372e-01 1.039004e-03 0.0
2.453697e-01 9.386248e-04 0.0
2.446764e-01 8.361140e-04 0.0
2.440591e-01 7.300035e-04 0.0
2.435208e-01 6.187907e-04 0.0
2.430651e-01 5.009850e-04 0.0
2.426961e-01 3.753813e-04 0.0
2.424188e-01 2.423121e-04 0.0
2.422398e-01 1.044365e-04 0.0
2.421663e-01 -3.406030e-05 0.0
2.421887e-01 -1.571633e-04 0.0
2.422806e-01 -2.425379e-04 0.0
2.424026e-01 -2.670183e-04 0.0
2.424994e-01 -1.927330e-04 0.0
2.424981e-01 2.239654e-06 0.0
0.000000e+00 2.258165e-06 0.0
0.000000e+00 0.000000e+00 0.0
0.000000e+00 0.000000e+00 0.0
0.000000e+00 0.000000e+00 0.0
0.000000e+00 0.000000e+00 0.0
0.000000e+00 0.000000e+00 0.0
0.000000e+00 0.000000e+00 0.0
0.000000e+00 0.000000e+00 0.0
0.000000e+00 0.000000e+00 0.0
0.000000e+00 0.000000e+00 0.0
0.000000e+00 0.000000e+00 0.0
0.000000e+00 -1.695540e-02 0.0
-1.061735e-02 1.695395e-02 0.0
-3.135358e-02 3.874236e-02 0.0
-5.606120e-02 4.938171e-02 0.0
-8.180010e-02 5.374706e-02 0.0
-1.074633e-01 5.580372e-02 0.0
-1.326799e-01 5.749576e-02 0.0
-1.572103e-01 5.937263e-02 0.0
-1.806998e-01 6.132342e-02 0.0
-2.025452e-01 6.286360e-02 0.0
-2.217534e-01 6.314184e-02 0.0
-2.369786e-01 6.112236e-02 0.0
-2.463967e-01 5.530488e-02 0.0
-2.475157e-01 4.372287e-02 0.0
-2.365185e-01 2.358946e-02 0.0
-2.069254e-01 -9.551721e-03 0.0
-1.586287e-01 -5.101310e-02 0.0
-9.294550e-02 -9.784032e-02 0.0
-1.315453e-02 -1.432930e-01 0.0
7.377670e-02 -1.798138e-01 0.0
1.584798e-01 -2.026312e-01 0.0
2.362385e-01 -2.115420e-01 0.0
3.048706e-01 -2.045787e-01 0.0
3.648697e-01 -1.861223e-01 0.0
4.171370e-01 -1.613888e-01 0.0
4.620890e-01 -1.343585e-01 0.0
4.999732e-01 -1.077169e-01 0.0
5.311027e-01 -8.305472e-02 0.0
5.559035e-01 -6.118390e-02 0.0
5.748922e-01 -4.242027e-02 0.0
5.886491e-01 -2.677831e-02 0.0
5.977950e-01 -1.408957e-02 0.0
6.029805e-01 -4.080309e-03 0.0
6.051311e-01 3.608970e-03 0.0
6.047477e-01 9.549613e-03 0.0
6.022775e-01 1.398522e-02 0.0
5.981182e-01 1.718919e-02 0.0
5.926128e-01 1.940567e-02 0.0
5.860354e-01 2.083981e-02 0.0
5.786007e-01 2.166807e-02 0.0
5.705532e-01 2.199331e-02 0.0
5.621113e-01 2.192120e-02 0.0
5.534485e-01 2.156148e-02 0.0
5.447051e-01 2.099306e-02 0.0
5.359923e-01 2.027740e-02 0.0
5.273978e-01 1.946143e-02 0.0
5.189901e-01 1.858106e-02 0.0
5.108217e-01 1.766402e-02 0.0
5.029314e-01 1.673180e-02 0.0
4.953463e-01 1.580083e-02 0.0
4.880839e-01 1.488355e-02 0.0
4.811543e-01 1.398940e-02 0.0
4.745618e-01 1.312567e-02 0.0
4.683057e-01 1.229776e-02 0.0
4.623807e-01 1.150925e-02 0.0
4.567785e-01 1.076219e-02 0.0
4.514883e-01 1.005748e-02 0.0
4.464980e-01 9.395323e-03 0.0
4.417945e-01 8.775270e-03 0.0
4.373638e-01 8.196322e-03 0.0
4.331914e-01 7.657004e-03 0.0
4.292630e-01 7.155493e-03 0.0
4.255642e-01 6.689736e-03 0.0
4.220814e-01 6.257526e-03 0.0
4.188012e-01 5.856574e-03 0.0
4.157110e-01 5.484555e-03 0.0
4.127990e-01 5.139108e-03 0.0
4.100540e-01 4.817851e-03 0.0
4.074659e-01 4.518400e-03 0.0
4.050254e-01 4.238402e-03 0.0
4.027239e-01 3.975537e-03 0.0
4.005541e-01 3.727506e-03 0.0
3.985093e-01 3.492009e-03 0.0
3.965841e-01 3.266737e-03 0.0
3.947739e-01 3.049364e-03 0.0
3.930752e-01 2.837533e-03 0.0
3.914855e-01 2.628830e-03 0.0
3.900035e-01 2.420756e-03 0.0
3.886290e-01 2.210721e-03 0.0
3.873631e-01 1.996051e-03 0.0
3.862080e-01 1.774024e-03 0.0
3.851671e-01 1.541996e-03 0.0
3.842449e-01 1.297735e-03 0.0
3.834470e-01 1.040296e-03 0.0
3.827805e-01 7.710434e-04 0.0
3.822515e-01 4.950867e-04 0.0
3.818671e-01 2.274368e-04 0.0
3.816301e-01 -5.459806e-06 0.0
3.815186e-01 -1.553710e-04 0.0
3.814935e-01 -1.675124e-04 0.0
3.814917e-01 4.113157e-06 0.0
0.000000e+00 4.150182e-06 0.0
0.000000e+00 0.000000e+00 0.0
0.000000e+00 0.000000e+00 0.0
0.000000e+00 0.000000e+00 0.0
0.000000e+00 0.000000e+00 0.0
0.000000e+00 0.000000e+00 0.0
0.000000e+00 0.000000e+00 0.0
0.000000e+00 0.000000e+00 0.0
0.000000e+00 0.000000e+00 0.0
0.000000e+00 0.000000e+00 0.0
0.000000e+00 0.000000e+00 0.0
0.000000e+00 -3.009150e-02 0.0
-1.313256e-02 3.009109e-02 0.0
-3.665969e-02 6.227254e-02 0.0
-6.234737e-02 7.506732e-02 0.0
-8.683317e-02 7.822691e-02 0.0
-1.090236e-01 7.798854e-02 0.0
-1.284908e-01 7.696183e-02 0.0
-1.448868e-01 7.577336e-02 0.0
-1.577768e-01 7.422083e-02 0.0
-1.666025e-01 7.169445e-02 0.0
-1.704003e-01 6.693891e-02 0.0
-1.677680e-01 5.848399e-02 0.0
-1.562624e-01 4.379165e-02 0.0
-1.323269e-01 1.978315e-02 0.0
-8.797040e-02 -2.076460e-02 0.0
-2.446875e-02 -7.304512e-02 0.0
5.449170e-02 -1.299640e-01 0.0
1.395986e-01 -1.829442e-01 0.0
2.239508e-01 -2.276527e-01 0.0
3.031339e-01 -2.590105e-01 0.0
3.746551e-01 -2.741597e-01 0.0
4.358947e-01 -2.727743e-01 0.0
4.876092e-01 -2.562768e-01 0.0
5.318951e-01 -2.303996e-01 0.0
5.701526e-01 -1.996551e-01 0.0
6.031967e-01 -1.674187e-01 0.0
6.314926e-01 -1.360179e-01 0.0
6.553445e-01 -1.068958e-01 0.0
6.750076e-01 -8.083413e-02 0.0
6.907491e-01 -5.816119e-02 0.0
7.028734e-01 -3.891259e-02 0.0
7.117198e-01 -2.294313e-02 0.0
7.176520e-01 -1.000977e-02 0.0
7.210880e-01 1.800218e-04 0.0
7.224927e-01 8.147752e-03 0.0
7.221904e-01 1.428483e-02 0.0
7.204457e-01 1.893069e-02 0.0
7.174820e-01 2.236896e-02 0.0
7.134904e-01 2.483322e-02 0.0
7.086445e-01 2.651526e-02 0.0
7.030746e-01 2.756312e-02 0.0
6.968932e-01 2.810204e-02 0.0
6.902427e-01 2.821203e-02 0.0
6.832492e-01 2.798705e-02 0.0
6.760201e-01 2.750669e-02 0.0
6.686478e-01 2.683359e-02 0.0
6.612112e-01 2.601736e-02 0.0
6.537776e-01 2.509784e-02 0.0
6.464029e-01 2.410716e-02 0.0
6.391329e-01 2.307131e-02 0.0
6.320049e-01 2.201140e-02 0.0
6.250491e-01 2.094477e-02 0.0
6.182891e-01 1.988556e-02 0.0
6.117423e-01 1.884498e-02 0.0
6.054205e-01 1.783156e-02 0.0
5.993313e-01 1.685163e-02 0.0
5.934789e-01 1.590984e-02 0.0
5.878647e-01 1.500949e-02 0.0
5.824874e-01 1.415265e-02 0.0
5.773435e-01 1.334030e-02 0.0
5.724282e-01 1.257251e-02 0.0
5.677352e-01 1.184869e-02 0.0
5.632574e-01 1.116767e-02 0.0
5.589872e-01 1.052785e-02 0.0
5.549165e-01 9.927352e-03 0.0
5.510372e-01 9.364013e-03 0.0
5.473410e-01 8.835455e-03 0.0
5.438198e-01 8.339129e-03 0.0
5.404660e-01 7.872381e-03 0.0
5.372720e-01 7.432487e-03 0.0
5.342310e-01 7.016662e-03 0.0
5.313366e-01 6.622046e-03 0.0
5.285830e-01 6.245707e-03 0.0
5.259652e-01 5.884642e-03 0.0
5.234789e-01 5.535776e-03 0.0
5.211207e-01 5.195934e-03 0.0
5.188878e-01 4.861812e-03 0.0
5.167788e-01 4.529936e-03 0.0
5.147930e-01 4.196653e-03 0.0
5.129310e-01 3.858133e-03 0.0
5.111948e-01 3.510401e-03 0.0
5.095874e-01 3.149461e-03 0.0
5.081137e-01 2.771583e-03 0.0
5.067802e-01 2.373951e-03 0.0
5.055957e-01 1.955646e-03 0.0
5.045715e-01 1.519417e-03 0.0
5.037232e-01 1.075826e-03 0.0
5.030701e-01 6.478505e-04 0.0
5.026339e-01 2.809060e-04 0.0
5.024199e-01 4.660777e-05 0.0
5.024180e-01 6.169120e-06 0.0
0.000000e+00 6.226824e-06 0.0
0.000000e+00 0.000000e+00 0.0
0.000000e+00 0.000000e+00 0.0
0.000000e+00 0.000000e+00 0.0
0.000000e+00 0.000000e+00 0.0
0.000000e+00 0.000000e+00 0.0
0.000000e+00 0.000000e+00 0.0
0.000000e+00 0.000000e+00 0.0
0.000000e+00 0.000000e+00 0.0
0.000000e+00 0.000000e+00 0.0
0.000000e+00 0.000000e+00 0.0
0.000000e+00 -4.359195e-02 0.0
-1.349583e-02 4.359310e-02 0.0
-3.552582e-02 8.430404e-02 0.0
-5.693805e-02 9.647609e-02 0.0
-7.478550e-02 9.606850e-02 0.0
-8.838637e-02 9.158563e-02 0.0
-9.749204e-02 8.606904e-02 0.0
-1.018376e-01 8.012537e-02 0.0
-1.009329e-01 7.332340e-02 0.0
-9.428980e-02 6.505445e-02 0.0
-8.020952e-02 5.285534e-02 0.0
-5.646213e-02 3.472906e-02 0.0
-1.595141e-02 3.274061e-03 0.0
4.586425e-02 -4.203367e-02 0.0
1.216156e-01 -9.651025e-02 0.0
2.048610e-01 -1.562808e-01 0.0
2.894958e-01 -2.145919e-01 0.0
3.709648e-01 -2.644156e-01 0.0
4.447792e-01 -3.014785e-01 0.0
5.085992e-01 -3.228422e-01 0.0
5.617088e-01 -3.272694e-01 0.0
6.039114e-01 -3.149633e-01 0.0
6.385017e-01 -2.908529e-01 0.0
6.676100e-01 -2.595085e-01 0.0
6.925870e-01 -2.246470e-01 0.0
7.142371e-01 -1.890810e-01 0.0
7.330088e-01 -1.547856e-01 0.0
7.491358e-01 -1.230085e-01 0.0
7.627519e-01 -9.444279e-02 0.0
7.739722e-01 -6.938780e-02 0.0
7.829326e-01 -4.788337e-02 0.0
7.897903e-01 -2.980289e-02 0.0
7.947087e-01 -1.492173e-02 0.0
7.978653e-01 -2.970827e-03 0.0
7.995670e-01 6.445528e-03 0.0
8.000294e-01 1.381859e-02 0.0
7.994220e-01 1.953610e-02 0.0
7.978853e-01 2.390690e-02 0.0
7.955408e-01 2.717952e-02 0.0
7.925007e-01 2.955590e-02 0.0
7.888633e-01 3.120004e-02 0.0
7.847165e-01 3.224851e-02 0.0
7.801176e-01 3.281126e-02 0.0
7.751374e-01 3.296763e-02 0.0
7.698510e-01 3.279306e-02 0.0
7.643261e-01 3.235823e-02 0.0
7.586239e-01 3.171953e-02 0.0
7.527992e-01 3.092303e-02 0.0
7.469002e-01 3.000681e-02 0.0
7.409690e-01 2.900268e-02 0.0
7.350424e-01 2.793760e-02 0.0
7.291526e-01 2.683429e-02 0.0
7.233266e-01 2.571173e-02 0.0
7.175868e-01 2.458536e-02 0.0
7.119512e-01 2.346755e-02 0.0
7.064346e-01 2.236823e-02 0.0
7.010491e-01 2.129526e-02 0.0
6.958038e-01 2.025475e-02 0.0
6.907055e-01 1.925113e-02 0.0
6.857585e-01 1.828744e-02 0.0
6.809657e-01 1.736553e-02 0.0
6.763283e-01 1.648629e-02 0.0
6.718462e-01 1.564983e-02 0.0
6.675185e-01 1.485560e-02 0.0
6.633435e-01 1.410254e-02 0.0
6.593185e-01 1.338912e-02 0.0
6.554407e-01 1.271341e-02 0.0
6.517068e-01 1.207318e-02 0.0
6.481133e-01 1.146598e-02 0.0
6.446567e-01 1.088917e-02 0.0
6.413336e-01 1.033991e-02 0.0
6.381406e-01 9.815193e-03 0.0
6.350746e-01 9.311850e-03 0.0
6.321328e-01 8.826555e-03 0.0
6.293129e-01 8.355828e-03 0.0
6.266129e-01 7.896012e-03 0.0
6.240316e-01 7.443223e-03 0.0
6.215684e-01 6.993295e-03 0.0
6.192234e-01 6.541767e-03 0.0
6.169978e-01 6.083866e-03 0.0
6.148938e-01 5.614512e-03 0.0
6.129150e-01 5.128380e-03 0.0
6.110667e-01 4.620074e-03 0.0
6.093562e-01 4.084513e-03 0.0
6.077944e-01 3.517597e-03 0.0
6.063965e-01 2.917463e-03 0.0
6.051854e-01 2.287013e-03 0.0
6.041957e-01 1.637677e-03 0.0
6.034799e-01 9.968374e-04 0.0
6.031078e-01 4.188990e-04 0.0
6.031060e-01 8.094656e-06 0.0
0.000000e+00 8.172069e-06 0.0
0.000000e+00 0.000000e+00 0.0
0.000000e+00 0.000000e+00 0.0
0.000000e+00 0.000000e+00 0.0
0.000000e+00 0.000000e+00 0.0
0.000000e+00 0.000000e+00 0.0
0.000000e+00 0.000000e+00 0.0
0.000000e+00 0.000000e+00 0.0
0.000000e+00 0.000000e+00 0.0
0.000000e+00 0.000000e+00 0.0
0.000000e+00 0.000000e+00 0.0
0.000000e+00 -5.673431e-02 0.0
-1.313711e-02 5.673731e-02 0.0
-3.053290e-02 1.016998e-01 0.0
-4.349378e-02 1.094326e-01 0.0
-5.069885e-02 1.032679e-01 0.0
-5.213852e-02 9.302257e-02 0.0
-4.787183e-02 8.180518e-02 0.0
-3.767102e-02 6.993151e-02 0.0
-2.013848e-02 5.579722e-02 0.0
6.198756e-03 3.871823e-02 0.0
4.587998e-02 1.316867e-02 0.0
1.041851e-01 -2.358432e-02 0.0
1.774744e-01 -7.002022e-02 0.0
2.602116e-01 -1.247688e-01 0.0
3.471406e-01 -1.834310e-01 0.0
4.320718e-01 -2.412030e-01 0.0
5.100015e-01 -2.925190e-01 0.0
5.779211e-01 -3.323421e-01 0.0
6.340551e-01 -3.576249e-01 0.0
6.781125e-01 -3.669064e-01 0.0
7.105971e-01 -3.597470e-01 0.0
7.348294e-01 -3.391805e-01 0.0
7.535842e-01 -3.095998e-01 0.0
7.688001e-01 -2.747327e-01 0.0
7.817109e-01 -2.375730e-01 0.0
7.930318e-01 -2.004068e-01 0.0
8.031287e-01 -1.648721e-01 0.0
8.121292e-01 -1.319965e-01 0.0
8.200419e-01 -1.023549e-01 0.0
8.268411e-01 -7.619668e-02 0.0
8.325146e-01 -5.356408e-02 0.0
8.370676e-01 -3.435333e-02 0.0
8.405071e-01 -1.835412e-02 0.0
8.428596e-01 -5.320276e-03 0.0
8.442571e-01 5.045355e-03 0.0
8.448137e-01 1.325842e-02 0.0
8.446238e-01 1.972572e-02 0.0
8.437685e-01 2.476407e-02 0.0
8.423228e-01 2.862652e-02 0.0
8.403592e-01 3.151938e-02 0.0
8.379457e-01 3.361306e-02 0.0
8.351444e-01 3.504977e-02 0.0
8.320087e-01 3.594746e-02 0.0
8.285745e-01 3.640205e-02 0.0
8.248789e-01 3.648836e-02 0.0
8.209637e-01 3.627323e-02 0.0
8.168686e-01 3.581492e-02 0.0
8.126305e-01 3.516184e-02 0.0
8.082828e-01 3.435492e-02 0.0
8.038559e-01 3.342933e-02 0.0
7.993773e-01 3.241570e-02 0.0
7.948717e-01 3.133994e-02 0.0
7.903600e-01 3.022382e-02 0.0
7.858605e-01 2.908536e-02 0.0
7.813889e-01 2.793940e-02 0.0
7.769588e-01 2.679822e-02 0.0
7.725823e-01 2.567177e-02 0.0
7.682691e-01 2.456795e-02 0.0
7.640276e-01 2.349283e-02 0.0
7.598643e-01 2.245089e-02 0.0
7.557848e-01 2.144527e-02 0.0
7.517932e-01 2.047800e-02 0.0
7.478929e-01 1.955020e-02 0.0
7.440864e-01 1.866221e-02 0.0
7.403754e-01 1.781369e-02 0.0
7.367609e-01 1.700371e-02 0.0
7.332437e-01 1.623083e-02 0.0
7.298237e-01 1.549324e-02 0.0
7.265010e-01 1.478882e-02 0.0
7.232751e-01 1.411514e-02 0.0
7.201457e-01 1.346951e-02 0.0
7.171120e-01 1.284895e-02 0.0
7.141737e-01 1.225028e-02 0.0
7.113303e-01 1.167008e-02 0.0
7.085816e-01 1.110467e-02 0.0
7.059276e-01 1.055019e-02 0.0
7.033685e-01 1.000241e-02 0.0
7.009052e-01 9.456732e-03 0.0
6.985390e-01 8.908112e-03 0.0
6.962719e-01 8.351065e-03 0.0
6.941069e-01 7.779607e-03 0.0
6.920482e-01 7.187229e-03 0.0
6.901015e-01 6.566911e-03 0.0
6.882749e-01 5.911216e-03 0.0
6.865802e-01 5.212483e-03 0.0
6.850346e-01 4.463228e-03 0.0
6.836647e-01 3.656968e-03 0.0
6.825129e-01 2.789583e-03 0.0
6.816471e-01 1.862793e-03 0.0
6.811693e-01 8.968507e-04 0.0
6.811679e-01 9.631478e-06 0.0
0.000000e+00 9.725668e-06 0.0
0.000000e+00 0.000000e+00 0.0
0.000000e+00 0.000000e+00 0.0
0.000000e+00 0.000000e+00 0.0
0.000000e+00 0.000000e+00 0.0
0.000000e+00 0.000000e+00 0.0
0.000000e+00 0.000000e+00 0.0
0.000000e+00 0.000000e+00 0.0
0.000000e+00 0.000000e+00 0.0
0.000000e+00 0.000000e+00 0.0
0.000000e+00 0.000000e+00 0.0
0.000000e+00 -7.038184e-02 0.0
-1.364140e-02 7.038581e-02 0.0
-2.291827e-02 1.109755e-01 0.0
-2.232709e-02 1.088369e-01 0.0
-1.388094e-02 9.481694e-02 0.0
1.809742e-03 7.733065e-02 0.0
2.487246e-02 5.874672e-02 0.0
5.558867e-02 3.922275e-02 0.0
9.756027e-02 1.383099e-02 0.0
1.556345e-01 -1.935728e-02 0.0
2.279159e-01 -5.912012e-02 0.0
3.100648e-01 -1.057412e-01 0.0
3.977433e-01 -1.577010e-01 0.0
4.854710e-01 -2.124913e-01 0.0
5.682737e-01 -2.662244e-01 0.0
6.417593e-01 -3.146821e-01 0.0
7.029906e-01 -3.537518e-01 0.0
7.508304e-01 -3.801917e-01 0.0
7.854907e-01 -3.922957e-01 0.0
8.080820e-01 -3.894985e-01 0.0
8.214846e-01 -3.731386e-01 0.0
8.291303e-01 -3.468134e-01 0.0
8.335017e-01 -3.139704e-01 0.0
8.362767e-01 -2.775199e-01 0.0
8.384821e-01 -2.397897e-01 0.0
8.406739e-01 -2.025964e-01 0.0
8.431052e-01 -1.672911e-01 0.0
8.457839e-01 -1.346676e-01 0.0
8.485993e-01 -1.051748e-01 0.0
8.513985e-01 -7.900525e-02 0.0
8.540406e-01 -5.620911e-02 0.0
8.564049e-01 -3.671245e-02 0.0
8.583668e-01 -2.031031e-02 0.0
8.598358e-01 -6.788946e-03 0.0
8.607812e-01 4.096563e-03 0.0
8.612179e-01 1.281939e-02 0.0
8.611706e-01 1.977380e-02 0.0
8.606713e-01 2.526523e-02 0.0
8.597587e-01 2.953981e-02 0.0
8.584767e-01 3.280099e-02 0.0
8.568701e-01 3.521926e-02 0.0
8.549819e-01 3.693826e-02 0.0
8.528508e-01 3.807887e-02 0.0
8.505103e-01 3.874259e-02 0.0
8.479838e-01 3.901454e-02 0.0
8.452937e-01 3.896334e-02 0.0
8.424641e-01 3.864509e-02 0.0
8.395182e-01 3.810838e-02 0.0
8.364776e-01 3.739555e-02 0.0
8.333626e-01 3.654389e-02 0.0
8.301913e-01 3.558676e-02 0.0
8.269797e-01 3.455180e-02 0.0
8.237416e-01 3.346245e-02 0.0
8.204890e-01 3.233835e-02 0.0
8.172325e-01 3.119592e-02 0.0
8.139818e-01 3.004880e-02 0.0
8.107455e-01 2.890815e-02 0.0
8.075306e-01 2.778292e-02 0.0
8.043436e-01 2.668008e-02 0.0
8.011897e-01 2.560494e-02 0.0
7.980737e-01 2.456140e-02 0.0
7.949996e-01 2.355217e-02 0.0
7.919709e-01 2.257898e-02 0.0
7.889906e-01 2.164269e-02 0.0
7.860611e-01 2.074339e-02 0.0
7.831844e-01 1.988050e-02 0.0
7.803624e-01 1.905296e-02 0.0
7.775965e-01 1.825924e-02 0.0
7.748880e-01 1.749744e-02 0.0
7.722380e-01 1.676530e-02 0.0
7.696474e-01 1.606023e-02 0.0
7.671171e-01 1.537934e-02 0.0
7.646481e-01 1.471946e-02 0.0
7.622412e-01 1.407711e-02 0.0
7.598974e-01 1.344854e-02 0.0
7.576180e-01 1.282975e-02 0.0
7.554041e-01 1.221639e-02 0.0
7.532575e-01 1.160350e-02 0.0
7.511801e-01 1.098564e-02 0.0
7.491745e-01 1.035677e-02 0.0
7.472441e-01 9.710183e-03 0.0
7.453931e-01 9.038372e-03 0.0
7.436273e-01 8.332864e-03 0.0
7.419546e-01 7.584029e-03 0.0
7.403864e-01 6.780764e-03 0.0
7.389398e-01 5.909992e-03 0.0
7.376411e-01 4.955818e-03 0.0
7.365327e-01 3.898099e-03 0.0
7.356842e-01 2.711436e-03 0.0
7.352047e-01 1.376489e-03 0.0
7.352038e-01 1.061339e-05 0.0
0.000000e+00 1.071918e-05 0.0
0.000000e+00 0.000000e+00 0.0
0.000000e+00 0.000000e+00 0.0
0.000000e+00 0.000000e+00 0.0
0.000000e+00 0.000000e+00 0.0
0.000000e+00 0.000000e+00 0.0
0.000000e+00 0.000000e+00 0.0
0.000000e+00 0.000000e+00 0.0
0.000000e+00 0.000000e+00 0.0
0.000000e+00 0.000000e+00 0.0
0.000000e+00 0.000000e+00 0.0
0.000000e+00 -8.411169e-02 0.0
-1.372297e-02 8.411525e-02 0.0
-5.686940e-03 1.029371e-01 0.0
1.882283e-02 8.432182e-02 0.0
5.204629e-02 6.158853e-02 0.0
9.289317e-02 3.648311e-02 0.0
1.440659e-01 7.579237e-03 0.0
2.085792e-01 -2.528276e-02 0.0
2.839154e-01 -6.150117e-02 0.0
3.666253e-01 -1.020709e-01 0.0
4.539378e-01 -1.464414e-01 0.0
5.419134e-01 -1.937233e-01 0.0
6.263598e-01 -2.421465e-01 0.0
7.031019e-01 -2.892258e-01 0.0
7.687478e-01 -3.318618e-01 0.0
8.209913e-01 -3.669226e-01 0.0
8.589476e-01 -3.917132e-01 0.0
8.831667e-01 -4.044208e-01 0.0
8.952028e-01 -4.043381e-01 0.0
8.975426e-01 -3.918343e-01 0.0
8.939045e-01 -3.694887e-01 0.0
8.870882e-01 -3.399892e-01 0.0
8.791389e-01 -3.060259e-01 0.0
8.713899e-01 -2.697831e-01 0.0
8.646019e-01 -2.330076e-01 0.0
8.591354e-01 -1.971232e-01 0.0
8.551214e-01 -1.632664e-01 0.0
8.524428e-01 -1.319865e-01 0.0
8.508932e-01 -1.036321e-01 0.0
8.502427e-01 -7.836161e-02 0.0
8.502391e-01 -5.620491e-02 0.0
8.506252e-01 -3.709292e-02 0.0
8.511912e-01 -2.087272e-02 0.0
8.517634e-01 -7.362546e-03 0.0
8.522069e-01 3.649926e-03 0.0
8.524381e-01 1.258719e-02 0.0
8.524178e-01 1.979539e-02 0.0
8.521336e-01 2.555082e-02 0.0
8.515916e-01 3.008211e-02 0.0
8.508096e-01 3.358262e-02 0.0
8.498113e-01 3.621739e-02 0.0
8.486224e-01 3.812754e-02 0.0
8.472677e-01 3.943372e-02 0.0
8.457709e-01 4.023925e-02 0.0
8.441526e-01 4.063268e-02 0.0
8.424271e-01 4.068920e-02 0.0
8.406079e-01 4.046487e-02 0.0
8.387092e-01 4.000740e-02 0.0
8.367444e-01 3.936012e-02 0.0
8.347261e-01 3.856187e-02 0.0
8.326659e-01 3.764701e-02 0.0
8.305734e-01 3.664468e-02 0.0
8.284567e-01 3.557954e-02 0.0
8.263229e-01 3.447236e-02 0.0
8.241783e-01 3.334056e-02 0.0
8.220284e-01 3.219861e-02 0.0
8.198783e-01 3.105835e-02 0.0
8.177321e-01 2.992925e-02 0.0
8.155936e-01 2.881878e-02 0.0
8.134661e-01 2.773268e-02 0.0
8.113523e-01 2.667522e-02 0.0
8.092551e-01 2.564947e-02 0.0
8.071767e-01 2.465746e-02 0.0
8.051193e-01 2.370025e-02 0.0
8.030847e-01 2.277814e-02 0.0
8.010746e-01 2.189074e-02 0.0
7.990905e-01 2.103714e-02 0.0
7.971339e-01 2.021597e-02 0.0
7.952061e-01 1.942542e-02 0.0
7.933082e-01 1.866329e-02 0.0
7.914415e-01 1.792705e-02 0.0
7.896072e-01 1.721383e-02 0.0
7.878063e-01 1.652045e-02 0.0
7.860401e-01 1.584341e-02 0.0
7.843100e-01 1.517879e-02 0.0
7.826172e-01 1.452261e-02 0.0
7.809633e-01 1.387048e-02 0.0
7.793498e-01 1.321710e-02 0.0
7.777789e-01 1.255672e-02 0.0
7.762529e-01 1.188289e-02 0.0
7.747748e-01 1.118837e-02 0.0
7.733485e-01 1.046485e-02 0.0
7.719788e-01 9.702660e-03 0.0
7.706726e-01 8.890364e-03 0.0
7.694395e-01 8.013954e-03 0.0
7.682940e-01 7.055613e-03 0.0
7.672585e-01 5.991492e-03 0.0
7.663688e-01 4.787931e-03 0.0
7.656836e-01 3.396748e-03 0.0
7.652949e-01 1.765313e-03 0.0
7.652947e-01 1.097161e-05 0.0
0.000000e+00 1.108317e-05 0.0
0.000000e+00 0.000000e+00 0.0
0.000000e+00 0.000000e+00 0.0
0.000000e+00 0.000000e+00 0.0
0.000000e+00 0.000000e+00 0.0
0.000000e+00 0.000000e+00 0.0
0.000000e+00 0.000000e+00 0.0
0.000000e+00 0.000000e+00 0.0
0.000000e+00 0.000000e+00 0.0
0.000000e+00 0.000000e+00 0.0
0.000000e+00 0.000000e+00 0.0
0.000000e+00 -7.896105e-02 0.0
5.158238e-03 7.896213e-02 0.0
5.421980e-02 5.387319e-02 0.0
1.182179e-01 2.031848e-02 0.0
1.920807e-01 -1.227909e-02 0.0
2.728574e-01 -4.429329e-02 0.0
3.573871e-01 -7.694376e-02 0.0
4.439607e-01 -1.118484e-01 0.0
5.313496e-01 -1.488881e-01 0.0
6.172044e-01 -1.879321e-01 0.0
6.989731e-01 -2.282191e-01 0.0
7.738112e-01 -2.685654e-01 0.0
8.389522e-01 -3.072834e-01 0.0
8.920451e-01 -3.423103e-01 0.0
9.315826e-01 -3.713933e-01 0.0