# vtk DataFile Version 3.0
Vector Field
ASCII
DATASET RECTILINEAR_GRID
DIMENSIONS 102 22 1
X_COORDINATES 102 double
0.000000 0.100000 0.200000 0.300000 0.400000 0.500000 0.600000 0.700000 0.800000 0.900000 1.000000 1.100000 1.200000 1.300000 1.400000 1.500000 1.600000 1.700000 1.800000 1.900000 2.000000 2.100000 2.200000 2.300000 2.400000 2.500000 2.600000 2.700000 2.800000 2.900000 3.000000 3.100000 3.200000 3.300000 3.400000 3.500000 3.600000 3.700000 3.800000 3.900000 4.000000 4.100000 4.200000 4.300000 4.400000 4.500000 4.600000 4.700000 4.800000 4.900000 5.000000 5.100000 5.200000 5.300000 5.400000 5.500000 5.600000 5.700000 5.800000 5.900000 6.000000 6.100000 6.200000 6.300000 6.400000 6.500000 6.600000 6.700000 6.800000 6.900000 7.000000 7.100000 7.200000 7.300000 7.400000 7.500000 7.600000 7.700000 7.800000 7.900000 8.000000 8.100000 8.200000 8.300000 8.400000 8.500000 8.600000 8.700000 8.800000 8.900000 9.000000 9.100000 9.200000 9.300000 9.400000 9.500000 9.600000 9.700000 9.800000 9.900000 10.000000 10.100000 
Y_COORDINATES 22 double
0.000000 0.100000 0.200000 0.300000 0.400000 0.500000 0.600000 0.700000 0.800000 0.900000 1.000000 1.100000 1.200000 1.300000 1.400000 1.500000 1.600000 1.700000 1.800000 1.900000 2.000000 2.100000 
Z_COORDINATES 1 double
0.0
POINT_DATA 2244
VECTORS Velocity double
0.000000e+00 0.000000e+00 0.0
-0.000000e+00 0.000000e+00 0.0
-0.000000e+00 0.000000e+00 0.0
-0.000000e+00 0.000000e+00 0.0
-0.000000e+00 0.000000e+00 0.0
-0.000000e+00 0.000000e+00 0.0
-0.000000e+00 0.000000e+00 0.0
-0.000000e+00 0.000000e+00 0.0
-0.000000e+00 0.000000e+00 0.0
-0.000000e+00 0.000000e+00 0.0
-0.000000e+00 0.000000e+00 0.0
-1.029235e-05 0.000000e+00 0.0
4.387915e-03 0.000000e+00 0.0
1.097427e-02 0.000000e+00 0.0
1.851942e-02 0.000000e+00 0.0
2.660126e-02 0.000000e+00 0.0
3.526261e-02 0.000000e+00 0.0
4.473048e-02 0.000000e+00 0.0
5.529017e-02 0.000000e+00 0.0
6.723895e-02 0.000000e+00 0.0
8.084488e-02 0.000000e+00 0.0
9.628158e-02 0.000000e+00 0.0
1.135160e-01 0.000000e+00 0.0
1.321524e-01 0.000000e+00 0.0
1.512611e-01 0.000000e+00 0.0
1.692218e-01 0.000000e+00 0.0
1.836812e-01 0.000000e+00 0.0
1.915821e-01 0.000000e+00 0.0
1.896251e-01 0.000000e+00 0.0
1.757099e-01 0.000000e+00 0.0
1.492126e-01 0.000000e+00 0.0
1.119402e-01 0.000000e+00 0.0
6.747707e-02 0.000000e+00 0.0
1.782922e-02 0.000000e+00 0.0
-3.091502e-02 0.000000e+00 0.0
-7.280278e-02 0.000000e+00 0.0
-1.061394e-01 0.000000e+00 0.0
-1.310423e-01 0.000000e+00 0.0
-1.484207e-01 0.000000e+00 0.0
-1.594934e-01 0.000000e+00 0.0
-1.655437e-01 0.000000e+00 0.0
-1.678015e-01 0.000000e+00 0.0
-1.673669e-01 0.000000e+00 0.0
-1.647043e-01 0.000000e+00 0.0
-1.604062e-01 0.000000e+00 0.0
-1.550314e-01 0.000000e+00 0.0
-1.490298e-01 0.000000e+00 0.0
-1.427335e-01 0.000000e+00 0.0
-1.363794e-01 0.000000e+00 0.0
-1.301147e-01 0.000000e+00 0.0
-1.240352e-01 0.000000e+00 0.0
-1.182127e-01 0.000000e+00 0.0
-1.126916e-01 0.000000e+00 0.0
-1.075021e-01 0.000000e+00 0.0
-1.026631e-01 0.000000e+00 0.0
-9.818549e-02 0.000000e+00 0.0
-9.407375e-02 0.000000e+00 0.0
-9.032757e-02 0.000000e+00 0.0
-8.694295e-02 0.000000e+00 0.0
-8.391308e-02 0.000000e+00 0.0
-8.122895e-02 0.000000e+00 0.0
-7.887964e-02 0.000000e+00 0.0
-7.685264e-02 0.000000e+00 0.0
-7.513404e-02 0.000000e+00 0.0
-7.370863e-02 0.000000e+00 0.0
-7.256001e-02 0.000000e+00 0.0
-7.167058e-02 0.000000e+00 0.0
-7.102147e-02 0.000000e+00 0.0
-7.059245e-02 0.000000e+00 0.0
-7.036172e-02 0.000000e+00 0.0
-7.030567e-02 0.000000e+00 0.0
-7.039822e-02 0.000000e+00 0.0
-7.061008e-02 0.000000e+00 0.0
-7.090846e-02 0.000000e+00 0.0
-7.126081e-02 0.000000e+00 0.0
-7.165647e-02 0.000000e+00 0.0
-7.208957e-02 0.000000e+00 0.0
-7.255225e-02 0.000000e+00 0.0
-7.303547e-02 0.000000e+00 0.0
-7.352977e-02 0.000000e+00 0.0
-7.402438e-02 0.000000e+00 0.0
-7.450713e-02 0.000000e+00 0.0
-7.496786e-02 0.000000e+00 0.0
-7.539932e-02 0.000000e+00 0.0
-7.579710e-02 0.000000e+00 0.0
-7.615906e-02 0.000000e+00 0.0
-7.648448e-02 0.000000e+00 0.0
-7.677303e-02 0.000000e+00 0.0
-7.702644e-02 0.000000e+00 0.0
-7.724785e-02 0.000000e+00 0.0
-7.743890e-02 0.000000e+00 0.0
-7.760074e-02 0.000000e+00 0.0
-7.773546e-02 0.000000e+00 0.0
-7.784579e-02 0.000000e+00 0.0
-7.793393e-02 0.000000e+00 0.0
-7.800230e-02 0.000000e+00 0.0
-7.805395e-02 0.000000e+00 0.0
-7.809318e-02 0.000000e+00 0.0
-7.812659e-02 0.000000e+00 0.0
-7.816373e-02 0.000000e+00 0.0
-7.816373e-02 0.000000e+00 0.0
0.000000e+00 0.000000e+00 0.0
0.000000e+00 0.000000e+00 0.0
0.000000e+00 0.000000e+00 0.0
0.000000e+00 0.000000e+00 0.0
0.000000e+00 0.000000e+00 0.0
0.000000e+00 0.000000e+00 0.0
0.000000e+00 0.000000e+00 0.0
0.000000e+00 0.000000e+00 0.0
0.000000e+00 0.000000e+00 0.0
0.000000e+00 0.000000e+00 0.0
0.000000e+00 0.000000e+00 0.0
0.000000e+00 -1.233755e-03 0.0
4.672950e-06 1.226692e-03 0.0
-4.392056e-03 5.104765e-03 0.0
-1.097765e-02 7.293632e-03 0.0
-1.852317e-02 8.253555e-03 0.0
-2.660661e-02 8.791470e-03 0.0
-3.527086e-02 9.372290e-03 0.0
-4.474310e-02 1.018027e-02 0.0
-5.530883e-02 1.127377e-02 0.0
-6.726553e-02 1.266474e-02 0.0
-8.088141e-02 1.432392e-02 0.0
-9.632995e-02 1.615658e-02 0.0
-1.135775e-01 1.795556e-02 0.0
-1.322269e-01 1.935746e-02 0.0
-1.513466e-01 1.982769e-02 0.0
-1.693127e-01 1.867417e-02 0.0
-1.837686e-01 1.516398e-02 0.0
-1.916557e-01 8.595095e-03 0.0
-1.896713e-01 -1.276288e-03 0.0
-1.757182e-01 -1.324505e-02 0.0
-1.491769e-01 -2.583333e-02 0.0
-1.118610e-01 -3.660779e-02 0.0
-6.736264e-02 -4.379036e-02 0.0
-1.768269e-02 -4.897190e-02 0.0
3.107086e-02 -4.804551e-02 0.0
7.295563e-02 -4.117672e-02 0.0
1.062835e-01 -3.261986e-02 0.0
1.311762e-01 -2.418461e-02 0.0
1.485453e-01 -1.666104e-02 0.0
1.596108e-01 -1.035748e-02 0.0
1.656568e-01 -5.337925e-03 0.0
1.679136e-01 -1.548764e-03 0.0
1.674820e-01 1.139685e-03 0.0
1.648270e-01 3.363045e-03 0.0
1.605402e-01 4.994809e-03 0.0
1.551793e-01 6.068930e-03 0.0
1.491934e-01 6.694018e-03 0.0
1.429136e-01 6.987796e-03 0.0
1.365761e-01 7.045568e-03 0.0
1.303274e-01 6.956805e-03 0.0
1.242624e-01 6.773028e-03 0.0
1.184521e-01 6.518325e-03 0.0
1.129405e-01 6.219687e-03 0.0
1.077571e-01 5.891402e-03 0.0
1.029207e-01 5.544468e-03 0.0
9.844198e-02 5.186816e-03 0.0
9.432548e-02 4.824562e-03 0.0
9.057110e-02 4.462442e-03 0.0
8.717510e-02 4.104054e-03 0.0
8.413101e-02 3.752156e-03 0.0
8.143012e-02 3.408949e-03 0.0
7.906191e-02 3.076274e-03 0.0
7.701425e-02 2.755728e-03 0.0
7.527360e-02 2.448716e-03 0.0
7.382515e-02 2.156513e-03 0.0
7.265290e-02 1.880316e-03 0.0
7.173965e-02 1.621315e-03 0.0
7.106697e-02 1.380753e-03 0.0
7.061506e-02 1.159975e-03 0.0
7.036263e-02 9.604947e-04 0.0
7.028658e-02 7.841158e-04 0.0
7.036149e-02 6.331640e-04 0.0
7.055879e-02 5.107725e-04 0.0
7.084629e-02 4.205631e-04 0.0
7.119082e-02 3.635475e-04 0.0
7.157925e-02 3.196357e-04 0.0
7.200580e-02 2.815228e-04 0.0
7.246288e-02 2.509933e-04 0.0
7.294159e-02 2.293616e-04 0.0
7.343258e-02 2.170827e-04 0.0
7.392550e-02 2.151563e-04 0.0
7.440814e-02 2.254350e-04 0.0
7.487005e-02 2.461639e-04 0.0
7.530360e-02 2.745161e-04 0.0
7.570404e-02 3.076348e-04 0.0
7.606900e-02 3.431172e-04 0.0
7.639766e-02 3.794202e-04 0.0
7.668974e-02 4.159922e-04 0.0
7.694628e-02 4.515317e-04 0.0
7.717069e-02 4.836677e-04 0.0
7.736477e-02 5.139906e-04 0.0
7.752967e-02 5.431821e-04 0.0
7.766717e-02 5.705776e-04 0.0
7.778003e-02 5.952122e-04 0.0
7.787049e-02 6.176147e-04 0.0
7.794088e-02 6.376843e-04 0.0
7.799415e-02 6.548088e-04 0.0
7.803445e-02 6.677833e-04 0.0
7.806824e-02 6.742841e-04 0.0
7.810524e-02 6.710782e-04 0.0
7.816373e-02 6.495863e-04 0.0
0.000000e+00 6.564245e-04 0.0
0.000000e+00 0.000000e+00 0.0
0.000000e+00 0.000000e+00 0.0
0.000000e+00 0.000000e+00 0.0
0.000000e+00 0.000000e+00 0.0
0.000000e+00 0.000000e+00 0.0
0.000000e+00 0.000000e+00 0.0
0.000000e+00 0.000000e+00 0.0
0.000000e+00 0.000000e+00 0.0
0.000000e+00 0.000000e+00 0.0
0.000000e+00 0.000000e+00 0.0
0.000000e+00 -6.709558e-03 0.0
-4.768953e-03 6.703680e-03 0.0
-1.764212e-02 1.816263e-02 0.0
-3.450765e-02 2.434387e-02 0.0
-5.311900e-02 2.704961e-02 0.0
-7.258316e-02 2.844033e-02 0.0
-9.277819e-02 2.975203e-02 0.0
-1.138611e-01 3.144787e-02 0.0
-1.359990e-01 3.359644e-02 0.0
-1.592287e-01 3.607908e-02 0.0
-1.833352e-01 3.861516e-02 0.0
-2.077482e-01 4.075427e-02 0.0
-2.314151e-01 4.180714e-02 0.0
-2.526555e-01 4.078258e-02 0.0
-2.689824e-01 3.633929e-02 0.0
-2.775454e-01 2.742192e-02 0.0
-2.750581e-01 1.286138e-02 0.0
-2.570961e-01 -9.182257e-03 0.0
-2.226970e-01 -3.549060e-02 0.0
-1.733807e-01 -6.237665e-02 0.0
-1.114858e-01 -8.754355e-02 0.0
-3.964226e-02 -1.082666e-01 0.0
3.779400e-02 -1.210419e-01 0.0
1.110061e-01 -1.219993e-01 0.0
1.761233e-01 -1.129779e-01 0.0
2.329610e-01 -9.782973e-02 0.0
2.807863e-01 -8.026050e-02 0.0
3.194989e-01 -6.271242e-02 0.0
3.495545e-01 -4.653193e-02 0.0
3.717371e-01 -3.235541e-02 0.0
3.869873e-01 -2.040342e-02 0.0
3.962821e-01 -1.065887e-02 0.0
4.005552e-01 -2.948657e-03 0.0
4.010656e-01 3.037278e-03 0.0
3.984078e-01 7.837339e-03 0.0
3.931870e-01 1.147442e-02 0.0
3.859470e-01 1.411873e-02 0.0
3.771536e-01 1.596592e-02 0.0
3.671862e-01 1.719773e-02 0.0
3.563887e-01 1.793895e-02 0.0
3.450624e-01 1.828407e-02 0.0
3.334675e-01 1.829797e-02 0.0
3.218049e-01 1.806701e-02 0.0
3.102507e-01 1.763025e-02 0.0
2.989530e-01 1.702691e-02 0.0
2.880369e-01 1.628761e-02 0.0
2.776071e-01 1.543906e-02 0.0
2.677496e-01 1.450468e-02 0.0
2.585335e-01 1.350489e-02 0.0
2.500126e-01 1.245779e-02 0.0
2.422263e-01 1.137992e-02 0.0
2.352006e-01 1.028671e-02 0.0
2.289484e-01 9.192654e-03 0.0
2.234704e-01 8.111372e-03 0.0
2.187561e-01 7.055514e-03 0.0
2.147844e-01 6.036741e-03 0.0
2.115247e-01 5.065720e-03 0.0
2.089381e-01 4.152119e-03 0.0
2.069782e-01 3.304601e-03 0.0
2.055926e-01 2.530801e-03 0.0
2.047240e-01 1.837375e-03 0.0
2.043117e-01 1.230185e-03 0.0
2.042925e-01 7.146565e-04 0.0
2.046019e-01 2.959546e-04 0.0
2.051727e-01 -2.254671e-05 0.0
2.059315e-01 -2.544691e-04 0.0
2.068219e-01 -4.241861e-04 0.0
2.078006e-01 -5.429465e-04 0.0
2.088319e-01 -6.172071e-04 0.0
2.098855e-01 -6.518190e-04 0.0
2.109351e-01 -6.497445e-04 0.0
2.119581e-01 -6.128806e-04 0.0
2.129364e-01 -5.473621e-04 0.0
2.138567e-01 -4.611562e-04 0.0
2.147115e-01 -3.623519e-04 0.0
2.154975e-01 -2.581708e-04 0.0
2.162161e-01 -1.544739e-04 0.0
2.168721e-01 -5.530890e-05 0.0
2.174692e-01 3.914481e-05 0.0
2.180060e-01 1.316096e-04 0.0
2.184840e-01 2.207008e-04 0.0
2.189058e-01 3.060433e-04 0.0
2.192739e-01 3.871628e-04 0.0
2.195928e-01 4.610335e-04 0.0
2.198658e-01 5.294016e-04 0.0
2.200967e-01 5.914407e-04 0.0
2.202911e-01 6.451558e-04 0.0
2.204559e-01 6.876966e-04 0.0
2.206013e-01 7.136153e-04 0.0
2.207449e-01 7.121529e-04 0.0
2.209214e-01 6.578235e-04 0.0
0.000000e+00 6.652065e-04 0.0
0.000000e+00 0.000000e+00 0.0
0.000000e+00 0.000000e+00 0.0
0.000000e+00 0.000000e+00 0.0
0.000000e+00 0.000000e+00 0.0
0.000000e+00 0.000000e+00 0.0
0.000000e+00 0.000000e+00 0.0
0.000000e+00 0.000000e+00 0.0
0.000000e+00 0.000000e+00 0.0
0.000000e+00 0.000000e+00 0.0
0.000000e+00 0.000000e+00 0.0
0.000000e+00 -1.664953e-02 0.0
-9.234848e-03 1.664656e-02 0.0
-2.869526e-02 3.780775e-02 0.0
-5.193177e-02 4.776508e-02 0.0
-7.599333e-02 5.129588e-02 0.0
-9.976816e-02 5.239988e-02 0.0
-1.229456e-01 5.311421e-02 0.0
-1.454189e-01 5.410580e-02 0.0
-1.670152e-01 5.537751e-02 0.0
-1.873833e-01 5.663186e-02 0.0
-2.058683e-01 5.728488e-02 0.0
-2.214834e-01 5.655405e-02 0.0
-2.328759e-01 5.338436e-02 0.0
-2.384316e-01 4.652298e-02 0.0
-2.351592e-01 3.325163e-02 0.0
-2.189190e-01 1.136639e-02 0.0
-1.852211e-01 -2.065184e-02 0.0
-1.353937e-01 -5.882492e-02 0.0
-7.068333e-02 -1.000163e-01 0.0
5.604043e-03 -1.384793e-01 0.0
8.632646e-02 -1.680813e-01 0.0
1.645412e-01 -1.862966e-01 0.0
2.362990e-01 -1.926150e-01 0.0
2.997006e-01 -1.852162e-01 0.0
3.550805e-01 -1.681732e-01 0.0
4.031753e-01 -1.457398e-01 0.0
4.443474e-01 -1.212479e-01 0.0
4.788194e-01 -9.699967e-02 0.0
5.068706e-01 -7.439841e-02 0.0
5.288866e-01 -5.418668e-02 0.0
5.453394e-01 -3.667158e-02 0.0
5.567572e-01 -2.189196e-02 0.0
5.637219e-01 -9.728610e-03 0.0
5.669098e-01 3.408407e-05 0.0
5.669905e-01 7.941343e-03 0.0
5.644310e-01 1.421859e-02 0.0
5.596097e-01 1.912473e-02 0.0
5.528574e-01 2.290294e-02 0.0
5.444780e-01 2.576186e-02 0.0
5.347377e-01 2.786401e-02 0.0
5.238665e-01 2.933995e-02 0.0
5.120473e-01 3.030184e-02 0.0
4.995077e-01 3.079136e-02 0.0
4.864808e-01 3.084183e-02 0.0
4.731725e-01 3.051997e-02 0.0
4.597762e-01 2.986856e-02 0.0
4.464714e-01 2.892859e-02 0.0
4.334232e-01 2.773760e-02 0.0
4.207827e-01 2.633005e-02 0.0
4.086866e-01 2.473867e-02 0.0
3.972553e-01 2.299597e-02 0.0
3.865916e-01 2.113507e-02 0.0
3.767791e-01 1.918988e-02 0.0
3.678805e-01 1.719464e-02 0.0
3.599375e-01 1.518329e-02 0.0
3.529702e-01 1.318878e-02 0.0
3.469783e-01 1.124231e-02 0.0
3.419423e-01 9.372762e-03 0.0
3.378257e-01 7.605979e-03 0.0
3.345770e-01 5.964216e-03 0.0
3.321335e-01 4.465539e-03 0.0
3.304250e-01 3.123394e-03 0.0
3.293780e-01 1.946381e-03 0.0
3.289201e-01 9.385434e-04 0.0
3.289803e-01 1.019969e-04 0.0
3.294480e-01 -5.374418e-04 0.0
3.302043e-01 -9.958088e-04 0.0
3.311596e-01 -1.313462e-03 0.0
3.322437e-01 -1.516601e-03 0.0
3.333994e-01 -1.622853e-03 0.0
3.345842e-01 -1.649804e-03 0.0
3.357664e-01 -1.610358e-03 0.0
3.369201e-01 -1.516393e-03 0.0
3.380258e-01 -1.382117e-03 0.0
3.390698e-01 -1.221616e-03 0.0
3.400437e-01 -1.047367e-03 0.0
3.409432e-01 -8.692862e-04 0.0
3.417668e-01 -6.941981e-04 0.0
3.425164e-01 -5.256509e-04 0.0
3.431983e-01 -3.655765e-04 0.0
3.438202e-01 -2.164952e-04 0.0
3.443911e-01 -8.021028e-05 0.0
3.449184e-01 4.460930e-05 0.0
3.454000e-01 1.641506e-04 0.0
3.458349e-01 2.792614e-04 0.0
3.462243e-01 3.867533e-04 0.0
3.465717e-01 4.824057e-04 0.0
3.468819e-01 5.622397e-04 0.0
3.471620e-01 6.181977e-04 0.0
3.474254e-01 6.334551e-04 0.0
3.476994e-01 5.685875e-04 0.0
0.000000e+00 5.755997e-04 0.0
0.000000e+00 0.000000e+00 0.0
0.000000e+00 0.000000e+00 0.0
0.000000e+00 0.000000e+00 0.0
0.000000e+00 0.000000e+00 0.0
0.000000e+00 0.000000e+00 0.0
0.000000e+00 0.000000e+00 0.0
0.000000e+00 0.000000e+00 0.0
0.000000e+00 0.000000e+00 0.0
0.000000e+00 0.000000e+00 0.0
0.000000e+00 0.000000e+00 0.0
0.000000e+00 -2.907805e-02 0.0
-1.172451e-02 2.907911e-02 0.0
-3.400063e-02 6.026857e-02 0.0
-5.843925e-02 7.238841e-02 0.0
-8.175192e-02 7.479325e-02 0.0
-1.029119e-01 7.374453e-02 0.0
-1.215920e-01 7.197910e-02 0.0
-1.375673e-01 7.026578e-02 0.0
-1.505257e-01 6.852057e-02 0.0
-1.600440e-01 6.633483e-02 0.0
-1.653887e-01 6.281432e-02 0.0
-1.654991e-01 5.684920e-02 0.0
-1.584178e-01 4.648776e-02 0.0
-1.423491e-01 3.063892e-02 0.0
-1.117472e-01 2.834517e-03 0.0
-6.257015e-02 -3.762599e-02 0.0
2.882546e-03 -8.591982e-02 0.0
7.949671e-02 -1.352544e-01 0.0
1.599267e-01 -1.802615e-01 0.0
2.387334e-01 -2.171013e-01 0.0
3.126615e-01 -2.418247e-01 0.0
3.793017e-01 -2.527522e-01 0.0
4.362039e-01 -2.493325e-01 0.0
4.843771e-01 -2.332047e-01 0.0
5.255195e-01 -2.091309e-01 0.0
5.608425e-01 -1.808781e-01 0.0
5.910756e-01 -1.512964e-01 0.0
6.166457e-01 -1.223850e-01 0.0
6.378440e-01 -9.541198e-02 0.0
6.549240e-01 -7.108198e-02 0.0
6.681444e-01 -4.970727e-02 0.0
6.777854e-01 -3.134833e-02 0.0
6.841592e-01 -1.591769e-02 0.0
6.876172e-01 -3.239134e-03 0.0
6.886528e-01 7.090416e-03 0.0
6.875776e-01 1.547847e-02 0.0
6.846229e-01 2.226413e-02 0.0
6.799836e-01 2.772704e-02 0.0
6.738368e-01 3.209330e-02 0.0
6.663446e-01 3.554093e-02 0.0
6.576587e-01 3.821057e-02 0.0
6.479327e-01 4.021257e-02 0.0
6.372891e-01 4.161969e-02 0.0
6.258181e-01 4.249746e-02 0.0
6.136739e-01 4.284896e-02 0.0
6.010293e-01 4.269787e-02 0.0
5.880521e-01 4.209049e-02 0.0
5.749078e-01 4.106664e-02 0.0
5.617603e-01 3.966223e-02 0.0
5.487713e-01 3.791237e-02 0.0
5.360975e-01 3.585447e-02 0.0
5.238873e-01 3.353003e-02 0.0
5.122767e-01 3.098519e-02 0.0
5.013857e-01 2.827030e-02 0.0
4.913150e-01 2.543876e-02 0.0
4.821428e-01 2.254563e-02 0.0
4.739238e-01 1.964601e-02 0.0
4.666880e-01 1.679327e-02 0.0
4.604414e-01 1.403730e-02 0.0
4.551676e-01 1.142272e-02 0.0
4.508308e-01 8.987054e-03 0.0
4.473796e-01 6.759309e-03 0.0
4.447515e-01 4.759228e-03 0.0
4.428769e-01 2.997899e-03 0.0
4.416820e-01 1.481591e-03 0.0
4.411073e-01 2.219378e-04 0.0
4.410517e-01 -7.554579e-04 0.0
4.413724e-01 -1.449507e-03 0.0
4.419619e-01 -1.921329e-03 0.0
4.427316e-01 -2.207886e-03 0.0
4.436117e-01 -2.345169e-03 0.0
4.445557e-01 -2.369590e-03 0.0
4.455281e-01 -2.304128e-03 0.0
4.465010e-01 -2.170294e-03 0.0
4.474531e-01 -1.988970e-03 0.0
4.483690e-01 -1.778615e-03 0.0
4.492387e-01 -1.554188e-03 0.0
4.500560e-01 -1.326870e-03 0.0
4.508196e-01 -1.104455e-03 0.0
4.515309e-01 -8.922214e-04 0.0
4.521928e-01 -6.936741e-04 0.0
4.528076e-01 -5.102898e-04 0.0
4.533781e-01 -3.411293e-04 0.0
4.539112e-01 -1.843024e-04 0.0
4.544155e-01 -4.025813e-05 0.0
4.548939e-01 9.302423e-05 0.0
4.553437e-01 2.173555e-04 0.0
4.557630e-01 3.276438e-04 0.0
4.561525e-01 4.134204e-04 0.0
4.565122e-01 4.584047e-04 0.0
4.568433e-01 4.222142e-04 0.0
0.000000e+00 4.280390e-04 0.0
0.000000e+00 0.000000e+00 0.0
0.000000e+00 0.000000e+00 0.0
0.000000e+00 0.000000e+00 0.0
0.000000e+00 0.000000e+00 0.0
0.000000e+00 0.000000e+00 0.0
0.000000e+00 0.000000e+00 0.0
0.000000e+00 0.000000e+00 0.0
0.000000e+00 0.000000e+00 0.0
0.000000e+00 0.000000e+00 0.0
0.000000e+00 0.000000e+00 0.0
0.000000e+00 -4.211994e-02 0.0
-1.233779e-02 4.212494e-02 0.0
-3.357070e-02 8.168618e-02 0.0
-5.432468e-02 9.332710e-02 0.0
-7.178654e-02 9.243981e-02 0.0
-8.534384e-02 8.748654e-02 0.0
-9.484146e-02 8.166141e-02 0.0
-1.001311e-01 7.574016e-02 0.0
-1.007979e-01 6.937203e-02 0.0
-9.643949e-02 6.216115e-02 0.0
-8.590339e-02 5.246292e-02 0.0
-6.776969e-02 3.890021e-02 0.0
-3.760414e-02 1.650692e-02 0.0
1.176943e-02 -1.854995e-02 0.0
7.716268e-02 -6.237403e-02 0.0
1.526204e-01 -1.128990e-01 0.0
2.327339e-01 -1.658487e-01 0.0
3.129528e-01 -2.152885e-01 0.0
3.891703e-01 -2.562943e-01 0.0
4.578875e-01 -2.856339e-01 0.0
5.173829e-01 -3.011353e-01 0.0
5.668469e-01 -3.020314e-01 0.0
6.064435e-01 -2.887444e-01 0.0
6.389503e-01 -2.655268e-01 0.0
6.662085e-01 -2.362044e-01 0.0
6.894044e-01 -2.038892e-01 0.0
7.092477e-01 -1.709550e-01 0.0
7.261436e-01 -1.390962e-01 0.0
7.403228e-01 -1.094065e-01 0.0
7.519317e-01 -8.250616e-02 0.0
7.610873e-01 -5.867814e-02 0.0
7.679084e-01 -3.798474e-02 0.0
7.725325e-01 -2.035702e-02 0.0
7.751276e-01 -5.649584e-03 0.0
7.759992e-01 6.403516e-03 0.0
7.753326e-01 1.632978e-02 0.0
7.732623e-01 2.451915e-02 0.0
7.698984e-01 3.127570e-02 0.0
7.653397e-01 3.683668e-02 0.0
7.596791e-01 4.138627e-02 0.0
7.530072e-01 4.506719e-02 0.0
7.454157e-01 4.798873e-02 0.0
7.369885e-01 5.023158e-02 0.0
7.278116e-01 5.185917e-02 0.0
7.179367e-01 5.290848e-02 0.0
7.074265e-01 5.339284e-02 0.0
6.963937e-01 5.330800e-02 0.0
6.849565e-01 5.268858e-02 0.0
6.732400e-01 5.156343e-02 0.0
6.613767e-01 4.996038e-02 0.0
6.495044e-01 4.791142e-02 0.0
6.377634e-01 4.545578e-02 0.0
6.262922e-01 4.264111e-02 0.0
6.152237e-01 3.952344e-02 0.0
6.046810e-01 3.616624e-02 0.0
5.947726e-01 3.263869e-02 0.0
5.855898e-01 2.901358e-02 0.0
5.772030e-01 2.536479e-02 0.0
5.696605e-01 2.176450e-02 0.0
5.629878e-01 1.828014e-02 0.0
5.571883e-01 1.497126e-02 0.0
5.522456e-01 1.188667e-02 0.0
5.481264e-01 9.063214e-03 0.0
5.447828e-01 6.526197e-03 0.0
5.421565e-01 4.292606e-03 0.0
5.401868e-01 2.376385e-03 0.0
5.388246e-01 7.914048e-04 0.0
5.380196e-01 -4.597477e-04 0.0
5.376478e-01 -1.364815e-03 0.0
5.375971e-01 -1.972482e-03 0.0
5.377796e-01 -2.343023e-03 0.0
5.381207e-01 -2.525955e-03 0.0
5.385736e-01 -2.572321e-03 0.0
5.391023e-01 -2.514249e-03 0.0
5.396781e-01 -2.380006e-03 0.0
5.402789e-01 -2.194769e-03 0.0
5.408886e-01 -1.979151e-03 0.0
5.414955e-01 -1.749086e-03 0.0
5.420921e-01 -1.516332e-03 0.0
5.426736e-01 -1.289025e-03 0.0
5.432369e-01 -1.072264e-03 0.0
5.437799e-01 -8.685641e-04 0.0
5.443021e-01 -6.785290e-04 0.0
5.448045e-01 -5.019885e-04 0.0
5.452878e-01 -3.388412e-04 0.0
5.457538e-01 -1.882622e-04 0.0
5.462068e-01 -5.095161e-05 0.0
5.466480e-01 7.111440e-05 0.0
5.470714e-01 1.747509e-04 0.0
5.474660e-01 2.485546e-04 0.0
5.478031e-01 2.698071e-04 0.0
0.000000e+00 2.736879e-04 0.0
0.000000e+00 0.000000e+00 0.0
0.000000e+00 0.000000e+00 0.0
0.000000e+00 0.000000e+00 0.0
0.000000e+00 0.000000e+00 0.0
0.000000e+00 0.000000e+00 0.0
0.000000e+00 0.000000e+00 0.0
0.000000e+00 0.000000e+00 0.0
0.000000e+00 0.000000e+00 0.0
0.000000e+00 0.000000e+00 0.0
0.000000e+00 0.000000e+00 0.0
0.000000e+00 -5.514870e-02 0.0
-1.232329e-02 5.515626e-02 0.0
-2.946147e-02 9.900906e-02 0.0
-4.239778e-02 1.064481e-01 0.0
-4.988758e-02 1.001143e-01 0.0
-5.203305e-02 8.981672e-02 0.0
-4.897106e-02 7.878413e-02 0.0
-4.071251e-02 6.766631e-02 0.0
-2.610970e-02 5.495392e-02 0.0
-4.095971e-03 4.033213e-02 0.0
2.868128e-02 1.987037e-02 0.0
7.718911e-02 -9.422909e-03 0.0
1.410860e-01 -4.720532e-02 0.0
2.155809e-01 -9.286012e-02 0.0
2.968359e-01 -1.434443e-01 0.0
3.796683e-01 -1.955467e-01 0.0
4.590088e-01 -2.450044e-01 0.0
5.311840e-01 -2.872791e-01 0.0
5.938279e-01 -3.187535e-01 0.0
6.456603e-01 -3.372816e-01 0.0
6.865789e-01 -3.418692e-01 0.0
7.169185e-01 -3.321863e-01 0.0
7.398241e-01 -3.114653e-01 0.0
7.577034e-01 -2.832215e-01 0.0
7.722190e-01 -2.505352e-01 0.0
7.844283e-01 -2.159138e-01 0.0
7.949394e-01 -1.812814e-01 0.0
8.040733e-01 -1.480454e-01 0.0
8.119639e-01 -1.171124e-01 0.0
8.186381e-01 -8.899572e-02 0.0
8.240770e-01 -6.393227e-02 0.0
8.282535e-01 -4.197659e-02 0.0
8.311565e-01 -2.307524e-02 0.0
8.328078e-01 -7.116171e-03 0.0
8.333157e-01 6.080309e-03 0.0
8.327603e-01 1.706983e-02 0.0
8.312001e-01 2.626413e-02 0.0
8.286873e-01 3.397320e-02 0.0
8.252737e-01 4.043497e-02 0.0
8.210119e-01 4.583276e-02 0.0
8.159564e-01 5.030744e-02 0.0
8.101635e-01 5.396631e-02 0.0
8.036897e-01 5.689009e-02 0.0
7.965934e-01 5.914016e-02 0.0
7.889261e-01 6.076048e-02 0.0
7.807236e-01 6.178004e-02 0.0
7.720107e-01 6.220565e-02 0.0
7.628539e-01 6.203008e-02 0.0
7.533293e-01 6.127276e-02 0.0
7.435244e-01 5.995005e-02 0.0
7.335366e-01 5.808391e-02 0.0
7.234711e-01 5.570595e-02 0.0
7.134382e-01 5.285878e-02 0.0
7.035496e-01 4.959670e-02 0.0
6.939155e-01 4.598502e-02 0.0
6.846404e-01 4.209856e-02 0.0
6.758193e-01 3.801940e-02 0.0
6.675346e-01 3.383414e-02 0.0
6.598533e-01 2.963056e-02 0.0
6.528243e-01 2.549389e-02 0.0
6.464778e-01 2.150243e-02 0.0
6.408261e-01 1.772312e-02 0.0
6.358643e-01 1.420972e-02 0.0
6.315721e-01 1.100308e-02 0.0
6.279164e-01 8.133030e-03 0.0
6.248564e-01 5.621128e-03 0.0
6.223510e-01 3.481487e-03 0.0
6.203569e-01 1.719105e-03 0.0
6.188489e-01 3.278690e-04 0.0
6.177711e-01 -7.099525e-04 0.0
6.170345e-01 -1.421744e-03 0.0
6.165597e-01 -1.866459e-03 0.0
6.162810e-01 -2.108866e-03 0.0
6.161536e-01 -2.202135e-03 0.0
6.161452e-01 -2.186900e-03 0.0
6.162299e-01 -2.094794e-03 0.0
6.163874e-01 -1.951906e-03 0.0
6.166015e-01 -1.778481e-03 0.0
6.168598e-01 -1.589878e-03 0.0
6.171524e-01 -1.396913e-03 0.0
6.174715e-01 -1.206624e-03 0.0
6.178107e-01 -1.023068e-03 0.0
6.181651e-01 -8.482043e-04 0.0
6.185306e-01 -6.827853e-04 0.0
6.189035e-01 -5.269911e-04 0.0
6.192807e-01 -3.808294e-04 0.0
6.196596e-01 -2.450760e-04 0.0
6.200367e-01 -1.212519e-04 0.0
6.204085e-01 -1.238363e-05 0.0
6.207631e-01 7.867466e-05 0.0
6.210597e-01 1.579230e-04 0.0
0.000000e+00 1.596373e-04 0.0
0.000000e+00 0.000000e+00 0.0
0.000000e+00 0.000000e+00 0.0
0.000000e+00 0.000000e+00 0.0
0.000000e+00 0.000000e+00 0.0
0.000000e+00 0.000000e+00 0.0
0.000000e+00 0.000000e+00 0.0
0.000000e+00 0.000000e+00 0.0
0.000000e+00 0.000000e+00 0.0
0.000000e+00 0.000000e+00 0.0
0.000000e+00 0.000000e+00 0.0
0.000000e+00 -6.891279e-02 0.0
-1.305662e-02 6.892092e-02 0.0
-2.256883e-02 1.087060e-01 0.0
-2.249557e-02 1.065596e-01 0.0
-1.491715e-02 9.272061e-02 0.0
-7.297353e-04 7.581400e-02 0.0
2.020250e-02 5.803660e-02 0.0
4.772297e-02 4.033055e-02 0.0
8.463334e-02 1.822825e-02 0.0
1.353860e-01 -1.023581e-02 0.0
1.997783e-01 -4.433724e-02 0.0
2.745196e-01 -8.397952e-02 0.0
3.561408e-01 -1.286418e-01 0.0
4.401743e-01 -1.767089e-01 0.0
5.223156e-01 -2.254009e-01 0.0
5.984281e-01 -2.714745e-01 0.0
6.651278e-01 -3.115194e-01 0.0
7.203996e-01 -3.423662e-01 0.0
7.635675e-01 -3.617367e-01 0.0
7.949678e-01 -3.684972e-01 0.0
8.155222e-01 -3.622389e-01 0.0
8.282415e-01 -3.447208e-01 0.0
8.359047e-01 -3.189438e-01 0.0
8.406021e-01 -2.877342e-01 0.0
8.437626e-01 -2.535110e-01 0.0
8.462655e-01 -2.182320e-01 0.0
8.485753e-01 -1.834065e-01 0.0
8.509158e-01 -1.502011e-01 0.0
8.533197e-01 -1.193316e-01 0.0
8.557021e-01 -9.119333e-02 0.0
8.579237e-01 -6.596923e-02 0.0
8.598323e-01 -4.370045e-02 0.0
8.612868e-01 -2.434501e-02 0.0
8.621755e-01 -7.820207e-03 0.0
8.624352e-01 6.005320e-03 0.0
8.620359e-01 1.765391e-02 0.0
8.609647e-01 2.752000e-02 0.0
8.592238e-01 3.589883e-02 0.0
8.568269e-01 4.301661e-02 0.0
8.537966e-01 4.904774e-02 0.0
8.501624e-01 5.412633e-02 0.0
8.459587e-01 5.835473e-02 0.0
8.412230e-01 6.181047e-02 0.0
8.359955e-01 6.455240e-02 0.0
8.303158e-01 6.662486e-02 0.0
8.242196e-01 6.806104e-02 0.0
8.177277e-01 6.888219e-02 0.0
8.108552e-01 6.908735e-02 0.0
8.036395e-01 6.867320e-02 0.0
7.961311e-01 6.764307e-02 0.0
7.883911e-01 6.600863e-02 0.0
7.804884e-01 6.379342e-02 0.0
7.724985e-01 6.103334e-02 0.0
7.645020e-01 5.777799e-02 0.0
7.565813e-01 5.409043e-02 0.0
7.488186e-01 5.004594e-02 0.0
7.412928e-01 4.572995e-02 0.0
7.340764e-01 4.123525e-02 0.0
7.272330e-01 3.665864e-02 0.0
7.208145e-01 3.209715e-02 0.0
7.148585e-01 2.764305e-02 0.0
7.093895e-01 2.337693e-02 0.0
7.044184e-01 1.936548e-02 0.0
6.999441e-01 1.566211e-02 0.0
6.959541e-01 1.230772e-02 0.0
6.924282e-01 9.331756e-03 0.0
6.893420e-01 6.752370e-03 0.0
6.866699e-01 4.575977e-03 0.0
6.843867e-01 2.795791e-03 0.0
6.824671e-01 1.394305e-03 0.0
6.808923e-01 3.377571e-04 0.0
6.796285e-01 -4.179141e-04 0.0
6.786228e-01 -9.184005e-04 0.0
6.778242e-01 -1.218906e-03 0.0
6.771936e-01 -1.371509e-03 0.0
6.767061e-01 -1.422648e-03 0.0
6.763419e-01 -1.402929e-03 0.0
6.760837e-01 -1.335563e-03 0.0
6.759174e-01 -1.238880e-03 0.0
6.758311e-01 -1.125905e-03 0.0
6.758145e-01 -1.005353e-03 0.0
6.758588e-01 -8.826434e-04 0.0
6.759561e-01 -7.607616e-04 0.0
6.760991e-01 -6.410921e-04 0.0
6.762810e-01 -5.241195e-04 0.0
6.764949e-01 -4.100306e-04 0.0
6.767338e-01 -2.992886e-04 0.0
6.769901e-01 -1.928621e-04 0.0
6.772546e-01 -9.216412e-05 0.0
6.775141e-01 3.955129e-06 0.0
6.777409e-01 1.158603e-04 0.0
0.000000e+00 1.153123e-04 0.0
0.000000e+00 0.000000e+00 0.0
0.000000e+00 0.000000e+00 0.0
0.000000e+00 0.000000e+00 0.0
0.000000e+00 0.000000e+00 0.0
0.000000e+00 0.000000e+00 0.0
0.000000e+00 0.000000e+00 0.0
0.000000e+00 0.000000e+00 0.0
0.000000e+00 0.000000e+00 0.0
0.000000e+00 0.000000e+00 0.0
0.000000e+00 0.000000e+00 0.0
0.000000e+00 -8.284959e-02 0.0
-1.322757e-02 8.285653e-02 0.0
-5.915257e-03 1.015784e-01 0.0
1.738296e-02 8.344605e-02 0.0
4.901476e-02 6.127351e-02 0.0
8.727566e-02 3.773781e-02 0.0
1.343352e-01 1.116177e-02 0.0
1.935255e-01 -1.867503e-02 0.0
2.630445e-01 -5.110608e-02 0.0
3.399122e-01 -8.691881e-02 0.0
4.217776e-01 -1.260179e-01 0.0
5.056937e-01 -1.677109e-01 0.0
5.881328e-01 -2.108962e-01 0.0
6.654397e-01 -2.538311e-01 0.0
7.343973e-01 -2.941739e-01 0.0
7.924790e-01 -3.293715e-01 0.0
8.381384e-01 -3.569941e-01 0.0
8.710237e-01 -3.750667e-01 0.0
8.918412e-01 -3.823695e-01 0.0
9.019440e-01 -3.784153e-01 0.0
9.039812e-01 -3.640914e-01 0.0
9.010131e-01 -3.415680e-01 0.0
8.953479e-01 -3.130939e-01 0.0
8.887029e-01 -2.809045e-01 0.0
8.822102e-01 -2.468336e-01 0.0
8.765263e-01 -2.123634e-01 0.0
8.719414e-01 -1.786369e-01 0.0
8.685805e-01 -1.466555e-01 0.0
8.663731e-01 -1.169395e-01 0.0
8.651361e-01 -8.977160e-02 0.0
8.646395e-01 -6.528794e-02 0.0
8.646386e-01 -4.351481e-02 0.0
8.648934e-01 -2.441516e-02 0.0
8.651819e-01 -7.924020e-03 0.0
8.653054e-01 6.066552e-03 0.0
8.651329e-01 1.801114e-02 0.0
8.645869e-01 2.825074e-02 0.0
8.636235e-01 3.704694e-02 0.0
8.622218e-01 4.460304e-02 0.0
8.603771e-01 5.107711e-02 0.0
8.580967e-01 5.659147e-02 0.0
8.553961e-01 6.123998e-02 0.0
8.522971e-01 6.509422e-02 0.0
8.488253e-01 6.820889e-02 0.0
8.450087e-01 7.062615e-02 0.0
8.408753e-01 7.237915e-02 0.0
8.364490e-01 7.349323e-02 0.0
8.317382e-01 7.398285e-02 0.0
8.267530e-01 7.384310e-02 0.0
8.215191e-01 7.306169e-02 0.0
8.160710e-01 7.164145e-02 0.0
8.104489e-01 6.960025e-02 0.0
8.046994e-01 6.696754e-02 0.0
7.988740e-01 6.378810e-02 0.0
7.930275e-01 6.012163e-02 0.0
7.872164e-01 5.604177e-02 0.0
7.814968e-01 5.163420e-02 0.0
7.759229e-01 4.699393e-02 0.0
7.705441e-01 4.222207e-02 0.0
7.654036e-01 3.742242e-02 0.0
7.605335e-01 3.269787e-02 0.0
7.559568e-01 2.813835e-02 0.0
7.516887e-01 2.381823e-02 0.0
7.477363e-01 1.979925e-02 0.0
7.440987e-01 1.613002e-02 0.0
7.407694e-01 1.284581e-02 0.0
7.377381e-01 9.968330e-03 0.0
7.349934e-01 7.505419e-03 0.0
7.325232e-01 5.450762e-03 0.0
7.303170e-01 3.785150e-03 0.0
7.283638e-01 2.475650e-03 0.0
7.266492e-01 1.481444e-03 0.0
7.251597e-01 7.557989e-04 0.0
7.238787e-01 2.468055e-04 0.0
7.227866e-01 -9.464170e-05 0.0
7.218576e-01 -3.089205e-04 0.0
7.210718e-01 -4.324877e-04 0.0
7.204151e-01 -4.941260e-04 0.0
7.198755e-01 -5.145836e-04 0.0
7.194426e-01 -5.082595e-04 0.0
7.191068e-01 -4.848199e-04 0.0
7.188593e-01 -4.504817e-04 0.0
7.186920e-01 -4.087271e-04 0.0
7.185968e-01 -3.611591e-04 0.0
7.185656e-01 -3.082369e-04 0.0
7.185902e-01 -2.498796e-04 0.0
7.186616e-01 -1.859315e-04 0.0
7.187699e-01 -1.165099e-04 0.0
7.189043e-01 -4.178242e-05 0.0
7.190524e-01 4.048482e-05 0.0
7.192030e-01 1.500622e-04 0.0
0.000000e+00 1.475334e-04 0.0
0.000000e+00 0.000000e+00 0.0
0.000000e+00 0.000000e+00 0.0
0.000000e+00 0.000000e+00 0.0
0.000000e+00 0.000000e+00 0.0
0.000000e+00 0.000000e+00 0.0
0.000000e+00 0.000000e+00 0.0
0.000000e+00 0.000000e+00 0.0
0.000000e+00 0.000000e+00 0.0
0.000000e+00 0.000000e+00 0.0
0.000000e+00 0.000000e+00 0.0
0.000000e+00 -7.820697e-02 0.0
5.353581e-03 7.821098e-02 0.0
5.297720e-02 5.413945e-02 0.0
1.147598e-01 2.184819e-02 0.0
1.852065e-01 -8.988528e-03 0.0
2.620946e-01 -3.896557e-02 0.0
3.424364e-01 -6.899537e-02 0.0
4.246963e-01 -1.007502e-01 0.0
5.079610e-01 -1.341861e-01 0.0
5.904451e-01 -1.692182e-01 0.0
6.700033e-01 -2.053914e-01 0.0