# vtk DataFile Version 3.0
Vector Field
ASCII
DATASET RECTILINEAR_GRID
DIMENSIONS 102 22 1
X_COORDINATES 102 double
0.000000 0.100000 0.200000 0.300000 0.400000 0.500000 0.600000 0.700000 0.800000 0.900000 1.000000 1.100000 1.200000 1.300000 1.400000 1.500000 1.600000 1.700000 1.800000 1.900000 2.000000 2.100000 2.200000 2.300000 2.400000 2.500000 2.600000 2.700000 2.800000 2.900000 3.000000 3.100000 3.200000 3.300000 3.400000 3.500000 3.600000 3.700000 3.800000 3.900000 4.000000 4.100000 4.200000 4.300000 4.400000 4.500000 4.600000 4.700000 4.800000 4.900000 5.000000 5.100000 5.200000 5.300000 5.400000 5.500000 5.600000 5.700000 5.800000 5.900000 6.000000 6.100000 6.200000 6.300000 6.400000 6.500000 6.600000 6.700000 6.800000 6.900000 7.000000 7.100000 7.200000 7.300000 7.400000 7.500000 7.600000 7.700000 7.800000 7.900000 8.000000 8.100000 8.200000 8.300000 8.400000 8.500000 8.600000 8.700000 8.800000 8.900000 9.000000 9.100000 9.200000 9.300000 9.400000 9.500000 9.600000 9.700000 9.800000 9.900000 10.000000 10.100000 
Y_COORDINATES 22 double
0.000000 0.100000 0.200000 0.300000 0.400000 0.500000 0.600000 0.700000 0.800000 0.900000 1.000000 1.100000 1.200000 1.300000 1.400000 1.500000 1.600000 1.700000 1.800000 1.900000 2.000000 2.100000 
Z_COORDINATES 1 double
0.0
POINT_DATA 2244
VECTORS Velocity double
0.000000e+00 0.000000e+00 0.0
-0.000000e+00 0.000000e+00 0.0
-0.000000e+00 0.000000e+00 0.0
-0.000000e+00 0.000000e+00 0.0
-0.000000e+00 0.000000e+00 0.0
-0.000000e+00 0.000000e+00 0.0
-0.000000e+00 0.000000e+00 0.0
-0.000000e+00 0.000000e+00 0.0
-0.000000e+00 0.000000e+00 0.0
-0.000000e+00 0.000000e+00 0.0
-0.000000e+00 0.000000e+00 0.0
5.191913e-04 0.000000e+00 0.0
4.889032e-03 0.000000e+00 0.0
1.164437e-02 0.000000e+00 0.0
1.959785e-02 0.000000e+00 0.0
2.836045e-02 0.000000e+00 0.0
3.801933e-02 0.000000e+00 0.0
4.885663e-02 0.000000e+00 0.0
6.122061e-02 0.000000e+00 0.0
7.545982e-02 0.000000e+00 0.0
9.184822e-02 0.000000e+00 0.0
1.104760e-01 0.000000e+00 0.0
1.310793e-01 0.000000e+00 0.0
1.528592e-01 0.000000e+00 0.0
1.742501e-01 0.000000e+00 0.0
1.925820e-01 0.000000e+00 0.0
2.044042e-01 0.000000e+00 0.0
2.057870e-01 0.000000e+00 0.0
1.935906e-01 0.000000e+00 0.0
1.668355e-01 0.000000e+00 0.0
1.270514e-01 0.000000e+00 0.0
7.821978e-02 0.000000e+00 0.0
2.313089e-02 0.000000e+00 0.0
-3.164919e-02 0.000000e+00 0.0
-7.872573e-02 0.000000e+00 0.0
-1.160363e-01 0.000000e+00 0.0
-1.437448e-01 0.000000e+00 0.0
-1.629491e-01 0.000000e+00 0.0
-1.750897e-01 0.000000e+00 0.0
-1.816609e-01 0.000000e+00 0.0
-1.840770e-01 0.000000e+00 0.0
-1.836100e-01 0.000000e+00 0.0
-1.810303e-01 0.000000e+00 0.0
-1.768875e-01 0.000000e+00 0.0
-1.717447e-01 0.000000e+00 0.0
-1.660711e-01 0.000000e+00 0.0
-1.602198e-01 0.000000e+00 0.0
-1.544295e-01 0.000000e+00 0.0
-1.488387e-01 0.000000e+00 0.0
-1.435366e-01 0.000000e+00 0.0
-1.385678e-01 0.000000e+00 0.0
-1.339501e-01 0.000000e+00 0.0
-1.296831e-01 0.000000e+00 0.0
-1.257550e-01 0.000000e+00 0.0
-1.221486e-01 0.000000e+00 0.0
-1.188445e-01 0.000000e+00 0.0
-1.158226e-01 0.000000e+00 0.0
-1.130626e-01 0.000000e+00 0.0
-1.105438e-01 0.000000e+00 0.0
-1.082461e-01 0.000000e+00 0.0
-1.061508e-01 0.000000e+00 0.0
-1.042412e-01 0.000000e+00 0.0
-1.025017e-01 0.000000e+00 0.0
-1.009175e-01 0.000000e+00 0.0
-9.947430e-02 0.000000e+00 0.0
-9.815876e-02 0.000000e+00 0.0
-9.695880e-02 0.000000e+00 0.0
-9.586364e-02 0.000000e+00 0.0
-9.486347e-02 0.000000e+00 0.0
-9.394919e-02 0.000000e+00 0.0
-9.311243e-02 0.000000e+00 0.0
-9.234559e-02 0.000000e+00 0.0
-9.164187e-02 0.000000e+00 0.0
-9.099519e-02 0.000000e+00 0.0
-9.040011e-02 0.000000e+00 0.0
-8.985182e-02 0.000000e+00 0.0
-8.934616e-02 0.000000e+00 0.0
-8.887951e-02 0.000000e+00 0.0
-8.844872e-02 0.000000e+00 0.0
-8.805108e-02 0.000000e+00 0.0
-8.768431e-02 0.000000e+00 0.0
-8.734657e-02 0.000000e+00 0.0
-8.703653e-02 0.000000e+00 0.0
-8.675327e-02 0.000000e+00 0.0
-8.649630e-02 0.000000e+00 0.0
-8.626552e-02 0.000000e+00 0.0
-8.606128e-02 0.000000e+00 0.0
-8.588435e-02 0.000000e+00 0.0
-8.573594e-02 0.000000e+00 0.0
-8.561776e-02 0.000000e+00 0.0
-8.553201e-02 0.000000e+00 0.0
-8.548150e-02 0.000000e+00 0.0
-8.546982e-02 0.000000e+00 0.0
-8.550059e-02 0.000000e+00 0.0
-8.557218e-02 0.000000e+00 0.0
-8.567853e-02 0.000000e+00 0.0
-8.581270e-02 0.000000e+00 0.0
-8.596368e-02 0.000000e+00 0.0
-8.610941e-02 0.000000e+00 0.0
-8.620559e-02 0.000000e+00 0.0
-8.620559e-02 0.000000e+00 0.0
0.000000e+00 0.000000e+00 0.0
0.000000e+00 0.000000e+00 0.0
0.000000e+00 0.000000e+00 0.0
0.000000e+00 0.000000e+00 0.0
0.000000e+00 0.000000e+00 0.0
0.000000e+00 0.000000e+00 0.0
0.000000e+00 0.000000e+00 0.0
0.000000e+00 0.000000e+00 0.0
0.000000e+00 0.000000e+00 0.0
0.000000e+00 0.000000e+00 0.0
0.000000e+00 0.000000e+00 0.0
0.000000e+00 -5.228408e-04 0.0
-5.158011e-04 5.259601e-04 0.0
-4.887219e-03 4.376460e-03 0.0
-1.164670e-02 6.761331e-03 0.0
-1.960154e-02 7.957180e-03 0.0
-2.836091e-02 8.765867e-03 0.0
-3.801534e-02 9.664676e-03 0.0
-4.885179e-02 1.084677e-02 0.0
-6.122051e-02 1.237458e-02 0.0
-7.546764e-02 1.424703e-02 0.0
-9.186162e-02 1.639176e-02 0.0
-1.104885e-01 1.862794e-02 0.0
-1.310856e-01 2.060495e-02 0.0
-1.528596e-01 2.178614e-02 0.0
-1.742496e-01 2.140106e-02 0.0
-1.925871e-01 1.834232e-02 0.0
-2.044156e-01 1.182595e-02 0.0
-2.058005e-01 1.378979e-03 0.0
-1.935982e-01 -1.220684e-02 0.0
-1.668301e-01 -2.676605e-02 0.0
-1.270336e-01 -3.979027e-02 0.0
-7.819463e-02 -4.883111e-02 0.0
-2.310366e-02 -5.508433e-02 0.0
3.167210e-02 -5.477184e-02 0.0
7.874247e-02 -4.706898e-02 0.0
1.160479e-01 -3.730537e-02 0.0
1.437534e-01 -2.770503e-02 0.0
1.629574e-01 -1.920093e-02 0.0
1.750997e-01 -1.213539e-02 0.0
1.816719e-01 -6.563009e-03 0.0
1.840860e-01 -2.405826e-03 0.0
1.836143e-01 4.768207e-04 0.0
1.810303e-01 2.586749e-03 0.0
1.768860e-01 4.147061e-03 0.0
1.717448e-01 5.146129e-03 0.0
1.660729e-01 5.678174e-03 0.0
1.602213e-01 5.857137e-03 0.0
1.544294e-01 5.796127e-03 0.0
1.488379e-01 5.595475e-03 0.0
1.435366e-01 5.306199e-03 0.0
1.385692e-01 4.973507e-03 0.0
1.339517e-01 4.623320e-03 0.0
1.296832e-01 4.272689e-03 0.0
1.257537e-01 3.932555e-03 0.0
1.221475e-01 3.609724e-03 0.0
1.188450e-01 3.307529e-03 0.0
1.158247e-01 3.026521e-03 0.0
1.130647e-01 2.765812e-03 0.0
1.105444e-01 2.524508e-03 0.0
1.082455e-01 2.302261e-03 0.0
1.061504e-01 2.098793e-03 0.0
1.042420e-01 1.913199e-03 0.0
1.025035e-01 1.743919e-03 0.0
1.009193e-01 1.589343e-03 0.0
9.947550e-02 1.448341e-03 0.0
9.815946e-02 1.320195e-03 0.0
9.695956e-02 1.204184e-03 0.0
9.586480e-02 1.099345e-03 0.0
9.486500e-02 1.004591e-03 0.0
9.395089e-02 9.189270e-04 0.0
9.311416e-02 8.415154e-04 0.0
9.234730e-02 7.715950e-04 0.0
9.164351e-02 7.084122e-04 0.0
9.099673e-02 6.512512e-04 0.0
9.040162e-02 5.994918e-04 0.0
8.985347e-02 5.525945e-04 0.0
8.934807e-02 5.100180e-04 0.0
8.888169e-02 4.711734e-04 0.0
8.845103e-02 4.354656e-04 0.0
8.805340e-02 4.023758e-04 0.0
8.768659e-02 3.714717e-04 0.0
8.734887e-02 3.423529e-04 0.0
8.703889e-02 3.146078e-04 0.0
8.675573e-02 2.878104e-04 0.0
8.649887e-02 2.615386e-04 0.0
8.626820e-02 2.353700e-04 0.0
8.606406e-02 2.088679e-04 0.0
8.588720e-02 1.815806e-04 0.0
8.573885e-02 1.530499e-04 0.0
8.562072e-02 1.228107e-04 0.0
8.553502e-02 9.036044e-05 0.0
8.548458e-02 5.509782e-05 0.0
8.547298e-02 1.625526e-05 0.0
8.550382e-02 -2.618129e-05 0.0
8.557545e-02 -6.699544e-05 0.0
8.568183e-02 -1.017504e-04 0.0
8.581601e-02 -1.295663e-04 0.0
8.596698e-02 -1.463828e-04 0.0
8.611272e-02 -1.411649e-04 0.0
8.620890e-02 -9.162492e-05 0.0
8.620559e-02 7.865720e-06 0.0
0.000000e+00 7.968753e-06 0.0
0.000000e+00 0.000000e+00 0.0
0.000000e+00 0.000000e+00 0.0
0.000000e+00 0.000000e+00 0.0
0.000000e+00 0.000000e+00 0.0
0.000000e+00 0.000000e+00 0.0
0.000000e+00 0.000000e+00 0.0
0.000000e+00 0.000000e+00 0.0
0.000000e+00 0.000000e+00 0.0
0.000000e+00 0.000000e+00 0.0
0.000000e+00 0.000000e+00 0.0
0.000000e+00 -6.323664e-03 0.0
-5.795181e-03 6.328141e-03 0.0
-1.938327e-02 1.796316e-02 0.0
-3.722812e-02 2.460555e-02 0.0
-5.718564e-02 2.791761e-02 0.0
-7.843929e-02 3.002482e-02 0.0
-1.009009e-01 3.213040e-02 0.0
-1.247076e-01 3.465363e-02 0.0
-1.499421e-01 3.760517e-02 0.0
-1.764595e-01 4.076048e-02 0.0
-2.037393e-01 4.367137e-02 0.0
-2.307719e-01 4.566582e-02 0.0
-2.558923e-01 4.573279e-02 0.0
-2.766835e-01 4.258207e-02 0.0
-2.900330e-01 3.475012e-02 0.0
-2.921645e-01 2.046813e-02 0.0
-2.784554e-01 -1.888745e-03 0.0
-2.460299e-01 -3.104872e-02 0.0
-1.959917e-01 -6.224121e-02 0.0
-1.312219e-01 -9.153017e-02 0.0
-5.427831e-02 -1.167294e-01 0.0
2.979825e-02 -1.329053e-01 0.0
1.103584e-01 -1.356451e-01 0.0
1.818825e-01 -1.262979e-01 0.0
2.443860e-01 -1.095743e-01 0.0
2.970614e-01 -8.998130e-02 0.0
3.397997e-01 -7.044156e-02 0.0
3.731273e-01 -5.252425e-02 0.0
3.979393e-01 -3.694241e-02 0.0
4.153026e-01 -2.392336e-02 0.0
4.263264e-01 -1.342998e-02 0.0
4.320736e-01 -5.272222e-03 0.0
4.338168e-01 8.429346e-04 0.0
4.324342e-01 5.531688e-03 0.0
4.286003e-01 8.983229e-03 0.0
4.229036e-01 1.137688e-02 0.0
4.158330e-01 1.292801e-02 0.0
4.078023e-01 1.382697e-02 0.0
3.991877e-01 1.421149e-02 0.0
3.902970e-01 1.419948e-02 0.0
3.813460e-01 1.392658e-02 0.0
3.724986e-01 1.347117e-02 0.0
3.638730e-01 1.289791e-02 0.0
3.555520e-01 1.225395e-02 0.0
3.475902e-01 1.157356e-02 0.0
3.400201e-01 1.088047e-02 0.0
3.328580e-01 1.019060e-02 0.0
3.261094e-01 9.514859e-03 0.0
3.197723e-01 8.861327e-03 0.0
3.138391e-01 8.236016e-03 0.0
3.082970e-01 7.642752e-03 0.0
3.031291e-01 7.083258e-03 0.0
2.983168e-01 6.557896e-03 0.0
2.938404e-01 6.066562e-03 0.0
2.896803e-01 5.609034e-03 0.0
2.858167e-01 5.184764e-03 0.0
2.822296e-01 4.792622e-03 0.0
2.788994e-01 4.430997e-03 0.0
2.758073e-01 4.098104e-03 0.0
2.729353e-01 3.792178e-03 0.0
2.702665e-01 3.511460e-03 0.0
2.677852e-01 3.254124e-03 0.0
2.654763e-01 3.018308e-03 0.0
2.633264e-01 2.802218e-03 0.0
2.613228e-01 2.604179e-03 0.0
2.594541e-01 2.422567e-03 0.0
2.577098e-01 2.255731e-03 0.0
2.560804e-01 2.102004e-03 0.0
2.545573e-01 1.959800e-03 0.0
2.531331e-01 1.827658e-03 0.0
2.518015e-01 1.704208e-03 0.0
2.505570e-01 1.588093e-03 0.0
2.493949e-01 1.477959e-03 0.0
2.483114e-01 1.372460e-03 0.0
2.473040e-01 1.270262e-03 0.0
2.463706e-01 1.170015e-03 0.0
2.455104e-01 1.070339e-03 0.0
2.447233e-01 9.698243e-04 0.0
2.440105e-01 8.670300e-04 0.0
2.433741e-01 7.604890e-04 0.0
2.428169e-01 6.487096e-04 0.0
2.423430e-01 5.302267e-04 0.0
2.419567e-01 4.037881e-04 0.0
2.416625e-01 2.692209e-04 0.0
2.414672e-01 1.294977e-04 0.0
2.413776e-01 -1.087681e-05 0.0
2.413867e-01 -1.375260e-04 0.0
2.414687e-01 -2.272053e-04 0.0
2.415822e-01 -2.534410e-04 0.0
2.416712e-01 -1.794209e-04 0.0
2.416613e-01 1.900686e-05 0.0
0.000000e+00 1.923946e-05 0.0
0.000000e+00 0.000000e+00 0.0
0.000000e+00 0.000000e+00 0.0
0.000000e+00 0.000000e+00 0.0
0.000000e+00 0.000000e+00 0.0
0.000000e+00 0.000000e+00 0.0
0.000000e+00 0.000000e+00 0.0
0.000000e+00 0.000000e+00 0.0
0.000000e+00 0.000000e+00 0.0
0.000000e+00 0.000000e+00 0.0
0.000000e+00 0.000000e+00 0.0
0.000000e+00 -1.691770e-02 0.0
-1.058804e-02 1.692108e-02 0.0
-3.128089e-02 3.865417e-02 0.0
-5.592593e-02 4.925144e-02 0.0
-8.158410e-02 5.357991e-02 0.0
-1.071557e-01 5.560100e-02 0.0
-1.322808e-01 5.725785e-02 0.0
-1.567315e-01 5.910259e-02 0.0
-1.801597e-01 6.102951e-02 0.0
-2.019681e-01 6.256706e-02 0.0
-2.211728e-01 6.287891e-02 0.0
-2.364404e-01 6.094009e-02 0.0
-2.459681e-01 5.526646e-02 0.0
-2.473189e-01 4.393486e-02 0.0
-2.367262e-01 2.415355e-02 0.0
-2.077890e-01 -8.474526e-03 0.0
-1.601734e-01 -4.950804e-02 0.0
-9.518070e-02 -9.604012e-02 0.0
-1.598206e-02 -1.414344e-01 0.0
7.071157e-02 -1.782190e-01 0.0
1.553751e-01 -2.013895e-01 0.0
2.332699e-01 -2.108001e-01 0.0
3.021139e-01 -2.044909e-01 0.0
3.622919e-01 -1.864778e-01 0.0
4.147339e-01 -1.620172e-01 0.0
4.598766e-01 -1.351228e-01 0.0
4.979593e-01 -1.085209e-01 0.0
5.292806e-01 -8.384064e-02 0.0
5.542625e-01 -6.192044e-02 0.0
5.734280e-01 -4.308821e-02 0.0
5.873601e-01 -2.736400e-02 0.0
5.966731e-01 -1.458651e-02 0.0
6.020088e-01 -4.491425e-03 0.0
6.042725e-01 3.271272e-03 0.0
6.039850e-01 9.273422e-03 0.0
6.016007e-01 1.376191e-02 0.0
5.975172e-01 1.701129e-02 0.0
5.920783e-01 1.926660e-02 0.0
5.855602e-01 2.073204e-02 0.0
5.781744e-01 2.158778e-02 0.0
5.701657e-01 2.193649e-02 0.0
5.617541e-01 2.188227e-02 0.0
5.531146e-01 2.153719e-02 0.0
5.443891e-01 2.098094e-02 0.0
5.356899e-01 2.027574e-02 0.0
5.271043e-01 1.946864e-02 0.0
5.187005e-01 1.859524e-02 0.0
5.105317e-01 1.768333e-02 0.0
5.026380e-01 1.675507e-02 0.0
4.950478e-01 1.582774e-02 0.0
4.877788e-01 1.491411e-02 0.0
4.808406e-01 1.402337e-02 0.0
4.742372e-01 1.316231e-02 0.0
4.679680e-01 1.233626e-02 0.0
4.620286e-01 1.154920e-02 0.0
4.564111e-01 1.080355e-02 0.0
4.511049e-01 1.010033e-02 0.0
4.460977e-01 9.439601e-03 0.0
4.413762e-01 8.820824e-03 0.0
4.369266e-01 8.243031e-03 0.0
4.327345e-01 7.704794e-03 0.0
4.287854e-01 7.204282e-03 0.0
4.250653e-01 6.739438e-03 0.0
4.215604e-01 6.308137e-03 0.0
4.182576e-01 5.908200e-03 0.0
4.151443e-01 5.537314e-03 0.0
4.122084e-01 5.193022e-03 0.0
4.094389e-01 4.872844e-03 0.0
4.068254e-01 4.574391e-03 0.0
4.043588e-01 4.295362e-03 0.0
4.020308e-01 4.033460e-03 0.0
3.998337e-01 3.786361e-03 0.0
3.977612e-01 3.551733e-03 0.0
3.958076e-01 3.327249e-03 0.0
3.939686e-01 3.110561e-03 0.0
3.922406e-01 2.899276e-03 0.0
3.906212e-01 2.690931e-03 0.0
3.891092e-01 2.482989e-03 0.0
3.877046e-01 2.272827e-03 0.0
3.864086e-01 2.057735e-03 0.0
3.852236e-01 1.834959e-03 0.0
3.841532e-01 1.601807e-03 0.0
3.832023e-01 1.355960e-03 0.0
3.823765e-01 1.096238e-03 0.0
3.816831e-01 8.240720e-04 0.0
3.811288e-01 5.446750e-04 0.0
3.807198e-01 2.726137e-04 0.0
3.804585e-01 3.528432e-05 0.0
3.803266e-01 -1.202632e-04 0.0
3.802849e-01 -1.365463e-04 0.0
3.802702e-01 3.487949e-05 0.0
0.000000e+00 3.529986e-05 0.0
0.000000e+00 0.000000e+00 0.0
0.000000e+00 0.000000e+00 0.0
0.000000e+00 0.000000e+00 0.0
0.000000e+00 0.000000e+00 0.0
0.000000e+00 0.000000e+00 0.0
0.000000e+00 0.000000e+00 0.0
0.000000e+00 0.000000e+00 0.0
0.000000e+00 0.000000e+00 0.0
0.000000e+00 0.000000e+00 0.0
0.000000e+00 0.000000e+00 0.0
0.000000e+00 -3.003414e-02 0.0
-1.311156e-02 3.003522e-02 0.0
-3.660615e-02 6.214733e-02 0.0
-6.225090e-02 7.489822e-02 0.0
-8.668904e-02 7.802246e-02 0.0
-1.088384e-01 7.775367e-02 0.0
-1.282827e-01 7.670206e-02 0.0
-1.446817e-01 7.549797e-02 0.0
-1.576011e-01 7.394531e-02 0.0
-1.664816e-01 7.144752e-02 0.0
-1.703658e-01 6.676784e-02 0.0
-1.678764e-01 5.845756e-02 0.0
-1.565878e-01 4.398222e-02 0.0
-1.330691e-01 2.041544e-02 0.0
-8.936616e-02 -1.955463e-02 0.0
-2.649127e-02 -7.135424e-02 0.0
5.202401e-02 -1.280245e-01 0.0
1.368947e-01 -1.809068e-01 0.0
2.212156e-01 -2.257495e-01 0.0
3.004828e-01 -2.574821e-01 0.0
3.722154e-01 -2.731211e-01 0.0
4.337925e-01 -2.723788e-01 0.0
4.857072e-01 -2.564078e-01 0.0
5.301378e-01 -2.309096e-01 0.0
5.685239e-01 -2.004028e-01 0.0
6.016908e-01 -1.682871e-01 0.0
6.300981e-01 -1.369236e-01 0.0
6.540480e-01 -1.077862e-01 0.0
6.738055e-01 -8.167603e-02 0.0
6.896473e-01 -5.893123e-02 0.0
7.018758e-01 -3.959462e-02 0.0
7.108202e-01 -2.353073e-02 0.0
7.168366e-01 -1.050489e-02 0.0
7.203406e-01 -2.291994e-04 0.0
7.218059e-01 7.809644e-03 0.0
7.215599e-01 1.400757e-02 0.0
7.198655e-01 1.870562e-02 0.0
7.169460e-01 2.218792e-02 0.0
7.129923e-01 2.468865e-02 0.0
7.081805e-01 2.640154e-02 0.0
7.026422e-01 2.747471e-02 0.0
6.964875e-01 2.803630e-02 0.0
6.898589e-01 2.816638e-02 0.0
6.828840e-01 2.795844e-02 0.0
6.756701e-01 2.749279e-02 0.0
6.683084e-01 2.683200e-02 0.0
6.608778e-01 2.602564e-02 0.0
6.534466e-01 2.511407e-02 0.0
6.460722e-01 2.413039e-02 0.0
6.388010e-01 2.310122e-02 0.0
6.316699e-01 2.204761e-02 0.0
6.247081e-01 2.098641e-02 0.0
6.179394e-01 1.993154e-02 0.0
6.113817e-01 1.889451e-02 0.0
6.050477e-01 1.788435e-02 0.0
5.989452e-01 1.690759e-02 0.0
5.930782e-01 1.596882e-02 0.0
5.874478e-01 1.507122e-02 0.0
5.820529e-01 1.421689e-02 0.0
5.768903e-01 1.340689e-02 0.0
5.719549e-01 1.264133e-02 0.0
5.672407e-01 1.191957e-02 0.0
5.627406e-01 1.124051e-02 0.0
5.584472e-01 1.060270e-02 0.0
5.543524e-01 1.000434e-02 0.0
5.504480e-01 9.443176e-03 0.0
5.467257e-01 8.916720e-03 0.0
5.431773e-01 8.422385e-03 0.0
5.397952e-01 7.957579e-03 0.0
5.365721e-01 7.519626e-03 0.0
5.335010e-01 7.105719e-03 0.0
5.305756e-01 6.712954e-03 0.0
5.277903e-01 6.338371e-03 0.0
5.251398e-01 5.978949e-03 0.0
5.226201e-01 5.631576e-03 0.0
5.202275e-01 5.293029e-03 0.0
5.179597e-01 4.959943e-03 0.0
5.158151e-01 4.628790e-03 0.0
5.137933e-01 4.295861e-03 0.0
5.118950e-01 3.957256e-03 0.0
5.101223e-01 3.608923e-03 0.0
5.084785e-01 3.246766e-03 0.0
5.069688e-01 2.866925e-03 0.0
5.055999e-01 2.466395e-03 0.0
5.043810e-01 2.044167e-03 0.0
5.033240e-01 1.602914e-03 0.0
5.024448e-01 1.152998e-03 0.0
5.017636e-01 7.176304e-04 0.0
5.013027e-01 3.418218e-04 0.0
5.010687e-01 9.870009e-05 0.0
5.010522e-01 5.256395e-05 0.0
0.000000e+00 5.319849e-05 0.0
0.000000e+00 0.000000e+00 0.0
0.000000e+00 0.000000e+00 0.0
0.000000e+00 0.000000e+00 0.0
0.000000e+00 0.000000e+00 0.0
0.000000e+00 0.000000e+00 0.0
0.000000e+00 0.000000e+00 0.0
0.000000e+00 0.000000e+00 0.0
0.000000e+00 0.000000e+00 0.0
0.000000e+00 0.000000e+00 0.0
0.000000e+00 0.000000e+00 0.0
0.000000e+00 -4.352992e-02 0.0
-1.349274e-02 4.352842e-02 0.0
-3.551543e-02 8.416962e-02 0.0
-5.691712e-02 9.630312e-02 0.0
-7.476023e-02 9.587010e-02 0.0
-8.837256e-02 9.136896e-02 0.0
-9.751536e-02 8.584427e-02 0.0
-1.019279e-01 7.990726e-02 0.0
-1.011163e-01 7.313143e-02 0.0
-9.459147e-02 6.492470e-02 0.0
-8.067389e-02 5.285615e-02 0.0
-5.720181e-02 3.499169e-02 0.0
-1.719583e-02 3.978791e-03 0.0
4.412055e-02 -4.090385e-02 0.0
1.194760e-01 -9.491556e-02 0.0
2.024654e-01 -1.543472e-01 0.0
2.869819e-01 -2.125395e-01 0.0
3.685199e-01 -2.624393e-01 0.0
4.425520e-01 -2.997764e-01 0.0
5.066665e-01 -3.215938e-01 0.0
5.601399e-01 -3.265951e-01 0.0
6.025926e-01 -3.148339e-01 0.0
6.373491e-01 -2.911661e-01 0.0
6.665789e-01 -2.601395e-01 0.0
6.916547e-01 -2.254767e-01 0.0
7.133823e-01 -1.900109e-01 0.0
7.322091e-01 -1.557457e-01 0.0
7.483780e-01 -1.239521e-01 0.0
7.620385e-01 -9.533671e-02 0.0
7.733124e-01 -7.020733e-02 0.0
7.823287e-01 -4.861195e-02 0.0
7.892352e-01 -3.043531e-02 0.0
7.941934e-01 -1.545934e-02 0.0
7.973832e-01 -3.416366e-03 0.0
7.991178e-01 6.075304e-03 0.0
7.996110e-01 1.351378e-02 0.0
7.990305e-01 1.928701e-02 0.0
7.975165e-01 2.370463e-02 0.0
7.951914e-01 2.701638e-02 0.0
7.921681e-01 2.942574e-02 0.0
7.885444e-01 3.109764e-02 0.0
7.844100e-01 3.217033e-02 0.0
7.798241e-01 3.275421e-02 0.0
7.748555e-01 3.293037e-02 0.0
7.695780e-01 3.277277e-02 0.0
7.640584e-01 3.235205e-02 0.0
7.583583e-01 3.172498e-02 0.0
7.525340e-01 3.093854e-02 0.0
7.466346e-01 3.003168e-02 0.0
7.407020e-01 2.903648e-02 0.0
7.347720e-01 2.797944e-02 0.0
7.288761e-01 2.688295e-02 0.0
7.230419e-01 2.576610e-02 0.0
7.172925e-01 2.464485e-02 0.0
7.116463e-01 2.353194e-02 0.0
7.061182e-01 2.243730e-02 0.0
7.007196e-01 2.136868e-02 0.0
6.954599e-01 2.033215e-02 0.0
6.903458e-01 1.933227e-02 0.0
6.853817e-01 1.837215e-02 0.0
6.805705e-01 1.745360e-02 0.0
6.759135e-01 1.657753e-02 0.0
6.714108e-01 1.574420e-02 0.0
6.670617e-01 1.495322e-02 0.0
6.628640e-01 1.420349e-02 0.0
6.588153e-01 1.349333e-02 0.0
6.549124e-01 1.282075e-02 0.0
6.511523e-01 1.218357e-02 0.0
6.475316e-01 1.157943e-02 0.0
6.440467e-01 1.100568e-02 0.0
6.406943e-01 1.045942e-02 0.0
6.374709e-01 9.937612e-03 0.0
6.343734e-01 9.437070e-03 0.0
6.313992e-01 8.954438e-03 0.0
6.285458e-01 8.486186e-03 0.0
6.258115e-01 8.028602e-03 0.0
6.231949e-01 7.577732e-03 0.0
6.206955e-01 7.129337e-03 0.0
6.183137e-01 6.678876e-03 0.0
6.160507e-01 6.221479e-03 0.0
6.139089e-01 5.751952e-03 0.0
6.118921e-01 5.264826e-03 0.0
6.100057e-01 4.754529e-03 0.0
6.082576e-01 4.215756e-03 0.0
6.066588e-01 3.644201e-03 0.0
6.052251e-01 3.037772e-03 0.0
6.039803e-01 2.399095e-03 0.0
6.029597e-01 1.739442e-03 0.0
6.022168e-01 1.085927e-03 0.0
6.018230e-01 4.936725e-04 0.0
6.018072e-01 6.955424e-05 0.0
0.000000e+00 7.039298e-05 0.0
0.000000e+00 0.000000e+00 0.0
0.000000e+00 0.000000e+00 0.0
0.000000e+00 0.000000e+00 0.0
0.000000e+00 0.000000e+00 0.0
0.000000e+00 0.000000e+00 0.0
0.000000e+00 0.000000e+00 0.0
0.000000e+00 0.000000e+00 0.0
0.000000e+00 0.000000e+00 0.0
0.000000e+00 0.000000e+00 0.0
0.000000e+00 0.000000e+00 0.0
0.000000e+00 -5.668075e-02 0.0
-1.314918e-02 5.667739e-02 0.0
-3.055846e-02 1.015805e-01 0.0
-4.353701e-02 1.092859e-01 0.0
-5.077097e-02 1.031080e-01 0.0
-5.226047e-02 9.285976e-02 0.0
-4.807223e-02 8.165382e-02 0.0
-3.798637e-02 6.981799e-02 0.0
-2.060768e-02 5.575168e-02 0.0
5.503645e-03 3.881703e-02 0.0
4.485220e-02 1.351408e-02 0.0
1.027542e-01 -2.290482e-02 0.0
1.756876e-01 -6.895387e-02 0.0
2.581130e-01 -1.233337e-01 0.0
3.448734e-01 -1.816812e-01 0.0
4.298009e-01 -2.392763e-01 0.0
5.078699e-01 -2.906047e-01 0.0
5.760549e-01 -3.306183e-01 0.0
6.325283e-01 -3.562450e-01 0.0
6.769334e-01 -3.659983e-01 0.0
7.097346e-01 -3.593984e-01 0.0
7.341874e-01 -3.392891e-01 0.0
7.530860e-01 -3.100656e-01 0.0
7.683996e-01 -2.754520e-01 0.0
7.813759e-01 -2.384501e-01 0.0
7.927310e-01 -2.013617e-01 0.0
8.028373e-01 -1.658483e-01 0.0
8.118399e-01 -1.329534e-01 0.0
8.197628e-01 -1.032611e-01 0.0
8.265826e-01 -7.702891e-02 0.0
8.322768e-01 -5.430567e-02 0.0
8.368456e-01 -3.500098e-02 0.0
8.402989e-01 -1.890923e-02 0.0
8.426695e-01 -5.785609e-03 0.0
8.440826e-01 4.661815e-03 0.0
8.446535e-01 1.294281e-02 0.0
8.444752e-01 1.946721e-02 0.0
8.436292e-01 2.455353e-02 0.0
8.421911e-01 2.845636e-02 0.0
8.402331e-01 3.138352e-02 0.0
8.378234e-01 3.350656e-02 0.0
8.350256e-01 3.496897e-02 0.0
8.318933e-01 3.588931e-02 0.0
8.284629e-01 3.636398e-02 0.0
8.247690e-01 3.646806e-02 0.0
8.208529e-01 3.626775e-02 0.0
8.167552e-01 3.582213e-02 0.0
8.125143e-01 3.518060e-02 0.0
8.081639e-01 3.438462e-02 0.0
8.037335e-01 3.346922e-02 0.0
7.992496e-01 3.246451e-02 0.0
7.947365e-01 3.139635e-02 0.0
7.902162e-01 3.028695e-02 0.0
7.857076e-01 2.915480e-02 0.0
7.812262e-01 2.801490e-02 0.0
7.767855e-01 2.687939e-02 0.0
7.723972e-01 2.575819e-02 0.0
7.680713e-01 2.465931e-02 0.0
7.638159e-01 2.358891e-02 0.0
7.596378e-01 2.255146e-02 0.0
7.555422e-01 2.155009e-02 0.0
7.515337e-01 2.058695e-02 0.0
7.476158e-01 1.966335e-02 0.0
7.437908e-01 1.877969e-02 0.0
7.400603e-01 1.793548e-02 0.0
7.364252e-01 1.712967e-02 0.0
7.328862e-01 1.636086e-02 0.0
7.294435e-01 1.562736e-02 0.0
7.260970e-01 1.492707e-02 0.0
7.228464e-01 1.425749e-02 0.0
7.196912e-01 1.361588e-02 0.0
7.166308e-01 1.299926e-02 0.0
7.136647e-01 1.240442e-02 0.0
7.107925e-01 1.182788e-02 0.0
7.080140e-01 1.126593e-02 0.0
7.053292e-01 1.071464e-02 0.0
7.027384e-01 1.016972e-02 0.0
7.002425e-01 9.626440e-03 0.0
6.978429e-01 9.079681e-03 0.0
6.955418e-01 8.523836e-03 0.0
6.933422e-01 7.952774e-03 0.0
6.912485e-01 7.359804e-03 0.0
6.892666e-01 6.737684e-03 0.0
6.874049e-01 6.078704e-03 0.0
6.856754e-01 5.374897e-03 0.0
6.840959e-01 4.618416e-03 0.0
6.826939e-01 3.802347e-03 0.0
6.815125e-01 2.922100e-03 0.0
6.806208e-01 1.978868e-03 0.0
6.801228e-01 9.928738e-04 0.0
6.801098e-01 8.380903e-05 0.0
0.000000e+00 8.481505e-05 0.0
0.000000e+00 0.000000e+00 0.0
0.000000e+00 0.000000e+00 0.0
0.000000e+00 0.000000e+00 0.0
0.000000e+00 0.000000e+00 0.0
0.000000e+00 0.000000e+00 0.0
0.000000e+00 0.000000e+00 0.0
0.000000e+00 0.000000e+00 0.0
0.000000e+00 0.000000e+00 0.0
0.000000e+00 0.000000e+00 0.0
0.000000e+00 0.000000e+00 0.0
0.000000e+00 -7.033798e-02 0.0
-1.365670e-02 7.033520e-02 0.0
-2.295890e-02 1.108861e-01 0.0
-2.240468e-02 1.087368e-01 0.0
-1.401330e-02 9.472083e-02 0.0
1.587127e-03 7.726050e-02 0.0
2.452584e-02 5.871290e-02 0.0
5.506606e-02 3.927498e-02 0.0
9.677791e-02 1.403990e-02 0.0
1.545398e-01 -1.894026e-02 0.0
2.265090e-01 -5.844834e-02 0.0
3.083766e-01 -1.047680e-01 0.0
3.958446e-01 -1.564229e-01 0.0
4.834611e-01 -2.109556e-01 0.0
5.662941e-01 -2.645185e-01 0.0
6.399561e-01 -3.129375e-01 0.0
7.014789e-01 -3.521224e-01 0.0
7.496845e-01 -3.788178e-01 0.0
7.847323e-01 -3.912897e-01 0.0
8.076964e-01 -3.889635e-01 0.0
8.213378e-01 -3.730424e-01 0.0
8.291332e-01 -3.470861e-01 0.0
8.335956e-01 -3.145277e-01 0.0
8.364236e-01 -2.782778e-01 0.0
8.386504e-01 -2.406731e-01 0.0
8.408313e-01 -2.035387e-01 0.0
8.432327e-01 -1.682473e-01 0.0
8.458817e-01 -1.356026e-01 0.0
8.486793e-01 -1.060604e-01 0.0
8.514714e-01 -7.982168e-02 0.0
8.541054e-01 -5.693774e-02 0.0
8.564609e-01 -3.735315e-02 0.0
8.584178e-01 -2.086370e-02 0.0
8.598891e-01 -7.256476e-03 0.0
8.608403e-01 3.710186e-03 0.0
8.612834e-01 1.250055e-02 0.0
8.612413e-01 1.951182e-02 0.0
8.607460e-01 2.505136e-02 0.0
8.598363e-01 2.936692e-02 0.0
8.585558e-01 3.266335e-02 0.0
8.569499e-01 3.511230e-02 0.0
8.550624e-01 3.685839e-02 0.0
8.529320e-01 3.802291e-02 0.0
8.505909e-01 3.870741e-02 0.0
8.480623e-01 3.899703e-02 0.0
8.453684e-01 3.896099e-02 0.0
8.425345e-01 3.865636e-02 0.0
8.395847e-01 3.813238e-02 0.0
8.365404e-01 3.743142e-02 0.0
8.334208e-01 3.659059e-02 0.0
8.302431e-01 3.564279e-02 0.0
8.270238e-01 3.461598e-02 0.0
8.237776e-01 3.353414e-02 0.0
8.205168e-01 3.241716e-02 0.0
8.172517e-01 3.128145e-02 0.0
8.139918e-01 3.014058e-02 0.0
8.107454e-01 2.900578e-02 0.0
8.075199e-01 2.788613e-02 0.0
8.043214e-01 2.678864e-02 0.0
8.011553e-01 2.571857e-02 0.0
7.980263e-01 2.467990e-02 0.0
7.949388e-01 2.367555e-02 0.0
7.918962e-01 2.270739e-02 0.0
7.889013e-01 2.177618e-02 0.0
7.859563e-01 2.088185e-02 0.0
7.830632e-01 2.002382e-02 0.0
7.802240e-01 1.920114e-02 0.0
7.774402e-01 1.841236e-02 0.0
7.747129e-01 1.765552e-02 0.0
7.720434e-01 1.692829e-02 0.0
7.694324e-01 1.622808e-02 0.0
7.668809e-01 1.555200e-02 0.0
7.643898e-01 1.489681e-02 0.0
7.619600e-01 1.425897e-02 0.0
7.595924e-01 1.363466e-02 0.0
7.572884e-01 1.301994e-02 0.0
7.550490e-01 1.241025e-02 0.0
7.528761e-01 1.180055e-02 0.0
7.507718e-01 1.118528e-02 0.0
7.487386e-01 1.055827e-02 0.0
7.467800e-01 9.912645e-03 0.0
7.449003e-01 9.240674e-03 0.0
7.431056e-01 8.533629e-03 0.0
7.414040e-01 7.781558e-03 0.0
7.398071e-01 6.972977e-03 0.0
7.383325e-01 6.094327e-03 0.0
7.370069e-01 5.129115e-03 0.0
7.358738e-01 4.056447e-03 0.0
7.350039e-01 2.850016e-03 0.0
7.345083e-01 1.489721e-03 0.0
7.344994e-01 9.400336e-05 0.0
0.000000e+00 9.512709e-05 0.0
0.000000e+00 0.000000e+00 0.0
0.000000e+00 0.000000e+00 0.0
0.000000e+00 0.000000e+00 0.0
0.000000e+00 0.000000e+00 0.0
0.000000e+00 0.000000e+00 0.0
0.000000e+00 0.000000e+00 0.0
0.000000e+00 0.000000e+00 0.0
0.000000e+00 0.000000e+00 0.0
0.000000e+00 0.000000e+00 0.0
0.000000e+00 0.000000e+00 0.0
0.000000e+00 -8.407202e-02 0.0
-1.373307e-02 8.407145e-02 0.0
-5.734654e-03 1.028907e-01 0.0
1.871349e-02 8.429214e-02 0.0
5.185628e-02 6.158064e-02 0.0
9.257127e-02 3.654564e-02 0.0
1.435372e-01 7.744456e-03 0.0
2.077945e-01 -2.498478e-02 0.0
2.828735e-01 -6.103784e-02 0.0
3.653439e-01 -1.014053e-01 0.0
4.524540e-01 -1.455518e-01 0.0
5.402922e-01 -1.926034e-01 0.0
6.246889e-01 -2.408224e-01 0.0
7.014874e-01 -2.877596e-01 0.0
7.673101e-01 -3.303439e-01 0.0
8.198399e-01 -3.654644e-01 0.0
8.581551e-01 -3.904316e-01 0.0
8.827611e-01 -4.034187e-01 0.0
8.951728e-01 -4.037002e-01 0.0
8.977791e-01 -3.915718e-01 0.0
8.943085e-01 -3.695742e-01 0.0
8.875904e-01 -3.403687e-01 0.0
8.796916e-01 -3.066274e-01 0.0
8.719581e-01 -2.705413e-01 0.0
8.651550e-01 -2.338663e-01 0.0
8.596428e-01 -1.980235e-01 0.0
8.555718e-01 -1.641751e-01 0.0
8.528417e-01 -1.328734e-01 0.0
8.512521e-01 -1.044720e-01 0.0
8.505679e-01 -7.913694e-02 0.0
8.505364e-01 -5.690358e-02 0.0
8.508980e-01 -3.771183e-02 0.0
8.514464e-01 -2.141069e-02 0.0
8.520098e-01 -7.819918e-03 0.0
8.524517e-01 3.268489e-03 0.0
8.526839e-01 1.226999e-02 0.0
8.526652e-01 1.953306e-02 0.0
8.523826e-01 2.533566e-02 0.0
8.518417e-01 2.990782e-02 0.0
8.510606e-01 3.344410e-02 0.0
8.500633e-01 3.611050e-02 0.0
8.488755e-01 3.804874e-02 0.0
8.475216e-01 3.937961e-02 0.0
8.460240e-01 4.020636e-02 0.0
8.444030e-01 4.061781e-02 0.0
8.426739e-01 4.068982e-02 0.0
8.408515e-01 4.048000e-02 0.0
8.389500e-01 4.003615e-02 0.0
8.369823e-01 3.940133e-02 0.0
8.349598e-01 3.861412e-02 0.0
8.328942e-01 3.770888e-02 0.0
8.307957e-01 3.671520e-02 0.0
8.286730e-01 3.565814e-02 0.0
8.265331e-01 3.455857e-02 0.0
8.243820e-01 3.343385e-02 0.0
8.222253e-01 3.229849e-02 0.0
8.200679e-01 3.116446e-02 0.0
8.179140e-01 3.004133e-02 0.0
8.157672e-01 2.893653e-02 0.0
8.136309e-01 2.785583e-02 0.0
8.115080e-01 2.680368e-02 0.0
8.094016e-01 2.578336e-02 0.0
8.073136e-01 2.479687e-02 0.0
8.052461e-01 2.384515e-02 0.0
8.032007e-01 2.292839e-02 0.0
8.011793e-01 2.204632e-02 0.0
7.991834e-01 2.119816e-02 0.0
7.972145e-01 2.038250e-02 0.0
7.952737e-01 1.959744e-02 0.0
7.933625e-01 1.884079e-02 0.0
7.914818e-01 1.811002e-02 0.0
7.896329e-01 1.740222e-02 0.0
7.878168e-01 1.671414e-02 0.0
7.860348e-01 1.604219e-02 0.0
7.842882e-01 1.538241e-02 0.0
7.825784e-01 1.473099e-02 0.0
7.809067e-01 1.408315e-02 0.0
7.792749e-01 1.343354e-02 0.0
7.776851e-01 1.277630e-02 0.0
7.761398e-01 1.210485e-02 0.0
7.746420e-01 1.141173e-02 0.0
7.731955e-01 1.068839e-02 0.0
7.718055e-01 9.924896e-03 0.0
7.704789e-01 9.109440e-03 0.0
7.692255e-01 8.227575e-03 0.0
7.680601e-01 7.260908e-03 0.0
7.670057e-01 6.184847e-03 0.0
7.660986e-01 4.964749e-03 0.0
7.653987e-01 3.551153e-03 0.0
7.649997e-01 1.890054e-03 0.0
7.649954e-01 9.951984e-05 0.0
0.000000e+00 1.007094e-04 0.0
0.000000e+00 0.000000e+00 0.0
0.000000e+00 0.000000e+00 0.0
0.000000e+00 0.000000e+00 0.0
0.000000e+00 0.000000e+00 0.0
0.000000e+00 0.000000e+00 0.0
0.000000e+00 0.000000e+00 0.0
0.000000e+00 0.000000e+00 0.0
0.000000e+00 0.000000e+00 0.0
0.000000e+00 0.000000e+00 0.0
0.000000e+00 0.000000e+00 0.0
0.000000e+00 -7.893414e-02 0.0
5.139970e-03 7.893700e-02 0.0
5.413823e-02 5.389637e-02 0.0
1.180364e-01 2.039795e-02 0.0
1.917414e-01 -1.212167e-02 0.0
2.723345e-01 -4.404762e-02 0.0
3.566629e-01 -7.658673e-02 0.0
4.430357e-01 -1.113597e-01 0.0
5.302499e-01 -1.482498e-01 0.0
6.159799e-01 -1.871291e-01 0.0
6.976832e-01 -2.272491e-01 0.0
7.725251e-01 -2.674443e-01 0.0
8.377498e-01 -3.060513e-01 0.0
8.910151e-01 -3.410298e-01 0.0
9.308129e-01 -3.701424e-01 0.0