# vtk DataFile Version 3.0
Vector Field
ASCII
DATASET RECTILINEAR_GRID
DIMENSIONS 102 22 1
X_COORDINATES 102 double
0.000000 0.100000 0.200000 0.300000 0.400000 0.500000 0.600000 0.700000 0.800000 0.900000 1.000000 1.100000 1.200000 1.300000 1.400000 1.500000 1.600000 1.700000 1.800000 1.900000 2.000000 2.100000 2.200000 2.300000 2.400000 2.500000 2.600000 2.700000 2.800000 2.900000 3.000000 3.100000 3.200000 3.300000 3.400000 3.500000 3.600000 3.700000 3.800000 3.900000 4.000000 4.100000 4.200000 4.300000 4.400000 4.500000 4.600000 4.700000 4.800000 4.900000 5.000000 5.100000 5.200000 5.300000 5.400000 5.500000 5.600000 5.700000 5.800000 5.900000 6.000000 6.100000 6.200000 6.300000 6.400000 6.500000 6.600000 6.700000 6.800000 6.900000 7.000000 7.100000 7.200000 7.300000 7.400000 7.500000 7.600000 7.700000 7.800000 7.900000 8.000000 8.100000 8.200000 8.300000 8.400000 8.500000 8.600000 8.700000 8.800000 8.900000 9.000000 9.100000 9.200000 9.300000 9.400000 9.500000 9.600000 9.700000 9.800000 9.900000 10.000000 10.100000 
Y_COORDINATES 22 double
0.000000 0.100000 0.200000 0.300000 0.400000 0.500000 0.600000 0.700000 0.800000 0.900000 1.000000 1.100000 1.200000 1.300000 1.400000 1.500000 1.600000 1.700000 1.800000 1.900000 2.000000 2.100000 
Z_COORDINATES 1 double
0.0
POINT_DATA 2244
VECTORS Velocity double
0.000000e+00 0.000000e+00 0.0
-0.000000e+00 0.000000e+00 0.0
-0.000000e+00 0.000000e+00 0.0
-0.000000e+00 0.000000e+00 0.0
-0.000000e+00 0.000000e+00 0.0
-0.000000e+00 0.000000e+00 0.0
-0.000000e+00 0.000000e+00 0.0
-0.000000e+00 0.000000e+00 0.0
-0.000000e+00 0.000000e+00 0.0
-0.000000e+00 0.000000e+00 0.0
-0.000000e+00 0.000000e+00 0.0
-6.996658e-04 0.000000e+00 0.0
3.907669e-03 0.000000e+00 0.0
1.068677e-02 0.000000e+00 0.0
1.835689e-02 0.000000e+00 0.0
2.649028e-02 0.000000e+00 0.0
3.513088e-02 0.000000e+00 0.0
4.450596e-02 0.000000e+00 0.0
5.490018e-02 0.000000e+00 0.0
6.661084e-02 0.000000e+00 0.0
7.991113e-02 0.000000e+00 0.0
9.498959e-02 0.000000e+00 0.0
1.118397e-01 0.000000e+00 0.0
1.301064e-01 0.000000e+00 0.0
1.489214e-01 0.000000e+00 0.0
1.667465e-01 0.000000e+00 0.0
1.812782e-01 0.000000e+00 0.0
1.893951e-01 0.000000e+00 0.0
1.878376e-01 0.000000e+00 0.0
1.743836e-01 0.000000e+00 0.0
1.483278e-01 0.000000e+00 0.0
1.113786e-01 0.000000e+00 0.0
6.708703e-02 0.000000e+00 0.0
1.778359e-02 0.000000e+00 0.0
-3.015989e-02 0.000000e+00 0.0
-7.079915e-02 0.000000e+00 0.0
-1.025260e-01 0.000000e+00 0.0
-1.255463e-01 0.000000e+00 0.0
-1.408604e-01 0.000000e+00 0.0
-1.497889e-01 0.000000e+00 0.0
-1.537165e-01 0.000000e+00 0.0
-1.538978e-01 0.000000e+00 0.0
-1.509318e-01 0.000000e+00 0.0
-1.457314e-01 0.000000e+00 0.0
-1.391577e-01 0.000000e+00 0.0
-1.319017e-01 0.000000e+00 0.0
-1.244948e-01 0.000000e+00 0.0
-1.172969e-01 0.000000e+00 0.0
-1.105467e-01 0.000000e+00 0.0
-1.043826e-01 0.000000e+00 0.0
-9.887113e-02 0.000000e+00 0.0
-9.403211e-02 0.000000e+00 0.0
-8.985731e-02 0.000000e+00 0.0
-8.632192e-02 0.000000e+00 0.0
-8.339129e-02 0.000000e+00 0.0
-8.102443e-02 0.000000e+00 0.0
-7.917603e-02 0.000000e+00 0.0
-7.779751e-02 0.000000e+00 0.0
-7.683786e-02 0.000000e+00 0.0
-7.624436e-02 0.000000e+00 0.0
-7.596336e-02 0.000000e+00 0.0
-7.594113e-02 0.000000e+00 0.0
-7.612455e-02 0.000000e+00 0.0
-7.646175e-02 0.000000e+00 0.0
-7.690316e-02 0.000000e+00 0.0
-7.740514e-02 0.000000e+00 0.0
-7.794117e-02 0.000000e+00 0.0
-7.849813e-02 0.000000e+00 0.0
-7.906671e-02 0.000000e+00 0.0
-7.963748e-02 0.000000e+00 0.0
-8.019813e-02 0.000000e+00 0.0
-8.073679e-02 0.000000e+00 0.0
-8.124385e-02 0.000000e+00 0.0
-8.171226e-02 0.000000e+00 0.0
-8.213722e-02 0.000000e+00 0.0
-8.251618e-02 0.000000e+00 0.0
-8.284937e-02 0.000000e+00 0.0
-8.313908e-02 0.000000e+00 0.0
-8.338760e-02 0.000000e+00 0.0
-8.359760e-02 0.000000e+00 0.0
-8.377247e-02 0.000000e+00 0.0
-8.391578e-02 0.000000e+00 0.0
-8.403093e-02 0.000000e+00 0.0
-8.412122e-02 0.000000e+00 0.0
-8.418970e-02 0.000000e+00 0.0
-8.423917e-02 0.000000e+00 0.0
-8.427217e-02 0.000000e+00 0.0
-8.429098e-02 0.000000e+00 0.0
-8.429769e-02 0.000000e+00 0.0
-8.429423e-02 0.000000e+00 0.0
-8.428254e-02 0.000000e+00 0.0
-8.426474e-02 0.000000e+00 0.0
-8.424363e-02 0.000000e+00 0.0
-8.422291e-02 0.000000e+00 0.0
-8.420665e-02 0.000000e+00 0.0
-8.419943e-02 0.000000e+00 0.0
-8.420639e-02 0.000000e+00 0.0
-8.423248e-02 0.000000e+00 0.0
-8.428098e-02 0.000000e+00 0.0
-8.435320e-02 0.000000e+00 0.0
-8.435320e-02 0.000000e+00 0.0
0.000000e+00 0.000000e+00 0.0
0.000000e+00 0.000000e+00 0.0
0.000000e+00 0.000000e+00 0.0
0.000000e+00 0.000000e+00 0.0
0.000000e+00 0.000000e+00 0.0
0.000000e+00 0.000000e+00 0.0
0.000000e+00 0.000000e+00 0.0
0.000000e+00 0.000000e+00 0.0
0.000000e+00 0.000000e+00 0.0
0.000000e+00 0.000000e+00 0.0
0.000000e+00 0.000000e+00 0.0
0.000000e+00 -2.038639e-03 0.0
6.861840e-04 2.024208e-03 0.0
-3.916941e-03 6.161600e-03 0.0
-1.069104e-02 8.332571e-03 0.0
-1.835632e-02 9.223762e-03 0.0
-2.648507e-02 9.687219e-03 0.0
-3.512097e-02 1.019438e-02 0.0
-4.449101e-02 1.092851e-02 0.0
-5.487950e-02 1.194697e-02 0.0
-6.658331e-02 1.326229e-02 0.0
-7.987518e-02 1.485035e-02 0.0
-9.494327e-02 1.662656e-02 0.0
-1.117811e-01 1.839629e-02 0.0
-1.300347e-01 1.981204e-02 0.0
-1.488376e-01 2.036141e-02 0.0
-1.666558e-01 1.937671e-02 0.0
-1.811910e-01 1.609361e-02 0.0
-1.893263e-01 9.693788e-03 0.0
-1.878083e-01 4.047254e-05 0.0
-1.744129e-01 -1.183693e-02 0.0
-1.484286e-01 -2.442585e-02 0.0
-1.115532e-01 -3.531691e-02 0.0
-6.732231e-02 -4.267239e-02 0.0
-1.806020e-02 -4.770363e-02 0.0
2.990612e-02 -4.640785e-02 0.0
7.060744e-02 -3.914285e-02 0.0
1.024174e-01 -3.025147e-02 0.0
1.255296e-01 -2.155372e-02 0.0
1.409358e-01 -1.384772e-02 0.0
1.499500e-01 -7.455766e-03 0.0
1.539542e-01 -2.445731e-03 0.0
1.542076e-01 1.305032e-03 0.0
1.513086e-01 4.457495e-03 0.0
1.461608e-01 6.706312e-03 0.0
1.396210e-01 8.098271e-03 0.0
1.323802e-01 8.799220e-03 0.0
1.249701e-01 8.968593e-03 0.0
1.177534e-01 8.775142e-03 0.0
1.109720e-01 8.339846e-03 0.0
1.047676e-01 7.762845e-03 0.0
9.920977e-02 7.116340e-03 0.0
9.432060e-02 6.447633e-03 0.0
9.009359e-02 5.785469e-03 0.0
8.650528e-02 5.146778e-03 0.0
8.352205e-02 4.541690e-03 0.0
8.110390e-02 3.976617e-03 0.0
7.920638e-02 3.455975e-03 0.0
7.778180e-02 2.983045e-03 0.0
7.677993e-02 2.560329e-03 0.0
7.614876e-02 2.189629e-03 0.0
7.583523e-02 1.871996e-03 0.0
7.578599e-02 1.607698e-03 0.0
7.594815e-02 1.396296e-03 0.0
7.626984e-02 1.236772e-03 0.0
7.670111e-02 1.127183e-03 0.0
7.719734e-02 1.062231e-03 0.0
7.773002e-02 1.025777e-03 0.0
7.828527e-02 1.003208e-03 0.0
7.885362e-02 9.900995e-04 0.0
7.942587e-02 9.862130e-04 0.0
7.998991e-02 9.944064e-04 0.0
8.053362e-02 1.014746e-03 0.0
8.104700e-02 1.045076e-03 0.0
8.152264e-02 1.082811e-03 0.0
8.195548e-02 1.125614e-03 0.0
8.234256e-02 1.171374e-03 0.0
8.268345e-02 1.217561e-03 0.0
8.298037e-02 1.261538e-03 0.0
8.323569e-02 1.303130e-03 0.0
8.345198e-02 1.342164e-03 0.0
8.363251e-02 1.377920e-03 0.0
8.378085e-02 1.410103e-03 0.0
8.390046e-02 1.438843e-03 0.0
8.399464e-02 1.464268e-03 0.0
8.406651e-02 1.486588e-03 0.0
8.411889e-02 1.506064e-03 0.0
8.415438e-02 1.522957e-03 0.0
8.417531e-02 1.537517e-03 0.0
8.418381e-02 1.549956e-03 0.0
8.418184e-02 1.560417e-03 0.0
8.417136e-02 1.568929e-03 0.0
8.415452e-02 1.575290e-03 0.0
8.413407e-02 1.578894e-03 0.0
8.411374e-02 1.578774e-03 0.0
8.409763e-02 1.574561e-03 0.0
8.409033e-02 1.565749e-03 0.0
8.409695e-02 1.551826e-03 0.0
8.412247e-02 1.532929e-03 0.0
8.417019e-02 1.510731e-03 0.0
8.424150e-02 1.487134e-03 0.0
8.435320e-02 1.446744e-03 0.0
0.000000e+00 1.461548e-03 0.0
0.000000e+00 0.000000e+00 0.0
0.000000e+00 0.000000e+00 0.0
0.000000e+00 0.000000e+00 0.0
0.000000e+00 0.000000e+00 0.0
0.000000e+00 0.000000e+00 0.0
0.000000e+00 0.000000e+00 0.0
0.000000e+00 0.000000e+00 0.0
0.000000e+00 0.000000e+00 0.0
0.000000e+00 0.000000e+00 0.0
0.000000e+00 0.000000e+00 0.0
0.000000e+00 -7.464890e-03 0.0
-3.867424e-03 7.450107e-03 0.0
-1.675680e-02 1.945753e-02 0.0
-3.377424e-02 2.575658e-02 0.0
-5.252863e-02 2.838470e-02 0.0
-7.204241e-02 2.960757e-02 0.0
-9.215390e-02 3.071242e-02 0.0
-1.130069e-01 3.218803e-02 0.0
-1.347729e-01 3.411957e-02 0.0
-1.575065e-01 3.640242e-02 0.0
-1.810301e-01 3.878052e-02 0.0
-2.048359e-01 4.083893e-02 0.0
-2.279541e-01 4.192105e-02 0.0
-2.488011e-01 4.106559e-02 0.0
-2.650117e-01 3.697856e-02 0.0
-2.738394e-01 2.861099e-02 0.0
-2.721230e-01 1.478375e-02 0.0
-2.554235e-01 -6.599111e-03 0.0
-2.224365e-01 -3.254002e-02 0.0
-1.745364e-01 -5.933048e-02 0.0
-1.140857e-01 -8.446993e-02 0.0
-4.358282e-02 -1.054133e-01 0.0
3.251363e-02 -1.183623e-01 0.0
1.045164e-01 -1.192998e-01 0.0
1.682594e-01 -1.097443e-01 0.0
2.233765e-01 -9.385344e-02 0.0
2.690136e-01 -7.548198e-02 0.0
3.050091e-01 -5.714268e-02 0.0
3.318054e-01 -4.023744e-02 0.0
3.502147e-01 -2.545857e-02 0.0
3.612409e-01 -1.306533e-02 0.0
3.659657e-01 -3.013222e-03 0.0
3.656697e-01 5.160081e-03 0.0
3.612442e-01 1.153829e-02 0.0
3.535698e-01 1.617926e-02 0.0
3.434634e-01 1.931217e-02 0.0
3.316418e-01 2.119675e-02 0.0
3.188370e-01 2.198655e-02 0.0
3.057368e-01 2.184659e-02 0.0
2.928752e-01 2.103097e-02 0.0
2.806504e-01 1.974768e-02 0.0
2.693447e-01 1.815986e-02 0.0
2.591453e-01 1.639148e-02 0.0
2.501617e-01 1.453695e-02 0.0
2.424407e-01 1.266916e-02 0.0
2.359791e-01 1.084481e-02 0.0
2.307337e-01 9.107953e-03 0.0
2.266310e-01 7.492285e-03 0.0
2.235751e-01 6.022742e-03 0.0
2.214548e-01 4.716558e-03 0.0
2.201492e-01 3.584090e-03 0.0
2.195338e-01 2.629626e-03 0.0
2.194843e-01 1.852412e-03 0.0
2.198797e-01 1.247936e-03 0.0
2.206045e-01 8.089037e-04 0.0
2.215505e-01 5.228098e-04 0.0
2.226374e-01 3.453873e-04 0.0
2.238155e-01 2.316843e-04 0.0
2.250450e-01 1.671131e-04 0.0
2.262933e-01 1.444988e-04 0.0
2.275324e-01 1.618864e-04 0.0
2.287374e-01 2.162745e-04 0.0
2.298888e-01 3.002374e-04 0.0
2.309725e-01 4.056563e-04 0.0
2.319792e-01 5.254557e-04 0.0
2.329028e-01 6.543177e-04 0.0
2.337396e-01 7.873767e-04 0.0
2.344915e-01 9.161565e-04 0.0
2.351612e-01 1.040017e-03 0.0
2.357515e-01 1.158388e-03 0.0
2.362675e-01 1.268417e-03 0.0
2.367155e-01 1.368702e-03 0.0
2.371014e-01 1.459516e-03 0.0
2.374313e-01 1.540874e-03 0.0
2.377113e-01 1.613134e-03 0.0
2.379470e-01 1.676914e-03 0.0
2.381437e-01 1.732842e-03 0.0
2.383062e-01 1.781572e-03 0.0
2.384390e-01 1.823677e-03 0.0
2.385464e-01 1.859568e-03 0.0
2.386325e-01 1.889402e-03 0.0
2.387014e-01 1.912927e-03 0.0
2.387577e-01 1.929217e-03 0.0
2.388069e-01 1.936107e-03 0.0
2.388570e-01 1.930934e-03 0.0
2.389174e-01 1.911992e-03 0.0
2.389990e-01 1.876775e-03 0.0
2.391154e-01 1.823048e-03 0.0
2.392823e-01 1.750403e-03 0.0
2.395178e-01 1.658181e-03 0.0
2.398620e-01 1.509038e-03 0.0
0.000000e+00 1.524265e-03 0.0
0.000000e+00 0.000000e+00 0.0
0.000000e+00 0.000000e+00 0.0
0.000000e+00 0.000000e+00 0.0
0.000000e+00 0.000000e+00 0.0
0.000000e+00 0.000000e+00 0.0
0.000000e+00 0.000000e+00 0.0
0.000000e+00 0.000000e+00 0.0
0.000000e+00 0.000000e+00 0.0
0.000000e+00 0.000000e+00 0.0
0.000000e+00 0.000000e+00 0.0
0.000000e+00 -1.724952e-02 0.0
-8.226080e-03 1.723466e-02 0.0
-2.742238e-02 3.906039e-02 0.0
-5.054113e-02 4.928188e-02 0.0
-7.452308e-02 5.277321e-02 0.0
-9.815409e-02 5.364514e-02 0.0
-1.210696e-01 5.403445e-02 0.0
-1.431532e-01 5.467819e-02 0.0
-1.642564e-01 5.562932e-02 0.0
-1.840686e-01 5.662118e-02 0.0
-2.019967e-01 5.711527e-02 0.0
-2.171512e-01 5.639997e-02 0.0
-2.283034e-01 5.347974e-02 0.0
-2.339411e-01 4.710993e-02 0.0
-2.312478e-01 3.469181e-02 0.0
-2.164097e-01 1.417941e-02 0.0
-1.844935e-01 -1.672587e-02 0.0
-1.367207e-01 -5.396543e-02 0.0
-7.428926e-02 -9.456485e-02 0.0
-2.992898e-04 -1.329139e-01 0.0
7.859282e-02 -1.629555e-01 0.0
1.552082e-01 -1.816220e-01 0.0
2.254735e-01 -1.882211e-01 0.0
2.872413e-01 -1.806611e-01 0.0
3.409277e-01 -1.630241e-01 0.0
3.871367e-01 -1.396558e-01 0.0
4.260571e-01 -1.139959e-01 0.0
4.577695e-01 -8.844853e-02 0.0
4.824613e-01 -6.452263e-02 0.0
5.004798e-01 -4.307050e-02 0.0
5.123162e-01 -2.449515e-02 0.0
5.185932e-01 -8.883701e-03 0.0
5.202407e-01 3.919108e-03 0.0
5.179690e-01 1.421655e-02 0.0
5.123607e-01 2.219416e-02 0.0
5.039716e-01 2.810783e-02 0.0
4.933545e-01 3.222039e-02 0.0
4.809892e-01 3.475843e-02 0.0
4.673672e-01 3.587509e-02 0.0
4.531188e-01 3.568596e-02 0.0
4.387885e-01 3.448456e-02 0.0
4.248337e-01 3.252119e-02 0.0
4.116276e-01 3.000412e-02 0.0
3.994601e-01 2.711098e-02 0.0
3.885397e-01 2.399610e-02 0.0
3.789975e-01 2.079364e-02 0.0
3.708935e-01 1.761846e-02 0.0
3.642261e-01 1.456621e-02 0.0
3.589422e-01 1.171326e-02 0.0
3.549482e-01 9.117071e-03 0.0
3.521219e-01 6.816992e-03 0.0
3.503224e-01 4.835659e-03 0.0
3.494004e-01 3.180952e-03 0.0
3.492064e-01 1.848509e-03 0.0
3.495976e-01 8.242229e-04 0.0
3.504422e-01 8.474860e-05 0.0
3.516061e-01 -4.118713e-04 0.0
3.529738e-01 -7.294616e-04 0.0
3.544578e-01 -9.103649e-04 0.0
3.559928e-01 -9.839408e-04 0.0
3.575344e-01 -9.731787e-04 0.0
3.590499e-01 -8.926966e-04 0.0
3.605158e-01 -7.590774e-04 0.0
3.619169e-01 -5.889197e-04 0.0
3.632459e-01 -3.969351e-04 0.0
3.645017e-01 -1.949760e-04 0.0
3.656858e-01 9.885043e-06 0.0
3.667897e-01 2.187801e-04 0.0
3.678088e-01 4.274546e-04 0.0
3.687415e-01 6.322275e-04 0.0
3.695896e-01 8.269007e-04 0.0
3.703576e-01 1.007271e-03 0.0
3.710495e-01 1.174124e-03 0.0
3.716707e-01 1.326204e-03 0.0
3.722271e-01 1.463286e-03 0.0
3.727245e-01 1.586074e-03 0.0
3.731687e-01 1.695195e-03 0.0
3.735653e-01 1.791533e-03 0.0
3.739196e-01 1.875920e-03 0.0
3.742367e-01 1.948998e-03 0.0
3.745216e-01 2.011094e-03 0.0
3.747790e-01 2.062031e-03 0.0
3.750139e-01 2.100895e-03 0.0
3.752310e-01 2.125600e-03 0.0
3.754375e-01 2.130958e-03 0.0
3.756437e-01 2.112336e-03 0.0
3.758627e-01 2.064316e-03 0.0
3.761127e-01 1.979657e-03 0.0
3.764194e-01 1.850212e-03 0.0
3.768192e-01 1.664955e-03 0.0
3.773552e-01 1.379553e-03 0.0
0.000000e+00 1.393362e-03 0.0
0.000000e+00 0.000000e+00 0.0
0.000000e+00 0.000000e+00 0.0
0.000000e+00 0.000000e+00 0.0
0.000000e+00 0.000000e+00 0.0
0.000000e+00 0.000000e+00 0.0
0.000000e+00 0.000000e+00 0.0
0.000000e+00 0.000000e+00 0.0
0.000000e+00 0.000000e+00 0.0
0.000000e+00 0.000000e+00 0.0
0.000000e+00 0.000000e+00 0.0
0.000000e+00 -2.935494e-02 0.0
-1.055059e-02 2.934372e-02 0.0
-3.222507e-02 6.114144e-02 0.0
-5.617137e-02 7.363473e-02 0.0
-7.906944e-02 7.607785e-02 0.0
-9.982314e-02 7.480539e-02 0.0
-1.180647e-01 7.268259e-02 0.0
-1.335745e-01 7.059456e-02 0.0
-1.460750e-01 6.853639e-02 0.0
-1.551889e-01 6.614157e-02 0.0
-1.602288e-01 6.256177e-02 0.0
-1.602206e-01 5.679833e-02 0.0
-1.534316e-01 4.709729e-02 0.0
-1.382016e-01 3.228642e-02 0.0
-1.094424e-01 6.339167e-03 0.0
-6.248370e-02 -3.237269e-02 0.0
4.159435e-04 -7.921895e-02 0.0
7.458648e-02 -1.277294e-01 0.0
1.529246e-01 -1.724964e-01 0.0
2.300467e-01 -2.096295e-01 0.0
3.025182e-01 -2.350204e-01 0.0
3.678887e-01 -2.465860e-01 0.0
4.235509e-01 -2.434768e-01 0.0
4.704048e-01 -2.271084e-01 0.0
5.100605e-01 -2.022733e-01 0.0
5.436247e-01 -1.728135e-01 0.0
5.717097e-01 -1.416743e-01 0.0
5.946294e-01 -1.109617e-01 0.0
6.125878e-01 -8.207451e-02 0.0
6.257968e-01 -5.587294e-02 0.0
6.345378e-01 -3.282957e-02 0.0
6.392046e-01 -1.314394e-02 0.0
6.403336e-01 3.196598e-03 0.0
6.384386e-01 1.651813e-02 0.0
6.338836e-01 2.715576e-02 0.0
6.269959e-01 3.540204e-02 0.0
6.181069e-01 4.151598e-02 0.0
6.075464e-01 4.572543e-02 0.0
5.956056e-01 4.822242e-02 0.0
5.825833e-01 4.911489e-02 0.0
5.689371e-01 4.853728e-02 0.0
5.550947e-01 4.677013e-02 0.0
5.414519e-01 4.405353e-02 0.0
5.283607e-01 4.060872e-02 0.0
5.161183e-01 3.664503e-02 0.0
5.049585e-01 3.235996e-02 0.0
4.950476e-01 2.793600e-02 0.0
4.864840e-01 2.353634e-02 0.0
4.793031e-01 1.930071e-02 0.0
4.734844e-01 1.534237e-02 0.0
4.689612e-01 1.174670e-02 0.0
4.656322e-01 8.571232e-03 0.0
4.633729e-01 5.846835e-03 0.0
4.620479e-01 3.580035e-03 0.0
4.615230e-01 1.755697e-03 0.0
4.616729e-01 3.413961e-04 0.0
4.623499e-01 -6.823326e-04 0.0
4.633927e-01 -1.365705e-03 0.0
4.646759e-01 -1.787002e-03 0.0
4.661025e-01 -2.004020e-03 0.0
4.676040e-01 -2.068104e-03 0.0
4.691350e-01 -2.017140e-03 0.0
4.706612e-01 -1.878784e-03 0.0
4.721578e-01 -1.678940e-03 0.0
4.736071e-01 -1.439622e-03 0.0
4.749965e-01 -1.177909e-03 0.0
4.763186e-01 -9.056068e-04 0.0
4.775744e-01 -6.304833e-04 0.0
4.787688e-01 -3.604059e-04 0.0
4.799092e-01 -1.015638e-04 0.0
4.809952e-01 1.473750e-04 0.0
4.820201e-01 3.889978e-04 0.0
4.829795e-01 6.212193e-04 0.0
4.838738e-01 8.384573e-04 0.0
4.847054e-01 1.038214e-03 0.0
4.854771e-01 1.220968e-03 0.0
4.861926e-01 1.386210e-03 0.0
4.868562e-01 1.534528e-03 0.0
4.874721e-01 1.666622e-03 0.0
4.880446e-01 1.783041e-03 0.0
4.885781e-01 1.884144e-03 0.0
4.890769e-01 1.969769e-03 0.0
4.895453e-01 2.038993e-03 0.0
4.899878e-01 2.089719e-03 0.0
4.904076e-01 2.117629e-03 0.0
4.908130e-01 2.113538e-03 0.0
4.912151e-01 2.068719e-03 0.0
4.916311e-01 1.970253e-03 0.0
4.920882e-01 1.799664e-03 0.0
4.926282e-01 1.531533e-03 0.0
4.932823e-01 1.131929e-03 0.0
0.000000e+00 1.143464e-03 0.0
0.000000e+00 0.000000e+00 0.0
0.000000e+00 0.000000e+00 0.0
0.000000e+00 0.000000e+00 0.0
0.000000e+00 0.000000e+00 0.0
0.000000e+00 0.000000e+00 0.0
0.000000e+00 0.000000e+00 0.0
0.000000e+00 0.000000e+00 0.0
0.000000e+00 0.000000e+00 0.0
0.000000e+00 0.000000e+00 0.0
0.000000e+00 0.000000e+00 0.0
0.000000e+00 -4.194991e-02 0.0
-1.104474e-02 4.194693e-02 0.0
-3.143768e-02 8.194094e-02 0.0
-5.143960e-02 9.404322e-02 0.0
-6.825122e-02 9.329602e-02 0.0
-8.124628e-02 8.820701e-02 0.0
-9.024200e-02 8.208487e-02 0.0
-9.510362e-02 7.586273e-02 0.0
-9.546483e-02 6.930415e-02 0.0
-9.097560e-02 6.205890e-02 0.0
-8.053871e-02 5.253143e-02 0.0
-6.277721e-02 3.944339e-02 0.0
-3.379016e-02 1.851680e-02 0.0
1.335544e-02 -1.445261e-02 0.0
7.632570e-02 -5.622454e-02 0.0
1.494126e-01 -1.050531e-01 0.0
2.274636e-01 -1.568634e-01 0.0
3.060185e-01 -2.058777e-01 0.0
3.810319e-01 -2.471032e-01 0.0
4.489397e-01 -2.771308e-01 0.0
5.078518e-01 -2.935259e-01 0.0
5.568336e-01 -2.951612e-01 0.0
5.958553e-01 -2.820919e-01 0.0
6.276321e-01 -2.584787e-01 0.0
6.539352e-01 -2.281698e-01 0.0
6.758696e-01 -1.943413e-01 0.0
6.940506e-01 -1.594488e-01 0.0
7.087795e-01 -1.252840e-01 0.0
7.201988e-01 -9.308723e-02 0.0
7.284105e-01 -6.367806e-02 0.0
7.335524e-01 -3.756495e-02 0.0
7.358523e-01 -1.503722e-02 0.0
7.356427e-01 3.812692e-03 0.0
7.332262e-01 1.934116e-02 0.0
7.288228e-01 3.196575e-02 0.0
7.226310e-01 4.200039e-02 0.0
7.148554e-01 4.969815e-02 0.0
7.057109e-01 5.527647e-02 0.0
6.954100e-01 5.892987e-02 0.0
6.841096e-01 6.082189e-02 0.0
6.720335e-01 6.101994e-02 0.0
6.594833e-01 5.972690e-02 0.0
6.467738e-01 5.716954e-02 0.0
6.342141e-01 5.357496e-02 0.0
6.220915e-01 4.917419e-02 0.0
6.106586e-01 4.419951e-02 0.0
6.001225e-01 3.887858e-02 0.0
5.906390e-01 3.342643e-02 0.0
5.823092e-01 2.803703e-02 0.0
5.751819e-01 2.287627e-02 0.0
5.692575e-01 1.807761e-02 0.0
5.644957e-01 1.373961e-02 0.0
5.608238e-01 9.925287e-03 0.0
5.581471e-01 6.663278e-03 0.0
5.563587e-01 3.950695e-03 0.0
5.553469e-01 1.759701e-03 0.0
5.550150e-01 5.617106e-05 0.0
5.552278e-01 -1.172026e-03 0.0
5.558378e-01 -1.990391e-03 0.0
5.567272e-01 -2.486902e-03 0.0
5.578017e-01 -2.736025e-03 0.0
5.589966e-01 -2.805447e-03 0.0
5.602665e-01 -2.742179e-03 0.0
5.615762e-01 -2.582069e-03 0.0
5.628985e-01 -2.355413e-03 0.0
5.642134e-01 -2.086237e-03 0.0
5.655071e-01 -1.792767e-03 0.0
5.667717e-01 -1.488537e-03 0.0
5.680016e-01 -1.183772e-03 0.0
5.691918e-01 -8.851682e-04 0.0
5.703413e-01 -5.955623e-04 0.0
5.714546e-01 -3.177109e-04 0.0
5.725376e-01 -5.526075e-05 0.0
5.735885e-01 1.941299e-04 0.0
5.746010e-01 4.322349e-04 0.0
5.755708e-01 6.576998e-04 0.0
5.764973e-01 8.662832e-04 0.0
5.773808e-01 1.057602e-03 0.0
5.782223e-01 1.231619e-03 0.0
5.790238e-01 1.388077e-03 0.0
5.797875e-01 1.527043e-03 0.0
5.805157e-01 1.648119e-03 0.0
5.812110e-01 1.750223e-03 0.0
5.818761e-01 1.831216e-03 0.0
5.825132e-01 1.887046e-03 0.0
5.831243e-01 1.909010e-03 0.0
5.837161e-01 1.883453e-03 0.0
5.842996e-01 1.793266e-03 0.0
5.848944e-01 1.611447e-03 0.0
5.855316e-01 1.300875e-03 0.0
5.862207e-01 8.493743e-04 0.0
0.000000e+00 8.586686e-04 0.0
0.000000e+00 0.000000e+00 0.0
0.000000e+00 0.000000e+00 0.0
0.000000e+00 0.000000e+00 0.0
0.000000e+00 0.000000e+00 0.0
0.000000e+00 0.000000e+00 0.0
0.000000e+00 0.000000e+00 0.0
0.000000e+00 0.000000e+00 0.0
0.000000e+00 0.000000e+00 0.0
0.000000e+00 0.000000e+00 0.0
0.000000e+00 0.000000e+00 0.0
0.000000e+00 -5.457979e-02 0.0
-1.108062e-02 5.458603e-02 0.0
-2.739596e-02 9.866283e-02 0.0
-3.954006e-02 1.065939e-01 0.0
-4.631506e-02 1.004776e-01 0.0
-4.788106e-02 9.017957e-02 0.0
-4.436640e-02 7.897677e-02 0.0
-3.580913e-02 6.771202e-02 0.0
-2.113033e-02 5.503191e-02 0.0
7.366778e-04 4.059846e-02 0.0
3.261833e-02 2.105634e-02 0.0
7.924977e-02 -6.781485e-03 0.0
1.409913e-01 -4.281817e-02 0.0
2.133962e-01 -8.645099e-02 0.0
2.927852e-01 -1.352069e-01 0.0
3.741311e-01 -1.859924e-01 0.0
4.524811e-01 -2.348068e-01 0.0
5.241524e-01 -2.771425e-01 0.0
5.867051e-01 -3.092494e-01 0.0
6.387244e-01 -3.287435e-01 0.0
6.799415e-01 -3.343365e-01 0.0
7.105343e-01 -3.253474e-01 0.0
7.335421e-01 -3.046931e-01 0.0
7.513423e-01 -2.758723e-01 0.0
7.655698e-01 -2.419908e-01 0.0
7.772347e-01 -2.055996e-01 0.0
7.868705e-01 -1.686781e-01 0.0
7.946875e-01 -1.326944e-01 0.0
8.007115e-01 -9.870467e-02 0.0
8.049037e-01 -6.746374e-02 0.0
8.072349e-01 -3.948957e-02 0.0
8.077485e-01 -1.514424e-02 0.0
8.065819e-01 5.385784e-03 0.0
8.038329e-01 2.249672e-02 0.0
7.995992e-01 3.660601e-02 0.0
7.939931e-01 4.801311e-02 0.0
7.871465e-01 5.695126e-02 0.0
7.792084e-01 6.362113e-02 0.0
7.703344e-01 6.821048e-02 0.0
7.606668e-01 7.089604e-02 0.0
7.502851e-01 7.180816e-02 0.0
7.393773e-01 7.104126e-02 0.0
7.281589e-01 6.879452e-02 0.0
7.168606e-01 6.527978e-02 0.0
7.057145e-01 6.072684e-02 0.0
6.949399e-01 5.538063e-02 0.0
6.847318e-01 4.949329e-02 0.0
6.752515e-01 4.331326e-02 0.0
6.666221e-01 3.707303e-02 0.0
6.589266e-01 3.097823e-02 0.0
6.522095e-01 2.520126e-02 0.0
6.464789e-01 1.987684e-02 0.0
6.417113e-01 1.509945e-02 0.0
6.378579e-01 1.092321e-02 0.0
6.348505e-01 7.364585e-03 0.0
6.326074e-01 4.409386e-03 0.0
6.310438e-01 2.026366e-03 0.0
6.300989e-01 1.794076e-04 0.0
6.296805e-01 -1.165461e-03 0.0
6.296698e-01 -2.069686e-03 0.0
6.299704e-01 -2.630037e-03 0.0
6.304984e-01 -2.926907e-03 0.0
6.311960e-01 -3.033178e-03 0.0
6.320215e-01 -3.001019e-03 0.0
6.329413e-01 -2.868673e-03 0.0
6.339285e-01 -2.666897e-03 0.0
6.349619e-01 -2.419651e-03 0.0
6.360249e-01 -2.144906e-03 0.0
6.371035e-01 -1.855902e-03 0.0
6.381870e-01 -1.562098e-03 0.0
6.392682e-01 -1.270140e-03 0.0
6.403422e-01 -9.852025e-04 0.0
6.414043e-01 -7.107963e-04 0.0
6.424527e-01 -4.477765e-04 0.0
6.434892e-01 -1.976362e-04 0.0
6.445155e-01 3.789416e-05 0.0
6.455270e-01 2.613928e-04 0.0
6.465182e-01 4.728878e-04 0.0
6.474857e-01 6.707472e-04 0.0
6.484275e-01 8.527849e-04 0.0
6.493425e-01 1.018573e-03 0.0
6.502301e-01 1.167144e-03 0.0
6.510898e-01 1.296993e-03 0.0
6.519218e-01 1.405848e-03 0.0
6.527256e-01 1.489716e-03 0.0
6.534997e-01 1.541457e-03 0.0
6.542433e-01 1.546406e-03 0.0
6.549585e-01 1.484678e-03 0.0
6.556509e-01 1.325623e-03 0.0
6.563302e-01 1.028122e-03 0.0
6.569821e-01 6.040193e-04 0.0
0.000000e+00 6.116547e-04 0.0
0.000000e+00 0.000000e+00 0.0
0.000000e+00 0.000000e+00 0.0
0.000000e+00 0.000000e+00 0.0
0.000000e+00 0.000000e+00 0.0
0.000000e+00 0.000000e+00 0.0
0.000000e+00 0.000000e+00 0.0
0.000000e+00 0.000000e+00 0.0
0.000000e+00 0.000000e+00 0.0
0.000000e+00 0.000000e+00 0.0
0.000000e+00 0.000000e+00 0.0
0.000000e+00 -6.816885e-02 0.0
-1.203574e-02 6.818025e-02 0.0
-2.100666e-02 1.080403e-01 0.0
-2.031500e-02 1.063088e-01 0.0
-1.211233e-02 9.268148e-02 0.0
2.592654e-03 7.588114e-02 0.0
2.378865e-02 5.818733e-02 0.0
5.124105e-02 4.066618e-02 0.0
8.759758e-02 1.908193e-02 0.0
1.370535e-01 -8.450879e-03 0.0
1.998276e-01 -4.131127e-02 0.0
2.728229e-01 -7.937023e-02 0.0
3.527414e-01 -1.223300e-01 0.0
4.354313e-01 -1.687343e-01 0.0
5.167250e-01 -2.160941e-01 0.0
5.925304e-01 -2.613912e-01 0.0
6.594362e-01 -3.013061e-01 0.0
7.153229e-01 -3.326226e-01 0.0
7.593711e-01 -3.528911e-01 0.0
7.917622e-01 -3.607281e-01 0.0
8.132787e-01 -3.554464e-01 0.0
8.267554e-01 -3.384175e-01 0.0
8.350278e-01 -3.125589e-01 0.0
8.401984e-01 -2.806363e-01 0.0
8.437053e-01 -2.450912e-01 0.0
8.464117e-01 -2.078994e-01 0.0
8.487332e-01 -1.705930e-01 0.0
8.507677e-01 -1.343224e-01 0.0
8.524180e-01 -9.994835e-02 0.0
8.535133e-01 -6.815257e-02 0.0
8.538585e-01 -3.942819e-02 0.0
8.533069e-01 -1.418610e-02 0.0
8.517801e-01 7.319197e-03 0.0
8.491905e-01 2.549288e-02 0.0
8.455202e-01 4.068284e-02 0.0
8.408025e-01 5.313739e-02 0.0
8.351079e-01 6.305241e-02 0.0
8.285339e-01 7.060171e-02 0.0
8.211943e-01 7.595660e-02 0.0
8.131996e-01 7.929730e-02 0.0
8.046278e-01 8.078652e-02 0.0
7.955605e-01 8.051508e-02 0.0
7.861355e-01 7.862606e-02 0.0
7.765172e-01 7.530467e-02 0.0
7.668797e-01 7.077091e-02 0.0
7.573951e-01 6.527180e-02 0.0
7.482235e-01 5.907144e-02 0.0
7.395045e-01 5.243882e-02 0.0
7.313514e-01 4.563266e-02 0.0
7.238510e-01 3.888520e-02 0.0
7.170629e-01 3.239589e-02 0.0
7.110201e-01 2.632615e-02 0.0
7.057308e-01 2.079531e-02 0.0
7.011812e-01 1.587942e-02 0.0
6.973387e-01 1.161358e-02 0.0
6.941562e-01 7.998455e-03 0.0
6.915784e-01 5.010722e-03 0.0
6.895520e-01 2.612352e-03 0.0
6.880375e-01 7.556017e-04 0.0
6.869944e-01 -6.200164e-04 0.0
6.863450e-01 -1.574131e-03 0.0
6.860165e-01 -2.191849e-03 0.0
6.859452e-01 -2.555251e-03 0.0
6.860811e-01 -2.730446e-03 0.0
6.863897e-01 -2.770650e-03 0.0
6.868413e-01 -2.711927e-03 0.0
6.874109e-01 -2.582694e-03 0.0
6.880769e-01 -2.404399e-03 0.0
6.888206e-01 -2.193014e-03 0.0
6.896257e-01 -1.960658e-03 0.0
6.904787e-01 -1.716599e-03 0.0
6.913680e-01 -1.468011e-03 0.0
6.922839e-01 -1.220135e-03 0.0
6.932193e-01 -9.765744e-04 0.0
6.941685e-01 -7.402801e-04 0.0
6.951260e-01 -5.130323e-04 0.0
6.960891e-01 -2.951771e-04 0.0
6.970567e-01 -8.815927e-05 0.0
6.980264e-01 1.075587e-04 0.0
6.989930e-01 2.927272e-04 0.0
6.999515e-01 4.666109e-04 0.0
7.008979e-01 6.273430e-04 0.0
7.018287e-01 7.727456e-04 0.0
7.027405e-01 9.005636e-04 0.0
7.036298e-01 1.007013e-03 0.0
7.044920e-01 1.085770e-03 0.0
7.053193e-01 1.125721e-03 0.0
7.061040e-01 1.106470e-03 0.0
7.068365e-01 9.996555e-04 0.0
7.075022e-01 7.689678e-04 0.0
7.080693e-01 4.435603e-04 0.0
0.000000e+00 4.502928e-04 0.0
0.000000e+00 0.000000e+00 0.0
0.000000e+00 0.000000e+00 0.0
0.000000e+00 0.000000e+00 0.0
0.000000e+00 0.000000e+00 0.0
0.000000e+00 0.000000e+00 0.0
0.000000e+00 0.000000e+00 0.0
0.000000e+00 0.000000e+00 0.0
0.000000e+00 0.000000e+00 0.0
0.000000e+00 0.000000e+00 0.0
0.000000e+00 0.000000e+00 0.0
0.000000e+00 -8.219879e-02 0.0
-1.247048e-02 8.220921e-02 0.0
-4.973129e-03 1.009495e-01 0.0
1.863578e-02 8.310642e-02 0.0
5.055713e-02 6.116669e-02 0.0
8.890745e-02 3.793738e-02 0.0
1.356806e-01 1.182072e-02 0.0
1.941565e-01 -1.740318e-02 0.0
2.626594e-01 -4.901442e-02 0.0
3.383365e-01 -8.372141e-02 0.0
4.189546e-01 -1.215228e-01 0.0
5.017851e-01 -1.617942e-01 0.0
5.834568e-01 -2.035951e-01 0.0
6.604761e-01 -2.453471e-01 0.0
7.296841e-01 -2.848956e-01 0.0
7.885174e-01 -3.198180e-01 0.0
8.353241e-01 -3.477062e-01 0.0
8.696033e-01 -3.664952e-01 0.0
8.919095e-01 -3.747907e-01 0.0
9.034679e-01 -3.718800e-01 0.0
9.067219e-01 -3.582938e-01 0.0
9.048002e-01 -3.360893e-01 0.0
9.000938e-01 -3.074459e-01 0.0
8.943425e-01 -2.744784e-01 0.0
8.887282e-01 -2.390704e-01 0.0
8.839200e-01 -2.026847e-01 0.0
8.801913e-01 -1.664577e-01 0.0
8.775239e-01 -1.312485e-01 0.0
8.757094e-01 -9.772729e-02 0.0
8.744744e-01 -6.651102e-02 0.0
8.734768e-01 -3.802405e-02 0.0
8.724011e-01 -1.270382e-02 0.0
8.709537e-01 9.173205e-03 0.0
8.689105e-01 2.794257e-02 0.0
8.661569e-01 4.384299e-02 0.0
8.626505e-01 5.705040e-02 0.0
8.584000e-01 6.770947e-02 0.0
8.534511e-01 7.595717e-02 0.0
8.478799e-01 8.193430e-02 0.0
8.417670e-01 8.581681e-02 0.0
8.351806e-01 8.777940e-02 0.0
8.281607e-01 8.794155e-02 0.0
8.207895e-01 8.640384e-02 0.0
8.131768e-01 8.332397e-02 0.0
8.054459e-01 7.890832e-02 0.0
7.977238e-01 7.340043e-02 0.0
7.901327e-01 6.706912e-02 0.0
7.827820e-01 6.019613e-02 0.0
7.757606e-01 5.306057e-02 0.0
7.691416e-01 4.591081e-02 0.0
7.629814e-01 3.896258e-02 0.0
7.573194e-01 3.239476e-02 0.0
7.521775e-01 2.634372e-02 0.0
7.475623e-01 2.090121e-02 0.0
7.434661e-01 1.611630e-02 0.0
7.398699e-01 1.200121e-02 0.0
7.367473e-01 8.539894e-03 0.0
7.340700e-01 5.696253e-03 0.0
7.318124e-01 3.419727e-03 0.0
7.299496e-01 1.649271e-03 0.0
7.284660e-01 3.160425e-04 0.0
7.273322e-01 -6.514607e-04 0.0
7.265039e-01 -1.320423e-03 0.0
7.259384e-01 -1.758372e-03 0.0
7.255978e-01 -2.023546e-03 0.0
7.254538e-01 -2.161368e-03 0.0
7.254830e-01 -2.205251e-03 0.0
7.256637e-01 -2.178564e-03 0.0
7.259759e-01 -2.098673e-03 0.0
7.264011e-01 -1.979318e-03 0.0
7.269224e-01 -1.831391e-03 0.0
7.275247e-01 -1.663729e-03 0.0
7.281945e-01 -1.483366e-03 0.0
7.289203e-01 -1.295801e-03 0.0
7.296919e-01 -1.105350e-03 0.0
7.305006e-01 -9.151501e-04 0.0
7.313394e-01 -7.275038e-04 0.0
7.322023e-01 -5.444554e-04 0.0
7.330835e-01 -3.670765e-04 0.0
7.339788e-01 -1.960832e-04 0.0
7.348849e-01 -3.286214e-05 0.0
7.357968e-01 1.219194e-04 0.0
7.367087e-01 2.674183e-04 0.0
7.376141e-01 4.016986e-04 0.0
7.385062e-01 5.214881e-04 0.0
7.393769e-01 6.216533e-04 0.0
7.402150e-01 6.941633e-04 0.0
7.410036e-01 7.243717e-04 0.0
7.417199e-01 6.899198e-04 0.0
7.423296e-01 5.658506e-04 0.0
7.427938e-01 3.858914e-04 0.0
0.000000e+00 3.923961e-04 0.0
0.000000e+00 0.000000e+00 0.0
0.000000e+00 0.000000e+00 0.0
0.000000e+00 0.000000e+00 0.0
0.000000e+00 0.000000e+00 0.0
0.000000e+00 0.000000e+00 0.0
0.000000e+00 0.000000e+00 0.0
0.000000e+00 0.000000e+00 0.0
0.000000e+00 0.000000e+00 0.0
0.000000e+00 0.000000e+00 0.0
0.000000e+00 0.000000e+00 0.0
0.000000e+00 -7.783985e-02 0.0
5.922117e-03 7.784556e-02 0.0
5.339709e-02 5.388110e-02 0.0
1.150940e-01 2.181610e-02 0.0
1.853372e-01 -8.669970e-03 0.0
2.618687e-01 -3.818760e-02 0.0
3.417000e-01 -6.760396e-02 0.0
4.232989e-01 -9.859554e-02 0.0
5.058137e-01 -1.311226e-01 0.0
5.875989e-01 -1.651001e-01 0.0
6.666242e-01 -2.001415e-01 0.0
7.407078e-01 -2.354712e-01 0.0
8.075424e-01 -2.700231e-01 0.0