# vtk DataFile Version 3.0
Vector Field
ASCII
DATASET RECTILINEAR_GRID
DIMENSIONS 102 22 1
X_COORDINATES 102 double
0.000000 0.100000 0.200000 0.300000 0.400000 0.500000 0.600000 0.700000 0.800000 0.900000 1.000000 1.100000 1.200000 1.300000 1.400000 1.500000 1.600000 1.700000 1.800000 1.900000 2.000000 2.100000 2.200000 2.300000 2.400000 2.500000 2.600000 2.700000 2.800000 2.900000 3.000000 3.100000 3.200000 3.300000 3.400000 3.500000 3.600000 3.700000 3.800000 3.900000 4.000000 4.100000 4.200000 4.300000 4.400000 4.500000 4.600000 4.700000 4.800000 4.900000 5.000000 5.100000 5.200000 5.300000 5.400000 5.500000 5.600000 5.700000 5.800000 5.900000 6.000000 6.100000 6.200000 6.300000 6.400000 6.500000 6.600000 6.700000 6.800000 6.900000 7.000000 7.100000 7.200000 7.300000 7.400000 7.500000 7.600000 7.700000 7.800000 7.900000 8.000000 8.100000 8.200000 8.300000 8.400000 8.500000 8.600000 8.700000 8.800000 8.900000 9.000000 9.100000 9.200000 9.300000 9.400000 9.500000 9.600000 9.700000 9.800000 9.900000 10.000000 10.100000 
Y_COORDINATES 22 double
0.000000 0.100000 0.200000 0.300000 0.400000 0.500000 0.600000 0.700000 0.800000 0.900000 1.000000 1.100000 1.200000 1.300000 1.400000 1.500000 1.600000 1.700000 1.800000 1.900000 2.000000 2.100000 
Z_COORDINATES 1 double
0.0
POINT_DATA 2244
VECTORS Velocity double
0.000000e+00 0.000000e+00 0.0
-0.000000e+00 0.000000e+00 0.0
-0.000000e+00 0.000000e+00 0.0
-0.000000e+00 0.000000e+00 0.0
-0.000000e+00 0.000000e+00 0.0
-0.000000e+00 0.000000e+00 0.0
-0.000000e+00 0.000000e+00 0.0
-0.000000e+00 0.000000e+00 0.0
-0.000000e+00 0.000000e+00 0.0
-0.000000e+00 0.000000e+00 0.0
-0.000000e+00 0.000000e+00 0.0
5.295188e-04 0.000000e+00 0.0
4.902786e-03 0.000000e+00 0.0
1.167265e-02 0.000000e+00 0.0
1.965749e-02 0.000000e+00 0.0
2.847142e-02 0.000000e+00 0.0
3.820161e-02 0.000000e+00 0.0
4.913050e-02 0.000000e+00 0.0
6.160920e-02 0.000000e+00 0.0
7.599022e-02 0.000000e+00 0.0
9.254771e-02 0.000000e+00 0.0
1.113629e-01 0.000000e+00 0.0
1.321524e-01 0.000000e+00 0.0
1.540862e-01 0.000000e+00 0.0
1.755509e-01 0.000000e+00 0.0
1.938221e-01 0.000000e+00 0.0
2.053748e-01 0.000000e+00 0.0
2.062350e-01 0.000000e+00 0.0
1.933165e-01 0.000000e+00 0.0
1.657089e-01 0.000000e+00 0.0
1.251565e-01 0.000000e+00 0.0
7.574009e-02 0.000000e+00 0.0
2.016345e-02 0.000000e+00 0.0
-3.458486e-02 0.000000e+00 0.0
-8.137435e-02 0.000000e+00 0.0
-1.182949e-01 0.000000e+00 0.0
-1.455943e-01 0.000000e+00 0.0
-1.644145e-01 0.000000e+00 0.0
-1.762172e-01 0.000000e+00 0.0
-1.825053e-01 0.000000e+00 0.0
-1.846963e-01 0.000000e+00 0.0
-1.840631e-01 0.000000e+00 0.0
-1.813423e-01 0.000000e+00 0.0
-1.770892e-01 0.000000e+00 0.0
-1.718670e-01 0.000000e+00 0.0
-1.661395e-01 0.000000e+00 0.0
-1.602545e-01 0.000000e+00 0.0
-1.544434e-01 0.000000e+00 0.0
-1.488424e-01 0.000000e+00 0.0
-1.435374e-01 0.000000e+00 0.0
-1.385702e-01 0.000000e+00 0.0
-1.339564e-01 0.000000e+00 0.0
-1.296947e-01 0.000000e+00 0.0
-1.257734e-01 0.000000e+00 0.0
-1.221753e-01 0.000000e+00 0.0
-1.188803e-01 0.000000e+00 0.0
-1.158673e-01 0.000000e+00 0.0
-1.131155e-01 0.000000e+00 0.0
-1.106045e-01 0.000000e+00 0.0
-1.083149e-01 0.000000e+00 0.0
-1.062285e-01 0.000000e+00 0.0
-1.043279e-01 0.000000e+00 0.0
-1.025970e-01 0.000000e+00 0.0
-1.010207e-01 0.000000e+00 0.0
-9.958509e-02 0.000000e+00 0.0
-9.827720e-02 0.000000e+00 0.0
-9.708511e-02 0.000000e+00 0.0
-9.599785e-02 0.000000e+00 0.0
-9.500541e-02 0.000000e+00 0.0
-9.409863e-02 0.000000e+00 0.0
-9.326923e-02 0.000000e+00 0.0
-9.250971e-02 0.000000e+00 0.0
-9.181331e-02 0.000000e+00 0.0
-9.117396e-02 0.000000e+00 0.0
-9.058628e-02 0.000000e+00 0.0
-9.004546e-02 0.000000e+00 0.0
-8.954730e-02 0.000000e+00 0.0
-8.908812e-02 0.000000e+00 0.0
-8.866474e-02 0.000000e+00 0.0
-8.827449e-02 0.000000e+00 0.0
-8.791512e-02 0.000000e+00 0.0
-8.758486e-02 0.000000e+00 0.0
-8.728232e-02 0.000000e+00 0.0
-8.700656e-02 0.000000e+00 0.0
-8.675704e-02 0.000000e+00 0.0
-8.653364e-02 0.000000e+00 0.0
-8.633667e-02 0.000000e+00 0.0
-8.616685e-02 0.000000e+00 0.0
-8.602538e-02 0.000000e+00 0.0
-8.591392e-02 0.000000e+00 0.0
-8.583470e-02 0.000000e+00 0.0
-8.579063e-02 0.000000e+00 0.0
-8.578549e-02 0.000000e+00 0.0
-8.582170e-02 0.000000e+00 0.0
-8.589726e-02 0.000000e+00 0.0
-8.600565e-02 0.000000e+00 0.0
-8.614115e-02 0.000000e+00 0.0
-8.629240e-02 0.000000e+00 0.0
-8.643808e-02 0.000000e+00 0.0
-8.653479e-02 0.000000e+00 0.0
-8.653479e-02 0.000000e+00 0.0
0.000000e+00 0.000000e+00 0.0
0.000000e+00 0.000000e+00 0.0
0.000000e+00 0.000000e+00 0.0
0.000000e+00 0.000000e+00 0.0
0.000000e+00 0.000000e+00 0.0
0.000000e+00 0.000000e+00 0.0
0.000000e+00 0.000000e+00 0.0
0.000000e+00 0.000000e+00 0.0
0.000000e+00 0.000000e+00 0.0
0.000000e+00 0.000000e+00 0.0
0.000000e+00 0.000000e+00 0.0
0.000000e+00 -5.112963e-04 0.0
-5.096279e-04 5.251703e-04 0.0
-4.892580e-03 4.384118e-03 0.0
-1.167854e-02 6.776199e-03 0.0
-1.967056e-02 7.980921e-03 0.0
-2.847821e-02 8.804274e-03 0.0
-3.819693e-02 9.723631e-03 0.0
-4.912034e-02 1.093008e-02 0.0
-6.160316e-02 1.248472e-02 0.0
-7.599260e-02 1.438554e-02 0.0
-9.255505e-02 1.655669e-02 0.0
-1.113686e-01 1.881055e-02 0.0
-1.321527e-01 2.078530e-02 0.0
-1.540824e-01 2.193313e-02 0.0
-1.755470e-01 2.146709e-02 0.0
-1.938211e-01 1.827424e-02 0.0
-2.053768e-01 1.155400e-02 0.0
-2.062377e-01 8.591751e-04 0.0
-1.933178e-01 -1.292048e-02 0.0
-1.657082e-01 -2.760904e-02 0.0
-1.251548e-01 -4.055259e-02 0.0
-7.573862e-02 -4.941586e-02 0.0
-2.016273e-02 -5.557610e-02 0.0
3.458504e-02 -5.474819e-02 0.0
8.137460e-02 -4.678972e-02 0.0
1.182955e-01 -3.692075e-02 0.0
1.455950e-01 -2.729930e-02 0.0
1.644150e-01 -1.881991e-02 0.0
1.762173e-01 -1.180246e-02 0.0
1.825052e-01 -6.288020e-03 0.0
1.846964e-01 -2.191109e-03 0.0
1.840633e-01 6.331503e-04 0.0
1.813425e-01 2.720941e-03 0.0
1.770892e-01 4.253311e-03 0.0
1.718670e-01 5.222234e-03 0.0
1.661395e-01 5.727512e-03 0.0
1.602544e-01 5.885035e-03 0.0
1.544434e-01 5.811082e-03 0.0
1.488424e-01 5.601004e-03 0.0
1.435374e-01 5.305029e-03 0.0
1.385702e-01 4.967225e-03 0.0
1.339564e-01 4.613780e-03 0.0
1.296947e-01 4.261736e-03 0.0
1.257734e-01 3.921293e-03 0.0
1.221753e-01 3.598134e-03 0.0
1.188803e-01 3.295032e-03 0.0
1.158673e-01 3.012957e-03 0.0
1.131155e-01 2.751832e-03 0.0
1.106045e-01 2.511012e-03 0.0
1.083149e-01 2.289576e-03 0.0
1.062285e-01 2.086478e-03 0.0
1.043279e-01 1.900627e-03 0.0
1.025970e-01 1.730923e-03 0.0
1.010207e-01 1.576274e-03 0.0
9.958509e-02 1.435612e-03 0.0
9.827721e-02 1.307892e-03 0.0
9.708512e-02 1.192102e-03 0.0
9.599786e-02 1.087268e-03 0.0
9.500542e-02 9.924586e-04 0.0
9.409864e-02 9.067852e-04 0.0
9.326925e-02 8.294075e-04 0.0
9.250973e-02 7.595323e-04 0.0
9.181332e-02 6.964144e-04 0.0
9.117398e-02 6.393542e-04 0.0
9.058630e-02 5.876966e-04 0.0
9.004548e-02 5.408279e-04 0.0
8.954732e-02 4.981737e-04 0.0
8.908814e-02 4.591952e-04 0.0
8.866476e-02 4.233854e-04 0.0
8.827451e-02 3.902647e-04 0.0
8.791515e-02 3.593758e-04 0.0
8.758488e-02 3.302797e-04 0.0
8.728234e-02 3.025508e-04 0.0
8.700658e-02 2.757719e-04 0.0
8.675706e-02 2.495295e-04 0.0
8.653367e-02 2.234086e-04 0.0
8.633669e-02 1.969868e-04 0.0
8.616688e-02 1.698299e-04 0.0
8.602541e-02 1.414856e-04 0.0
8.591395e-02 1.114712e-04 0.0
8.583472e-02 7.923625e-05 0.0
8.579066e-02 4.407769e-05 0.0
8.578552e-02 5.155767e-06 0.0
8.582173e-02 -3.620305e-05 0.0
8.589729e-02 -7.554510e-05 0.0
8.600568e-02 -1.083786e-04 0.0
8.614118e-02 -1.354817e-04 0.0
8.629243e-02 -1.512417e-04 0.0
8.643811e-02 -1.456623e-04 0.0
8.653482e-02 -9.669990e-05 0.0
8.653479e-02 4.413444e-08 0.0
0.000000e+00 4.482166e-08 0.0
0.000000e+00 0.000000e+00 0.0
0.000000e+00 0.000000e+00 0.0
0.000000e+00 0.000000e+00 0.0
0.000000e+00 0.000000e+00 0.0
0.000000e+00 0.000000e+00 0.0
0.000000e+00 0.000000e+00 0.0
0.000000e+00 0.000000e+00 0.0
0.000000e+00 0.000000e+00 0.0
0.000000e+00 0.000000e+00 0.0
0.000000e+00 0.000000e+00 0.0
0.000000e+00 -6.333972e-03 0.0
-5.812822e-03 6.345101e-03 0.0
-1.945125e-02 1.801344e-02 0.0
-3.736915e-02 2.468685e-02 0.0
-5.742047e-02 2.803354e-02 0.0
-7.879069e-02 3.018198e-02 0.0
-1.013940e-01 3.233345e-02 0.0
-1.253660e-01 3.490259e-02 0.0
-1.507814e-01 3.789582e-02 0.0
-1.774811e-01 4.108078e-02 0.0
-2.049230e-01 4.399781e-02 0.0
-2.320700e-01 4.596026e-02 0.0
-2.572175e-01 4.593617e-02 0.0
-2.779014e-01 4.261838e-02 0.0
-2.909776e-01 3.454214e-02 0.0
-2.926208e-01 1.991519e-02 0.0
-2.781053e-01 -2.962902e-03 0.0
-2.447645e-01 -3.248157e-02 0.0
-1.938282e-01 -6.385573e-02 0.0
-1.281943e-01 -9.324204e-02 0.0
-5.051542e-02 -1.182314e-01 0.0
3.407110e-02 -1.340028e-01 0.0
1.145204e-01 -1.360259e-01 0.0
1.858558e-01 -1.260836e-01 0.0
2.480644e-01 -1.089981e-01 0.0
3.003764e-01 -8.923253e-02 0.0
3.427214e-01 -6.964423e-02 0.0
3.756538e-01 -5.175247e-02 0.0
4.000886e-01 -3.623738e-02 0.0
4.171060e-01 -2.330542e-02 0.0
4.278217e-01 -1.290666e-02 0.0
4.332979e-01 -4.842965e-03 0.0
4.348351e-01 1.183691e-03 0.0
4.332685e-01 5.819887e-03 0.0
4.292793e-01 9.211388e-03 0.0
4.234550e-01 1.155177e-02 0.0
4.162794e-01 1.306072e-02 0.0
4.081670e-01 1.392349e-02 0.0
3.994909e-01 1.427713e-02 0.0
3.905536e-01 1.424229e-02 0.0
3.815696e-01 1.395125e-02 0.0
3.727007e-01 1.348270e-02 0.0
3.640624e-01 1.290004e-02 0.0
3.557347e-01 1.224900e-02 0.0
3.477702e-01 1.156258e-02 0.0
3.402010e-01 1.086422e-02 0.0
3.330437e-01 1.017027e-02 0.0
3.263035e-01 9.492019e-03 0.0
3.199774e-01 8.837134e-03 0.0
3.140563e-01 8.210729e-03 0.0
3.085267e-01 7.616071e-03 0.0
3.033722e-01 7.055067e-03 0.0
2.985746e-01 6.528597e-03 0.0
2.941141e-01 6.036767e-03 0.0
2.899706e-01 5.579094e-03 0.0
2.861239e-01 5.154647e-03 0.0
2.825538e-01 4.762167e-03 0.0
2.792409e-01 4.400156e-03 0.0
2.761664e-01 4.066952e-03 0.0
2.733124e-01 3.760791e-03 0.0
2.706620e-01 3.479854e-03 0.0
2.681992e-01 3.222303e-03 0.0
2.659093e-01 2.986312e-03 0.0
2.637786e-01 2.770081e-03 0.0
2.617944e-01 2.571862e-03 0.0
2.599453e-01 2.389955e-03 0.0
2.582207e-01 2.222727e-03 0.0
2.566113e-01 2.068601e-03 0.0
2.551087e-01 1.926063e-03 0.0
2.537053e-01 1.793652e-03 0.0
2.523947e-01 1.669957e-03 0.0
2.511714e-01 1.553603e-03 0.0
2.500307e-01 1.443247e-03 0.0
2.489689e-01 1.337565e-03 0.0
2.479832e-01 1.235239e-03 0.0
2.470717e-01 1.134942e-03 0.0
2.462333e-01 1.035327e-03 0.0
2.454682e-01 9.350117e-04 0.0
2.447771e-01 8.325732e-04 0.0
2.441620e-01 7.265446e-04 0.0
2.436258e-01 6.154230e-04 0.0
2.431722e-01 4.977147e-04 0.0
2.428051e-01 3.722180e-04 0.0
2.425296e-01 2.393207e-04 0.0
2.423524e-01 1.016444e-04 0.0
2.422807e-01 -3.666233e-05 0.0
2.423046e-01 -1.594024e-04 0.0
2.423977e-01 -2.443380e-04 0.0
2.425207e-01 -2.686701e-04 0.0
2.426185e-01 -1.944056e-04 0.0
2.426184e-01 1.326512e-07 0.0
0.000000e+00 1.342838e-07 0.0
0.000000e+00 0.000000e+00 0.0
0.000000e+00 0.000000e+00 0.0
0.000000e+00 0.000000e+00 0.0
0.000000e+00 0.000000e+00 0.0
0.000000e+00 0.000000e+00 0.0
0.000000e+00 0.000000e+00 0.0
0.000000e+00 0.000000e+00 0.0
0.000000e+00 0.000000e+00 0.0
0.000000e+00 0.000000e+00 0.0
0.000000e+00 0.000000e+00 0.0
0.000000e+00 -1.696258e-02 0.0
-1.062266e-02 1.696922e-02 0.0
-3.138360e-02 3.876542e-02 0.0
-5.611185e-02 4.941304e-02 0.0
-8.186412e-02 5.379186e-02 0.0
-1.075391e-01 5.586491e-02 0.0
-1.327737e-01 5.757125e-02 0.0
-1.573304e-01 5.945629e-02 0.0
-1.808482e-01 6.140848e-02 0.0
-2.027136e-01 6.294361e-02 0.0
-2.219241e-01 6.320968e-02 0.0
-2.371297e-01 6.116939e-02 0.0
-2.465070e-01 5.531591e-02 0.0
-2.475549e-01 4.366610e-02 0.0
-2.364401e-01 2.342534e-02 0.0
-2.066701e-01 -9.856577e-03 0.0
-1.581971e-01 -5.143630e-02 0.0
-9.233370e-02 -9.834408e-02 0.0
-1.238135e-02 -1.438070e-01 0.0
7.462131e-02 -1.802444e-01 0.0
1.593432e-01 -2.029537e-01 0.0
2.370624e-01 -2.117226e-01 0.0
3.056207e-01 -2.045845e-01 0.0
3.655533e-01 -1.860160e-01 0.0
4.177689e-01 -1.612134e-01 0.0
4.626797e-01 -1.341432e-01 0.0
5.005199e-01 -1.074845e-01 0.0
5.315932e-01 -8.282597e-02 0.0
5.563303e-01 -6.097458e-02 0.0
5.752617e-01 -4.223667e-02 0.0
5.889738e-01 -2.661861e-02 0.0
5.980813e-01 -1.395051e-02 0.0
6.032268e-01 -3.961857e-03 0.0
6.053406e-01 3.706103e-03 0.0
6.049253e-01 9.626622e-03 0.0
6.024310e-01 1.404615e-02 0.0
5.982531e-01 1.723860e-02 0.0
5.927306e-01 1.944600e-02 0.0
5.861357e-01 2.087206e-02 0.0
5.786858e-01 2.169220e-02 0.0
5.706266e-01 2.201044e-02 0.0
5.621760e-01 2.193331e-02 0.0
5.535063e-01 2.156972e-02 0.0
5.447572e-01 2.099809e-02 0.0
5.360402e-01 2.027964e-02 0.0
5.274429e-01 1.946144e-02 0.0
5.190338e-01 1.857943e-02 0.0
5.108647e-01 1.766112e-02 0.0
5.029741e-01 1.672771e-02 0.0
4.953892e-01 1.579561e-02 0.0
4.881279e-01 1.487741e-02 0.0
4.812002e-01 1.398274e-02 0.0
4.746101e-01 1.311874e-02 0.0
4.683563e-01 1.229054e-02 0.0
4.624338e-01 1.150164e-02 0.0
4.568342e-01 1.075421e-02 0.0
4.515471e-01 1.004929e-02 0.0
4.465602e-01 9.387062e-03 0.0
4.418601e-01 8.767010e-03 0.0
4.374329e-01 8.188062e-03 0.0
4.332640e-01 7.648726e-03 0.0
4.293391e-01 7.147197e-03 0.0
4.256440e-01 6.681440e-03 0.0
4.221648e-01 6.249266e-03 0.0
4.188883e-01 5.848379e-03 0.0
4.158018e-01 5.476430e-03 0.0
4.128935e-01 5.131041e-03 0.0
4.101523e-01 4.809834e-03 0.0
4.075679e-01 4.510442e-03 0.0
4.051310e-01 4.230515e-03 0.0
4.028333e-01 3.967727e-03 0.0
4.006671e-01 3.719765e-03 0.0
3.986260e-01 3.484330e-03 0.0
3.967045e-01 3.259119e-03 0.0
3.948979e-01 3.041811e-03 0.0
3.932028e-01 2.830052e-03 0.0
3.916167e-01 2.621428e-03 0.0
3.901383e-01 2.413444e-03 0.0
3.887673e-01 2.203515e-03 0.0
3.875049e-01 1.988973e-03 0.0
3.863532e-01 1.767100e-03 0.0
3.853157e-01 1.535255e-03 0.0
3.843967e-01 1.291217e-03 0.0
3.836020e-01 1.034064e-03 0.0
3.829385e-01 7.651496e-04 0.0
3.824122e-01 4.895675e-04 0.0
3.820305e-01 2.223723e-04 0.0
3.817962e-01 -1.010121e-05 0.0
3.816870e-01 -1.594850e-04 0.0
3.816639e-01 -1.712776e-04 0.0
3.816638e-01 2.548317e-07 0.0
0.000000e+00 2.577640e-07 0.0
0.000000e+00 0.000000e+00 0.0
0.000000e+00 0.000000e+00 0.0
0.000000e+00 0.000000e+00 0.0
0.000000e+00 0.000000e+00 0.0
0.000000e+00 0.000000e+00 0.0
0.000000e+00 0.000000e+00 0.0
0.000000e+00 0.000000e+00 0.0
0.000000e+00 0.000000e+00 0.0
0.000000e+00 0.000000e+00 0.0
0.000000e+00 0.000000e+00 0.0
0.000000e+00 -3.010664e-02 0.0
-1.314300e-02 3.010906e-02 0.0
-3.668814e-02 6.230411e-02 0.0
-6.238391e-02 7.511088e-02 0.0
-8.686936e-02 7.828479e-02 0.0
-1.090586e-01 7.805996e-02 0.0
-1.285295e-01 7.704195e-02 0.0
-1.449331e-01 7.585514e-02 0.0
-1.578264e-01 7.429737e-02 0.0
-1.666420e-01 7.175861e-02 0.0
-1.704101e-01 6.698060e-02 0.0
-1.677242e-01 5.848684e-02 0.0
-1.561430e-01 4.373559e-02 0.0
-1.320801e-01 1.960178e-02 0.0
-8.755758e-02 -2.109931e-02 0.0
-2.390066e-02 -7.351458e-02 0.0
5.516641e-02 -1.305029e-01 0.0
1.403309e-01 -1.835074e-01 0.0
2.246957e-01 -2.281710e-01 0.0
3.038666e-01 -2.594153e-01 0.0
3.753345e-01 -2.744223e-01 0.0
4.364719e-01 -2.728605e-01 0.0
4.881130e-01 -2.562255e-01 0.0
5.323494e-01 -2.302520e-01 0.0
5.705796e-01 -1.994434e-01 0.0
6.036053e-01 -1.671690e-01 0.0
6.318747e-01 -1.357542e-01 0.0
6.556879e-01 -1.066393e-01 0.0
6.753115e-01 -8.059808e-02 0.0
6.910240e-01 -5.794897e-02 0.0
7.031281e-01 -3.872268e-02 0.0
7.119530e-01 -2.277541e-02 0.0
7.178580e-01 -9.866916e-03 0.0
7.212677e-01 2.963564e-04 0.0
7.226525e-01 8.241826e-03 0.0
7.223366e-01 1.436214e-02 0.0
7.205799e-01 1.899526e-02 0.0
7.176035e-01 2.242245e-02 0.0
7.135991e-01 2.487644e-02 0.0
7.087420e-01 2.654930e-02 0.0
7.031626e-01 2.758987e-02 0.0
6.969732e-01 2.812269e-02 0.0
6.903156e-01 2.822732e-02 0.0
6.833159e-01 2.799774e-02 0.0
6.760821e-01 2.751348e-02 0.0
6.687063e-01 2.683726e-02 0.0
6.612672e-01 2.601854e-02 0.0
6.538315e-01 2.509684e-02 0.0
6.464551e-01 2.410411e-02 0.0
6.391842e-01 2.306644e-02 0.0
6.320565e-01 2.200516e-02 0.0
6.251017e-01 2.093756e-02 0.0
6.183429e-01 1.987754e-02 0.0
6.117973e-01 1.883612e-02 0.0
6.054771e-01 1.782188e-02 0.0
5.993900e-01 1.684129e-02 0.0
5.935402e-01 1.589906e-02 0.0
5.879289e-01 1.499842e-02 0.0
5.825546e-01 1.414133e-02 0.0
5.774139e-01 1.332874e-02 0.0
5.725019e-01 1.256075e-02 0.0
5.678123e-01 1.183675e-02 0.0
5.633382e-01 1.115561e-02 0.0
5.590717e-01 1.051574e-02 0.0
5.550049e-01 9.915211e-03 0.0
5.511294e-01 9.351848e-03 0.0
5.474372e-01 8.823265e-03 0.0
5.439201e-01 8.326931e-03 0.0
5.405704e-01 7.860200e-03 0.0
5.373806e-01 7.420342e-03 0.0
5.343437e-01 7.004553e-03 0.0
5.314535e-01 6.609969e-03 0.0
5.287042e-01 6.233663e-03 0.0
5.260907e-01 5.872638e-03 0.0
5.236087e-01 5.523821e-03 0.0
5.212547e-01 5.184036e-03 0.0
5.190261e-01 4.849982e-03 0.0
5.169214e-01 4.518192e-03 0.0
5.149399e-01 4.185021e-03 0.0
5.130822e-01 3.846647e-03 0.0
5.113502e-01 3.499104e-03 0.0
5.097471e-01 3.138406e-03 0.0
5.082775e-01 2.760837e-03 0.0
5.069479e-01 2.363598e-03 0.0
5.057673e-01 1.945779e-03 0.0
5.047468e-01 1.510130e-03 0.0
5.039019e-01 1.067224e-03 0.0
5.032518e-01 6.400026e-04 0.0
5.028184e-01 2.739130e-04 0.0
5.026067e-01 4.039907e-05 0.0
5.026066e-01 3.833024e-07 0.0
0.000000e+00 3.876652e-07 0.0
0.000000e+00 0.000000e+00 0.0
0.000000e+00 0.000000e+00 0.0
0.000000e+00 0.000000e+00 0.0
0.000000e+00 0.000000e+00 0.0
0.000000e+00 0.000000e+00 0.0
0.000000e+00 0.000000e+00 0.0
0.000000e+00 0.000000e+00 0.0
0.000000e+00 0.000000e+00 0.0
0.000000e+00 0.000000e+00 0.0
0.000000e+00 0.000000e+00 0.0
0.000000e+00 -4.361082e-02 0.0
-1.350733e-02 4.360970e-02 0.0
-3.554341e-02 8.433702e-02 0.0
-5.694927e-02 9.652216e-02 0.0
-7.478262e-02 9.612615e-02 0.0
-8.837055e-02 9.165159e-02 0.0
-9.746835e-02 8.613715e-02 0.0
-1.018068e-01 8.018835e-02 0.0
-1.008871e-01 7.337487e-02 0.0
-9.421278e-02 6.508579e-02 0.0
-8.007873e-02 5.285031e-02 0.0
-5.624234e-02 3.465310e-02 0.0
-1.558352e-02 3.076618e-03 0.0
4.636433e-02 -4.234822e-02 0.0
1.222137e-01 -9.695062e-02 0.0
2.055143e-01 -1.568155e-01 0.0
2.901715e-01 -2.151589e-01 0.0
3.716224e-01 -2.649571e-01 0.0
4.453875e-01 -3.019358e-01 0.0
5.091374e-01 -3.231657e-01 0.0
5.621460e-01 -3.274316e-01 0.0
6.042646e-01 -3.149794e-01 0.0
6.387943e-01 -2.907548e-01 0.0
6.678699e-01 -2.593272e-01 0.0
6.928355e-01 -2.244089e-01 0.0
7.144769e-01 -1.888106e-01 0.0
7.332292e-01 -1.545067e-01 0.0
7.493297e-01 -1.227398e-01 0.0
7.629255e-01 -9.419372e-02 0.0
7.741366e-01 -6.915991e-02 0.0
7.830909e-01 -4.767701e-02 0.0
7.899361e-01 -2.962068e-02 0.0
7.948363e-01 -1.476716e-02 0.0
7.979775e-01 -2.844806e-03 0.0
7.996699e-01 6.549454e-03 0.0
8.001265e-01 1.390556e-02 0.0
7.995125e-01 1.960922e-02 0.0
7.979675e-01 2.396744e-02 0.0
7.956153e-01 2.722864e-02 0.0
7.925692e-01 2.959539e-02 0.0
7.889272e-01 3.123186e-02 0.0
7.847761e-01 3.227387e-02 0.0
7.801725e-01 3.283093e-02 0.0
7.751883e-01 3.298194e-02 0.0
7.698988e-01 3.280291e-02 0.0
7.643716e-01 3.236446e-02 0.0
7.586675e-01 3.172268e-02 0.0
7.528410e-01 3.092333e-02 0.0
7.469406e-01 3.000449e-02 0.0
7.410089e-01 2.899817e-02 0.0
7.350827e-01 2.793140e-02 0.0
7.291935e-01 2.682672e-02 0.0
7.233682e-01 2.570286e-02 0.0
7.176291e-01 2.457519e-02 0.0
7.119947e-01 2.345625e-02 0.0
7.064800e-01 2.235605e-02 0.0
7.010966e-01 2.128242e-02 0.0
6.958537e-01 2.024135e-02 0.0
6.907578e-01 1.923722e-02 0.0
6.858135e-01 1.827306e-02 0.0
6.810235e-01 1.735073e-02 0.0
6.763891e-01 1.647115e-02 0.0
6.719103e-01 1.563443e-02 0.0
6.675860e-01 1.484001e-02 0.0
6.634145e-01 1.408678e-02 0.0
6.593931e-01 1.337320e-02 0.0
6.555191e-01 1.269735e-02 0.0
6.517890e-01 1.205702e-02 0.0
6.481994e-01 1.144976e-02 0.0
6.447468e-01 1.087290e-02 0.0
6.414278e-01 1.032360e-02 0.0
6.382389e-01 9.798844e-03 0.0
6.351771e-01 9.295473e-03 0.0
6.322396e-01 8.810166e-03 0.0
6.294240e-01 8.339439e-03 0.0
6.267284e-01 7.879633e-03 0.0
6.241515e-01 7.426870e-03 0.0
6.216927e-01 6.976995e-03 0.0
6.193522e-01 6.525555e-03 0.0
6.171310e-01 6.067787e-03 0.0
6.150315e-01 5.598625e-03 0.0
6.130572e-01 5.112760e-03 0.0
6.112132e-01 4.604813e-03 0.0
6.095071e-01 4.069725e-03 0.0
6.079494e-01 3.503417e-03 0.0
6.065555e-01 2.904042e-03 0.0
6.053482e-01 2.274522e-03 0.0
6.043620e-01 1.626286e-03 0.0
6.036492e-01 9.867194e-04 0.0
6.032794e-01 4.101246e-04 0.0
6.032793e-01 4.939760e-07 0.0
0.000000e+00 4.996569e-07 0.0
0.000000e+00 0.000000e+00 0.0
0.000000e+00 0.000000e+00 0.0
0.000000e+00 0.000000e+00 0.0
0.000000e+00 0.000000e+00 0.0
0.000000e+00 0.000000e+00 0.0
0.000000e+00 0.000000e+00 0.0
0.000000e+00 0.000000e+00 0.0
0.000000e+00 0.000000e+00 0.0
0.000000e+00 0.000000e+00 0.0
0.000000e+00 0.000000e+00 0.0
0.000000e+00 -5.675312e-02 0.0
-1.314817e-02 5.674972e-02 0.0
-3.053960e-02 1.017283e-01 0.0
-4.348317e-02 1.094719e-01 0.0
-5.066550e-02 1.033144e-01 0.0
-5.208532e-02 9.307169e-02 0.0
-4.780344e-02 8.185043e-02 0.0
-3.758390e-02 6.996345e-02 0.0
-2.001776e-02 5.580711e-02 0.0
6.384199e-03 3.868637e-02 0.0
4.616874e-02 1.306944e-02 0.0
1.045969e-01 -2.377332e-02 0.0
1.779861e-01 -7.031377e-02 0.0
2.607991e-01 -1.251637e-01 0.0
3.477603e-01 -1.839131e-01 0.0
4.326800e-01 -2.417348e-01 0.0
5.105681e-01 -2.930456e-01 0.0
5.784226e-01 -3.328106e-01 0.0
6.344764e-01 -3.579898e-01 0.0
6.784450e-01 -3.671351e-01 0.0
7.108349e-01 -3.598221e-01 0.0
7.349908e-01 -3.391352e-01 0.0
7.536985e-01 -3.094620e-01 0.0
7.688976e-01 -2.745260e-01 0.0
7.818077e-01 -2.373191e-01 0.0
7.931254e-01 -2.001286e-01 0.0
8.032094e-01 -1.645909e-01 0.0
8.121964e-01 -1.317267e-01 0.0
8.201052e-01 -1.021023e-01 0.0
8.269080e-01 -7.596269e-02 0.0
8.325826e-01 -5.335164e-02 0.0
8.371282e-01 -3.416633e-02 0.0
8.405562e-01 -1.819525e-02 0.0
8.429000e-01 -5.188553e-03 0.0
8.442950e-01 5.154512e-03 0.0
8.448502e-01 1.335034e-02 0.0
8.446566e-01 1.980284e-02 0.0
8.437963e-01 2.482770e-02 0.0
8.423467e-01 2.867832e-02 0.0
8.403806e-01 3.156147e-02 0.0
8.379652e-01 3.364722e-02 0.0
8.351621e-01 3.507705e-02 0.0
8.320244e-01 3.596859e-02 0.0
8.285885e-01 3.641780e-02 0.0
8.248920e-01 3.649947e-02 0.0
8.209760e-01 3.628046e-02 0.0
8.168800e-01 3.581865e-02 0.0
8.126410e-01 3.516231e-02 0.0
8.082930e-01 3.435252e-02 0.0
8.038666e-01 3.342459e-02 0.0
7.993889e-01 3.240907e-02 0.0
7.948840e-01 3.133160e-02 0.0
7.903731e-01 3.021382e-02 0.0
7.858745e-01 2.907382e-02 0.0
7.814041e-01 2.792658e-02 0.0
7.769758e-01 2.678437e-02 0.0
7.726012e-01 2.565707e-02 0.0
7.682900e-01 2.455250e-02 0.0
7.640506e-01 2.347667e-02 0.0
7.598896e-01 2.243407e-02 0.0
7.558124e-01 2.142788e-02 0.0
7.518234e-01 2.046015e-02 0.0
7.479259e-01 1.953197e-02 0.0
7.441222e-01 1.864365e-02 0.0
7.404142e-01 1.779482e-02 0.0
7.368029e-01 1.698455e-02 0.0
7.332888e-01 1.621143e-02 0.0
7.298721e-01 1.547366e-02 0.0
7.265528e-01 1.476908e-02 0.0
7.233305e-01 1.409526e-02 0.0
7.202046e-01 1.344949e-02 0.0
7.171746e-01 1.282881e-02 0.0
7.142401e-01 1.223004e-02 0.0
7.114005e-01 1.164976e-02 0.0
7.086556e-01 1.108429e-02 0.0
7.060055e-01 1.052975e-02 0.0
7.034504e-01 9.981940e-03 0.0
7.009912e-01 9.436260e-03 0.0
6.986291e-01 8.887685e-03 0.0
6.963661e-01 8.330739e-03 0.0
6.942053e-01 7.759454e-03 0.0
6.921507e-01 7.167340e-03 0.0
6.902081e-01 6.547402e-03 0.0
6.883856e-01 5.892232e-03 0.0
6.866948e-01 5.194197e-03 0.0
6.851530e-01 4.445846e-03 0.0
6.837868e-01 3.640733e-03 0.0
6.826384e-01 2.774765e-03 0.0
6.817754e-01 1.849686e-03 0.0
6.812998e-01 8.857105e-04 0.0
6.812997e-01 5.681173e-07 0.0
0.000000e+00 5.748079e-07 0.0
0.000000e+00 0.000000e+00 0.0
0.000000e+00 0.000000e+00 0.0
0.000000e+00 0.000000e+00 0.0
0.000000e+00 0.000000e+00 0.0
0.000000e+00 0.000000e+00 0.0
0.000000e+00 0.000000e+00 0.0
0.000000e+00 0.000000e+00 0.0
0.000000e+00 0.000000e+00 0.0
0.000000e+00 0.000000e+00 0.0
0.000000e+00 0.000000e+00 0.0
0.000000e+00 -7.039860e-02 0.0
-1.365329e-02 7.039430e-02 0.0
-2.291914e-02 1.109968e-01 0.0
-2.230393e-02 1.088641e-01 0.0
-1.382944e-02 9.484519e-02 0.0
1.889041e-03 7.735245e-02 0.0
2.497665e-02 5.875787e-02 0.0
5.572776e-02 3.920822e-02 0.0
9.776402e-02 1.377078e-02 0.0
1.559300e-01 -1.947627e-02 0.0
2.283107e-01 -5.930791e-02 0.0
3.105466e-01 -1.060086e-01 0.0
3.982809e-01 -1.580501e-01 0.0
4.860266e-01 -2.129117e-01 0.0
5.688065e-01 -2.666937e-01 0.0
6.422356e-01 -3.151628e-01 0.0
7.033894e-01 -3.541979e-01 0.0
7.511405e-01 -3.805611e-01 0.0
7.857057e-01 -3.925556e-01 0.0
8.081957e-01 -3.896259e-01 0.0
8.215213e-01 -3.731479e-01 0.0
8.291133e-01 -3.467269e-01 0.0
8.334605e-01 -3.138088e-01 0.0
8.362360e-01 -2.773014e-01 0.0
8.384497e-01 -2.395331e-01 0.0
8.406440e-01 -2.023232e-01 0.0
8.430715e-01 -1.670183e-01 0.0
8.457503e-01 -1.344054e-01 0.0
8.485751e-01 -1.049269e-01 0.0
8.513859e-01 -7.877350e-02 0.0
8.540334e-01 -5.599924e-02 0.0
8.563948e-01 -3.652783e-02 0.0
8.583520e-01 -2.015240e-02 0.0
8.598194e-01 -6.655903e-03 0.0
8.607658e-01 4.208116e-03 0.0
8.612025e-01 1.291369e-02 0.0
8.611525e-01 1.985274e-02 0.0
8.606499e-01 2.533035e-02 0.0
8.597351e-01 2.959311e-02 0.0
8.584520e-01 3.284455e-02 0.0
8.568447e-01 3.525459e-02 0.0
8.549554e-01 3.696628e-02 0.0
8.528236e-01 3.810041e-02 0.0
8.504828e-01 3.875862e-02 0.0
8.479563e-01 3.902593e-02 0.0
8.452662e-01 3.897063e-02 0.0
8.424362e-01 3.864859e-02 0.0
8.394902e-01 3.810841e-02 0.0
8.364501e-01 3.739263e-02 0.0
8.333361e-01 3.653854e-02 0.0
8.301659e-01 3.557931e-02 0.0
8.269551e-01 3.454238e-02 0.0
8.237177e-01 3.345117e-02 0.0
8.204661e-01 3.232543e-02 0.0
8.172111e-01 3.118165e-02 0.0
8.139620e-01 3.003342e-02 0.0
8.107273e-01 2.889180e-02 0.0
8.075141e-01 2.776566e-02 0.0
8.043288e-01 2.666198e-02 0.0
8.011768e-01 2.558609e-02 0.0
7.980628e-01 2.454189e-02 0.0
7.949908e-01 2.353212e-02 0.0
7.919643e-01 2.255846e-02 0.0
7.889863e-01 2.162173e-02 0.0
7.860591e-01 2.072201e-02 0.0
7.831849e-01 1.985876e-02 0.0
7.803654e-01 1.903091e-02 0.0
7.776022e-01 1.823692e-02 0.0
7.748964e-01 1.747488e-02 0.0
7.722491e-01 1.674251e-02 0.0
7.696614e-01 1.603722e-02 0.0
7.671341e-01 1.535614e-02 0.0
7.646680e-01 1.469609e-02 0.0
7.622642e-01 1.405360e-02 0.0
7.599236e-01 1.342490e-02 0.0
7.576473e-01 1.280599e-02 0.0
7.554367e-01 1.219253e-02 0.0
7.532934e-01 1.157959e-02 0.0
7.512194e-01 1.096173e-02 0.0
7.492172e-01 1.033292e-02 0.0
7.472902e-01 9.686479e-03 0.0
7.454426e-01 9.014918e-03 0.0
7.436802e-01 8.309794e-03 0.0
7.420109e-01 7.561513e-03 0.0
7.404461e-01 6.759011e-03 0.0
7.390027e-01 5.889258e-03 0.0
7.377070e-01 4.936410e-03 0.0
7.366014e-01 3.880386e-03 0.0
7.357552e-01 2.695846e-03 0.0
7.352775e-01 1.363486e-03 0.0
7.352775e-01 5.951282e-07 0.0
0.000000e+00 6.023764e-07 0.0
0.000000e+00 0.000000e+00 0.0
0.000000e+00 0.000000e+00 0.0
0.000000e+00 0.000000e+00 0.0
0.000000e+00 0.000000e+00 0.0
0.000000e+00 0.000000e+00 0.0
0.000000e+00 0.000000e+00 0.0
0.000000e+00 0.000000e+00 0.0
0.000000e+00 0.000000e+00 0.0
0.000000e+00 0.000000e+00 0.0
0.000000e+00 0.000000e+00 0.0
0.000000e+00 -8.412664e-02 0.0
-1.373589e-02 8.412207e-02 0.0
-5.683933e-03 1.029471e-01 0.0
1.885664e-02 8.432856e-02 0.0
5.211404e-02 6.159021e-02 0.0
9.299765e-02 3.646617e-02 0.0
1.442156e-01 7.534596e-03 0.0
2.087855e-01 -2.536494e-02 0.0
2.841886e-01 -6.163118e-02 0.0
3.669737e-01 -1.022575e-01 0.0
4.543560e-01 -1.466873e-01 0.0
5.423758e-01 -1.940289e-01 0.0
6.268296e-01 -2.425065e-01 0.0
7.035425e-01 -2.896265e-01 0.0
7.691282e-01 -3.322794e-01 0.0
8.212904e-01 -3.673235e-01 0.0
8.591548e-01 -3.920612e-01 0.0
8.832795e-01 -4.046859e-01 0.0
8.952196e-01 -4.044965e-01 0.0
8.974827e-01 -3.918896e-01 0.0
8.937874e-01 -3.694526e-01 0.0
8.869375e-01 -3.398766e-01 0.0
8.789818e-01 -3.058528e-01 0.0
8.712442e-01 -2.695639e-01 0.0
8.644694e-01 -2.327584e-01 0.0
8.590102e-01 -1.968642e-01 0.0
8.550014e-01 -1.630094e-01 0.0
8.523345e-01 -1.317383e-01 0.0
8.508032e-01 -1.033956e-01 0.0
8.501696e-01 -7.814000e-02 0.0
8.501739e-01 -5.600355e-02 0.0
8.505613e-01 -3.691530e-02 0.0
8.511282e-01 -2.071933e-02 0.0
8.517039e-01 -7.231466e-03 0.0
8.521506e-01 3.761353e-03 0.0
8.523824e-01 1.268189e-02 0.0
8.523603e-01 1.987484e-02 0.0
8.520740e-01 2.561669e-02 0.0
8.515307e-01 3.013643e-02 0.0
8.507480e-01 3.362721e-02 0.0
8.497491e-01 3.625349e-02 0.0
8.485593e-01 3.815605e-02 0.0
8.472042e-01 3.945559e-02 0.0
8.457073e-01 4.025547e-02 0.0
8.440892e-01 4.064409e-02 0.0
8.423635e-01 4.069633e-02 0.0
8.405440e-01 4.046800e-02 0.0
8.386455e-01 4.000698e-02 0.0
8.366814e-01 3.935672e-02 0.0
8.346640e-01 3.855594e-02 0.0
8.326045e-01 3.763877e-02 0.0
8.305126e-01 3.663428e-02 0.0
8.283966e-01 3.556719e-02 0.0
8.262637e-01 3.445835e-02 0.0
8.241202e-01 3.332517e-02 0.0
8.219716e-01 3.218204e-02 0.0
8.198227e-01 3.104070e-02 0.0
8.176777e-01 2.991061e-02 0.0
8.155405e-01 2.879922e-02 0.0
8.134143e-01 2.771232e-02 0.0
8.113020e-01 2.665417e-02 0.0
8.092063e-01 2.562783e-02 0.0
8.071295e-01 2.463526e-02 0.0
8.050737e-01 2.367754e-02 0.0
8.030407e-01 2.275496e-02 0.0
8.010323e-01 2.186715e-02 0.0
7.990500e-01 2.101320e-02 0.0
7.970953e-01 2.019170e-02 0.0
7.951693e-01 1.940084e-02 0.0
7.932734e-01 1.863842e-02 0.0
7.914087e-01 1.790191e-02 0.0
7.895764e-01 1.718845e-02 0.0
7.877776e-01 1.649486e-02 0.0
7.860136e-01 1.581762e-02 0.0
7.842857e-01 1.515283e-02 0.0
7.825952e-01 1.449646e-02 0.0
7.809436e-01 1.384419e-02 0.0
7.793325e-01 1.319071e-02 0.0
7.777639e-01 1.253028e-02 0.0
7.762404e-01 1.185648e-02 0.0
7.747648e-01 1.116208e-02 0.0
7.733409e-01 1.043879e-02 0.0
7.719737e-01 9.676985e-03 0.0
7.706700e-01 8.865260e-03 0.0
7.694393e-01 7.989660e-03 0.0
7.682962e-01 7.032424e-03 0.0
7.672628e-01 5.969773e-03 0.0
7.663751e-01 4.768135e-03 0.0
7.656915e-01 3.379434e-03 0.0
7.653038e-01 1.751143e-03 0.0
7.653038e-01 5.731554e-07 0.0
0.000000e+00 5.804780e-07 0.0
0.000000e+00 0.000000e+00 0.0
0.000000e+00 0.000000e+00 0.0
0.000000e+00 0.000000e+00 0.0
0.000000e+00 0.000000e+00 0.0
0.000000e+00 0.000000e+00 0.0
0.000000e+00 0.000000e+00 0.0
0.000000e+00 0.000000e+00 0.0
0.000000e+00 0.000000e+00 0.0
0.000000e+00 0.000000e+00 0.0
0.000000e+00 0.000000e+00 0.0
0.000000e+00 -7.896861e-02 0.0
5.148609e-03 7.896750e-02 0.0
5.423370e-02 5.386737e-02 0.0
1.182735e-01 2.029565e-02 0.0
1.921909e-01 -1.232433e-02 0.0
2.730154e-01 -4.436138e-02 0.0
3.575859e-01 -7.704126e-02 0.0
4.442016e-01 -1.119832e-01 0.0
5.316389e-01 -1.490662e-01 0.0
6.175410e-01 -1.881556e-01 0.0
6.993408e-01 -2.284852e-01 0.0
7.741798e-01 -2.688694e-01 0.0
8.392881e-01 -3.076175e-01 0.0
8.923210e-01 -3.426605e-01 0.0
9.317800e-01 -3.717377e-01 0.0