# vtk DataFile Version 3.0
Vector Field
ASCII
DATASET RECTILINEAR_GRID
DIMENSIONS 102 22 1
X_COORDINATES 102 double
0.000000 0.100000 0.200000 0.300000 0.400000 0.500000 0.600000 0.700000 0.800000 0.900000 1.000000 1.100000 1.200000 1.300000 1.400000 1.500000 1.600000 1.700000 1.800000 1.900000 2.000000 2.100000 2.200000 2.300000 2.400000 2.500000 2.600000 2.700000 2.800000 2.900000 3.000000 3.100000 3.200000 3.300000 3.400000 3.500000 3.600000 3.700000 3.800000 3.900000 4.000000 4.100000 4.200000 4.300000 4.400000 4.500000 4.600000 4.700000 4.800000 4.900000 5.000000 5.100000 5.200000 5.300000 5.400000 5.500000 5.600000 5.700000 5.800000 5.900000 6.000000 6.100000 6.200000 6.300000 6.400000 6.500000 6.600000 6.700000 6.800000 6.900000 7.000000 7.100000 7.200000 7.300000 7.400000 7.500000 7.600000 7.700000 7.800000 7.900000 8.000000 8.100000 8.200000 8.300000 8.400000 8.500000 8.600000 8.700000 8.800000 8.900000 9.000000 9.100000 9.200000 9.300000 9.400000 9.500000 9.600000 9.700000 9.800000 9.900000 10.000000 10.100000 
Y_COORDINATES 22 double
0.000000 0.100000 0.200000 0.300000 0.400000 0.500000 0.600000 0.700000 0.800000 0.900000 1.000000 1.100000 1.200000 1.300000 1.400000 1.500000 1.600000 1.700000 1.800000 1.900000 2.000000 2.100000 
Z_COORDINATES 1 double
0.0
POINT_DATA 2244
VECTORS Velocity double
0.000000e+00 0.000000e+00 0.0
-0.000000e+00 0.000000e+00 0.0
-0.000000e+00 0.000000e+00 0.0
-0.000000e+00 0.000000e+00 0.0
-0.000000e+00 0.000000e+00 0.0
-0.000000e+00 0.000000e+00 0.0
-0.000000e+00 0.000000e+00 0.0
-0.000000e+00 0.000000e+00 0.0
-0.000000e+00 0.000000e+00 0.0
-0.000000e+00 0.000000e+00 0.0
-0.000000e+00 0.000000e+00 0.0
4.752355e-04 0.000000e+00 0.0
4.815038e-03 0.000000e+00 0.0
1.148801e-02 0.000000e+00 0.0
1.929986e-02 0.000000e+00 0.0
2.785067e-02 0.000000e+00 0.0
3.721466e-02 0.000000e+00 0.0
4.765973e-02 0.000000e+00 0.0
5.951812e-02 0.000000e+00 0.0
7.312718e-02 0.000000e+00 0.0
8.876425e-02 0.000000e+00 0.0
1.065493e-01 0.000000e+00 0.0
1.262910e-01 0.000000e+00 0.0
1.473106e-01 0.000000e+00 0.0
1.682424e-01 0.000000e+00 0.0
1.867100e-01 0.000000e+00 0.0
1.995893e-01 0.000000e+00 0.0
2.031610e-01 0.000000e+00 0.0
1.941060e-01 0.000000e+00 0.0
1.711382e-01 0.000000e+00 0.0
1.348503e-01 0.000000e+00 0.0
8.878418e-02 0.000000e+00 0.0
3.606951e-02 0.000000e+00 0.0
-1.809330e-02 0.000000e+00 0.0
-6.620601e-02 0.000000e+00 0.0
-1.051906e-01 0.000000e+00 0.0
-1.347279e-01 0.000000e+00 0.0
-1.556808e-01 0.000000e+00 0.0
-1.693755e-01 0.000000e+00 0.0
-1.772541e-01 0.000000e+00 0.0
-1.807097e-01 0.000000e+00 0.0
-1.810123e-01 0.000000e+00 0.0
-1.790877e-01 0.000000e+00 0.0
-1.754625e-01 0.000000e+00 0.0
-1.706969e-01 0.000000e+00 0.0
-1.652775e-01 0.000000e+00 0.0
-1.595790e-01 0.000000e+00 0.0
-1.538753e-01 0.000000e+00 0.0
-1.483237e-01 0.000000e+00 0.0
-1.430244e-01 0.000000e+00 0.0
-1.380334e-01 0.000000e+00 0.0
-1.333760e-01 0.000000e+00 0.0
-1.290571e-01 0.000000e+00 0.0
-1.250695e-01 0.000000e+00 0.0
-1.213988e-01 0.000000e+00 0.0
-1.180267e-01 0.000000e+00 0.0
-1.149332e-01 0.000000e+00 0.0
-1.120976e-01 0.000000e+00 0.0
-1.095000e-01 0.000000e+00 0.0
-1.071209e-01 0.000000e+00 0.0
-1.049416e-01 0.000000e+00 0.0
-1.029446e-01 0.000000e+00 0.0
-1.011133e-01 0.000000e+00 0.0
-9.943212e-02 0.000000e+00 0.0
-9.788633e-02 0.000000e+00 0.0
-9.646228e-02 0.000000e+00 0.0
-9.514723e-02 0.000000e+00 0.0
-9.392938e-02 0.000000e+00 0.0
-9.279782e-02 0.000000e+00 0.0
-9.174255e-02 0.000000e+00 0.0
-9.075443e-02 0.000000e+00 0.0
-8.982520e-02 0.000000e+00 0.0
-8.894747e-02 0.000000e+00 0.0
-8.811469e-02 0.000000e+00 0.0
-8.732119e-02 0.000000e+00 0.0
-8.656211e-02 0.000000e+00 0.0
-8.583346e-02 0.000000e+00 0.0
-8.513210e-02 0.000000e+00 0.0
-8.445572e-02 0.000000e+00 0.0
-8.380283e-02 0.000000e+00 0.0
-8.317276e-02 0.000000e+00 0.0
-8.256561e-02 0.000000e+00 0.0
-8.198229e-02 0.000000e+00 0.0
-8.142440e-02 0.000000e+00 0.0
-8.089427e-02 0.000000e+00 0.0
-8.039489e-02 0.000000e+00 0.0
-7.992986e-02 0.000000e+00 0.0
-7.950335e-02 0.000000e+00 0.0
-7.912000e-02 0.000000e+00 0.0
-7.878486e-02 0.000000e+00 0.0
-7.850324e-02 0.000000e+00 0.0
-7.828047e-02 0.000000e+00 0.0
-7.812154e-02 0.000000e+00 0.0
-7.803052e-02 0.000000e+00 0.0
-7.800956e-02 0.000000e+00 0.0
-7.805738e-02 0.000000e+00 0.0
-7.816529e-02 0.000000e+00 0.0
-7.830982e-02 0.000000e+00 0.0
-7.845321e-02 0.000000e+00 0.0
-7.852816e-02 0.000000e+00 0.0
-7.852816e-02 0.000000e+00 0.0
0.000000e+00 0.000000e+00 0.0
0.000000e+00 0.000000e+00 0.0
0.000000e+00 0.000000e+00 0.0
0.000000e+00 0.000000e+00 0.0
0.000000e+00 0.000000e+00 0.0
0.000000e+00 0.000000e+00 0.0
0.000000e+00 0.000000e+00 0.0
0.000000e+00 0.000000e+00 0.0
0.000000e+00 0.000000e+00 0.0
0.000000e+00 0.000000e+00 0.0
0.000000e+00 0.000000e+00 0.0
0.000000e+00 -5.918695e-04 0.0
-4.757220e-04 5.911669e-04 0.0
-4.815693e-03 4.406352e-03 0.0
-1.148922e-02 6.739911e-03 0.0
-1.930207e-02 7.879224e-03 0.0
-2.785439e-02 8.618705e-03 0.0
-3.722051e-02 9.432500e-03 0.0
-4.766844e-02 1.051431e-02 0.0
-5.953055e-02 1.192849e-02 0.0
-7.314423e-02 1.368006e-02 0.0
-8.878680e-02 1.570895e-02 0.0
-1.065780e-01 1.785763e-02 0.0
-1.263261e-01 1.981444e-02 0.0
-1.473514e-01 2.109167e-02 0.0
-1.682871e-01 2.100209e-02 0.0
-1.867546e-01 1.853385e-02 0.0
-1.996274e-01 1.293925e-02 0.0
-2.031841e-01 3.623012e-03 0.0
-1.941063e-01 -9.011391e-03 0.0
-1.711105e-01 -2.292943e-02 0.0
-1.347962e-01 -3.624792e-02 0.0
-8.870872e-02 -4.602108e-02 0.0
-3.597541e-02 -5.266693e-02 0.0
1.819449e-02 -5.410352e-02 0.0
6.630052e-02 -4.803964e-02 0.0
1.052733e-01 -3.890641e-02 0.0
1.347975e-01 -2.945783e-02 0.0
1.557377e-01 -2.087381e-02 0.0
1.694211e-01 -1.361694e-02 0.0
1.772901e-01 -7.802659e-03 0.0
1.807380e-01 -3.381464e-03 0.0
1.810348e-01 -2.304337e-04 0.0
1.791053e-01 1.995820e-03 0.0
1.754762e-01 3.695526e-03 0.0
1.707079e-01 4.834699e-03 0.0
1.652866e-01 5.487689e-03 0.0
1.595869e-01 5.766104e-03 0.0
1.538826e-01 5.770634e-03 0.0
1.483308e-01 5.618241e-03 0.0
1.430316e-01 5.365600e-03 0.0
1.380409e-01 5.057039e-03 0.0
1.333839e-01 4.723427e-03 0.0
1.290655e-01 4.384763e-03 0.0
1.250786e-01 4.053335e-03 0.0
1.214086e-01 3.736368e-03 0.0
1.180372e-01 3.437733e-03 0.0
1.149445e-01 3.159153e-03 0.0
1.121098e-01 2.901042e-03 0.0
1.095131e-01 2.663078e-03 0.0
1.071350e-01 2.444556e-03 0.0
1.049568e-01 2.244584e-03 0.0
1.029610e-01 2.062198e-03 0.0
1.011310e-01 1.896409e-03 0.0
9.945114e-02 1.746226e-03 0.0
9.790686e-02 1.610674e-03 0.0
9.648447e-02 1.488790e-03 0.0
9.517123e-02 1.379632e-03 0.0
9.395535e-02 1.282274e-03 0.0
9.282594e-02 1.195811e-03 0.0
9.177298e-02 1.119353e-03 0.0
9.078735e-02 1.052022e-03 0.0
8.986079e-02 9.929563e-04 0.0
8.898589e-02 9.412984e-04 0.0
8.815609e-02 8.961983e-04 0.0
8.736568e-02 8.568097e-04 0.0
8.660979e-02 8.222882e-04 0.0
8.588439e-02 7.917924e-04 0.0
8.518631e-02 7.644840e-04 0.0
8.451317e-02 7.395314e-04 0.0
8.386346e-02 7.161117e-04 0.0
8.323644e-02 6.934159e-04 0.0
8.263219e-02 6.706520e-04 0.0
8.205154e-02 6.470508e-04 0.0
8.149606e-02 6.218713e-04 0.0
8.096806e-02 5.944057e-04 0.0
8.047047e-02 5.639853e-04 0.0
8.000688e-02 5.299860e-04 0.0
7.958145e-02 4.918375e-04 0.0
7.919881e-02 4.490370e-04 0.0
7.886403e-02 4.011753e-04 0.0
7.858245e-02 3.479837e-04 0.0
7.835943e-02 2.894173e-04 0.0
7.820003e-02 2.257990e-04 0.0
7.810838e-02 1.580498e-04 0.0
7.808674e-02 8.804201e-05 0.0
7.813393e-02 1.921492e-05 0.0
7.824137e-02 -4.103949e-05 0.0
7.838565e-02 -7.788608e-05 0.0
7.852903e-02 -7.697209e-05 0.0
7.860412e-02 -8.689448e-06 0.0
7.852816e-02 1.423566e-04 0.0
0.000000e+00 1.430363e-04 0.0
0.000000e+00 0.000000e+00 0.0
0.000000e+00 0.000000e+00 0.0
0.000000e+00 0.000000e+00 0.0
0.000000e+00 0.000000e+00 0.0
0.000000e+00 0.000000e+00 0.0
0.000000e+00 0.000000e+00 0.0
0.000000e+00 0.000000e+00 0.0
0.000000e+00 0.000000e+00 0.0
0.000000e+00 0.000000e+00 0.0
0.000000e+00 0.000000e+00 0.0
0.000000e+00 -6.305770e-03 0.0
-5.648167e-03 6.305715e-03 0.0
-1.902754e-02 1.780304e-02 0.0
-3.656817e-02 2.429786e-02 0.0
-5.611853e-02 2.744690e-02 0.0
-7.685098e-02 2.936847e-02 0.0
-9.867299e-02 3.127183e-02 0.0
-1.217328e-01 3.359140e-02 0.0
-1.461446e-01 3.635759e-02 0.0
-1.718261e-01 3.937890e-02 0.0
-1.983524e-01 4.225264e-02 0.0
-2.248404e-01 4.436286e-02 0.0
-2.497897e-01 4.478111e-02 0.0
-2.709695e-01 4.228876e-02 0.0
-2.853737e-01 3.542363e-02 0.0
-2.895399e-01 2.271736e-02 0.0
-2.792951e-01 2.711822e-03 0.0
-2.509525e-01 -2.470230e-02 0.0
-2.050340e-01 -5.491258e-02 0.0
-1.443199e-01 -8.362627e-02 0.0
-7.095471e-02 -1.095958e-01 0.0
1.040170e-02 -1.273602e-01 0.0
9.090844e-02 -1.331563e-01 0.0
1.634426e-01 -1.266204e-01 0.0
2.271518e-01 -1.117315e-01 0.0
2.813422e-01 -9.307955e-02 0.0
3.257695e-01 -7.386774e-02 0.0
3.608204e-01 -5.590741e-02 0.0
3.872932e-01 -4.007238e-02 0.0
4.061951e-01 -2.668724e-02 0.0
4.186045e-01 -1.577356e-02 0.0
4.255749e-01 -7.183511e-03 0.0
4.282464e-01 -6.584371e-04 0.0
4.276796e-01 4.279712e-03 0.0
4.245239e-01 8.007654e-03 0.0
4.193803e-01 1.064869e-02 0.0
4.127614e-01 1.240224e-02 0.0
4.050728e-01 1.347664e-02 0.0
3.967017e-01 1.400662e-02 0.0
3.879692e-01 1.411537e-02 0.0
3.791123e-01 1.393135e-02 0.0
3.703065e-01 1.354654e-02 0.0
3.616793e-01 1.302926e-02 0.0
3.533205e-01 1.242944e-02 0.0
3.452905e-01 1.178370e-02 0.0
3.376271e-01 1.111840e-02 0.0
3.303515e-01 1.045214e-02 0.0
3.234719e-01 9.797903e-03 0.0
3.169877e-01 9.164629e-03 0.0
3.108912e-01 8.558415e-03 0.0
3.051697e-01 7.983313e-03 0.0
2.998074e-01 7.441894e-03 0.0
2.947855e-01 6.935628e-03 0.0
2.900839e-01 6.465152e-03 0.0
2.856814e-01 6.030462e-03 0.0
2.815564e-01 5.631059e-03 0.0
2.776873e-01 5.266050e-03 0.0
2.740527e-01 4.934231e-03 0.0
2.706317e-01 4.634149e-03 0.0
2.674042e-01 4.364143e-03 0.0
2.643512e-01 4.122377e-03 0.0
2.614546e-01 3.906866e-03 0.0
2.586977e-01 3.715492e-03 0.0
2.560652e-01 3.546014e-03 0.0
2.535433e-01 3.396081e-03 0.0
2.511197e-01 3.263244e-03 0.0
2.487838e-01 3.144967e-03 0.0
2.465270e-01 3.038644e-03 0.0
2.443422e-01 2.941617e-03 0.0
2.422244e-01 2.851197e-03 0.0
2.401705e-01 2.764684e-03 0.0
2.381791e-01 2.679394e-03 0.0
2.362507e-01 2.592687e-03 0.0
2.343880e-01 2.501991e-03 0.0
2.325948e-01 2.404833e-03 0.0
2.308773e-01 2.298864e-03 0.0
2.292427e-01 2.181892e-03 0.0
2.277000e-01 2.051907e-03 0.0
2.262592e-01 1.907126e-03 0.0
2.249316e-01 1.746059e-03 0.0
2.237293e-01 1.567620e-03 0.0
2.226647e-01 1.371330e-03 0.0
2.217502e-01 1.157667e-03 0.0
2.209968e-01 9.287002e-04 0.0
2.204130e-01 6.891925e-04 0.0
2.200009e-01 4.486051e-04 0.0
2.197523e-01 2.249209e-04 0.0
2.196421e-01 4.967121e-05 0.0
2.196137e-01 -3.128788e-05 0.0
2.195750e-01 4.737491e-05 0.0
2.193743e-01 3.603327e-04 0.0
0.000000e+00 3.608059e-04 0.0
0.000000e+00 0.000000e+00 0.0
0.000000e+00 0.000000e+00 0.0
0.000000e+00 0.000000e+00 0.0
0.000000e+00 0.000000e+00 0.0
0.000000e+00 0.000000e+00 0.0
0.000000e+00 0.000000e+00 0.0
0.000000e+00 0.000000e+00 0.0
0.000000e+00 0.000000e+00 0.0
0.000000e+00 0.000000e+00 0.0
0.000000e+00 0.000000e+00 0.0
0.000000e+00 -1.674083e-02 0.0
-1.036987e-02 1.674197e-02 0.0
-3.075974e-02 3.821022e-02 0.0
-5.503076e-02 4.858620e-02 0.0
-8.025481e-02 5.268827e-02 0.0
-1.053416e-01 5.447256e-02 0.0
-1.299530e-01 5.590054e-02 0.0
-1.539005e-01 5.755629e-02 0.0
-1.768892e-01 5.936361e-02 0.0
-1.983958e-01 6.090277e-02 0.0
-2.175288e-01 6.140300e-02 0.0
-2.330434e-01 5.989479e-02 0.0
-2.432401e-01 5.499509e-02 0.0
-2.459519e-01 4.501788e-02 0.0
-2.375419e-01 2.703096e-02 0.0
-2.122336e-01 -2.573600e-03 0.0
-1.685101e-01 -4.099439e-02 0.0
-1.075760e-01 -8.561909e-02 0.0
-3.198805e-02 -1.304832e-01 0.0
5.303806e-02 -1.686351e-01 0.0
1.372181e-01 -1.937585e-01 0.0
2.156831e-01 -2.058079e-01 0.0
2.857502e-01 -2.032061e-01 0.0
3.469953e-01 -1.878482e-01 0.0
4.004014e-01 -1.651203e-01 0.0
4.465237e-01 -1.391845e-01 0.0
4.856359e-01 -1.129626e-01 0.0
5.180170e-01 -8.827121e-02 0.0
5.440563e-01 -6.609434e-02 0.0
5.642476e-01 -4.686124e-02 0.0
5.791517e-01 -3.066028e-02 0.0
5.893652e-01 -1.737973e-02 0.0
5.955180e-01 -6.793877e-03 0.0
5.984109e-01 1.404157e-03 0.0
5.986552e-01 7.780668e-03 0.0
5.967268e-01 1.259435e-02 0.0
5.930251e-01 1.612126e-02 0.0
5.879048e-01 1.861428e-02 0.0
5.816497e-01 2.027907e-02 0.0
5.744830e-01 2.129937e-02 0.0
5.666333e-01 2.179831e-02 0.0
5.583245e-01 2.187269e-02 0.0
5.497373e-01 2.163378e-02 0.0
5.410190e-01 2.116511e-02 0.0
5.322871e-01 2.053289e-02 0.0
5.236346e-01 1.978825e-02 0.0
5.151337e-01 1.897035e-02 0.0
5.068397e-01 1.810924e-02 0.0
4.987935e-01 1.722813e-02 0.0
4.910242e-01 1.634502e-02 0.0
4.835509e-01 1.547390e-02 0.0
4.763845e-01 1.462560e-02 0.0
4.695291e-01 1.380841e-02 0.0
4.629830e-01 1.302852e-02 0.0
4.567404e-01 1.229045e-02 0.0
4.507915e-01 1.159728e-02 0.0
4.451239e-01 1.095090e-02 0.0
4.397233e-01 1.035220e-02 0.0
4.345735e-01 9.801224e-03 0.0
4.296577e-01 9.297280e-03 0.0
4.249584e-01 8.839039e-03 0.0
4.204579e-01 8.424608e-03 0.0
4.161392e-01 8.051591e-03 0.0
4.119854e-01 7.717133e-03 0.0
4.079808e-01 7.417965e-03 0.0
4.041109e-01 7.150441e-03 0.0
4.003626e-01 6.910573e-03 0.0
3.967245e-01 6.694081e-03 0.0
3.931870e-01 6.496432e-03 0.0
3.897427e-01 6.312896e-03 0.0
3.863861e-01 6.138595e-03 0.0
3.831142e-01 5.968562e-03 0.0
3.799264e-01 5.797802e-03 0.0
3.768244e-01 5.621361e-03 0.0
3.738121e-01 5.434389e-03 0.0
3.708961e-01 5.232212e-03 0.0
3.680849e-01 5.010391e-03 0.0
3.653894e-01 4.764795e-03 0.0
3.628222e-01 4.491671e-03 0.0
3.603978e-01 4.187755e-03 0.0
3.581323e-01 3.850423e-03 0.0
3.560430e-01 3.477964e-03 0.0
3.541479e-01 3.070056e-03 0.0
3.524653e-01 2.628623e-03 0.0
3.510124e-01 2.159395e-03 0.0
3.498036e-01 1.674772e-03 0.0
3.488469e-01 1.198981e-03 0.0
3.481376e-01 7.762295e-04 0.0
3.476436e-01 4.800803e-04 0.0
3.473008e-01 4.074503e-04 0.0
3.469982e-01 6.803136e-04 0.0
0.000000e+00 6.805141e-04 0.0
0.000000e+00 0.000000e+00 0.0
0.000000e+00 0.000000e+00 0.0
0.000000e+00 0.000000e+00 0.0
0.000000e+00 0.000000e+00 0.0
0.000000e+00 0.000000e+00 0.0
0.000000e+00 0.000000e+00 0.0
0.000000e+00 0.000000e+00 0.0
0.000000e+00 0.000000e+00 0.0
0.000000e+00 0.000000e+00 0.0
0.000000e+00 0.000000e+00 0.0
0.000000e+00 -2.971665e-02 0.0
-1.291055e-02 2.971890e-02 0.0
-3.616093e-02 6.147793e-02 0.0
-6.154923e-02 7.399181e-02 0.0
-8.574022e-02 7.689658e-02 0.0
-1.076751e-01 7.642473e-02 0.0
-1.269670e-01 7.520979e-02 0.0
-1.433073e-01 7.391391e-02 0.0
-1.562967e-01 7.237027e-02 0.0
-1.654151e-01 7.003848e-02 0.0
-1.697620e-01 6.576728e-02 0.0
-1.680758e-01 5.822591e-02 0.0
-1.579791e-01 4.491570e-02 0.0
-1.366831e-01 2.373914e-02 0.0
-9.685601e-02 -1.277880e-02 0.0
-3.769653e-02 -6.171576e-02 0.0
3.807629e-02 -1.167499e-01 0.0
1.213418e-01 -1.688673e-01 0.0
2.051882e-01 -2.143122e-01 0.0
2.846624e-01 -2.480920e-01 0.0
3.574642e-01 -2.665429e-01 0.0
4.209287e-01 -2.692551e-01 0.0
4.741325e-01 -2.563925e-01 0.0
5.195167e-01 -2.332150e-01 0.0
5.586523e-01 -2.042387e-01 0.0
5.924650e-01 -1.729799e-01 0.0
6.214754e-01 -1.419557e-01 0.0
6.460131e-01 -1.127916e-01 0.0
6.663489e-01 -8.641281e-02 0.0
6.827550e-01 -6.325002e-02 0.0
6.955238e-01 -4.341172e-02 0.0
7.049722e-01 -2.681081e-02 0.0
7.114410e-01 -1.324534e-02 0.0
7.153115e-01 -2.449102e-03 0.0
7.170937e-01 6.015844e-03 0.0
7.171196e-01 1.258579e-02 0.0
7.156543e-01 1.760382e-02 0.0
7.129255e-01 2.136040e-02 0.0
7.091270e-01 2.409496e-02 0.0
7.044364e-01 2.600729e-02 0.0
6.989980e-01 2.725394e-02 0.0
6.929181e-01 2.796998e-02 0.0
6.863259e-01 2.824326e-02 0.0
6.793518e-01 2.815651e-02 0.0
6.721065e-01 2.779557e-02 0.0
6.646843e-01 2.722777e-02 0.0
6.571657e-01 2.650627e-02 0.0
6.496188e-01 2.567346e-02 0.0
6.421006e-01 2.476359e-02 0.0
6.346583e-01 2.380466e-02 0.0
6.273299e-01 2.281963e-02 0.0
6.201454e-01 2.182737e-02 0.0
6.131279e-01 2.084331e-02 0.0
6.062938e-01 1.987994e-02 0.0
5.996542e-01 1.894730e-02 0.0
5.932156e-01 1.805325e-02 0.0
5.869800e-01 1.720380e-02 0.0
5.809462e-01 1.640332e-02 0.0
5.751100e-01 1.565479e-02 0.0
5.694647e-01 1.495988e-02 0.0
5.640019e-01 1.431914e-02 0.0
5.587117e-01 1.373210e-02 0.0
5.535833e-01 1.319733e-02 0.0
5.486052e-01 1.271254e-02 0.0
5.437659e-01 1.227462e-02 0.0
5.390540e-01 1.187970e-02 0.0
5.344586e-01 1.152323e-02 0.0
5.299700e-01 1.120002e-02 0.0
5.255794e-01 1.090433e-02 0.0
5.212797e-01 1.062993e-02 0.0
5.170654e-01 1.037021e-02 0.0
5.129331e-01 1.011823e-02 0.0
5.088814e-01 9.866820e-03 0.0
5.049113e-01 9.608738e-03 0.0
5.010263e-01 9.336728e-03 0.0
4.972322e-01 9.043653e-03 0.0
4.935373e-01 8.722601e-03 0.0
4.899524e-01 8.366990e-03 0.0
4.864907e-01 7.970684e-03 0.0
4.831677e-01 7.528120e-03 0.0
4.800009e-01 7.034492e-03 0.0
4.770102e-01 6.486018e-03 0.0
4.742172e-01 5.880412e-03 0.0
4.716454e-01 5.217716e-03 0.0
4.693203e-01 4.501836e-03 0.0
4.672690e-01 3.743371e-03 0.0
4.655205e-01 2.964796e-03 0.0
4.641046e-01 2.209421e-03 0.0
4.630467e-01 1.555329e-03 0.0
4.623422e-01 1.129300e-03 0.0
4.619679e-01 1.071967e-03 0.0
0.000000e+00 1.072282e-03 0.0
0.000000e+00 0.000000e+00 0.0
0.000000e+00 0.000000e+00 0.0
0.000000e+00 0.000000e+00 0.0
0.000000e+00 0.000000e+00 0.0
0.000000e+00 0.000000e+00 0.0
0.000000e+00 0.000000e+00 0.0
0.000000e+00 0.000000e+00 0.0
0.000000e+00 0.000000e+00 0.0
0.000000e+00 0.000000e+00 0.0
0.000000e+00 0.000000e+00 0.0
0.000000e+00 -4.315424e-02 0.0
-1.337176e-02 4.315703e-02 0.0
-3.530357e-02 8.342705e-02 0.0
-5.664319e-02 9.534875e-02 0.0
-7.448431e-02 9.475502e-02 0.0
-8.817016e-02 9.012789e-02 0.0
-9.748670e-02 8.454364e-02 0.0
-1.022021e-01 7.864664e-02 0.0
-1.018438e-01 7.202927e-02 0.0
-9.596784e-02 6.417986e-02 0.0
-8.301320e-02 5.282996e-02 0.0
-6.116695e-02 3.639698e-02 0.0
-2.406734e-02 7.833413e-03 0.0
3.428633e-02 -3.459722e-02 0.0
1.073169e-01 -8.579209e-02 0.0
1.887261e-01 -1.431076e-01 0.0
2.724104e-01 -2.004168e-01 0.0
3.541372e-01 -2.505768e-01 0.0
4.291879e-01 -2.893455e-01 0.0
4.947523e-01 -3.136391e-01 0.0
5.500004e-01 -3.217738e-01 0.0
5.941992e-01 -3.134365e-01 0.0
6.302232e-01 -2.923991e-01 0.0
6.603111e-01 -2.632857e-01 0.0
6.859704e-01 -2.298807e-01 0.0
7.081183e-01 -1.951104e-01 0.0
7.272795e-01 -1.610997e-01 0.0
7.437441e-01 -1.292388e-01 0.0
7.576846e-01 -1.003360e-01 0.0
7.692299e-01 -7.477801e-02 0.0
7.785043e-01 -5.266880e-02 0.0
7.856495e-01 -3.393868e-02 0.0
7.908234e-01 -1.840193e-02 0.0
7.942010e-01 -5.809363e-03 0.0
7.960832e-01 4.150986e-03 0.0
7.966957e-01 1.199057e-02 0.0
7.962096e-01 1.810721e-02 0.0
7.947675e-01 2.281982e-02 0.0
7.924937e-01 2.638605e-02 0.0
7.895019e-01 2.901642e-02 0.0
7.858911e-01 3.088208e-02 0.0
7.817525e-01 3.212589e-02 0.0
7.771525e-01 3.286057e-02 0.0
7.721477e-01 3.317868e-02 0.0
7.668137e-01 3.314689e-02 0.0
7.612183e-01 3.284043e-02 0.0
7.554225e-01 3.231938e-02 0.0
7.494809e-01 3.163244e-02 0.0
7.434417e-01 3.082007e-02 0.0
7.373474e-01 2.991628e-02 0.0
7.312346e-01 2.894978e-02 0.0
7.251344e-01 2.794486e-02 0.0
7.190731e-01 2.692200e-02 0.0
7.130719e-01 2.589839e-02 0.0
7.071482e-01 2.488832e-02 0.0
7.013152e-01 2.390356e-02 0.0
6.955827e-01 2.295363e-02 0.0
6.899573e-01 2.204608e-02 0.0
6.844427e-01 2.118665e-02 0.0
6.790404e-01 2.037949e-02 0.0
6.737496e-01 1.962726e-02 0.0
6.685678e-01 1.893127e-02 0.0
6.634909e-01 1.829152e-02 0.0
6.585140e-01 1.770684e-02 0.0
6.536310e-01 1.717491e-02 0.0
6.488357e-01 1.669230e-02 0.0
6.441217e-01 1.625459e-02 0.0
6.394826e-01 1.585640e-02 0.0
6.349128e-01 1.549147e-02 0.0
6.304073e-01 1.515276e-02 0.0
6.259622e-01 1.483258e-02 0.0
6.215752e-01 1.452262e-02 0.0
6.172452e-01 1.421410e-02 0.0
6.129733e-01 1.389794e-02 0.0
6.087625e-01 1.356487e-02 0.0
6.046179e-01 1.320558e-02 0.0
6.005469e-01 1.281088e-02 0.0
5.965594e-01 1.237184e-02 0.0
5.926675e-01 1.187989e-02 0.0
5.888860e-01 1.132701e-02 0.0
5.852319e-01 1.070589e-02 0.0
5.817251e-01 1.001012e-02 0.0
5.783882e-01 9.234587e-03 0.0
5.752472e-01 8.376032e-03 0.0
5.723322e-01 7.434187e-03 0.0
5.696791e-01 6.413807e-03 0.0
5.673327e-01 5.328474e-03 0.0
5.653520e-01 4.207496e-03 0.0
5.638166e-01 3.108080e-03 0.0
5.628267e-01 2.136481e-03 0.0
5.624238e-01 1.492179e-03 0.0
0.000000e+00 1.493255e-03 0.0
0.000000e+00 0.000000e+00 0.0
0.000000e+00 0.000000e+00 0.0
0.000000e+00 0.000000e+00 0.0
0.000000e+00 0.000000e+00 0.0
0.000000e+00 0.000000e+00 0.0
0.000000e+00 0.000000e+00 0.0
0.000000e+00 0.000000e+00 0.0
0.000000e+00 0.000000e+00 0.0
0.000000e+00 0.000000e+00 0.0
0.000000e+00 0.000000e+00 0.0
0.000000e+00 -5.632892e-02 0.0
-1.310823e-02 5.633164e-02 0.0
-3.056621e-02 1.009023e-01 0.0
-4.365655e-02 1.084564e-01 0.0
-5.107797e-02 1.021938e-01 0.0
-5.285059e-02 9.191782e-02 0.0
-4.906156e-02 8.077193e-02 0.0
-3.955424e-02 6.915663e-02 0.0
-2.299546e-02 5.548781e-02 0.0
1.827482e-03 3.937424e-02 0.0
3.921001e-02 1.546475e-02 0.0
9.469741e-02 -1.907311e-02 0.0
1.654620e-01 -6.291385e-02 0.0
2.459969e-01 -1.151148e-01 0.0
3.317335e-01 -1.715114e-01 0.0
4.165641e-01 -2.279209e-01 0.0
4.953224e-01 -2.791578e-01 0.0
5.649029e-01 -3.201401e-01 0.0
6.232350e-01 -3.476604e-01 0.0
6.696784e-01 -3.600651e-01 0.0
7.045865e-01 -3.566646e-01 0.0
7.304524e-01 -3.392851e-01 0.0
7.502693e-01 -3.121988e-01 0.0
7.661415e-01 -2.791405e-01 0.0
7.794375e-01 -2.431594e-01 0.0
7.909630e-01 -2.066186e-01 0.0
8.011614e-01 -1.712808e-01 0.0
8.102258e-01 -1.382860e-01 0.0
8.182075e-01 -1.083003e-01 0.0
8.250941e-01 -8.164730e-02 0.0
8.308579e-01 -5.841529e-02 0.0
8.354955e-01 -3.855899e-02 0.0
8.390208e-01 -2.190983e-02 0.0
8.414713e-01 -8.242629e-03 0.0
8.429364e-01 2.703218e-03 0.0
8.435434e-01 1.140096e-02 0.0
8.433869e-01 1.828101e-02 0.0
8.425496e-01 2.367444e-02 0.0
8.411080e-01 2.784499e-02 0.0
8.391343e-01 3.100739e-02 0.0
8.366955e-01 3.333821e-02 0.0
8.338542e-01 3.498451e-02 0.0
8.306644e-01 3.606766e-02 0.0
8.271711e-01 3.668935e-02 0.0
8.234030e-01 3.693230e-02 0.0
8.194012e-01 3.685959e-02 0.0
8.152042e-01 3.653368e-02 0.0
8.108484e-01 3.600550e-02 0.0
8.063673e-01 3.531855e-02 0.0
8.017908e-01 3.451010e-02 0.0
7.971457e-01 3.361219e-02 0.0
7.924555e-01 3.265237e-02 0.0
7.877406e-01 3.165423e-02 0.0
7.830184e-01 3.063788e-02 0.0
7.783037e-01 2.962036e-02 0.0
7.736086e-01 2.861597e-02 0.0
7.689430e-01 2.763660e-02 0.0
7.643144e-01 2.669194e-02 0.0
7.597287e-01 2.578972e-02 0.0
7.551896e-01 2.493590e-02 0.0
7.506994e-01 2.413475e-02 0.0
7.462590e-01 2.338900e-02 0.0
7.418680e-01 2.269989e-02 0.0
7.375248e-01 2.206728e-02 0.0
7.332274e-01 2.148965e-02 0.0
7.289729e-01 2.096417e-02 0.0
7.247580e-01 2.048677e-02 0.0
7.205795e-01 2.005218e-02 0.0
7.164343e-01 1.965400e-02 0.0
7.123196e-01 1.928484e-02 0.0
7.082331e-01 1.893639e-02 0.0
7.041735e-01 1.859950e-02 0.0
7.001407e-01 1.826430e-02 0.0
6.961356e-01 1.792035e-02 0.0
6.921609e-01 1.755688e-02 0.0
6.882209e-01 1.716287e-02 0.0
6.843218e-01 1.672727e-02 0.0
6.804719e-01 1.623912e-02 0.0
6.766814e-01 1.568770e-02 0.0
6.729631e-01 1.506269e-02 0.0
6.693320e-01 1.435428e-02 0.0
6.658061e-01 1.355332e-02 0.0
6.624065e-01 1.265148e-02 0.0
6.591584e-01 1.164147e-02 0.0
6.560924e-01 1.051750e-02 0.0
6.532475e-01 9.276089e-03 0.0
6.506756e-01 7.917659e-03 0.0
6.484508e-01 6.449660e-03 0.0
6.466827e-01 4.893481e-03 0.0
6.455304e-01 3.306054e-03 0.0
6.451471e-01 1.892874e-03 0.0
0.000000e+00 1.895288e-03 0.0
0.000000e+00 0.000000e+00 0.0
0.000000e+00 0.000000e+00 0.0
0.000000e+00 0.000000e+00 0.0
0.000000e+00 0.000000e+00 0.0
0.000000e+00 0.000000e+00 0.0
0.000000e+00 0.000000e+00 0.0
0.000000e+00 0.000000e+00 0.0
0.000000e+00 0.000000e+00 0.0
0.000000e+00 0.000000e+00 0.0
0.000000e+00 0.000000e+00 0.0
0.000000e+00 -7.003977e-02 0.0
-1.364413e-02 7.004215e-02 0.0
-2.308747e-02 1.103630e-01 0.0
-2.276713e-02 1.081534e-01 0.0
-1.471067e-02 9.415461e-02 0.0
3.868159e-04 7.683766e-02 0.0
2.267326e-02 5.850280e-02 0.0
5.227929e-02 3.956792e-02 0.0
9.254154e-02 1.524287e-02 0.0
1.484714e-01 -1.653833e-02 0.0
2.185385e-01 -5.458497e-02 0.0
2.986581e-01 -9.917541e-02 0.0
3.848119e-01 -1.490503e-01 0.0
4.717351e-01 -2.020207e-01 0.0
5.547165e-01 -2.544755e-01 0.0
6.293463e-01 -3.025333e-01 0.0
6.924705e-01 -3.422647e-01 0.0
7.427050e-01 -3.703573e-01 0.0
7.799641e-01 -3.849021e-01 0.0
8.051760e-01 -3.852597e-01 0.0
8.204057e-01 -3.718771e-01 0.0
8.292413e-01 -3.481033e-01 0.0
8.343180e-01 -3.172581e-01 0.0
8.374515e-01 -2.822567e-01 0.0
8.397805e-01 -2.454711e-01 0.0
8.419278e-01 -2.087486e-01 0.0
8.442281e-01 -1.735637e-01 0.0
8.467571e-01 -1.407976e-01 0.0
8.494440e-01 -1.109700e-01 0.0
8.521508e-01 -8.433683e-02 0.0
8.547167e-01 -6.096380e-02 0.0
8.570207e-01 -4.084569e-02 0.0
8.589507e-01 -2.382249e-02 0.0
8.604177e-01 -9.692350e-03 0.0
8.613713e-01 1.766958e-03 0.0
8.618163e-01 1.097327e-02 0.0
8.617719e-01 1.834272e-02 0.0
8.612687e-01 2.419501e-02 0.0
8.603446e-01 2.878640e-02 0.0
8.590417e-01 3.232758e-02 0.0
8.574030e-01 3.499418e-02 0.0
8.554708e-01 3.693403e-02 0.0
8.532841e-01 3.827169e-02 0.0
8.508779e-01 3.911285e-02 0.0
8.482807e-01 3.954682e-02 0.0
8.455116e-01 3.964610e-02 0.0
8.425926e-01 3.946996e-02 0.0
8.395468e-01 3.906859e-02 0.0
8.363957e-01 3.848694e-02 0.0
8.331590e-01 3.776417e-02 0.0
8.298541e-01 3.693439e-02 0.0
8.264966e-01 3.602725e-02 0.0
8.230998e-01 3.506833e-02 0.0
8.196754e-01 3.407960e-02 0.0
8.162333e-01 3.307980e-02 0.0
8.127817e-01 3.208482e-02 0.0
8.093277e-01 3.110797e-02 0.0
8.058767e-01 3.016029e-02 0.0
8.024329e-01 2.925075e-02 0.0
7.989997e-01 2.838643e-02 0.0
7.955792e-01 2.757264e-02 0.0
7.921724e-01 2.681304e-02 0.0
7.887799e-01 2.610972e-02 0.0
7.854013e-01 2.546323e-02 0.0
7.820356e-01 2.487264e-02 0.0
7.786815e-01 2.433560e-02 0.0
7.753373e-01 2.384834e-02 0.0
7.720010e-01 2.340575e-02 0.0
7.686710e-01 2.300141e-02 0.0
7.653454e-01 2.262772e-02 0.0
7.620230e-01 2.227613e-02 0.0
7.587028e-01 2.193695e-02 0.0
7.553849e-01 2.159953e-02 0.0
7.520701e-01 2.125254e-02 0.0
7.487602e-01 2.088410e-02 0.0
7.454584e-01 2.048195e-02 0.0
7.421694e-01 2.003361e-02 0.0
7.388993e-01 1.952654e-02 0.0
7.356561e-01 1.894826e-02 0.0
7.324496e-01 1.828649e-02 0.0
7.292919e-01 1.752924e-02 0.0
7.261978e-01 1.666480e-02 0.0
7.231848e-01 1.568173e-02 0.0
7.202750e-01 1.456868e-02 0.0
7.174957e-01 1.331407e-02 0.0
7.148835e-01 1.190560e-02 0.0
7.124892e-01 1.032934e-02 0.0
7.103876e-01 8.568503e-03 0.0
7.086950e-01 6.603463e-03 0.0
7.075891e-01 4.429268e-03 0.0
7.072684e-01 2.230927e-03 0.0
0.000000e+00 2.234953e-03 0.0
0.000000e+00 0.000000e+00 0.0
0.000000e+00 0.000000e+00 0.0
0.000000e+00 0.000000e+00 0.0
0.000000e+00 0.000000e+00 0.0
0.000000e+00 0.000000e+00 0.0
0.000000e+00 0.000000e+00 0.0
0.000000e+00 0.000000e+00 0.0
0.000000e+00 0.000000e+00 0.0
0.000000e+00 0.000000e+00 0.0
0.000000e+00 0.000000e+00 0.0
0.000000e+00 -8.381594e-02 0.0
-1.370946e-02 8.381799e-02 0.0
-5.938711e-03 1.026096e-01 0.0
1.812588e-02 8.410611e-02 0.0
5.077999e-02 6.151782e-02 0.0
9.075178e-02 3.688319e-02 0.0
1.405931e-01 8.678756e-03 0.0
2.034478e-01 -2.326938e-02 0.0
2.770571e-01 -5.834919e-02 0.0
3.580743e-01 -9.753816e-02 0.0
4.438939e-01 -1.403873e-01 0.0
5.308329e-01 -1.860971e-01 0.0
6.148947e-01 -2.330949e-01 0.0
6.920208e-01 -2.791295e-01 0.0
7.588696e-01 -3.213070e-01 0.0
8.130241e-01 -3.566705e-01 0.0
8.533598e-01 -3.825830e-01 0.0
8.801641e-01 -3.971443e-01 0.0
8.947670e-01 -3.994876e-01 0.0
8.990666e-01 -3.895420e-01 0.0
8.967735e-01 -3.695667e-01 0.0
8.907838e-01 -3.420963e-01 0.0
8.832410e-01 -3.096980e-01 0.0
8.755965e-01 -2.745948e-01 0.0
8.687141e-01 -2.385714e-01 0.0
8.629997e-01 -2.030169e-01 0.0
8.586766e-01 -1.692232e-01 0.0
8.556890e-01 -1.377927e-01 0.0
8.538587e-01 -1.091224e-01 0.0
8.529583e-01 -8.341904e-02 0.0
8.527537e-01 -6.074196e-02 0.0
8.529896e-01 -4.106427e-02 0.0
8.534504e-01 -2.426596e-02 0.0
8.539598e-01 -1.018445e-02 0.0
8.543744e-01 1.369669e-03 0.0
8.545929e-01 1.077213e-02 0.0
8.545665e-01 1.838643e-02 0.0
8.542784e-01 2.450048e-02 0.0
8.537312e-01 2.935086e-02 0.0
8.529397e-01 3.313639e-02 0.0
8.519251e-01 3.602613e-02 0.0
8.507117e-01 3.816478e-02 0.0
8.493243e-01 3.967642e-02 0.0
8.477868e-01 4.066767e-02 0.0
8.461209e-01 4.123001e-02 0.0
8.443432e-01 4.144108e-02 0.0
8.424652e-01 4.136534e-02 0.0
8.405004e-01 4.105066e-02 0.0
8.384627e-01 4.054196e-02 0.0
8.363646e-01 3.987961e-02 0.0
8.342171e-01 3.909923e-02 0.0
8.320297e-01 3.823195e-02 0.0
8.298106e-01 3.730476e-02 0.0
8.275667e-01 3.634085e-02 0.0
8.253037e-01 3.536009e-02 0.0
8.230265e-01 3.437932e-02 0.0
8.207390e-01 3.341276e-02 0.0
8.184444e-01 3.247225e-02 0.0
8.161450e-01 3.156747e-02 0.0
8.138426e-01 3.070617e-02 0.0
8.115383e-01 2.989428e-02 0.0
8.092326e-01 2.913600e-02 0.0
8.069258e-01 2.843393e-02 0.0
8.046173e-01 2.778904e-02 0.0
8.023064e-01 2.720080e-02 0.0
7.999922e-01 2.666714e-02 0.0
7.976734e-01 2.618450e-02 0.0
7.953485e-01 2.574791e-02 0.0
7.930163e-01 2.535095e-02 0.0
7.906755e-01 2.498588e-02 0.0
7.883248e-01 2.464413e-02 0.0
7.859634e-01 2.431567e-02 0.0
7.835909e-01 2.398932e-02 0.0
7.812076e-01 2.365317e-02 0.0
7.788144e-01 2.329461e-02 0.0
7.764131e-01 2.290054e-02 0.0
7.740066e-01 2.245747e-02 0.0
7.715988e-01 2.195171e-02 0.0
7.691949e-01 2.136947e-02 0.0
7.668017e-01 2.069698e-02 0.0
7.644278e-01 1.992047e-02 0.0
7.620838e-01 1.902615e-02 0.0
7.597829e-01 1.799993e-02 0.0
7.575420e-01 1.682692e-02 0.0
7.553829e-01 1.549045e-02 0.0
7.533355e-01 1.397037e-02 0.0
7.514422e-01 1.223995e-02 0.0
7.497672e-01 1.026079e-02 0.0
7.484115e-01 7.976461e-03 0.0
7.475321e-01 5.326005e-03 0.0
7.473042e-01 2.476124e-03 0.0
0.000000e+00 2.481668e-03 0.0
0.000000e+00 0.000000e+00 0.0
0.000000e+00 0.000000e+00 0.0
0.000000e+00 0.000000e+00 0.0
0.000000e+00 0.000000e+00 0.0
0.000000e+00 0.000000e+00 0.0
0.000000e+00 0.000000e+00 0.0
0.000000e+00 0.000000e+00 0.0
0.000000e+00 0.000000e+00 0.0
0.000000e+00 0.000000e+00 0.0
0.000000e+00 0.000000e+00 0.0
0.000000e+00 -7.878002e-02 0.0
5.103110e-03 7.878127e-02 0.0
5.371893e-02 5.401107e-02 0.0
1.170049e-01 2.083750e-02 0.0
1.897747e-01 -1.123468e-02 0.0
2.693271e-01 -4.265192e-02 0.0
3.525606e-01 -7.453746e-02 0.0
4.378349e-01 -1.085264e-01 0.0
5.240301e-01 -1.445271e-01 0.0
6.089473e-01 -1.824380e-01 0.0
6.901601e-01 -2.215827e-01 0.0
7.649620e-01 -2.608816e-01 0.0
8.306799e-01 -2.987955e-01 0.0
8.849842e-01 -3.334164e-01 0.0
9.263108e-01 -3.626163e-01 0.0