# vtk DataFile Version 3.0
Vector Field
ASCII
DATASET RECTILINEAR_GRID
DIMENSIONS 102 22 1
X_COORDINATES 102 double
0.000000 0.100000 0.200000 0.300000 0.400000 0.500000 0.600000 0.700000 0.800000 0.900000 1.000000 1.100000 1.200000 1.300000 1.400000 1.500000 1.600000 1.700000 1.800000 1.900000 2.000000 2.100000 2.200000 2.300000 2.400000 2.500000 2.600000 2.700000 2.800000 2.900000 3.000000 3.100000 3.200000 3.300000 3.400000 3.500000 3.600000 3.700000 3.800000 3.900000 4.000000 4.100000 4.200000 4.300000 4.400000 4.500000 4.600000 4.700000 4.800000 4.900000 5.000000 5.100000 5.200000 5.300000 5.400000 5.500000 5.600000 5.700000 5.800000 5.900000 6.000000 6.100000 6.200000 6.300000 6.400000 6.500000 6.600000 6.700000 6.800000 6.900000 7.000000 7.100000 7.200000 7.300000 7.400000 7.500000 7.600000 7.700000 7.800000 7.900000 8.000000 8.100000 8.200000 8.300000 8.400000 8.500000 8.600000 8.700000 8.800000 8.900000 9.000000 9.100000 9.200000 9.300000 9.400000 9.500000 9.600000 9.700000 9.800000 9.900000 10.000000 10.100000 
Y_COORDINATES 22 double
0.000000 0.100000 0.200000 0.300000 0.400000 0.500000 0.600000 0.700000 0.800000 0.900000 1.000000 1.100000 1.200000 1.300000 1.400000 1.500000 1.600000 1.700000 1.800000 1.900000 2.000000 2.100000 
Z_COORDINATES 1 double
0.0
POINT_DATA 2244
VECTORS Velocity double
0.000000e+00 0.000000e+00 0.0
-0.000000e+00 0.000000e+00 0.0
-0.000000e+00 0.000000e+00 0.0
-0.000000e+00 0.000000e+00 0.0
-0.000000e+00 0.000000e+00 0.0
-0.000000e+00 0.000000e+00 0.0
-0.000000e+00 0.000000e+00 0.0
-0.000000e+00 0.000000e+00 0.0
-0.000000e+00 0.000000e+00 0.0
-0.000000e+00 0.000000e+00 0.0
-0.000000e+00 0.000000e+00 0.0
5.172702e-04 0.000000e+00 0.0
4.899578e-03 0.000000e+00 0.0
1.167936e-02 0.000000e+00 0.0
1.966702e-02 0.000000e+00 0.0
2.847682e-02 0.000000e+00 0.0
3.820243e-02 0.000000e+00 0.0
4.913234e-02 0.000000e+00 0.0
6.161815e-02 0.000000e+00 0.0
7.600823e-02 0.000000e+00 0.0
9.257235e-02 0.000000e+00 0.0
1.113907e-01 0.000000e+00 0.0
1.321820e-01 0.000000e+00 0.0
1.541181e-01 0.000000e+00 0.0
1.755853e-01 0.000000e+00 0.0
1.938564e-01 0.000000e+00 0.0
2.054026e-01 0.000000e+00 0.0
2.062475e-01 0.000000e+00 0.0
1.933074e-01 0.000000e+00 0.0
1.656748e-01 0.000000e+00 0.0
1.251007e-01 0.000000e+00 0.0
7.566866e-02 0.000000e+00 0.0
2.007936e-02 0.000000e+00 0.0
-3.466725e-02 0.000000e+00 0.0
-8.144832e-02 0.000000e+00 0.0
-1.183578e-01 0.000000e+00 0.0
-1.456454e-01 0.000000e+00 0.0
-1.644544e-01 0.000000e+00 0.0
-1.762472e-01 0.000000e+00 0.0
-1.825272e-01 0.000000e+00 0.0
-1.847120e-01 0.000000e+00 0.0
-1.840743e-01 0.000000e+00 0.0
-1.813495e-01 0.000000e+00 0.0
-1.770931e-01 0.000000e+00 0.0
-1.718686e-01 0.000000e+00 0.0
-1.661396e-01 0.000000e+00 0.0
-1.602536e-01 0.000000e+00 0.0
-1.544420e-01 0.000000e+00 0.0
-1.488407e-01 0.000000e+00 0.0
-1.435356e-01 0.000000e+00 0.0
-1.385684e-01 0.000000e+00 0.0
-1.339547e-01 0.000000e+00 0.0
-1.296931e-01 0.000000e+00 0.0
-1.257720e-01 0.000000e+00 0.0
-1.221740e-01 0.000000e+00 0.0
-1.188792e-01 0.000000e+00 0.0
-1.158665e-01 0.000000e+00 0.0
-1.131148e-01 0.000000e+00 0.0
-1.106040e-01 0.000000e+00 0.0
-1.083146e-01 0.000000e+00 0.0
-1.062283e-01 0.000000e+00 0.0
-1.043279e-01 0.000000e+00 0.0
-1.025971e-01 0.000000e+00 0.0
-1.010210e-01 0.000000e+00 0.0
-9.958555e-02 0.000000e+00 0.0
-9.827780e-02 0.000000e+00 0.0
-9.708584e-02 0.000000e+00 0.0
-9.599870e-02 0.000000e+00 0.0
-9.500637e-02 0.000000e+00 0.0
-9.409970e-02 0.000000e+00 0.0
-9.327041e-02 0.000000e+00 0.0
-9.251098e-02 0.000000e+00 0.0
-9.181467e-02 0.000000e+00 0.0
-9.117541e-02 0.000000e+00 0.0
-9.058781e-02 0.000000e+00 0.0
-9.004707e-02 0.000000e+00 0.0
-8.954898e-02 0.000000e+00 0.0
-8.908987e-02 0.000000e+00 0.0
-8.866657e-02 0.000000e+00 0.0
-8.827638e-02 0.000000e+00 0.0
-8.791708e-02 0.000000e+00 0.0
-8.758688e-02 0.000000e+00 0.0
-8.728440e-02 0.000000e+00 0.0
-8.700870e-02 0.000000e+00 0.0
-8.675925e-02 0.000000e+00 0.0
-8.653591e-02 0.000000e+00 0.0
-8.633899e-02 0.000000e+00 0.0
-8.616922e-02 0.000000e+00 0.0
-8.602780e-02 0.000000e+00 0.0
-8.591639e-02 0.000000e+00 0.0
-8.583721e-02 0.000000e+00 0.0
-8.579319e-02 0.000000e+00 0.0
-8.578809e-02 0.000000e+00 0.0
-8.582434e-02 0.000000e+00 0.0
-8.589993e-02 0.000000e+00 0.0
-8.600833e-02 0.000000e+00 0.0
-8.614384e-02 0.000000e+00 0.0
-8.629510e-02 0.000000e+00 0.0
-8.644078e-02 0.000000e+00 0.0
-8.653750e-02 0.000000e+00 0.0
-8.653750e-02 0.000000e+00 0.0
0.000000e+00 0.000000e+00 0.0
0.000000e+00 0.000000e+00 0.0
0.000000e+00 0.000000e+00 0.0
0.000000e+00 0.000000e+00 0.0
0.000000e+00 0.000000e+00 0.0
0.000000e+00 0.000000e+00 0.0
0.000000e+00 0.000000e+00 0.0
0.000000e+00 0.000000e+00 0.0
0.000000e+00 0.000000e+00 0.0
0.000000e+00 0.000000e+00 0.0
0.000000e+00 0.000000e+00 0.0
0.000000e+00 -5.206586e-04 0.0
-5.213213e-04 5.175251e-04 0.0
-4.900518e-03 4.380202e-03 0.0
-1.167780e-02 6.779795e-03 0.0
-1.966522e-02 7.989481e-03 0.0
-2.847619e-02 8.811846e-03 0.0
-3.820282e-02 9.726731e-03 0.0
-4.913290e-02 1.093007e-02 0.0
-6.161832e-02 1.248564e-02 0.0
-7.600805e-02 1.439008e-02 0.0
-9.257215e-02 1.656436e-02 0.0
-1.113908e-01 1.881869e-02 0.0
-1.321823e-01 2.079139e-02 0.0
-1.541186e-01 2.193615e-02 0.0
-1.755856e-01 2.146701e-02 0.0
-1.938564e-01 1.827107e-02 0.0
-2.054024e-01 1.154624e-02 0.0
-2.062472e-01 8.451509e-04 0.0
-1.933073e-01 -1.293992e-02 0.0
-1.656749e-01 -2.763254e-02 0.0
-1.251010e-01 -4.057413e-02 0.0
-7.566877e-02 -4.943228e-02 0.0
-2.007922e-02 -5.558944e-02 0.0
3.466757e-02 -5.474658e-02 0.0
8.144859e-02 -4.678089e-02 0.0
1.183578e-01 -3.690926e-02 0.0
1.456453e-01 -2.728759e-02 0.0
1.644543e-01 -1.880905e-02 0.0
1.762473e-01 -1.179287e-02 0.0
1.825273e-01 -6.279948e-03 0.0
1.847120e-01 -2.184743e-03 0.0
1.840743e-01 6.377380e-04 0.0
1.813494e-01 2.724807e-03 0.0
1.770931e-01 4.256370e-03 0.0
1.718686e-01 5.224484e-03 0.0
1.661396e-01 5.729049e-03 0.0
1.602536e-01 5.885977e-03 0.0
1.544420e-01 5.811639e-03 0.0
1.488407e-01 5.601279e-03 0.0
1.435356e-01 5.305122e-03 0.0
1.385684e-01 4.967197e-03 0.0
1.339547e-01 4.613676e-03 0.0
1.296931e-01 4.261586e-03 0.0
1.257720e-01 3.921116e-03 0.0
1.221740e-01 3.597939e-03 0.0
1.188792e-01 3.294827e-03 0.0
1.158665e-01 3.012751e-03 0.0
1.131148e-01 2.751630e-03 0.0
1.106040e-01 2.510816e-03 0.0
1.083146e-01 2.289386e-03 0.0
1.062283e-01 2.086293e-03 0.0
1.043279e-01 1.900448e-03 0.0
1.025971e-01 1.730752e-03 0.0
1.010210e-01 1.576112e-03 0.0
9.958555e-02 1.435459e-03 0.0
9.827781e-02 1.307746e-03 0.0
9.708584e-02 1.191963e-03 0.0
9.599870e-02 1.087136e-03 0.0
9.500637e-02 9.923328e-04 0.0
9.409970e-02 9.066658e-04 0.0
9.327041e-02 8.292944e-04 0.0
9.251098e-02 7.594251e-04 0.0
9.181467e-02 6.963121e-04 0.0
9.117541e-02 6.392560e-04 0.0
9.058781e-02 5.876018e-04 0.0
9.004707e-02 5.407362e-04 0.0
8.954898e-02 4.980851e-04 0.0
8.908987e-02 4.591096e-04 0.0
8.866657e-02 4.233027e-04 0.0
8.827638e-02 3.901842e-04 0.0
8.791709e-02 3.592971e-04 0.0
8.758688e-02 3.302024e-04 0.0
8.728441e-02 3.024748e-04 0.0
8.700871e-02 2.756973e-04 0.0
8.675925e-02 2.494566e-04 0.0
8.653591e-02 2.233374e-04 0.0
8.633899e-02 1.969175e-04 0.0
8.616923e-02 1.697626e-04 0.0
8.602780e-02 1.414205e-04 0.0
8.591639e-02 1.114084e-04 0.0
8.583722e-02 7.917590e-05 0.0
8.579319e-02 4.401926e-05 0.0
8.578809e-02 5.098396e-06 0.0
8.582435e-02 -3.625336e-05 0.0
8.589993e-02 -7.558634e-05 0.0
8.600834e-02 -1.084084e-04 0.0
8.614384e-02 -1.355074e-04 0.0
8.629510e-02 -1.512615e-04 0.0
8.644078e-02 -1.456808e-04 0.0
8.653750e-02 -9.672348e-05 0.0
8.653750e-02 5.589377e-10 0.0
0.000000e+00 6.104769e-10 0.0
0.000000e+00 0.000000e+00 0.0
0.000000e+00 0.000000e+00 0.0
0.000000e+00 0.000000e+00 0.0
0.000000e+00 0.000000e+00 0.0
0.000000e+00 0.000000e+00 0.0
0.000000e+00 0.000000e+00 0.0
0.000000e+00 0.000000e+00 0.0
0.000000e+00 0.000000e+00 0.0
0.000000e+00 0.000000e+00 0.0
0.000000e+00 0.000000e+00 0.0
0.000000e+00 -6.340327e-03 0.0
-5.821538e-03 6.339024e-03 0.0
-1.945353e-02 1.801430e-02 0.0
-3.736721e-02 2.469386e-02 0.0
-5.742136e-02 2.804233e-02 0.0
-7.879997e-02 3.018872e-02 0.0
-1.014121e-01 3.233786e-02 0.0
-1.253895e-01 3.490724e-02 0.0
-1.508070e-01 3.790328e-02 0.0
-1.775082e-01 4.109136e-02 0.0
-2.049535e-01 4.400947e-02 0.0
-2.321052e-01 4.597011e-02 0.0
-2.572559e-01 4.594170e-02 0.0
-2.779377e-01 4.261776e-02 0.0
-2.910048e-01 3.453411e-02 0.0
-2.926321e-01 1.989841e-02 0.0
-2.780923e-01 -2.993461e-03 0.0
-2.447257e-01 -3.252156e-02 0.0
-1.937652e-01 -6.390070e-02 0.0
-1.281080e-01 -9.328998e-02 0.0
-5.040880e-02 -1.182733e-01 0.0
3.419197e-02 -1.340329e-01 0.0
1.146379e-01 -1.360352e-01 0.0
1.859674e-01 -1.260760e-01 0.0
2.481668e-01 -1.089805e-01 0.0
3.004679e-01 -8.921048e-02 0.0
3.428015e-01 -6.962116e-02 0.0
3.757227e-01 -5.173019e-02 0.0
4.001467e-01 -3.621689e-02 0.0
4.171541e-01 -2.328737e-02 0.0
4.278608e-01 -1.289140e-02 0.0
4.333290e-01 -4.830528e-03 0.0
4.348603e-01 1.193531e-03 0.0
4.332884e-01 5.828273e-03 0.0
4.292948e-01 9.218124e-03 0.0
4.234668e-01 1.155702e-02 0.0
4.162880e-01 1.306476e-02 0.0
4.081732e-01 1.392648e-02 0.0
3.994952e-01 1.427925e-02 0.0
3.905566e-01 1.424378e-02 0.0
3.815715e-01 1.395226e-02 0.0
3.727018e-01 1.348334e-02 0.0
3.640630e-01 1.290041e-02 0.0
3.557350e-01 1.224916e-02 0.0
3.477703e-01 1.156258e-02 0.0
3.402011e-01 1.086410e-02 0.0
3.330437e-01 1.017006e-02 0.0
3.263036e-01 9.491752e-03 0.0
3.199776e-01 8.836823e-03 0.0
3.140566e-01 8.210385e-03 0.0
3.085272e-01 7.615705e-03 0.0
3.033730e-01 7.054686e-03 0.0
2.985755e-01 6.528210e-03 0.0
2.941152e-01 6.036380e-03 0.0
2.899720e-01 5.578709e-03 0.0
2.861255e-01 5.154268e-03 0.0
2.825556e-01 4.761794e-03 0.0
2.792430e-01 4.399791e-03 0.0
2.761687e-01 4.066597e-03 0.0
2.733149e-01 3.760446e-03 0.0
2.706647e-01 3.479520e-03 0.0
2.682022e-01 3.221980e-03 0.0
2.659125e-01 2.985997e-03 0.0
2.637819e-01 2.769776e-03 0.0
2.617980e-01 2.571563e-03 0.0
2.599491e-01 2.389665e-03 0.0
2.582247e-01 2.222443e-03 0.0
2.566155e-01 2.068323e-03 0.0
2.551130e-01 1.925791e-03 0.0
2.537098e-01 1.793385e-03 0.0
2.523994e-01 1.669694e-03 0.0
2.511763e-01 1.553343e-03 0.0
2.500357e-01 1.442991e-03 0.0
2.489741e-01 1.337312e-03 0.0
2.479886e-01 1.234990e-03 0.0
2.470772e-01 1.134697e-03 0.0
2.462391e-01 1.035086e-03 0.0
2.454740e-01 9.347760e-04 0.0
2.447831e-01 8.323434e-04 0.0
2.441682e-01 7.263218e-04 0.0
2.436322e-01 6.152083e-04 0.0
2.431787e-01 4.975088e-04 0.0
2.428118e-01 3.720222e-04 0.0
2.425364e-01 2.391386e-04 0.0
2.423593e-01 1.014775e-04 0.0
2.422877e-01 -3.681468e-05 0.0
2.423117e-01 -1.595305e-04 0.0
2.424049e-01 -2.444385e-04 0.0
2.425280e-01 -2.687619e-04 0.0
2.426258e-01 -1.945007e-04 0.0
2.426258e-01 6.042916e-09 0.0
0.000000e+00 6.154449e-09 0.0
0.000000e+00 0.000000e+00 0.0
0.000000e+00 0.000000e+00 0.0
0.000000e+00 0.000000e+00 0.0
0.000000e+00 0.000000e+00 0.0
0.000000e+00 0.000000e+00 0.0
0.000000e+00 0.000000e+00 0.0
0.000000e+00 0.000000e+00 0.0
0.000000e+00 0.000000e+00 0.0
0.000000e+00 0.000000e+00 0.0
0.000000e+00 0.000000e+00 0.0
0.000000e+00 -1.696659e-02 0.0
-1.062652e-02 1.696640e-02 0.0
-3.138143e-02 3.876968e-02 0.0
-5.610988e-02 4.942119e-02 0.0
-8.186914e-02 5.379996e-02 0.0
-1.075530e-01 5.587135e-02 0.0
-1.327931e-01 5.757719e-02 0.0
-1.573503e-01 5.946396e-02 0.0
-1.808662e-01 6.141886e-02 0.0
-2.027308e-01 6.295555e-02 0.0
-2.219422e-01 6.322056e-02 0.0
-2.371488e-01 6.117642e-02 0.0
-2.465237e-01 5.531659e-02 0.0
-2.475629e-01 4.365693e-02 0.0
-2.364309e-01 2.340229e-02 0.0
-2.066355e-01 -9.896977e-03 0.0
-1.581382e-01 -5.149079e-02 0.0
-9.225149e-02 -9.840842e-02 0.0
-1.227931e-02 -1.438731e-01 0.0
7.473127e-02 -1.803007e-01 0.0
1.594548e-01 -2.029968e-01 0.0
2.371691e-01 -2.117470e-01 0.0
3.057191e-01 -2.045851e-01 0.0
3.656440e-01 -1.860010e-01 0.0
4.178526e-01 -1.611892e-01 0.0
4.627565e-01 -1.341145e-01 0.0
5.005898e-01 -1.074544e-01 0.0
5.316562e-01 -8.279643e-02 0.0
5.563862e-01 -6.094692e-02 0.0
5.753106e-01 -4.221176e-02 0.0
5.890160e-01 -2.659688e-02 0.0
5.981175e-01 -1.393203e-02 0.0
6.032575e-01 -3.946417e-03 0.0
6.053669e-01 3.718901e-03 0.0
6.049478e-01 9.637144e-03 0.0
6.024501e-01 1.405471e-02 0.0
5.982694e-01 1.724552e-02 0.0
5.927443e-01 1.945156e-02 0.0
5.861471e-01 2.087652e-02 0.0
5.786951e-01 2.169569e-02 0.0
5.706343e-01 2.201308e-02 0.0
5.621824e-01 2.193531e-02 0.0
5.535116e-01 2.157119e-02 0.0
5.447616e-01 2.099913e-02 0.0
5.360438e-01 2.028034e-02 0.0
5.274461e-01 1.946187e-02 0.0
5.190365e-01 1.857963e-02 0.0
5.108671e-01 1.766114e-02 0.0
5.029763e-01 1.672760e-02 0.0
4.953913e-01 1.579538e-02 0.0
4.881299e-01 1.487710e-02 0.0
4.812023e-01 1.398235e-02 0.0
4.746122e-01 1.311829e-02 0.0
4.683585e-01 1.229005e-02 0.0
4.624361e-01 1.150113e-02 0.0
4.568367e-01 1.075367e-02 0.0
4.515497e-01 1.004874e-02 0.0
4.465630e-01 9.386506e-03 0.0
4.418632e-01 8.766451e-03 0.0
4.374361e-01 8.187504e-03 0.0
4.332675e-01 7.648171e-03 0.0
4.293428e-01 7.146646e-03 0.0
4.256479e-01 6.680894e-03 0.0
4.221690e-01 6.248724e-03 0.0
4.188927e-01 5.847843e-03 0.0
4.158064e-01 5.475899e-03 0.0
4.128984e-01 5.130516e-03 0.0
4.101574e-01 4.809314e-03 0.0
4.075732e-01 4.509926e-03 0.0
4.051366e-01 4.230002e-03 0.0
4.028391e-01 3.967216e-03 0.0
4.006732e-01 3.719257e-03 0.0
3.986324e-01 3.483824e-03 0.0
3.967110e-01 3.258615e-03 0.0
3.949047e-01 3.041311e-03 0.0
3.932099e-01 2.829555e-03 0.0
3.916240e-01 2.620936e-03 0.0
3.901458e-01 2.412958e-03 0.0
3.887751e-01 2.203037e-03 0.0
3.875130e-01 1.988504e-03 0.0
3.863615e-01 1.766644e-03 0.0
3.853242e-01 1.534815e-03 0.0
3.844054e-01 1.290795e-03 0.0
3.836109e-01 1.033665e-03 0.0
3.829476e-01 7.647768e-04 0.0
3.824216e-01 4.892230e-04 0.0
3.820400e-01 2.220600e-04 0.0
3.818059e-01 -1.038487e-05 0.0
3.816969e-01 -1.597359e-04 0.0
3.816739e-01 -1.715093e-04 0.0
3.816739e-01 1.307208e-08 0.0
0.000000e+00 1.325550e-08 0.0
0.000000e+00 0.000000e+00 0.0
0.000000e+00 0.000000e+00 0.0
0.000000e+00 0.000000e+00 0.0
0.000000e+00 0.000000e+00 0.0
0.000000e+00 0.000000e+00 0.0
0.000000e+00 0.000000e+00 0.0
0.000000e+00 0.000000e+00 0.0
0.000000e+00 0.000000e+00 0.0
0.000000e+00 0.000000e+00 0.0
0.000000e+00 0.000000e+00 0.0
0.000000e+00 -3.010902e-02 0.0
-1.314177e-02 3.010895e-02 0.0
-3.668252e-02 6.231003e-02 0.0
-6.238155e-02 7.511876e-02 0.0
-8.687482e-02 7.829208e-02 0.0
-1.090700e-01 7.806651e-02 0.0
-1.285411e-01 7.704917e-02 0.0
-1.449403e-01 7.586413e-02 0.0
-1.578287e-01 7.430787e-02 0.0
-1.666416e-01 7.176869e-02 0.0
-1.704086e-01 6.698749e-02 0.0
-1.677198e-01 5.848748e-02 0.0
-1.561306e-01 4.372728e-02 0.0
-1.320499e-01 1.957641e-02 0.0
-8.750310e-02 -2.114433e-02 0.0
-2.382402e-02 -7.357591e-02 0.0
5.525714e-02 -1.305720e-01 0.0
1.404280e-01 -1.835795e-01 0.0
2.247929e-01 -2.282382e-01 0.0
3.039610e-01 -2.594688e-01 0.0
3.754219e-01 -2.744575e-01 0.0
4.365470e-01 -2.728720e-01 0.0
4.881799e-01 -2.562180e-01 0.0
5.324102e-01 -2.302314e-01 0.0
5.706356e-01 -1.994148e-01 0.0
6.036574e-01 -1.671363e-01 0.0
6.319231e-01 -1.357201e-01 0.0
6.557325e-01 -1.066057e-01 0.0
6.753520e-01 -8.056644e-02 0.0
6.910604e-01 -5.792021e-02 0.0
7.031607e-01 -3.869722e-02 0.0
7.119820e-01 -2.275333e-02 0.0
7.178838e-01 -9.848133e-03 0.0
7.212907e-01 3.119996e-04 0.0
7.226730e-01 8.254832e-03 0.0
7.223548e-01 1.437292e-02 0.0
7.205961e-01 1.900417e-02 0.0
7.176179e-01 2.242982e-02 0.0
7.136118e-01 2.488252e-02 0.0
7.087532e-01 2.655428e-02 0.0
7.031724e-01 2.759395e-02 0.0
6.969817e-01 2.812596e-02 0.0
6.903231e-01 2.822988e-02 0.0
6.833225e-01 2.799973e-02 0.0
6.760878e-01 2.751498e-02 0.0
6.687113e-01 2.683836e-02 0.0
6.612716e-01 2.601931e-02 0.0
6.538355e-01 2.509733e-02 0.0
6.464587e-01 2.410437e-02 0.0
6.391876e-01 2.306651e-02 0.0
6.320596e-01 2.200506e-02 0.0
6.251046e-01 2.093733e-02 0.0
6.183457e-01 1.987720e-02 0.0
6.118001e-01 1.883569e-02 0.0
6.054798e-01 1.782138e-02 0.0
5.993928e-01 1.684073e-02 0.0
5.935431e-01 1.589845e-02 0.0
5.879318e-01 1.499777e-02 0.0
5.825576e-01 1.414066e-02 0.0
5.774170e-01 1.332805e-02 0.0
5.725052e-01 1.256004e-02 0.0
5.678158e-01 1.183604e-02 0.0
5.633418e-01 1.115488e-02 0.0
5.590755e-01 1.051500e-02 0.0
5.550089e-01 9.914473e-03 0.0
5.511337e-01 9.351107e-03 0.0
5.474416e-01 8.822521e-03 0.0
5.439248e-01 8.326183e-03 0.0
5.405753e-01 7.859449e-03 0.0
5.373857e-01 7.419586e-03 0.0
5.343491e-01 7.003793e-03 0.0
5.314591e-01 6.609206e-03 0.0
5.287101e-01 6.232896e-03 0.0
5.260968e-01 5.871869e-03 0.0
5.236151e-01 5.523049e-03 0.0
5.212614e-01 5.183263e-03 0.0
5.190331e-01 4.849210e-03 0.0
5.169286e-01 4.517423e-03 0.0
5.149474e-01 4.184258e-03 0.0
5.130900e-01 3.845893e-03 0.0
5.113583e-01 3.498365e-03 0.0
5.097554e-01 3.137684e-03 0.0
5.082861e-01 2.760140e-03 0.0
5.069568e-01 2.362932e-03 0.0
5.057764e-01 1.945149e-03 0.0
5.047561e-01 1.509542e-03 0.0
5.039115e-01 1.066684e-03 0.0
5.032616e-01 6.395138e-04 0.0
5.028284e-01 2.734782e-04 0.0
5.026169e-01 4.001084e-05 0.0
5.026169e-01 1.940133e-08 0.0
0.000000e+00 1.965180e-08 0.0
0.000000e+00 0.000000e+00 0.0
0.000000e+00 0.000000e+00 0.0
0.000000e+00 0.000000e+00 0.0
0.000000e+00 0.000000e+00 0.0
0.000000e+00 0.000000e+00 0.0
0.000000e+00 0.000000e+00 0.0
0.000000e+00 0.000000e+00 0.0
0.000000e+00 0.000000e+00 0.0
0.000000e+00 0.000000e+00 0.0
0.000000e+00 0.000000e+00 0.0
0.000000e+00 -4.361172e-02 0.0
-1.350186e-02 4.361168e-02 0.0
-3.553547e-02 8.434343e-02 0.0
-5.694614e-02 9.652892e-02 0.0
-7.478613e-02 9.613192e-02 0.0
-8.837635e-02 9.165701e-02 0.0
-9.747008e-02 8.614335e-02 0.0
-1.018012e-01 8.019559e-02 0.0
-1.008753e-01 7.338221e-02 0.0
-9.419767e-02 6.509124e-02 0.0
-8.006073e-02 5.285064e-02 0.0
-5.621635e-02 3.464316e-02 0.0
-1.553870e-02 3.049761e-03 0.0
4.642878e-02 -4.239087e-02 0.0
1.222936e-01 -9.700898e-02 0.0
2.056025e-01 -1.568847e-01 0.0
2.902618e-01 -2.152314e-01 0.0
3.717087e-01 -2.650266e-01 0.0
4.454660e-01 -3.019956e-01 0.0
5.092061e-01 -3.232089e-01 0.0
5.622021e-01 -3.274533e-01 0.0
6.043113e-01 -3.149810e-01 0.0
6.388340e-01 -2.907408e-01 0.0
6.679049e-01 -2.593024e-01 0.0
6.928674e-01 -2.243774e-01 0.0
7.145067e-01 -1.887756e-01 0.0
7.332571e-01 -1.544704e-01 0.0
7.493556e-01 -1.227042e-01 0.0
7.629492e-01 -9.416012e-02 0.0
7.741582e-01 -6.912924e-02 0.0
7.831106e-01 -4.764966e-02 0.0
7.899540e-01 -2.959671e-02 0.0
7.948525e-01 -1.474659e-02 0.0
7.979921e-01 -2.827617e-03 0.0
7.996831e-01 6.563861e-03 0.0
8.001384e-01 1.391760e-02 0.0
7.995233e-01 1.961929e-02 0.0
7.979772e-01 2.397585e-02 0.0
7.956241e-01 2.723567e-02 0.0
7.925771e-01 2.960125e-02 0.0
7.889343e-01 3.123674e-02 0.0
7.847824e-01 3.227789e-02 0.0
7.801781e-01 3.283422e-02 0.0
7.751932e-01 3.298458e-02 0.0
7.699032e-01 3.280499e-02 0.0
7.643755e-01 3.236607e-02 0.0
7.586709e-01 3.172389e-02 0.0
7.528440e-01 3.092421e-02 0.0
7.469433e-01 3.000507e-02 0.0
7.410113e-01 2.899850e-02 0.0
7.350849e-01 2.793152e-02 0.0
7.291955e-01 2.682667e-02 0.0
7.233701e-01 2.570265e-02 0.0
7.176309e-01 2.457487e-02 0.0
7.119965e-01 2.345582e-02 0.0
7.064817e-01 2.235552e-02 0.0
7.010983e-01 2.128182e-02 0.0
6.958554e-01 2.024069e-02 0.0
6.907595e-01 1.923651e-02 0.0
6.858153e-01 1.827230e-02 0.0
6.810254e-01 1.734994e-02 0.0
6.763911e-01 1.647034e-02 0.0
6.719124e-01 1.563359e-02 0.0
6.675882e-01 1.483914e-02 0.0
6.634168e-01 1.408590e-02 0.0
6.593956e-01 1.337230e-02 0.0
6.555217e-01 1.269644e-02 0.0
6.517918e-01 1.205610e-02 0.0
6.482024e-01 1.144882e-02 0.0
6.447501e-01 1.087195e-02 0.0
6.414312e-01 1.032263e-02 0.0
6.382426e-01 9.797860e-03 0.0
6.351810e-01 9.294477e-03 0.0
6.322437e-01 8.809159e-03 0.0
6.294283e-01 8.338421e-03 0.0
6.267330e-01 7.878606e-03 0.0
6.241564e-01 7.425837e-03 0.0
6.216978e-01 6.975959e-03 0.0
6.193576e-01 6.524519e-03 0.0
6.171367e-01 6.066757e-03 0.0
6.150375e-01 5.597607e-03 0.0
6.130634e-01 5.111759e-03 0.0
6.112197e-01 4.603838e-03 0.0
6.095138e-01 4.068784e-03 0.0
6.079565e-01 3.502520e-03 0.0
6.065628e-01 2.903200e-03 0.0
6.053557e-01 2.273743e-03 0.0
6.043697e-01 1.625580e-03 0.0
6.036571e-01 9.860945e-04 0.0
6.032875e-01 4.095813e-04 0.0
6.032875e-01 2.309259e-08 0.0
0.000000e+00 2.338594e-08 0.0
0.000000e+00 0.000000e+00 0.0
0.000000e+00 0.000000e+00 0.0
0.000000e+00 0.000000e+00 0.0
0.000000e+00 0.000000e+00 0.0
0.000000e+00 0.000000e+00 0.0
0.000000e+00 0.000000e+00 0.0
0.000000e+00 0.000000e+00 0.0
0.000000e+00 0.000000e+00 0.0
0.000000e+00 0.000000e+00 0.0
0.000000e+00 0.000000e+00 0.0
0.000000e+00 -5.675218e-02 0.0
-1.313988e-02 5.675324e-02 0.0
-3.053106e-02 1.017343e-01 0.0
-4.348006e-02 1.094777e-01 0.0
-5.066720e-02 1.033197e-01 0.0
-5.208588e-02 9.307690e-02 0.0
-4.779702e-02 8.185561e-02 0.0
-3.756860e-02 6.996775e-02 0.0
-1.999547e-02 5.580918e-02 0.0
6.412407e-03 3.868321e-02 0.0
4.620559e-02 1.305730e-02 0.0
1.046469e-01 -2.379813e-02 0.0
1.780502e-01 -7.035342e-02 0.0
2.608763e-01 -1.252167e-01 0.0
3.478439e-01 -1.839763e-01 0.0
4.327622e-01 -2.418030e-01 0.0
5.106433e-01 -2.931127e-01 0.0
5.784876e-01 -3.328711e-01 0.0
6.345300e-01 -3.580381e-01 0.0
6.784872e-01 -3.671658e-01 0.0
7.108659e-01 -3.598318e-01 0.0
7.350132e-01 -3.391282e-01 0.0
7.537151e-01 -3.094428e-01 0.0
7.689107e-01 -2.744983e-01 0.0
7.818193e-01 -2.372860e-01 0.0
7.931363e-01 -2.000925e-01 0.0
8.032199e-01 -1.645539e-01 0.0
8.122063e-01 -1.316906e-01 0.0
8.201144e-01 -1.020683e-01 0.0
8.269166e-01 -7.593149e-02 0.0
8.325906e-01 -5.332364e-02 0.0
8.371356e-01 -3.414160e-02 0.0
8.405628e-01 -1.817385e-02 0.0
8.429056e-01 -5.170450e-03 0.0
8.442999e-01 5.169606e-03 0.0
8.448545e-01 1.336299e-02 0.0
8.446603e-01 1.981348e-02 0.0
8.437995e-01 2.483665e-02 0.0
8.423493e-01 2.868585e-02 0.0
8.403828e-01 3.156778e-02 0.0
8.379670e-01 3.365249e-02 0.0
8.351635e-01 3.508143e-02 0.0
8.320255e-01 3.597221e-02 0.0
8.285893e-01 3.642077e-02 0.0
8.248924e-01 3.650185e-02 0.0
8.209762e-01 3.628234e-02 0.0
8.168800e-01 3.582010e-02 0.0
8.126408e-01 3.516339e-02 0.0
8.082926e-01 3.435328e-02 0.0
8.038660e-01 3.342507e-02 0.0
7.993882e-01 3.240931e-02 0.0
7.948833e-01 3.133164e-02 0.0
7.903722e-01 3.021369e-02 0.0
7.858736e-01 2.907353e-02 0.0
7.814032e-01 2.792617e-02 0.0
7.769749e-01 2.678386e-02 0.0
7.726002e-01 2.565647e-02 0.0
7.682891e-01 2.455182e-02 0.0
7.640497e-01 2.347592e-02 0.0
7.598887e-01 2.243327e-02 0.0
7.558116e-01 2.142703e-02 0.0
7.518227e-01 2.045926e-02 0.0
7.479252e-01 1.953104e-02 0.0
7.441217e-01 1.864269e-02 0.0
7.404137e-01 1.779384e-02 0.0
7.368025e-01 1.698354e-02 0.0
7.332885e-01 1.621039e-02 0.0
7.298720e-01 1.547259e-02 0.0
7.265529e-01 1.476799e-02 0.0
7.233307e-01 1.409415e-02 0.0
7.202049e-01 1.344835e-02 0.0
7.171751e-01 1.282766e-02 0.0
7.142408e-01 1.222887e-02 0.0
7.114014e-01 1.164856e-02 0.0
7.086567e-01 1.108307e-02 0.0
7.060068e-01 1.052851e-02 0.0
7.034519e-01 9.980691e-03 0.0
7.009929e-01 9.435000e-03 0.0
6.986310e-01 8.886418e-03 0.0
6.963683e-01 8.329472e-03 0.0
6.942077e-01 7.758194e-03 0.0
6.921534e-01 7.166095e-03 0.0
6.902110e-01 6.546182e-03 0.0
6.883888e-01 5.891048e-03 0.0
6.866982e-01 5.193061e-03 0.0
6.851566e-01 4.444773e-03 0.0
6.837906e-01 3.639737e-03 0.0
6.826424e-01 2.773863e-03 0.0
6.817796e-01 1.848892e-03 0.0
6.813041e-01 8.850369e-04 0.0
6.813041e-01 2.269991e-08 0.0
0.000000e+00 2.300527e-08 0.0
0.000000e+00 0.000000e+00 0.0
0.000000e+00 0.000000e+00 0.0
0.000000e+00 0.000000e+00 0.0
0.000000e+00 0.000000e+00 0.0
0.000000e+00 0.000000e+00 0.0
0.000000e+00 0.000000e+00 0.0
0.000000e+00 0.000000e+00 0.0
0.000000e+00 0.000000e+00 0.0
0.000000e+00 0.000000e+00 0.0
0.000000e+00 0.000000e+00 0.0
0.000000e+00 -7.039679e-02 0.0
-1.364371e-02 7.039875e-02 0.0
-2.291100e-02 1.110009e-01 0.0
-2.230131e-02 1.088672e-01 0.0
-1.382982e-02 9.484778e-02 0.0
1.892593e-03 7.735453e-02 0.0
2.498943e-02 5.875899e-02 0.0
5.575111e-02 3.920620e-02 0.0
9.779708e-02 1.376316e-02 0.0
1.559710e-01 -1.949089e-02 0.0
2.283598e-01 -5.933160e-02 0.0
3.106055e-01 -1.060440e-01 0.0
3.983495e-01 -1.580973e-01 0.0
4.861008e-01 -2.129678e-01 0.0
5.688792e-01 -2.667545e-01 0.0
6.423000e-01 -3.152238e-01 0.0
7.034419e-01 -3.542548e-01 0.0
7.511800e-01 -3.806094e-01 0.0
7.857325e-01 -3.925905e-01 0.0
8.082098e-01 -3.896429e-01 0.0
8.215267e-01 -3.731485e-01 0.0
8.291127e-01 -3.467143e-01 0.0
8.334564e-01 -3.137867e-01 0.0
8.362306e-01 -2.772726e-01 0.0
8.384444e-01 -2.394998e-01 0.0
8.406395e-01 -2.022875e-01 0.0
8.430678e-01 -1.669821e-01 0.0
8.457473e-01 -1.343702e-01 0.0
8.485727e-01 -1.048937e-01 0.0
8.513840e-01 -7.874283e-02 0.0
8.540320e-01 -5.597158e-02 0.0
8.563936e-01 -3.650323e-02 0.0
8.583507e-01 -2.013094e-02 0.0
8.598178e-01 -6.637589e-03 0.0
8.607640e-01 4.223470e-03 0.0
8.612003e-01 1.292664e-02 0.0
8.611501e-01 1.986369e-02 0.0
8.606472e-01 2.533961e-02 0.0
8.597321e-01 2.960092e-02 0.0
8.584488e-01 3.285112e-02 0.0
8.568412e-01 3.526008e-02 0.0
8.549517e-01 3.697086e-02 0.0
8.528198e-01 3.810419e-02 0.0
8.504788e-01 3.876171e-02 0.0
8.479522e-01 3.902843e-02 0.0
8.452619e-01 3.897262e-02 0.0
8.424319e-01 3.865012e-02 0.0
8.394858e-01 3.810955e-02 0.0
8.364456e-01 3.739344e-02 0.0
8.333316e-01 3.653905e-02 0.0
8.301613e-01 3.557958e-02 0.0
8.269506e-01 3.454243e-02 0.0
8.237132e-01 3.345103e-02 0.0
8.204616e-01 3.232514e-02 0.0
8.172066e-01 3.118123e-02 0.0
8.139575e-01 3.003288e-02 0.0
8.107228e-01 2.889116e-02 0.0
8.075097e-01 2.776494e-02 0.0
8.043245e-01 2.666119e-02 0.0
8.011725e-01 2.558523e-02 0.0
7.980585e-01 2.454098e-02 0.0
7.949866e-01 2.353116e-02 0.0
7.919602e-01 2.255746e-02 0.0
7.889822e-01 2.162069e-02 0.0
7.860551e-01 2.072094e-02 0.0
7.831810e-01 1.985766e-02 0.0
7.803616e-01 1.902977e-02 0.0
7.775985e-01 1.823576e-02 0.0
7.748928e-01 1.747368e-02 0.0
7.722456e-01 1.674128e-02 0.0
7.696580e-01 1.603597e-02 0.0
7.671308e-01 1.535486e-02 0.0
7.646649e-01 1.469478e-02 0.0
7.622612e-01 1.405226e-02 0.0
7.599208e-01 1.342353e-02 0.0
7.576447e-01 1.280460e-02 0.0
7.554342e-01 1.219112e-02 0.0
7.532911e-01 1.157816e-02 0.0
7.512172e-01 1.096028e-02 0.0
7.492152e-01 1.033147e-02 0.0
7.472884e-01 9.685032e-03 0.0
7.454410e-01 9.013483e-03 0.0
7.436788e-01 8.308382e-03 0.0
7.420097e-01 7.560137e-03 0.0
7.404451e-01 6.757687e-03 0.0
7.390018e-01 5.888003e-03 0.0
7.377063e-01 4.935244e-03 0.0
7.366009e-01 3.879331e-03 0.0
7.357548e-01 2.694927e-03 0.0
7.352771e-01 1.362725e-03 0.0
7.352771e-01 1.755753e-08 0.0
0.000000e+00 1.783155e-08 0.0
0.000000e+00 0.000000e+00 0.0
0.000000e+00 0.000000e+00 0.0
0.000000e+00 0.000000e+00 0.0
0.000000e+00 0.000000e+00 0.0
0.000000e+00 0.000000e+00 0.0
0.000000e+00 0.000000e+00 0.0
0.000000e+00 0.000000e+00 0.0
0.000000e+00 0.000000e+00 0.0
0.000000e+00 0.000000e+00 0.0
0.000000e+00 0.000000e+00 0.0
0.000000e+00 -8.412542e-02 0.0
-1.372709e-02 8.412675e-02 0.0
-5.677019e-03 1.029504e-01 0.0
1.885933e-02 8.433090e-02 0.0
5.211571e-02 6.159171e-02 0.0
9.300570e-02 3.646482e-02 0.0
1.442363e-01 7.528450e-03 0.0
2.088189e-01 -2.537657e-02 0.0
2.842300e-01 -6.164823e-02 0.0
3.670198e-01 -1.022809e-01 0.0
4.544069e-01 -1.467189e-01 0.0
5.424326e-01 -1.940697e-01 0.0
6.268908e-01 -2.425552e-01 0.0
7.036026e-01 -2.896795e-01 0.0
7.691808e-01 -3.323326e-01 0.0
8.213307e-01 -3.673740e-01 0.0
8.591816e-01 -3.921058e-01 0.0
8.832932e-01 -4.047211e-01 0.0
8.952209e-01 -4.045180e-01 0.0
8.974749e-01 -3.918967e-01 0.0
8.937732e-01 -3.694468e-01 0.0
8.869195e-01 -3.398606e-01 0.0
8.789622e-01 -3.058295e-01 0.0
8.712249e-01 -2.695353e-01 0.0
8.644513e-01 -2.327261e-01 0.0
8.589940e-01 -1.968301e-01 0.0
8.549870e-01 -1.629751e-01 0.0
8.523217e-01 -1.317050e-01 0.0
8.507921e-01 -1.033641e-01 0.0
8.501600e-01 -7.811078e-02 0.0
8.501654e-01 -5.597693e-02 0.0
8.505536e-01 -3.689145e-02 0.0
8.511211e-01 -2.069840e-02 0.0
8.516969e-01 -7.213466e-03 0.0
8.521438e-01 3.776623e-03 0.0
8.523756e-01 1.269490e-02 0.0
8.523533e-01 1.988594e-02 0.0
8.520668e-01 2.562612e-02 0.0
8.515233e-01 3.014442e-02 0.0
8.507405e-01 3.363395e-02 0.0
8.497414e-01 3.625914e-02 0.0
8.485515e-01 3.816075e-02 0.0
8.471962e-01 3.945947e-02 0.0
8.456993e-01 4.025864e-02 0.0
8.440811e-01 4.064664e-02 0.0
8.423553e-01 4.069836e-02 0.0
8.405359e-01 4.046957e-02 0.0
8.386373e-01 4.000814e-02 0.0
8.366732e-01 3.935754e-02 0.0
8.346558e-01 3.855645e-02 0.0
8.325964e-01 3.763902e-02 0.0
8.305045e-01 3.663430e-02 0.0
8.283885e-01 3.556702e-02 0.0
8.262556e-01 3.445802e-02 0.0
8.241122e-01 3.332470e-02 0.0
8.219636e-01 3.218145e-02 0.0
8.198147e-01 3.104001e-02 0.0
8.176699e-01 2.990983e-02 0.0
8.155327e-01 2.879837e-02 0.0
8.134065e-01 2.771140e-02 0.0
8.112943e-01 2.665320e-02 0.0
8.091986e-01 2.562681e-02 0.0
8.071219e-01 2.463420e-02 0.0
8.050661e-01 2.367644e-02 0.0
8.030333e-01 2.275382e-02 0.0
8.010249e-01 2.186597e-02 0.0
7.990427e-01 2.101199e-02 0.0
7.970880e-01 2.019046e-02 0.0
7.951621e-01 1.939956e-02 0.0
7.932663e-01 1.863711e-02 0.0
7.914017e-01 1.790057e-02 0.0
7.895695e-01 1.718707e-02 0.0
7.877708e-01 1.649345e-02 0.0
7.860069e-01 1.581618e-02 0.0
7.842791e-01 1.515135e-02 0.0
7.825887e-01 1.449496e-02 0.0
7.809372e-01 1.384266e-02 0.0
7.793262e-01 1.318916e-02 0.0
7.777577e-01 1.252871e-02 0.0
7.762343e-01 1.185491e-02 0.0
7.747588e-01 1.116050e-02 0.0
7.733351e-01 1.043722e-02 0.0
7.719680e-01 9.675438e-03 0.0
7.706644e-01 8.863751e-03 0.0
7.694339e-01 7.988205e-03 0.0
7.682909e-01 7.031043e-03 0.0
7.672576e-01 5.968492e-03 0.0
7.663700e-01 4.766981e-03 0.0
7.656865e-01 3.378440e-03 0.0
7.652988e-01 1.750346e-03 0.0
7.652989e-01 7.913686e-09 0.0
0.000000e+00 8.119966e-09 0.0
0.000000e+00 0.000000e+00 0.0
0.000000e+00 0.000000e+00 0.0
0.000000e+00 0.000000e+00 0.0
0.000000e+00 0.000000e+00 0.0
0.000000e+00 0.000000e+00 0.0
0.000000e+00 0.000000e+00 0.0
0.000000e+00 0.000000e+00 0.0
0.000000e+00 0.000000e+00 0.0
0.000000e+00 0.000000e+00 0.0
0.000000e+00 0.000000e+00 0.0
0.000000e+00 -7.897014e-02 0.0
5.157319e-03 7.896872e-02 0.0
5.424091e-02 5.386499e-02 0.0
1.182777e-01 2.029306e-02 0.0
1.921974e-01 -1.232814e-02 0.0
2.730316e-01 -4.436914e-02 0.0
3.576149e-01 -7.705477e-02 0.0
4.442402e-01 -1.120020e-01 0.0
5.316811e-01 -1.490894e-01 0.0
6.175836e-01 -1.881838e-01 0.0
6.993845e-01 -2.285199e-01 0.0
7.742254e-01 -2.689106e-01 0.0
8.393331e-01 -3.076627e-01 0.0
8.923599e-01 -3.427061e-01 0.0
9.318080e-01 -3.717808e-01 0.0