# vtk DataFile Version 3.0
Vector Field
ASCII
DATASET RECTILINEAR_GRID
DIMENSIONS 102 22 1
X_COORDINATES 102 double
0.000000 0.100000 0.200000 0.300000 0.400000 0.500000 0.600000 0.700000 0.800000 0.900000 1.000000 1.100000 1.200000 1.300000 1.400000 1.500000 1.600000 1.700000 1.800000 1.900000 2.000000 2.100000 2.200000 2.300000 2.400000 2.500000 2.600000 2.700000 2.800000 2.900000 3.000000 3.100000 3.200000 3.300000 3.400000 3.500000 3.600000 3.700000 3.800000 3.900000 4.000000 4.100000 4.200000 4.300000 4.400000 4.500000 4.600000 4.700000 4.800000 4.900000 5.000000 5.100000 5.200000 5.300000 5.400000 5.500000 5.600000 5.700000 5.800000 5.900000 6.000000 6.100000 6.200000 6.300000 6.400000 6.500000 6.600000 6.700000 6.800000 6.900000 7.000000 7.100000 7.200000 7.300000 7.400000 7.500000 7.600000 7.700000 7.800000 7.900000 8.000000 8.100000 8.200000 8.300000 8.400000 8.500000 8.600000 8.700000 8.800000 8.900000 9.000000 9.100000 9.200000 9.300000 9.400000 9.500000 9.600000 9.700000 9.800000 9.900000 10.000000 10.100000 
Y_COORDINATES 22 double
0.000000 0.100000 0.200000 0.300000 0.400000 0.500000 0.600000 0.700000 0.800000 0.900000 1.000000 1.100000 1.200000 1.300000 1.400000 1.500000 1.600000 1.700000 1.800000 1.900000 2.000000 2.100000 
Z_COORDINATES 1 double
0.0
POINT_DATA 2244
VECTORS Velocity double
0.000000e+00 0.000000e+00 0.0
-0.000000e+00 0.000000e+00 0.0
-0.000000e+00 0.000000e+00 0.0
-0.000000e+00 0.000000e+00 0.0
-0.000000e+00 0.000000e+00 0.0
-0.000000e+00 0.000000e+00 0.0
-0.000000e+00 0.000000e+00 0.0
-0.000000e+00 0.000000e+00 0.0
-0.000000e+00 0.000000e+00 0.0
-0.000000e+00 0.000000e+00 0.0
-0.000000e+00 0.000000e+00 0.0
5.316638e-04 0.000000e+00 0.0
4.898024e-03 0.000000e+00 0.0
1.164865e-02 0.000000e+00 0.0
1.959998e-02 0.000000e+00 0.0
2.836749e-02 0.000000e+00 0.0
3.804104e-02 0.000000e+00 0.0
4.890152e-02 0.000000e+00 0.0
6.129236e-02 0.000000e+00 0.0
7.555719e-02 0.000000e+00 0.0
9.196841e-02 0.000000e+00 0.0
1.106175e-01 0.000000e+00 0.0
1.312442e-01 0.000000e+00 0.0
1.530487e-01 0.000000e+00 0.0
1.744588e-01 0.000000e+00 0.0
1.927906e-01 0.000000e+00 0.0
2.045751e-01 0.000000e+00 0.0
2.058745e-01 0.000000e+00 0.0
1.935562e-01 0.000000e+00 0.0
1.666557e-01 0.000000e+00 0.0
1.267404e-01 0.000000e+00 0.0
7.780972e-02 0.000000e+00 0.0
2.263933e-02 0.000000e+00 0.0
-3.213551e-02 0.000000e+00 0.0
-7.916413e-02 0.000000e+00 0.0
-1.164099e-01 0.000000e+00 0.0
-1.440513e-01 0.000000e+00 0.0
-1.631943e-01 0.000000e+00 0.0
-1.752822e-01 0.000000e+00 0.0
-1.818089e-01 0.000000e+00 0.0
-1.841876e-01 0.000000e+00 0.0
-1.836910e-01 0.000000e+00 0.0
-1.810859e-01 0.000000e+00 0.0
-1.769242e-01 0.000000e+00 0.0
-1.717691e-01 0.000000e+00 0.0
-1.660873e-01 0.000000e+00 0.0
-1.602306e-01 0.000000e+00 0.0
-1.544365e-01 0.000000e+00 0.0
-1.488439e-01 0.000000e+00 0.0
-1.435414e-01 0.000000e+00 0.0
-1.385728e-01 0.000000e+00 0.0
-1.339553e-01 0.000000e+00 0.0
-1.296885e-01 0.000000e+00 0.0
-1.257614e-01 0.000000e+00 0.0
-1.221569e-01 0.000000e+00 0.0
-1.188550e-01 0.000000e+00 0.0
-1.158350e-01 0.000000e+00 0.0
-1.130761e-01 0.000000e+00 0.0
-1.105580e-01 0.000000e+00 0.0
-1.082615e-01 0.000000e+00 0.0
-1.061682e-01 0.000000e+00 0.0
-1.042609e-01 0.000000e+00 0.0
-1.025233e-01 0.000000e+00 0.0
-1.009406e-01 0.000000e+00 0.0
-9.949857e-02 0.000000e+00 0.0
-9.818442e-02 0.000000e+00 0.0
-9.698617e-02 0.000000e+00 0.0
-9.589287e-02 0.000000e+00 0.0
-9.489445e-02 0.000000e+00 0.0
-9.398179e-02 0.000000e+00 0.0
-9.314657e-02 0.000000e+00 0.0
-9.238127e-02 0.000000e+00 0.0
-9.167912e-02 0.000000e+00 0.0
-9.103404e-02 0.000000e+00 0.0
-9.044062e-02 0.000000e+00 0.0
-8.989407e-02 0.000000e+00 0.0
-8.939018e-02 0.000000e+00 0.0
-8.892526e-02 0.000000e+00 0.0
-8.849615e-02 0.000000e+00 0.0
-8.810013e-02 0.000000e+00 0.0
-8.773499e-02 0.000000e+00 0.0
-8.739893e-02 0.000000e+00 0.0
-8.709061e-02 0.000000e+00 0.0
-8.680908e-02 0.000000e+00 0.0
-8.655382e-02 0.000000e+00 0.0
-8.632475e-02 0.000000e+00 0.0
-8.612217e-02 0.000000e+00 0.0
-8.594687e-02 0.000000e+00 0.0
-8.580006e-02 0.000000e+00 0.0
-8.568343e-02 0.000000e+00 0.0
-8.559920e-02 0.000000e+00 0.0
-8.555021e-02 0.000000e+00 0.0
-8.554009e-02 0.000000e+00 0.0
-8.557215e-02 0.000000e+00 0.0
-8.564467e-02 0.000000e+00 0.0
-8.575148e-02 0.000000e+00 0.0
-8.588591e-02 0.000000e+00 0.0
-8.603688e-02 0.000000e+00 0.0
-8.618252e-02 0.000000e+00 0.0
-8.627874e-02 0.000000e+00 0.0
-8.627874e-02 0.000000e+00 0.0
0.000000e+00 0.000000e+00 0.0
0.000000e+00 0.000000e+00 0.0
0.000000e+00 0.000000e+00 0.0
0.000000e+00 0.000000e+00 0.0
0.000000e+00 0.000000e+00 0.0
0.000000e+00 0.000000e+00 0.0
0.000000e+00 0.000000e+00 0.0
0.000000e+00 0.000000e+00 0.0
0.000000e+00 0.000000e+00 0.0
0.000000e+00 0.000000e+00 0.0
0.000000e+00 0.000000e+00 0.0
0.000000e+00 -5.134720e-04 0.0
-5.064870e-04 5.285857e-04 0.0
-4.872228e-03 4.384735e-03 0.0
-1.163633e-02 6.769946e-03 0.0
-1.960666e-02 7.960619e-03 0.0
-2.838753e-02 8.762778e-03 0.0
-3.806139e-02 9.659717e-03 0.0
-4.891049e-02 1.084804e-02 0.0
-6.128679e-02 1.238863e-02 0.0
-7.554383e-02 1.427508e-02 0.0
-9.195842e-02 1.642816e-02 0.0
-1.106186e-01 1.866437e-02 0.0
-1.312565e-01 2.063376e-02 0.0
-1.530662e-01 2.180404e-02 0.0
-1.744745e-01 2.140566e-02 0.0
-1.928005e-01 1.832804e-02 0.0
-2.045793e-01 1.178359e-02 0.0
-2.058740e-01 1.299567e-03 0.0
-1.935519e-01 -1.231801e-02 0.0
-1.666466e-01 -2.690150e-02 0.0
-1.267270e-01 -3.991611e-02 0.0
-7.779383e-02 -4.893061e-02 0.0
-2.262282e-02 -5.517038e-02 0.0
3.214931e-02 -5.477331e-02 0.0
7.917571e-02 -4.702730e-02 0.0
1.164216e-01 -3.724393e-02 0.0
1.440643e-01 -2.763728e-02 0.0
1.632072e-01 -1.913567e-02 0.0
1.752923e-01 -1.207886e-02 0.0
1.818147e-01 -6.518411e-03 0.0
1.841900e-01 -2.372999e-03 0.0
1.836918e-01 5.001595e-04 0.0
1.810865e-01 2.607877e-03 0.0
1.769253e-01 4.164796e-03 0.0
1.717706e-01 5.159075e-03 0.0
1.660890e-01 5.686335e-03 0.0
1.602318e-01 5.861604e-03 0.0
1.544369e-01 5.798633e-03 0.0
1.488435e-01 5.596440e-03 0.0
1.435408e-01 5.305622e-03 0.0
1.385726e-01 4.971521e-03 0.0
1.339557e-01 4.620705e-03 0.0
1.296891e-01 4.270403e-03 0.0
1.257619e-01 3.930935e-03 0.0
1.221572e-01 3.608217e-03 0.0
1.188552e-01 3.305288e-03 0.0
1.158353e-01 3.023301e-03 0.0
1.130765e-01 2.762236e-03 0.0
1.105586e-01 2.521436e-03 0.0
1.082621e-01 2.299960e-03 0.0
1.061689e-01 2.096764e-03 0.0
1.042615e-01 1.910783e-03 0.0
1.025241e-01 1.740942e-03 0.0
1.009413e-01 1.586166e-03 0.0
9.949941e-02 1.445385e-03 0.0
9.818532e-02 1.317552e-03 0.0
9.698714e-02 1.201655e-03 0.0
9.589390e-02 1.096730e-03 0.0
9.489556e-02 1.001848e-03 0.0
9.398297e-02 9.161187e-04 0.0
9.314780e-02 8.386911e-04 0.0
9.238253e-02 7.687648e-04 0.0
9.168041e-02 7.055977e-04 0.0
9.103537e-02 6.485015e-04 0.0
9.044202e-02 5.968311e-04 0.0
8.989555e-02 5.499722e-04 0.0
8.939174e-02 5.073399e-04 0.0
8.892688e-02 4.683835e-04 0.0
8.849781e-02 4.325900e-04 0.0
8.810185e-02 3.994808e-04 0.0
8.773676e-02 3.686011e-04 0.0
8.740076e-02 3.395117e-04 0.0
8.709250e-02 3.117829e-04 0.0
8.681103e-02 2.849914e-04 0.0
8.655584e-02 2.587187e-04 0.0
8.632682e-02 2.325448e-04 0.0
8.612431e-02 2.060426e-04 0.0
8.594906e-02 1.787737e-04 0.0
8.580230e-02 1.502849e-04 0.0
8.568573e-02 1.201015e-04 0.0
8.560156e-02 8.770435e-05 0.0
8.555262e-02 5.246347e-05 0.0
8.554255e-02 1.359917e-05 0.0
8.557465e-02 -2.858004e-05 0.0
8.564721e-02 -6.903375e-05 0.0
8.575403e-02 -1.033115e-04 0.0
8.588847e-02 -1.309382e-04 0.0
8.603944e-02 -1.474750e-04 0.0
8.618508e-02 -1.421505e-04 0.0
8.628131e-02 -9.274776e-05 0.0
8.627874e-02 6.040961e-06 0.0
0.000000e+00 6.118435e-06 0.0
0.000000e+00 0.000000e+00 0.0
0.000000e+00 0.000000e+00 0.0
0.000000e+00 0.000000e+00 0.0
0.000000e+00 0.000000e+00 0.0
0.000000e+00 0.000000e+00 0.0
0.000000e+00 0.000000e+00 0.0
0.000000e+00 0.000000e+00 0.0
0.000000e+00 0.000000e+00 0.0
0.000000e+00 0.000000e+00 0.0
0.000000e+00 0.000000e+00 0.0
0.000000e+00 -6.320327e-03 0.0
-5.785567e-03 6.335802e-03 0.0
-1.937973e-02 1.797742e-02 0.0
-3.724266e-02 2.462116e-02 0.0
-5.722703e-02 2.793178e-02 0.0
-7.850942e-02 3.003954e-02 0.0
-1.009957e-01 3.215171e-02 0.0
-1.248219e-01 3.468726e-02 0.0
-1.500742e-01 3.765331e-02 0.0
-1.766135e-01 4.081887e-02 0.0
-2.039198e-01 4.373083e-02 0.0
-2.309787e-01 4.571532e-02 0.0
-2.561128e-01 4.576211e-02 0.0
-2.768925e-01 4.258321e-02 0.0
-2.901995e-01 3.471608e-02 0.0
-2.922474e-01 2.038052e-02 0.0
-2.784021e-01 -2.058996e-03 0.0
-2.458237e-01 -3.127808e-02 0.0
-1.956379e-01 -6.250332e-02 0.0
-1.307265e-01 -9.181221e-02 0.0
-5.366193e-02 -1.169808e-01 0.0
3.049938e-02 -1.330927e-01 0.0
1.110427e-01 -1.357154e-01 0.0
1.825379e-01 -1.262694e-01 0.0
2.449962e-01 -1.094841e-01 0.0
2.976158e-01 -8.985966e-02 0.0
3.402921e-01 -7.030952e-02 0.0
3.735545e-01 -5.239609e-02 0.0
3.983023e-01 -3.682696e-02 0.0
4.156070e-01 -2.382426e-02 0.0
4.265805e-01 -1.334691e-02 0.0
4.322847e-01 -5.203366e-03 0.0
4.339953e-01 8.987929e-04 0.0
4.325826e-01 5.579456e-03 0.0
4.287226e-01 9.020832e-03 0.0
4.230047e-01 1.140543e-02 0.0
4.159172e-01 1.294974e-02 0.0
4.078730e-01 1.384296e-02 0.0
3.992477e-01 1.422220e-02 0.0
3.903484e-01 1.420585e-02 0.0
3.813916e-01 1.392959e-02 0.0
3.725413e-01 1.347227e-02 0.0
3.639146e-01 1.289814e-02 0.0
3.555929e-01 1.225341e-02 0.0
3.476301e-01 1.157168e-02 0.0
3.400593e-01 1.087688e-02 0.0
3.328978e-01 1.018572e-02 0.0
3.261514e-01 9.509639e-03 0.0
3.198174e-01 8.856420e-03 0.0
3.138870e-01 8.231270e-03 0.0
3.083471e-01 7.637549e-03 0.0
3.031815e-01 7.077249e-03 0.0
2.983720e-01 6.551317e-03 0.0
2.938992e-01 6.059899e-03 0.0
2.897429e-01 5.602536e-03 0.0
2.858831e-01 5.178320e-03 0.0
2.822996e-01 4.786017e-03 0.0
2.789731e-01 4.424157e-03 0.0
2.758848e-01 4.091098e-03 0.0
2.730168e-01 3.785078e-03 0.0
2.703521e-01 3.504271e-03 0.0
2.678749e-01 3.246844e-03 0.0
2.655704e-01 3.010980e-03 0.0
2.634249e-01 2.794902e-03 0.0
2.614258e-01 2.596864e-03 0.0
2.595616e-01 2.415166e-03 0.0
2.578217e-01 2.248157e-03 0.0
2.561967e-01 2.094252e-03 0.0
2.546783e-01 1.951932e-03 0.0
2.532590e-01 1.819735e-03 0.0
2.519322e-01 1.696245e-03 0.0
2.506926e-01 1.580082e-03 0.0
2.495354e-01 1.469890e-03 0.0
2.484570e-01 1.364332e-03 0.0
2.474545e-01 1.262078e-03 0.0
2.465262e-01 1.161786e-03 0.0
2.456711e-01 1.062091e-03 0.0
2.448892e-01 9.615956e-04 0.0
2.441815e-01 8.588593e-04 0.0
2.435502e-01 7.524082e-04 0.0
2.429980e-01 6.407461e-04 0.0
2.425290e-01 5.224024e-04 0.0
2.421474e-01 3.961437e-04 0.0
2.418578e-01 2.619341e-04 0.0
2.416670e-01 1.226709e-04 0.0
2.415818e-01 -1.722367e-05 0.0
2.415947e-01 -1.429081e-04 0.0
2.416795e-01 -2.313817e-04 0.0
2.417954e-01 -2.571079e-04 0.0
2.418865e-01 -1.829831e-04 0.0
2.418790e-01 1.449029e-05 0.0
0.000000e+00 1.466112e-05 0.0
0.000000e+00 0.000000e+00 0.0
0.000000e+00 0.000000e+00 0.0
0.000000e+00 0.000000e+00 0.0
0.000000e+00 0.000000e+00 0.0
0.000000e+00 0.000000e+00 0.0
0.000000e+00 0.000000e+00 0.0
0.000000e+00 0.000000e+00 0.0
0.000000e+00 0.000000e+00 0.0
0.000000e+00 0.000000e+00 0.0
0.000000e+00 0.000000e+00 0.0
0.000000e+00 -1.692147e-02 0.0
-1.058002e-02 1.693469e-02 0.0
-3.128690e-02 3.867692e-02 0.0
-5.595519e-02 4.927749e-02 0.0
-8.163959e-02 5.360808e-02 0.0
-1.072329e-01 5.563428e-02 0.0
-1.323720e-01 5.730069e-02 0.0
-1.568299e-01 5.915751e-02 0.0
-1.802637e-01 6.109452e-02 0.0
-2.020796e-01 6.263410e-02 0.0
-2.212914e-01 6.293630e-02 0.0
-2.365588e-01 6.097581e-02 0.0
-2.460677e-01 5.526887e-02 0.0
-2.473683e-01 4.388591e-02 0.0
-2.366891e-01 2.404136e-02 0.0
-2.076110e-01 -8.694181e-03 0.0
-1.598502e-01 -4.981855e-02 0.0
-9.471277e-02 -9.641516e-02 0.0
-1.539062e-02 -1.418251e-01 0.0
7.135410e-02 -1.785569e-01 0.0
1.560278e-01 -2.016545e-01 0.0
2.338945e-01 -2.109608e-01 0.0
3.026927e-01 -2.045150e-01 0.0
3.628327e-01 -1.864089e-01 0.0
4.152409e-01 -1.618892e-01 0.0
4.603484e-01 -1.349630e-01 0.0
4.983918e-01 -1.083503e-01 0.0
5.296705e-01 -8.367445e-02 0.0
5.546100e-01 -6.176752e-02 0.0
5.737369e-01 -4.295187e-02 0.0
5.876347e-01 -2.724434e-02 0.0
5.969159e-01 -1.448317e-02 0.0
6.022210e-01 -4.404512e-03 0.0
6.044597e-01 3.342620e-03 0.0
6.041509e-01 9.330987e-03 0.0
6.017490e-01 1.380816e-02 0.0
5.976504e-01 1.704851e-02 0.0
5.921976e-01 1.929600e-02 0.0
5.856661e-01 2.075452e-02 0.0
5.782693e-01 2.160390e-02 0.0
5.702526e-01 2.194758e-02 0.0
5.618359e-01 2.189017e-02 0.0
5.531922e-01 2.154261e-02 0.0
5.444625e-01 2.098375e-02 0.0
5.357594e-01 2.027559e-02 0.0
5.271714e-01 1.946579e-02 0.0
5.187674e-01 1.859070e-02 0.0
5.105999e-01 1.767809e-02 0.0
5.027079e-01 1.674938e-02 0.0
4.951189e-01 1.582114e-02 0.0
4.878511e-01 1.490615e-02 0.0
4.809151e-01 1.401415e-02 0.0
4.743150e-01 1.315238e-02 0.0
4.680497e-01 1.232607e-02 0.0
4.621144e-01 1.153876e-02 0.0
4.565010e-01 1.079266e-02 0.0
4.511990e-01 1.008891e-02 0.0
4.461964e-01 9.427712e-03 0.0
4.414798e-01 8.808596e-03 0.0
4.370353e-01 8.230503e-03 0.0
4.328485e-01 7.691953e-03 0.0
4.289050e-01 7.191161e-03 0.0
4.251908e-01 6.726122e-03 0.0
4.216920e-01 6.294669e-03 0.0
4.183952e-01 5.894516e-03 0.0
4.152880e-01 5.523307e-03 0.0
4.123585e-01 5.178655e-03 0.0
4.095954e-01 4.858176e-03 0.0
4.069888e-01 4.559502e-03 0.0
4.045291e-01 4.280283e-03 0.0
4.022081e-01 4.018179e-03 0.0
4.000183e-01 3.770867e-03 0.0
3.979530e-01 3.536029e-03 0.0
3.960070e-01 3.311342e-03 0.0
3.941755e-01 3.094467e-03 0.0
3.924552e-01 2.883023e-03 0.0
3.908436e-01 2.674563e-03 0.0
3.893396e-01 2.466557e-03 0.0
3.879430e-01 2.256386e-03 0.0
3.866550e-01 2.041345e-03 0.0
3.854779e-01 1.818686e-03 0.0
3.844155e-01 1.585738e-03 0.0
3.834724e-01 1.340209e-03 0.0
3.826543e-01 1.080989e-03 0.0
3.819683e-01 8.094986e-04 0.0
3.814211e-01 5.309379e-04 0.0
3.810191e-01 2.600137e-04 0.0
3.807647e-01 2.387461e-05 0.0
3.806386e-01 -1.300789e-04 0.0
3.806017e-01 -1.451279e-04 0.0
3.805906e-01 2.645778e-05 0.0
0.000000e+00 2.676219e-05 0.0
0.000000e+00 0.000000e+00 0.0
0.000000e+00 0.000000e+00 0.0
0.000000e+00 0.000000e+00 0.0
0.000000e+00 0.000000e+00 0.0
0.000000e+00 0.000000e+00 0.0
0.000000e+00 0.000000e+00 0.0
0.000000e+00 0.000000e+00 0.0
0.000000e+00 0.000000e+00 0.0
0.000000e+00 0.000000e+00 0.0
0.000000e+00 0.000000e+00 0.0
0.000000e+00 -3.004351e-02 0.0
-1.310413e-02 3.005334e-02 0.0
-3.661375e-02 6.217634e-02 0.0
-6.227780e-02 7.493130e-02 0.0
-8.673212e-02 7.805925e-02 0.0
-1.088883e-01 7.779683e-02 0.0
-1.283293e-01 7.675381e-02 0.0
-1.447187e-01 7.555768e-02 0.0
-1.576285e-01 7.400803e-02 0.0
-1.665020e-01 7.150384e-02 0.0
-1.703780e-01 6.680511e-02 0.0
-1.678684e-01 5.846155e-02 0.0
-1.565400e-01 4.394110e-02 0.0
-1.329366e-01 2.028656e-02 0.0
-8.908343e-02 -1.980730e-02 0.0
-2.606917e-02 -7.170627e-02 0.0
5.254243e-02 -1.284297e-01 0.0
1.374622e-01 -1.813350e-01 0.0
2.217895e-01 -2.261521e-01 0.0
3.010404e-01 -2.578075e-01 0.0
3.727297e-01 -2.733443e-01 0.0
4.342351e-01 -2.724676e-01 0.0
4.861062e-01 -2.563865e-01 0.0
5.305073e-01 -2.308079e-01 0.0
5.688706e-01 -2.002486e-01 0.0
6.020156e-01 -1.681045e-01 0.0
6.303989e-01 -1.367324e-01 0.0
6.543238e-01 -1.076002e-01 0.0
6.740581e-01 -8.150291e-02 0.0
6.898799e-01 -5.877372e-02 0.0
7.020905e-01 -3.945373e-02 0.0
7.110167e-01 -2.340758e-02 0.0
7.170146e-01 -1.040063e-02 0.0
7.205025e-01 -1.436989e-04 0.0
7.219548e-01 7.879681e-03 0.0
7.216981e-01 1.406517e-02 0.0
7.199939e-01 1.875283e-02 0.0
7.170646e-01 2.222587e-02 0.0
7.131018e-01 2.471839e-02 0.0
7.082826e-01 2.642448e-02 0.0
7.027388e-01 2.749270e-02 0.0
6.965796e-01 2.805024e-02 0.0
6.899465e-01 2.817636e-02 0.0
6.829667e-01 2.796427e-02 0.0
6.757485e-01 2.749458e-02 0.0
6.683847e-01 2.683065e-02 0.0
6.609540e-01 2.602236e-02 0.0
6.535235e-01 2.510954e-02 0.0
6.461494e-01 2.412439e-02 0.0
6.388781e-01 2.309322e-02 0.0
6.317476e-01 2.203755e-02 0.0
6.247879e-01 2.097481e-02 0.0
6.180221e-01 1.991901e-02 0.0
6.114679e-01 1.888127e-02 0.0
6.051373e-01 1.787024e-02 0.0
5.990384e-01 1.689249e-02 0.0
5.931754e-01 1.595280e-02 0.0
5.875496e-01 1.505445e-02 0.0
5.821596e-01 1.419947e-02 0.0
5.770022e-01 1.338883e-02 0.0
5.720724e-01 1.262264e-02 0.0
5.673641e-01 1.190035e-02 0.0
5.628703e-01 1.122086e-02 0.0
5.585833e-01 1.058261e-02 0.0
5.544950e-01 9.983688e-03 0.0
5.505974e-01 9.421900e-03 0.0
5.468821e-01 8.894865e-03 0.0
5.433411e-01 8.400057e-03 0.0
5.399667e-01 7.934830e-03 0.0
5.367514e-01 7.496448e-03 0.0
5.336884e-01 7.082094e-03 0.0
5.307713e-01 6.688885e-03 0.0
5.279944e-01 6.313872e-03 0.0
5.253526e-01 5.954038e-03 0.0
5.228417e-01 5.606278e-03 0.0
5.204583e-01 5.267386e-03 0.0
5.181998e-01 4.934010e-03 0.0
5.160646e-01 4.602630e-03 0.0
5.140524e-01 4.269546e-03 0.0
5.121638e-01 3.930873e-03 0.0
5.104008e-01 3.582578e-03 0.0
5.087669e-01 3.220597e-03 0.0
5.072669e-01 2.841111e-03 0.0
5.059076e-01 2.441174e-03 0.0
5.046982e-01 2.019814e-03 0.0
5.036503e-01 1.579749e-03 0.0
5.027799e-01 1.131419e-03 0.0
5.021067e-01 6.979976e-04 0.0
5.016528e-01 3.246523e-04 0.0
5.014245e-01 8.411574e-05 0.0
5.014121e-01 3.978280e-05 0.0
0.000000e+00 4.023648e-05 0.0
0.000000e+00 0.000000e+00 0.0
0.000000e+00 0.000000e+00 0.0
0.000000e+00 0.000000e+00 0.0
0.000000e+00 0.000000e+00 0.0
0.000000e+00 0.000000e+00 0.0
0.000000e+00 0.000000e+00 0.0
0.000000e+00 0.000000e+00 0.0
0.000000e+00 0.000000e+00 0.0
0.000000e+00 0.000000e+00 0.0
0.000000e+00 0.000000e+00 0.0
0.000000e+00 -4.354190e-02 0.0
-1.348508e-02 4.354789e-02 0.0
-3.551907e-02 8.419985e-02 0.0
-5.693191e-02 9.633716e-02 0.0
-7.477845e-02 9.590710e-02 0.0
-8.838326e-02 9.141064e-02 0.0
-9.750893e-02 8.589097e-02 0.0
-1.019001e-01 7.995630e-02 0.0
-1.010689e-01 7.317650e-02 0.0
-9.452636e-02 6.495543e-02 0.0
-8.058422e-02 5.285653e-02 0.0
-5.706014e-02 3.493542e-02 0.0
-1.694756e-02 3.831258e-03 0.0
4.448203e-02 -4.113792e-02 0.0
1.199263e-01 -9.524788e-02 0.0
2.029725e-01 -1.547511e-01 0.0
2.875127e-01 -2.129704e-01 0.0
3.690343e-01 -2.628567e-01 0.0
4.430205e-01 -3.001381e-01 0.0
5.070742e-01 -3.218611e-01 0.0
5.604713e-01 -3.267423e-01 0.0
6.028698e-01 -3.148671e-01 0.0
6.375905e-01 -2.911064e-01 0.0
6.667972e-01 -2.600114e-01 0.0
6.918565e-01 -2.253040e-01 0.0
7.135695e-01 -1.898153e-01 0.0
7.323815e-01 -1.555445e-01 0.0
7.485369e-01 -1.237569e-01 0.0
7.621868e-01 -9.515350e-02 0.0
7.734526e-01 -7.003877e-02 0.0
7.824609e-01 -4.846032e-02 0.0
7.893579e-01 -3.030266e-02 0.0
7.943059e-01 -1.534693e-02 0.0
7.974874e-01 -3.324004e-03 0.0
7.992158e-01 6.151880e-03 0.0
7.997038e-01 1.357724e-02 0.0
7.991178e-01 1.933910e-02 0.0
7.975980e-01 2.374656e-02 0.0
7.952681e-01 2.704965e-02 0.0
7.922418e-01 2.945221e-02 0.0
7.886166e-01 3.111896e-02 0.0
7.844804e-01 3.218712e-02 0.0
7.798910e-01 3.276633e-02 0.0
7.749186e-01 3.293744e-02 0.0
7.696387e-01 3.277548e-02 0.0
7.641187e-01 3.235166e-02 0.0
7.584195e-01 3.172252e-02 0.0
7.525958e-01 3.093412e-02 0.0
7.466963e-01 3.002483e-02 0.0
7.407635e-01 2.902689e-02 0.0
7.348344e-01 2.796752e-02 0.0
7.289407e-01 2.686938e-02 0.0
7.231093e-01 2.575131e-02 0.0
7.173627e-01 2.462879e-02 0.0
7.117194e-01 2.351446e-02 0.0
7.061944e-01 2.241841e-02 0.0
7.007996e-01 2.134857e-02 0.0
6.955439e-01 2.031100e-02 0.0
6.904342e-01 1.931011e-02 0.0
6.854749e-01 1.834897e-02 0.0
6.806689e-01 1.742951e-02 0.0
6.760175e-01 1.655267e-02 0.0
6.715207e-01 1.571862e-02 0.0
6.671775e-01 1.492681e-02 0.0
6.629859e-01 1.417614e-02 0.0
6.589437e-01 1.346508e-02 0.0
6.550477e-01 1.279171e-02 0.0
6.512948e-01 1.215384e-02 0.0
6.476816e-01 1.154900e-02 0.0
6.442044e-01 1.097452e-02 0.0
6.408599e-01 1.042754e-02 0.0
6.376447e-01 9.905034e-03 0.0
6.345557e-01 9.403806e-03 0.0
6.315901e-01 8.920512e-03 0.0
6.287457e-01 8.451634e-03 0.0
6.260205e-01 7.993476e-03 0.0
6.234133e-01 7.542094e-03 0.0
6.209236e-01 7.093262e-03 0.0
6.185517e-01 6.642451e-03 0.0
6.162986e-01 6.184813e-03 0.0
6.141670e-01 5.715183e-03 0.0
6.121603e-01 5.228135e-03 0.0
6.102842e-01 4.718149e-03 0.0
6.085463e-01 4.179995e-03 0.0
6.069576e-01 3.609434e-03 0.0
6.055338e-01 3.004467e-03 0.0
6.042984e-01 2.367825e-03 0.0
6.032864e-01 1.710858e-03 0.0
6.025512e-01 1.060816e-03 0.0
6.021635e-01 4.726806e-04 0.0
6.021516e-01 5.257581e-05 0.0
0.000000e+00 5.317380e-05 0.0
0.000000e+00 0.000000e+00 0.0
0.000000e+00 0.000000e+00 0.0
0.000000e+00 0.000000e+00 0.0
0.000000e+00 0.000000e+00 0.0
0.000000e+00 0.000000e+00 0.0
0.000000e+00 0.000000e+00 0.0
0.000000e+00 0.000000e+00 0.0
0.000000e+00 0.000000e+00 0.0
0.000000e+00 0.000000e+00 0.0
0.000000e+00 0.000000e+00 0.0
0.000000e+00 -5.669244e-02 0.0
-1.314204e-02 5.669528e-02 0.0
-3.055868e-02 1.016068e-01 0.0
-4.354051e-02 1.093145e-01 0.0
-5.076773e-02 1.031384e-01 0.0
-5.223918e-02 9.289239e-02 0.0
-4.802473e-02 8.168711e-02 0.0
-3.790958e-02 6.984586e-02 0.0
-2.050132e-02 5.576562e-02 0.0
5.648524e-03 3.879882e-02 0.0
4.505809e-02 1.344163e-02 0.0
1.030421e-01 -2.304853e-02 0.0
1.760553e-01 -6.917755e-02 0.0
2.585551e-01 -1.236326e-01 0.0
3.453559e-01 -1.820459e-01 0.0
4.302844e-01 -2.396794e-01 0.0
5.083211e-01 -2.910078e-01 0.0
5.764480e-01 -3.309837e-01 0.0
6.328500e-01 -3.565395e-01 0.0
6.771829e-01 -3.661942e-01 0.0
7.099168e-01 -3.594771e-01 0.0
7.343216e-01 -3.392721e-01 0.0
7.531902e-01 -3.099730e-01 0.0
7.684864e-01 -2.753041e-01 0.0
7.814521e-01 -2.382667e-01 0.0
7.927992e-01 -2.011614e-01 0.0
8.028990e-01 -1.656453e-01 0.0
8.118975e-01 -1.327566e-01 0.0
8.198193e-01 -1.030751e-01 0.0
8.266387e-01 -7.685677e-02 0.0
8.323312e-01 -5.415085e-02 0.0
8.368959e-01 -3.486559e-02 0.0
8.403444e-01 -1.879396e-02 0.0
8.427107e-01 -5.689536e-03 0.0
8.441217e-01 4.741161e-03 0.0
8.446906e-01 1.300845e-02 0.0
8.445094e-01 1.952087e-02 0.0
8.436604e-01 2.459673e-02 0.0
8.422205e-01 2.849099e-02 0.0
8.402625e-01 3.141148e-02 0.0
8.378532e-01 3.352907e-02 0.0
8.350547e-01 3.498623e-02 0.0
8.319205e-01 3.590117e-02 0.0
8.284881e-01 3.637074e-02 0.0
8.247939e-01 3.647068e-02 0.0
8.208791e-01 3.626748e-02 0.0
8.167831e-01 3.581948e-02 0.0
8.125428e-01 3.517527e-02 0.0
8.081923e-01 3.437617e-02 0.0
8.037623e-01 3.345779e-02 0.0
7.992799e-01 3.245076e-02 0.0
7.947693e-01 3.138088e-02 0.0
7.902517e-01 3.026989e-02 0.0
7.857454e-01 2.913599e-02 0.0
7.812664e-01 2.799429e-02 0.0
7.768286e-01 2.685715e-02 0.0
7.724436e-01 2.573454e-02 0.0
7.681212e-01 2.463433e-02 0.0
7.638696e-01 2.356259e-02 0.0
7.596956e-01 2.252386e-02 0.0
7.556046e-01 2.152138e-02 0.0
7.516009e-01 2.055724e-02 0.0
7.476879e-01 1.963258e-02 0.0
7.438680e-01 1.874772e-02 0.0
7.401427e-01 1.790230e-02 0.0
7.365133e-01 1.709539e-02 0.0
7.329803e-01 1.632560e-02 0.0
7.295439e-01 1.559114e-02 0.0
7.262040e-01 1.488985e-02 0.0
7.229602e-01 1.421928e-02 0.0
7.198119e-01 1.357669e-02 0.0
7.167588e-01 1.295911e-02 0.0
7.138002e-01 1.236333e-02 0.0
7.109357e-01 1.178589e-02 0.0
7.081652e-01 1.122307e-02 0.0
7.054886e-01 1.067098e-02 0.0
7.029063e-01 1.012531e-02 0.0
7.004192e-01 9.581372e-03 0.0
6.980285e-01 9.034055e-03 0.0
6.957364e-01 8.477778e-03 0.0
6.935461e-01 7.906447e-03 0.0
6.914617e-01 7.313424e-03 0.0
6.894893e-01 6.691533e-03 0.0
6.876371e-01 6.033153e-03 0.0
6.859170e-01 5.330413e-03 0.0
6.843468e-01 4.575594e-03 0.0
6.829536e-01 3.761932e-03 0.0
6.817804e-01 2.885009e-03 0.0
6.808959e-01 1.946241e-03 0.0
6.804036e-01 9.659349e-04 0.0
6.803938e-01 6.328288e-05 0.0
0.000000e+00 6.400056e-05 0.0
0.000000e+00 0.000000e+00 0.0
0.000000e+00 0.000000e+00 0.0
0.000000e+00 0.000000e+00 0.0
0.000000e+00 0.000000e+00 0.0
0.000000e+00 0.000000e+00 0.0
0.000000e+00 0.000000e+00 0.0
0.000000e+00 0.000000e+00 0.0
0.000000e+00 0.000000e+00 0.0
0.000000e+00 0.000000e+00 0.0
0.000000e+00 0.000000e+00 0.0
0.000000e+00 -7.034910e-02 0.0
-1.365271e-02 7.035009e-02 0.0
-2.295915e-02 1.109054e-01 0.0
-2.240167e-02 1.087558e-01 0.0
-1.399547e-02 9.473905e-02 0.0
1.632766e-03 7.727521e-02 0.0
2.460659e-02 5.872264e-02 0.0
5.518664e-02 3.926830e-02 0.0
9.694789e-02 1.400003e-02 0.0
1.547658e-01 -1.902597e-02 0.0
2.267936e-01 -5.858998e-02 0.0
3.087207e-01 -1.049736e-01 0.0
3.962397e-01 -1.566911e-01 0.0
4.838876e-01 -2.112758e-01 0.0
5.667177e-01 -2.648742e-01 0.0
6.403409e-01 -3.133032e-01 0.0
7.017990e-01 -3.524667e-01 0.0
7.499257e-01 -3.791102e-01 0.0
7.848924e-01 -3.915057e-01 0.0
8.077786e-01 -3.890808e-01 0.0
8.213686e-01 -3.730678e-01 0.0
8.291313e-01 -3.470341e-01 0.0
8.335757e-01 -3.144147e-01 0.0
8.363957e-01 -2.781206e-01 0.0
8.386193e-01 -2.404882e-01 0.0
8.407998e-01 -2.033420e-01 0.0
8.432030e-01 -1.680497e-01 0.0
8.458564e-01 -1.354107e-01 0.0
8.486602e-01 -1.058781e-01 0.0
8.514573e-01 -7.965212e-02 0.0
8.540941e-01 -5.678569e-02 0.0
8.564500e-01 -3.721987e-02 0.0
8.584065e-01 -2.074938e-02 0.0
8.598775e-01 -7.160144e-03 0.0
8.608288e-01 3.790063e-03 0.0
8.612710e-01 1.256659e-02 0.0
8.612271e-01 1.956573e-02 0.0
8.607302e-01 2.509497e-02 0.0
8.598203e-01 2.940225e-02 0.0
8.585408e-01 3.269200e-02 0.0
8.569356e-01 3.513498e-02 0.0
8.550473e-01 3.687511e-02 0.0
8.529154e-01 3.803381e-02 0.0
8.505738e-01 3.871334e-02 0.0
8.480462e-01 3.899926e-02 0.0
8.453543e-01 3.896037e-02 0.0
8.425218e-01 3.865286e-02 0.0
8.395724e-01 3.812557e-02 0.0
8.365282e-01 3.742121e-02 0.0
8.334094e-01 3.657745e-02 0.0
8.302336e-01 3.562742e-02 0.0
8.270167e-01 3.459871e-02 0.0
8.237726e-01 3.351490e-02 0.0
8.205137e-01 3.239586e-02 0.0
8.172507e-01 3.125818e-02 0.0
8.139932e-01 3.011558e-02 0.0
8.107494e-01 2.897920e-02 0.0
8.075267e-01 2.785797e-02 0.0
8.043313e-01 2.675892e-02 0.0
8.011685e-01 2.568744e-02 0.0
7.980433e-01 2.464753e-02 0.0
7.949595e-01 2.364195e-02 0.0
7.919206e-01 2.267240e-02 0.0
7.889296e-01 2.173974e-02 0.0
7.859887e-01 2.084405e-02 0.0
7.831002e-01 1.998480e-02 0.0
7.802658e-01 1.916094e-02 0.0
7.774869e-01 1.837095e-02 0.0
7.747648e-01 1.761288e-02 0.0
7.721005e-01 1.688445e-02 0.0
7.694951e-01 1.618306e-02 0.0
7.669493e-01 1.550579e-02 0.0
7.644641e-01 1.484944e-02 0.0
7.620405e-01 1.421049e-02 0.0
7.596793e-01 1.358512e-02 0.0
7.573819e-01 1.296938e-02 0.0
7.551493e-01 1.235874e-02 0.0
7.529835e-01 1.174819e-02 0.0
7.508863e-01 1.113217e-02 0.0
7.488604e-01 1.050455e-02 0.0
7.469093e-01 9.858504e-03 0.0
7.450373e-01 9.186355e-03 0.0
7.432503e-01 8.479455e-03 0.0
7.415564e-01 7.727952e-03 0.0
7.399673e-01 6.920474e-03 0.0
7.385002e-01 6.043626e-03 0.0
7.371820e-01 5.081110e-03 0.0
7.360556e-01 4.012289e-03 0.0
7.351916e-01 2.811188e-03 0.0
7.347004e-01 1.458002e-03 0.0
7.346938e-01 7.088496e-05 0.0
0.000000e+00 7.169061e-05 0.0
0.000000e+00 0.000000e+00 0.0
0.000000e+00 0.000000e+00 0.0
0.000000e+00 0.000000e+00 0.0
0.000000e+00 0.000000e+00 0.0
0.000000e+00 0.000000e+00 0.0
0.000000e+00 0.000000e+00 0.0
0.000000e+00 0.000000e+00 0.0
0.000000e+00 0.000000e+00 0.0
0.000000e+00 0.000000e+00 0.0
0.000000e+00 0.000000e+00 0.0
0.000000e+00 -8.408374e-02 0.0
-1.373369e-02 8.408259e-02 0.0
-5.735648e-03 1.028992e-01 0.0
1.872334e-02 8.429585e-02 0.0
5.188827e-02 6.158046e-02 0.0
9.264048e-02 3.653285e-02 0.0
1.436576e-01 7.712581e-03 0.0
2.079693e-01 -2.504325e-02 0.0
2.830953e-01 -6.113179e-02 0.0
3.656068e-01 -1.015441e-01 0.0
4.527546e-01 -1.457399e-01 0.0
5.406246e-01 -1.928400e-01 0.0
6.250393e-01 -2.411000e-01 0.0
7.018325e-01 -2.880652e-01 0.0
7.676195e-01 -3.306608e-01 0.0
8.200863e-01 -3.657711e-01 0.0
8.583228e-01 -3.907036e-01 0.0
8.828463e-01 -4.036331e-01 0.0
8.951796e-01 -4.038387e-01 0.0
8.977298e-01 -3.916314e-01 0.0
8.942226e-01 -3.695608e-01 0.0
8.874833e-01 -3.402932e-01 0.0
8.795755e-01 -3.065039e-01 0.0
8.718411e-01 -2.703833e-01 0.0
8.650408e-01 -2.336868e-01 0.0
8.595345e-01 -1.978365e-01 0.0
8.554719e-01 -1.639880e-01 0.0
8.527525e-01 -1.326912e-01 0.0
8.511742e-01 -1.042984e-01 0.0
8.504996e-01 -7.897566e-02 0.0
8.504738e-01 -5.675813e-02 0.0
8.508389e-01 -3.758369e-02 0.0
8.513902e-01 -2.129992e-02 0.0
8.519561e-01 -7.725791e-03 0.0
8.523993e-01 3.347147e-03 0.0
8.526312e-01 1.233526e-02 0.0
8.526115e-01 1.958666e-02 0.0
8.523283e-01 2.537947e-02 0.0
8.517881e-01 2.994365e-02 0.0
8.510079e-01 3.347307e-02 0.0
8.500105e-01 3.613294e-02 0.0
8.488216e-01 3.806476e-02 0.0
8.474664e-01 3.938980e-02 0.0
8.459689e-01 4.021188e-02 0.0
8.443494e-01 4.061979e-02 0.0
8.426219e-01 4.068874e-02 0.0
8.408002e-01 4.047550e-02 0.0
8.388986e-01 4.002797e-02 0.0
8.369309e-01 3.938975e-02 0.0
8.349095e-01 3.859979e-02 0.0
8.328456e-01 3.769228e-02 0.0
8.307487e-01 3.669645e-02 0.0
8.286274e-01 3.563716e-02 0.0
8.264887e-01 3.453538e-02 0.0
8.243392e-01 3.340865e-02 0.0
8.221842e-01 3.227149e-02 0.0
8.200286e-01 3.113571e-02 0.0
8.178766e-01 3.001083e-02 0.0
8.157320e-01 2.890440e-02 0.0
8.135981e-01 2.782225e-02 0.0
8.114778e-01 2.676873e-02 0.0
8.093738e-01 2.574694e-02 0.0
8.072883e-01 2.475886e-02 0.0
8.052233e-01 2.380558e-02 0.0
8.031809e-01 2.288742e-02 0.0
8.011625e-01 2.200403e-02 0.0
7.991699e-01 2.115451e-02 0.0
7.972043e-01 2.033746e-02 0.0
7.952671e-01 1.955104e-02 0.0
7.933594e-01 1.879304e-02 0.0
7.914825e-01 1.806092e-02 0.0
7.896374e-01 1.735177e-02 0.0
7.878254e-01 1.666239e-02 0.0
7.860476e-01 1.598919e-02 0.0
7.843054e-01 1.532820e-02 0.0
7.826001e-01 1.467559e-02 0.0
7.809332e-01 1.402665e-02 0.0
7.793062e-01 1.337604e-02 0.0
7.777214e-01 1.271791e-02 0.0
7.761812e-01 1.204572e-02 0.0
7.746886e-01 1.135206e-02 0.0
7.732474e-01 1.062845e-02 0.0
7.718627e-01 9.865041e-03 0.0
7.705415e-01 9.050123e-03 0.0
7.692935e-01 8.169382e-03 0.0
7.681335e-01 7.204613e-03 0.0
7.670841e-01 6.131461e-03 0.0
7.661817e-01 4.915604e-03 0.0
7.654858e-01 3.508015e-03 0.0
7.650896e-01 1.855155e-03 0.0
7.650865e-01 7.490529e-05 0.0
0.000000e+00 7.576118e-05 0.0
0.000000e+00 0.000000e+00 0.0
0.000000e+00 0.000000e+00 0.0
0.000000e+00 0.000000e+00 0.0
0.000000e+00 0.000000e+00 0.0
0.000000e+00 0.000000e+00 0.0
0.000000e+00 0.000000e+00 0.0
0.000000e+00 0.000000e+00 0.0
0.000000e+00 0.000000e+00 0.0
0.000000e+00 0.000000e+00 0.0
0.000000e+00 0.000000e+00 0.0
0.000000e+00 -7.894354e-02 0.0
5.138151e-03 7.894138e-02 0.0
5.414303e-02 5.388925e-02 0.0
1.180622e-01 2.037856e-02 0.0
1.918071e-01 -1.215600e-02 0.0
2.724484e-01 -4.409819e-02 0.0
3.568252e-01 -7.665861e-02 0.0
4.432385e-01 -1.114586e-01 0.0
5.304811e-01 -1.483815e-01 0.0
6.162290e-01 -1.872980e-01 0.0
6.979437e-01 -2.274548e-01 0.0
7.727896e-01 -2.676809e-01 0.0
8.380042e-01 -3.063089e-01 0.0
8.912379e-01 -3.412964e-01 0.0
9.309807e-01 -3.704040e-01 0.0