# vtk DataFile Version 3.0
Vector Field
ASCII
DATASET RECTILINEAR_GRID
DIMENSIONS 102 22 1
X_COORDINATES 102 double
0.000000 0.100000 0.200000 0.300000 0.400000 0.500000 0.600000 0.700000 0.800000 0.900000 1.000000 1.100000 1.200000 1.300000 1.400000 1.500000 1.600000 1.700000 1.800000 1.900000 2.000000 2.100000 2.200000 2.300000 2.400000 2.500000 2.600000 2.700000 2.800000 2.900000 3.000000 3.100000 3.200000 3.300000 3.400000 3.500000 3.600000 3.700000 3.800000 3.900000 4.000000 4.100000 4.200000 4.300000 4.400000 4.500000 4.600000 4.700000 4.800000 4.900000 5.000000 5.100000 5.200000 5.300000 5.400000 5.500000 5.600000 5.700000 5.800000 5.900000 6.000000 6.100000 6.200000 6.300000 6.400000 6.500000 6.600000 6.700000 6.800000 6.900000 7.000000 7.100000 7.200000 7.300000 7.400000 7.500000 7.600000 7.700000 7.800000 7.900000 8.000000 8.100000 8.200000 8.300000 8.400000 8.500000 8.600000 8.700000 8.800000 8.900000 9.000000 9.100000 9.200000 9.300000 9.400000 9.500000 9.600000 9.700000 9.800000 9.900000 10.000000 10.100000 
Y_COORDINATES 22 double
0.000000 0.100000 0.200000 0.300000 0.400000 0.500000 0.600000 0.700000 0.800000 0.900000 1.000000 1.100000 1.200000 1.300000 1.400000 1.500000 1.600000 1.700000 1.800000 1.900000 2.000000 2.100000 
Z_COORDINATES 1 double
0.0
POINT_DATA 2244
VECTORS Velocity double
0.000000e+00 0.000000e+00 0.0
-0.000000e+00 0.000000e+00 0.0
-0.000000e+00 0.000000e+00 0.0
-0.000000e+00 0.000000e+00 0.0
-0.000000e+00 0.000000e+00 0.0
-0.000000e+00 0.000000e+00 0.0
-0.000000e+00 0.000000e+00 0.0
-0.000000e+00 0.000000e+00 0.0
-0.000000e+00 0.000000e+00 0.0
-0.000000e+00 0.000000e+00 0.0
-0.000000e+00 0.000000e+00 0.0
2.809492e-04 0.000000e+00 0.0
4.620196e-03 0.000000e+00 0.0
1.120747e-02 0.000000e+00 0.0
1.883449e-02 0.000000e+00 0.0
2.708740e-02 0.000000e+00 0.0
3.601999e-02 0.000000e+00 0.0
4.587476e-02 0.000000e+00 0.0
5.695621e-02 0.000000e+00 0.0
6.957992e-02 0.000000e+00 0.0
8.402159e-02 0.000000e+00 0.0
1.004380e-01 0.000000e+00 0.0
1.187368e-01 0.000000e+00 0.0
1.384099e-01 0.000000e+00 0.0
1.583544e-01 0.000000e+00 0.0
1.766464e-01 0.000000e+00 0.0
1.906320e-01 0.000000e+00 0.0
1.970414e-01 0.000000e+00 0.0
1.924683e-01 0.000000e+00 0.0
1.750957e-01 0.000000e+00 0.0
1.446877e-01 0.000000e+00 0.0
1.037142e-01 0.000000e+00 0.0
5.571850e-02 0.000000e+00 0.0
3.811343e-03 0.000000e+00 0.0
-4.515098e-02 0.000000e+00 0.0
-8.626165e-02 0.000000e+00 0.0
-1.183670e-01 0.000000e+00 0.0
-1.419055e-01 0.000000e+00 0.0
-1.579780e-01 0.000000e+00 0.0
-1.679112e-01 0.000000e+00 0.0
-1.730419e-01 0.000000e+00 0.0
-1.746217e-01 0.000000e+00 0.0
-1.737623e-01 0.000000e+00 0.0
-1.709512e-01 0.000000e+00 0.0
-1.667504e-01 0.000000e+00 0.0
-1.616790e-01 0.000000e+00 0.0
-1.561503e-01 0.000000e+00 0.0
-1.504669e-01 0.000000e+00 0.0
-1.448306e-01 0.000000e+00 0.0
-1.393557e-01 0.000000e+00 0.0
-1.341124e-01 0.000000e+00 0.0
-1.291367e-01 0.000000e+00 0.0
-1.244411e-01 0.000000e+00 0.0
-1.200252e-01 0.000000e+00 0.0
-1.158796e-01 0.000000e+00 0.0
-1.119910e-01 0.000000e+00 0.0
-1.083442e-01 0.000000e+00 0.0
-1.049237e-01 0.000000e+00 0.0
-1.017148e-01 0.000000e+00 0.0
-9.870421e-02 0.000000e+00 0.0
-9.588026e-02 0.000000e+00 0.0
-9.323294e-02 0.000000e+00 0.0
-9.075396e-02 0.000000e+00 0.0
-8.843665e-02 0.000000e+00 0.0
-8.627585e-02 0.000000e+00 0.0
-8.426763e-02 0.000000e+00 0.0
-8.240912e-02 0.000000e+00 0.0
-8.069817e-02 0.000000e+00 0.0
-7.913311e-02 0.000000e+00 0.0
-7.771248e-02 0.000000e+00 0.0
-7.643478e-02 0.000000e+00 0.0
-7.529830e-02 0.000000e+00 0.0
-7.430090e-02 0.000000e+00 0.0
-7.343992e-02 0.000000e+00 0.0
-7.271201e-02 0.000000e+00 0.0
-7.211307e-02 0.000000e+00 0.0
-7.163815e-02 0.000000e+00 0.0
-7.128141e-02 0.000000e+00 0.0
-7.103605e-02 0.000000e+00 0.0
-7.089428e-02 0.000000e+00 0.0
-7.084716e-02 0.000000e+00 0.0
-7.088424e-02 0.000000e+00 0.0
-7.099292e-02 0.000000e+00 0.0
-7.115777e-02 0.000000e+00 0.0
-7.136175e-02 0.000000e+00 0.0
-7.159675e-02 0.000000e+00 0.0
-7.185762e-02 0.000000e+00 0.0
-7.213865e-02 0.000000e+00 0.0
-7.243406e-02 0.000000e+00 0.0
-7.273808e-02 0.000000e+00 0.0
-7.304493e-02 0.000000e+00 0.0
-7.334746e-02 0.000000e+00 0.0
-7.363874e-02 0.000000e+00 0.0
-7.391302e-02 0.000000e+00 0.0
-7.416577e-02 0.000000e+00 0.0
-7.439324e-02 0.000000e+00 0.0
-7.459140e-02 0.000000e+00 0.0
-7.475374e-02 0.000000e+00 0.0
-7.486862e-02 0.000000e+00 0.0
-7.492973e-02 0.000000e+00 0.0
-7.492973e-02 0.000000e+00 0.0
0.000000e+00 0.000000e+00 0.0
0.000000e+00 0.000000e+00 0.0
0.000000e+00 0.000000e+00 0.0
0.000000e+00 0.000000e+00 0.0
0.000000e+00 0.000000e+00 0.0
0.000000e+00 0.000000e+00 0.0
0.000000e+00 0.000000e+00 0.0
0.000000e+00 0.000000e+00 0.0
0.000000e+00 0.000000e+00 0.0
0.000000e+00 0.000000e+00 0.0
0.000000e+00 0.000000e+00 0.0
0.000000e+00 -8.575664e-04 0.0
-2.834740e-04 8.542133e-04 0.0
-4.622382e-03 4.667083e-03 0.0
-1.121005e-02 6.915845e-03 0.0
-1.883837e-02 7.956491e-03 0.0
-2.709359e-02 8.583402e-03 0.0
-3.602965e-02 9.264230e-03 0.0
-4.588925e-02 1.018778e-02 0.0
-5.697712e-02 1.141605e-02 0.0
-6.960905e-02 1.296010e-02 0.0
-8.406082e-02 1.477994e-02 0.0
-1.004890e-01 1.675632e-02 0.0
-1.188004e-01 1.863958e-02 0.0
-1.384856e-01 2.001340e-02 0.0
-1.584394e-01 2.028201e-02 0.0
-1.767343e-01 1.862306e-02 0.0
-1.907126e-01 1.430649e-02 0.0
-1.971012e-01 6.716799e-03 0.0
-1.924941e-01 -4.278939e-03 0.0
-1.750779e-01 -1.708809e-02 0.0
-1.446205e-01 -3.012915e-02 0.0
-1.036022e-01 -4.069012e-02 0.0
-5.556355e-02 -4.771051e-02 0.0
-3.633050e-03 -5.160232e-02 0.0
4.532684e-02 -4.863172e-02 0.0
8.642378e-02 -4.076875e-02 0.0
1.185108e-01 -3.175886e-02 0.0
1.420300e-01 -2.319101e-02 0.0
1.580844e-01 -1.572620e-02 0.0
1.680016e-01 -9.588994e-03 0.0
1.731189e-01 -4.789209e-03 0.0
1.746882e-01 -1.241047e-03 0.0
1.738211e-01 1.195250e-03 0.0
1.710042e-01 3.145125e-03 0.0
1.667999e-01 4.532462e-03 0.0
1.617271e-01 5.400956e-03 0.0
1.561989e-01 5.856411e-03 0.0
1.505176e-01 6.009455e-03 0.0
1.448847e-01 5.961099e-03 0.0
1.394142e-01 5.798634e-03 0.0
1.341765e-01 5.565852e-03 0.0
1.292074e-01 5.297344e-03 0.0
1.245191e-01 5.016412e-03 0.0
1.201110e-01 4.736272e-03 0.0
1.159738e-01 4.465386e-03 0.0
1.120939e-01 4.208119e-03 0.0
1.084558e-01 3.966300e-03 0.0
1.050438e-01 3.740134e-03 0.0
1.018432e-01 3.528833e-03 0.0
9.884030e-02 3.331066e-03 0.0
9.602326e-02 3.145217e-03 0.0
9.338188e-02 2.969560e-03 0.0
9.090770e-02 2.802367e-03 0.0
8.859389e-02 2.641988e-03 0.0
8.643515e-02 2.486920e-03 0.0
8.442748e-02 2.335857e-03 0.0
8.256792e-02 2.187742e-03 0.0
8.085431e-02 2.041790e-03 0.0
7.928500e-02 1.897494e-03 0.0
7.785858e-02 1.754608e-03 0.0
7.657363e-02 1.613127e-03 0.0
7.542856e-02 1.473252e-03 0.0
7.442139e-02 1.335359e-03 0.0
7.354960e-02 1.199975e-03 0.0
7.281003e-02 1.067751e-03 0.0
7.219878e-02 9.394369e-04 0.0
7.171110e-02 8.158614e-04 0.0
7.134137e-02 6.979108e-04 0.0
7.108304e-02 5.865170e-04 0.0
7.092855e-02 4.826702e-04 0.0
7.086925e-02 3.874887e-04 0.0
7.089504e-02 3.023946e-04 0.0
7.099381e-02 2.294096e-04 0.0
7.115070e-02 1.712993e-04 0.0
7.134849e-02 1.303917e-04 0.0
7.157790e-02 9.877257e-05 0.0
7.183380e-02 7.228569e-05 0.0
7.211052e-02 5.146687e-05 0.0
7.240233e-02 3.637723e-05 0.0
7.270347e-02 2.703977e-05 0.0
7.300828e-02 2.337331e-05 0.0
7.330983e-02 2.664310e-05 0.0
7.360107e-02 3.694169e-05 0.0
7.387608e-02 5.317406e-05 0.0
7.413012e-02 7.414518e-05 0.0
7.435924e-02 9.906946e-05 0.0
7.455921e-02 1.282137e-04 0.0
7.472338e-02 1.640092e-04 0.0
7.483985e-02 2.117160e-04 0.0
7.490173e-02 2.663085e-04 0.0
7.492973e-02 3.001854e-04 0.0
0.000000e+00 3.032912e-04 0.0
0.000000e+00 0.000000e+00 0.0
0.000000e+00 0.000000e+00 0.0
0.000000e+00 0.000000e+00 0.0
0.000000e+00 0.000000e+00 0.0
0.000000e+00 0.000000e+00 0.0
0.000000e+00 0.000000e+00 0.0
0.000000e+00 0.000000e+00 0.0
0.000000e+00 0.000000e+00 0.0
0.000000e+00 0.000000e+00 0.0
0.000000e+00 0.000000e+00 0.0
0.000000e+00 -6.430980e-03 0.0
-5.246431e-03 6.428820e-03 0.0
-1.831283e-02 1.781909e-02 0.0
-3.541951e-02 2.410814e-02 0.0
-5.437793e-02 2.700052e-02 0.0
-7.433171e-02 2.862279e-02 0.0
-9.517578e-02 3.019390e-02 0.0
-1.170673e-01 3.216491e-02 0.0
-1.401562e-01 3.459060e-02 0.0
-1.644372e-01 3.732666e-02 0.0
-1.896165e-01 4.004488e-02 0.0
-2.150003e-01 4.222569e-02 0.0
-2.393544e-01 4.307935e-02 0.0
-2.607682e-01 4.151278e-02 0.0
-2.765193e-01 3.611870e-02 0.0
-2.835173e-01 2.570671e-02 0.0
-2.781229e-01 8.997681e-03 0.0
-2.560290e-01 -1.529150e-02 0.0
-2.169118e-01 -4.331051e-02 0.0
-1.628953e-01 -7.101894e-02 0.0
-9.615143e-02 -9.678743e-02 0.0
-2.012437e-02 -1.166316e-01 0.0
5.913897e-02 -1.268882e-01 0.0
1.325882e-01 -1.249660e-01 0.0
1.975191e-01 -1.134770e-01 0.0
2.536097e-01 -9.677369e-02 0.0
3.003581e-01 -7.842169e-02 0.0
3.378773e-01 -6.062459e-02 0.0
3.667745e-01 -4.453783e-02 0.0
3.879373e-01 -3.066621e-02 0.0
4.023774e-01 -1.914366e-02 0.0
4.111199e-01 -9.897933e-03 0.0
4.151275e-01 -2.726694e-03 0.0
4.156889e-01 2.669297e-03 0.0
4.134145e-01 6.892446e-03 0.0
4.089097e-01 9.991438e-03 0.0
4.027064e-01 1.214533e-02 0.0
3.952442e-01 1.355725e-02 0.0
3.868878e-01 1.440310e-02 0.0
3.779618e-01 1.481022e-02 0.0
3.687261e-01 1.488716e-02 0.0
3.593675e-01 1.474157e-02 0.0
3.500207e-01 1.444888e-02 0.0
3.407845e-01 1.405802e-02 0.0
3.317268e-01 1.360867e-02 0.0
3.228934e-01 1.312717e-02 0.0
3.143139e-01 1.263145e-02 0.0
3.060067e-01 1.213288e-02 0.0
2.979832e-01 1.163797e-02 0.0
2.902500e-01 1.114989e-02 0.0
2.828115e-01 1.066934e-02 0.0
2.756713e-01 1.019540e-02 0.0
2.688332e-01 9.726041e-03 0.0
2.623022e-01 9.258654e-03 0.0
2.560843e-01 8.790412e-03 0.0
2.501871e-01 8.318650e-03 0.0
2.446193e-01 7.841173e-03 0.0
2.393902e-01 7.356493e-03 0.0
2.345093e-01 6.863973e-03 0.0
2.299857e-01 6.363879e-03 0.0
2.258270e-01 5.857365e-03 0.0
2.220395e-01 5.346404e-03 0.0
2.186268e-01 4.833700e-03 0.0
2.155898e-01 4.322566e-03 0.0
2.129264e-01 3.816798e-03 0.0
2.106309e-01 3.320532e-03 0.0
2.086942e-01 2.838110e-03 0.0
2.071038e-01 2.373926e-03 0.0
2.058437e-01 1.932288e-03 0.0
2.048947e-01 1.517298e-03 0.0
2.042350e-01 1.132797e-03 0.0
2.038406e-01 7.824292e-04 0.0
2.036857e-01 4.698688e-04 0.0
2.037434e-01 1.992336e-04 0.0
2.039838e-01 -2.445610e-05 0.0
2.043590e-01 -1.907540e-04 0.0
2.048322e-01 -3.152881e-04 0.0
2.053740e-01 -4.047648e-04 0.0
2.059610e-01 -4.649419e-04 0.0
2.065723e-01 -4.987062e-04 0.0
2.071906e-01 -5.093332e-04 0.0
2.078006e-01 -4.976636e-04 0.0
2.083885e-01 -4.653800e-04 0.0
2.089432e-01 -4.158965e-04 0.0
2.094556e-01 -3.526209e-04 0.0
2.099182e-01 -2.779390e-04 0.0
2.103243e-01 -1.923416e-04 0.0
2.106675e-01 -9.354662e-05 0.0
2.109409e-01 2.392761e-05 0.0
2.111213e-01 1.715184e-04 0.0
2.112020e-01 3.050879e-04 0.0
0.000000e+00 3.080790e-04 0.0
0.000000e+00 0.000000e+00 0.0
0.000000e+00 0.000000e+00 0.0
0.000000e+00 0.000000e+00 0.0
0.000000e+00 0.000000e+00 0.0
0.000000e+00 0.000000e+00 0.0
0.000000e+00 0.000000e+00 0.0
0.000000e+00 0.000000e+00 0.0
0.000000e+00 0.000000e+00 0.0
0.000000e+00 0.000000e+00 0.0
0.000000e+00 0.000000e+00 0.0
0.000000e+00 -1.658835e-02 0.0
-9.831709e-03 1.658870e-02 0.0
-2.969844e-02 3.777143e-02 0.0
-5.336323e-02 4.785854e-02 0.0
-7.789908e-02 5.162199e-02 0.0
-1.022165e-01 5.302585e-02 0.0
-1.260018e-01 5.406479e-02 0.0
-1.491189e-01 5.536766e-02 0.0
-1.713460e-01 5.690329e-02 0.0
-1.922625e-01 5.832870e-02 0.0
-2.111173e-01 5.898529e-02 0.0
-2.268128e-01 5.800688e-02 0.0
-2.378457e-01 5.419778e-02 0.0
-2.424004e-01 4.615316e-02 0.0
-2.371775e-01 3.098134e-02 0.0
-2.174088e-01 6.023624e-03 0.0
-1.796399e-01 -2.868554e-02 0.0
-1.252893e-01 -6.955651e-02 0.0
-5.596866e-02 -1.125455e-01 0.0
2.446169e-02 -1.513637e-01 0.0
1.071009e-01 -1.793410e-01 0.0
1.858708e-01 -1.953158e-01 0.0
2.573976e-01 -1.983295e-01 0.0
3.201102e-01 -1.875929e-01 0.0
3.748490e-01 -1.681302e-01 0.0
4.223266e-01 -1.441657e-01 0.0
4.628753e-01 -1.188848e-01 0.0
4.967424e-01 -9.440612e-02 0.0
5.242578e-01 -7.196758e-02 0.0
5.458608e-01 -5.218364e-02 0.0
5.620722e-01 -3.526941e-02 0.0
5.734593e-01 -2.119944e-02 0.0
5.806289e-01 -9.810701e-03 0.0
5.842487e-01 -8.648672e-04 0.0
5.850476e-01 6.179204e-03 0.0
5.835136e-01 1.161101e-02 0.0
5.800440e-01 1.570050e-02 0.0
5.749830e-01 1.870386e-02 0.0
5.686295e-01 2.084220e-02 0.0
5.612283e-01 2.229705e-02 0.0
5.529737e-01 2.322743e-02 0.0
5.440584e-01 2.374248e-02 0.0
5.346614e-01 2.393148e-02 0.0
5.249328e-01 2.387217e-02 0.0
5.149879e-01 2.363922e-02 0.0
5.049203e-01 2.328041e-02 0.0
4.948044e-01 2.283291e-02 0.0
4.847000e-01 2.232292e-02 0.0
4.746555e-01 2.176809e-02 0.0
4.647112e-01 2.117983e-02 0.0
4.549016e-01 2.056455e-02 0.0
4.452576e-01 1.992493e-02 0.0
4.358084e-01 1.926086e-02 0.0
4.265824e-01 1.857029e-02 0.0
4.176084e-01 1.785005e-02 0.0
4.089161e-01 1.709660e-02 0.0
4.005361e-01 1.630677e-02 0.0
3.924998e-01 1.547836e-02 0.0
3.848388e-01 1.461061e-02 0.0
3.775838e-01 1.370450e-02 0.0
3.707639e-01 1.276284e-02 0.0
3.644057e-01 1.179026e-02 0.0
3.585318e-01 1.079317e-02 0.0
3.531605e-01 9.779503e-03 0.0
3.483044e-01 8.758500e-03 0.0
3.439702e-01 7.740352e-03 0.0
3.401581e-01 6.735855e-03 0.0
3.368616e-01 5.756011e-03 0.0
3.340679e-01 4.811620e-03 0.0
3.317579e-01 3.912861e-03 0.0
3.299074e-01 3.068920e-03 0.0
3.284878e-01 2.287723e-03 0.0
3.274673e-01 1.575902e-03 0.0
3.268130e-01 9.391547e-04 0.0
3.264906e-01 3.835919e-04 0.0
3.264668e-01 -8.132428e-05 0.0
3.266726e-01 -4.354893e-04 0.0
3.270423e-01 -6.888491e-04 0.0
3.275277e-01 -8.647447e-04 0.0
3.280869e-01 -9.722872e-04 0.0
3.286870e-01 -1.023834e-03 0.0
3.293042e-01 -1.029281e-03 0.0
3.299187e-01 -9.942220e-04 0.0
3.305141e-01 -9.256948e-04 0.0
3.310772e-01 -8.301245e-04 0.0
3.315970e-01 -7.120603e-04 0.0
3.320632e-01 -5.729864e-04 0.0
3.324651e-01 -4.097810e-04 0.0
3.327882e-01 -2.135491e-04 0.0
3.330192e-01 2.608161e-05 0.0
3.331316e-01 2.783444e-04 0.0
0.000000e+00 2.805315e-04 0.0
0.000000e+00 0.000000e+00 0.0
0.000000e+00 0.000000e+00 0.0
0.000000e+00 0.000000e+00 0.0
0.000000e+00 0.000000e+00 0.0
0.000000e+00 0.000000e+00 0.0
0.000000e+00 0.000000e+00 0.0
0.000000e+00 0.000000e+00 0.0
0.000000e+00 0.000000e+00 0.0
0.000000e+00 0.000000e+00 0.0
0.000000e+00 0.000000e+00 0.0
0.000000e+00 -2.928041e-02 0.0
-1.236668e-02 2.928356e-02 0.0
-3.511684e-02 6.060720e-02 0.0
-6.000503e-02 7.283235e-02 0.0
-8.372864e-02 7.543120e-02 0.0
-1.052580e-01 7.464083e-02 0.0
-1.242482e-01 7.314060e-02 0.0
-1.404400e-01 7.164504e-02 0.0
-1.534820e-01 7.003094e-02 0.0
-1.629063e-01 6.783859e-02 0.0
-1.679094e-01 6.407396e-02 0.0
-1.673588e-01 5.754192e-02 0.0
-1.590888e-01 4.601339e-02 0.0
-1.409956e-01 2.814561e-02 0.0
-1.067409e-01 -3.187722e-03 0.0
-5.343329e-02 -4.719841e-02 0.0
1.639003e-02 -9.842326e-02 0.0
9.611140e-02 -1.491923e-01 0.0
1.783798e-01 -1.947283e-01 0.0
2.578092e-01 -2.307075e-01 0.0
3.316976e-01 -2.531438e-01 0.0
3.974525e-01 -2.609851e-01 0.0
4.528931e-01 -2.536845e-01 0.0
5.000062e-01 -2.346204e-01 0.0
5.404300e-01 -2.084684e-01 0.0
5.752656e-01 -1.789156e-01 0.0
6.051620e-01 -1.486956e-01 0.0
6.305113e-01 -1.196698e-01 0.0
6.516027e-01 -9.297338e-02 0.0
6.687060e-01 -6.920139e-02 0.0
6.821035e-01 -4.858130e-02 0.0
6.920975e-01 -3.110779e-02 0.0
6.990097e-01 -1.663724e-02 0.0
7.031737e-01 -4.943324e-03 0.0
7.051422e-01 4.296295e-03 0.0
7.052462e-01 1.159267e-02 0.0
7.037477e-01 1.728455e-02 0.0
7.008666e-01 2.167061e-02 0.0
6.967925e-01 2.500193e-02 0.0
6.916889e-01 2.748630e-02 0.0
6.857054e-01 2.929647e-02 0.0
6.789662e-01 3.056735e-02 0.0
6.715721e-01 3.141116e-02 0.0
6.636092e-01 3.192072e-02 0.0
6.551752e-01 3.215876e-02 0.0
6.463606e-01 3.218069e-02 0.0
6.372394e-01 3.203971e-02 0.0
6.278753e-01 3.177263e-02 0.0
6.183238e-01 3.140515e-02 0.0
6.086338e-01 3.095550e-02 0.0
5.988492e-01 3.043475e-02 0.0
5.890111e-01 2.984864e-02 0.0
5.791589e-01 2.919864e-02 0.0
5.693318e-01 2.848298e-02 0.0
5.595699e-01 2.769762e-02 0.0
5.499147e-01 2.683739e-02 0.0
5.404100e-01 2.589711e-02 0.0
5.311014e-01 2.487257e-02 0.0
5.220362e-01 2.376145e-02 0.0
5.132624e-01 2.256388e-02 0.0
5.048281e-01 2.128279e-02 0.0
4.967798e-01 1.992416e-02 0.0
4.891615e-01 1.849704e-02 0.0
4.820132e-01 1.701343e-02 0.0
4.753694e-01 1.548794e-02 0.0
4.692580e-01 1.393737e-02 0.0
4.636993e-01 1.238010e-02 0.0
4.587055e-01 1.083542e-02 0.0
4.542800e-01 9.322811e-03 0.0
4.504173e-01 7.861141e-03 0.0
4.471040e-01 6.467869e-03 0.0
4.443189e-01 5.158360e-03 0.0
4.420349e-01 3.945563e-03 0.0
4.402193e-01 2.840337e-03 0.0
4.388358e-01 1.852706e-03 0.0
4.378463e-01 9.937672e-04 0.0
4.372220e-01 2.744671e-04 0.0
4.369167e-01 -2.979181e-04 0.0
4.368519e-01 -7.143495e-04 0.0
4.369578e-01 -9.925834e-04 0.0
4.371840e-01 -1.164355e-03 0.0
4.374871e-01 -1.246818e-03 0.0
4.378387e-01 -1.260174e-03 0.0
4.382164e-01 -1.217783e-03 0.0
4.386022e-01 -1.130300e-03 0.0
4.389810e-01 -1.005259e-03 0.0
4.393398e-01 -8.462396e-04 0.0
4.396664e-01 -6.507305e-04 0.0
4.399465e-01 -4.079880e-04 0.0
4.401596e-01 -1.014484e-04 0.0
4.402731e-01 2.504396e-04 0.0
0.000000e+00 2.512153e-04 0.0
0.000000e+00 0.000000e+00 0.0
0.000000e+00 0.000000e+00 0.0
0.000000e+00 0.000000e+00 0.0
0.000000e+00 0.000000e+00 0.0
0.000000e+00 0.000000e+00 0.0
0.000000e+00 0.000000e+00 0.0
0.000000e+00 0.000000e+00 0.0
0.000000e+00 0.000000e+00 0.0
0.000000e+00 0.000000e+00 0.0
0.000000e+00 0.000000e+00 0.0
0.000000e+00 -4.254208e-02 0.0
-1.293552e-02 4.254725e-02 0.0
-3.456451e-02 8.232180e-02 0.0
-5.565787e-02 9.401132e-02 0.0
-7.336380e-02 9.322275e-02 0.0
-8.705455e-02 8.841719e-02 0.0
-9.655590e-02 8.272756e-02 0.0
-1.016854e-01 7.686013e-02 0.0
-1.019988e-01 7.042997e-02 0.0
-9.707275e-02 6.299816e-02 0.0
-8.559016e-02 5.267698e-02 0.0
-6.603635e-02 3.807372e-02 0.0
-3.317191e-02 1.323456e-02 0.0
2.000845e-02 -2.494914e-02 0.0
8.870648e-02 -7.180014e-02 0.0
1.668619e-01 -1.252682e-01 0.0
2.487797e-01 -1.802555e-01 0.0
3.299781e-01 -2.303051e-01 0.0
4.060494e-01 -2.707140e-01 0.0
4.737001e-01 -2.982726e-01 0.0
5.316316e-01 -3.109896e-01 0.0
5.789912e-01 -3.082592e-01 0.0
6.171724e-01 -2.917800e-01 0.0
6.487236e-01 -2.660859e-01 0.0
6.753684e-01 -2.350277e-01 0.0
6.981989e-01 -2.016605e-01 0.0
7.178580e-01 -1.682691e-01 0.0
7.347109e-01 -1.364370e-01 0.0
7.489704e-01 -1.071473e-01 0.0
7.607827e-01 -8.092802e-02 0.0
7.702756e-01 -5.798856e-02 0.0
7.775832e-01 -3.832978e-02 0.0
7.828574e-01 -2.182588e-02 0.0
7.862807e-01 -8.280966e-03 0.0
7.881011e-01 2.561431e-03 0.0
7.885760e-01 1.120339e-02 0.0
7.878783e-01 1.806793e-02 0.0
7.861441e-01 2.349041e-02 0.0
7.834893e-01 2.774231e-02 0.0
7.800157e-01 3.104557e-02 0.0
7.758153e-01 3.358245e-02 0.0
7.709675e-01 3.550072e-02 0.0
7.655423e-01 3.692198e-02 0.0
7.596029e-01 3.794578e-02 0.0
7.531979e-01 3.864940e-02 0.0
7.463643e-01 3.909988e-02 0.0
7.391473e-01 3.934233e-02 0.0
7.315918e-01 3.941373e-02 0.0
7.237385e-01 3.934406e-02 0.0
7.156235e-01 3.915614e-02 0.0
7.072806e-01 3.886324e-02 0.0
6.987421e-01 3.847269e-02 0.0
6.900400e-01 3.798644e-02 0.0
6.812065e-01 3.740204e-02 0.0
6.722760e-01 3.671375e-02 0.0
6.632852e-01 3.591377e-02 0.0
6.542742e-01 3.499371e-02 0.0
6.452864e-01 3.394597e-02 0.0
6.363686e-01 3.276494e-02 0.0
6.275701e-01 3.144795e-02 0.0
6.189427e-01 2.999577e-02 0.0
6.105393e-01 2.841317e-02 0.0
6.024127e-01 2.670928e-02 0.0
5.946142e-01 2.489755e-02 0.0
5.871921e-01 2.299562e-02 0.0
5.801903e-01 2.102481e-02 0.0
5.736466e-01 1.900947e-02 0.0
5.675915e-01 1.697612e-02 0.0
5.620474e-01 1.495250e-02 0.0
5.570277e-01 1.296644e-02 0.0
5.525365e-01 1.104470e-02 0.0
5.485687e-01 9.211756e-03 0.0
5.451108e-01 7.489057e-03 0.0
5.421417e-01 5.895086e-03 0.0
5.396339e-01 4.446145e-03 0.0
5.375561e-01 3.157143e-03 0.0
5.358757e-01 2.040452e-03 0.0
5.345577e-01 1.105764e-03 0.0
5.335736e-01 3.553234e-04 0.0
5.328856e-01 -2.189883e-04 0.0
5.324277e-01 -6.208674e-04 0.0
5.321403e-01 -8.737550e-04 0.0
5.319732e-01 -1.007466e-03 0.0
5.318977e-01 -1.056642e-03 0.0
5.318912e-01 -1.038228e-03 0.0
5.319353e-01 -9.637098e-04 0.0
5.320153e-01 -8.406710e-04 0.0
5.321199e-01 -6.696979e-04 0.0
5.322387e-01 -4.411474e-04 0.0
5.323563e-01 -1.334266e-04 0.0
5.324373e-01 2.549992e-04 0.0
0.000000e+00 2.538651e-04 0.0
0.000000e+00 0.000000e+00 0.0
0.000000e+00 0.000000e+00 0.0
0.000000e+00 0.000000e+00 0.0
0.000000e+00 0.000000e+00 0.0
0.000000e+00 0.000000e+00 0.0
0.000000e+00 0.000000e+00 0.0
0.000000e+00 0.000000e+00 0.0
0.000000e+00 0.000000e+00 0.0
0.000000e+00 0.000000e+00 0.0
0.000000e+00 0.000000e+00 0.0
0.000000e+00 -5.568274e-02 0.0
-1.281324e-02 5.568867e-02 0.0
-3.019275e-02 9.978693e-02 0.0
-4.330078e-02 1.072049e-01 0.0
-5.086461e-02 1.008722e-01 0.0
-5.294766e-02 9.058584e-02 0.0
-4.966974e-02 7.953525e-02 0.0
-4.097704e-02 6.825305e-02 0.0
-2.564514e-02 5.518368e-02 0.0
-2.579512e-03 4.001814e-02 0.0
3.199453e-02 1.818854e-02 0.0
8.341424e-02 -1.326038e-02 0.0
1.502746e-01 -5.354018e-02 0.0
2.273995e-01 -1.019885e-01 0.0
3.107582e-01 -1.550732e-01 0.0
3.947109e-01 -2.091352e-01 0.0
4.741140e-01 -2.595730e-01 0.0
5.454876e-01 -3.015931e-01 0.0
6.065617e-01 -3.317025e-01 0.0
6.562936e-01 -3.479189e-01 0.0
6.948336e-01 -3.494440e-01 0.0
7.232580e-01 -3.365980e-01 0.0
7.447970e-01 -3.132334e-01 0.0
7.617710e-01 -2.829743e-01 0.0
7.757338e-01 -2.489048e-01 0.0
7.876429e-01 -2.134841e-01 0.0
7.980383e-01 -1.785788e-01 0.0
8.071924e-01 -1.455055e-01 0.0
8.152070e-01 -1.150764e-01 0.0
8.220975e-01 -8.773290e-02 0.0
8.278485e-01 -6.365393e-02 0.0
8.324463e-01 -4.284196e-02 0.0
8.358968e-01 -2.519077e-02 0.0
8.382423e-01 -1.054081e-02 0.0
8.395558e-01 1.333488e-03 0.0
8.399641e-01 1.088075e-02 0.0
8.395587e-01 1.855892e-02 0.0
8.384161e-01 2.471862e-02 0.0
8.366048e-01 2.963920e-02 0.0
8.341878e-01 3.354823e-02 0.0
8.312228e-01 3.663306e-02 0.0
8.277612e-01 3.904793e-02 0.0
8.238490e-01 4.091978e-02 0.0
8.195274e-01 4.235294e-02 0.0
8.148299e-01 4.343251e-02 0.0
8.097871e-01 4.422832e-02 0.0
8.044218e-01 4.479322e-02 0.0
7.987515e-01 4.516968e-02 0.0
7.927927e-01 4.538844e-02 0.0
7.865656e-01 4.546886e-02 0.0
7.800900e-01 4.542444e-02 0.0
7.733845e-01 4.526383e-02 0.0
7.664676e-01 4.498899e-02 0.0
7.593585e-01 4.459671e-02 0.0
7.520785e-01 4.407933e-02 0.0
7.446516e-01 4.342630e-02 0.0
7.371052e-01 4.262575e-02 0.0
7.294706e-01 4.166621e-02 0.0
7.217829e-01 4.053819e-02 0.0
7.140812e-01 3.923532e-02 0.0
7.064077e-01 3.775486e-02 0.0
6.988079e-01 3.609860e-02 0.0
6.913293e-01 3.427351e-02 0.0
6.840204e-01 3.229206e-02 0.0
6.769295e-01 3.017216e-02 0.0
6.701031e-01 2.793683e-02 0.0
6.635846e-01 2.561356e-02 0.0
6.574129e-01 2.323343e-02 0.0
6.516209e-01 2.083007e-02 0.0
6.462346e-01 1.843836e-02 0.0
6.412718e-01 1.609309e-02 0.0
6.367419e-01 1.382726e-02 0.0
6.326460e-01 1.167063e-02 0.0
6.289772e-01 9.649477e-03 0.0
6.257221e-01 7.786912e-03 0.0
6.228619e-01 6.102907e-03 0.0
6.203745e-01 4.613453e-03 0.0
6.182361e-01 3.329770e-03 0.0
6.164216e-01 2.255507e-03 0.0
6.149001e-01 1.388077e-03 0.0
6.136456e-01 7.192980e-04 0.0
6.126298e-01 2.276045e-04 0.0
6.118208e-01 -1.128847e-04 0.0
6.111743e-01 -3.244758e-04 0.0
6.106572e-01 -4.354829e-04 0.0
6.102496e-01 -4.705075e-04 0.0
6.099383e-01 -4.437656e-04 0.0
6.097160e-01 -3.618082e-04 0.0
6.095817e-01 -2.212170e-04 0.0
6.095375e-01 -3.609029e-06 0.0
6.095615e-01 3.165539e-04 0.0
0.000000e+00 3.132704e-04 0.0
0.000000e+00 0.000000e+00 0.0
0.000000e+00 0.000000e+00 0.0
0.000000e+00 0.000000e+00 0.0
0.000000e+00 0.000000e+00 0.0
0.000000e+00 0.000000e+00 0.0
0.000000e+00 0.000000e+00 0.0
0.000000e+00 0.000000e+00 0.0
0.000000e+00 0.000000e+00 0.0
0.000000e+00 0.000000e+00 0.0
0.000000e+00 0.000000e+00 0.0
0.000000e+00 -6.944816e-02 0.0
-1.343698e-02 6.945382e-02 0.0
-2.299872e-02 1.094343e-01 0.0
-2.291705e-02 1.072089e-01 0.0
-1.524217e-02 9.328293e-02 0.0
-7.812725e-04 7.621055e-02 0.0
2.062496e-02 5.821463e-02 0.0
4.893150e-02 4.003212e-02 0.0
8.715170e-02 1.704908e-02 0.0
1.400262e-01 -1.277073e-02 0.0
2.068012e-01 -4.850091e-02 0.0
2.838467e-01 -9.022021e-02 0.0
3.674882e-01 -1.370961e-01 0.0
4.528869e-01 -1.873016e-01 0.0
5.355903e-01 -2.376910e-01 0.0
6.113104e-01 -2.847697e-01 0.0
6.767245e-01 -3.249014e-01 0.0
7.300532e-01 -3.548361e-01 0.0
7.708635e-01 -3.724272e-01 0.0
7.997715e-01 -3.767413e-01 0.0
8.179660e-01 -3.675529e-01 0.0
8.289195e-01 -3.474660e-01 0.0
8.353677e-01 -3.195959e-01 0.0
8.392971e-01 -2.868181e-01 0.0
8.420181e-01 -2.515402e-01 0.0
8.443019e-01 -2.156823e-01 0.0
8.465527e-01 -1.807440e-01 0.0
8.489404e-01 -1.478076e-01 0.0
8.514528e-01 -1.175031e-01 0.0
8.539849e-01 -9.017944e-02 0.0
8.563978e-01 -6.598121e-02 0.0
8.585516e-01 -4.491015e-02 0.0
8.603238e-01 -2.687737e-02 0.0
8.616376e-01 -1.176898e-02 0.0
8.624340e-01 6.227211e-04 0.0
8.627059e-01 1.069445e-02 0.0
8.624636e-01 1.888686e-02 0.0
8.617292e-01 2.553863e-02 0.0
8.605324e-01 3.092160e-02 0.0
8.589067e-01 3.525951e-02 0.0
8.568865e-01 3.873888e-02 0.0
8.545044e-01 4.151571e-02 0.0
8.517907e-01 4.371900e-02 0.0
8.487737e-01 4.545560e-02 0.0
8.454763e-01 4.681549e-02 0.0
8.419189e-01 4.787141e-02 0.0
8.381172e-01 4.868049e-02 0.0
8.340850e-01 4.928754e-02 0.0
8.298331e-01 4.972593e-02 0.0
8.253687e-01 5.001885e-02 0.0
8.206974e-01 5.018133e-02 0.0
8.158274e-01 5.021947e-02 0.0
8.107667e-01 5.013531e-02 0.0
8.055236e-01 4.992545e-02 0.0
8.001077e-01 4.958080e-02 0.0
7.945311e-01 4.908850e-02 0.0
7.888087e-01 4.843381e-02 0.0
7.829586e-01 4.760188e-02 0.0
7.770028e-01 4.657967e-02 0.0
7.709659e-01 4.535776e-02 0.0
7.648767e-01 4.392967e-02 0.0
7.587672e-01 4.229370e-02 0.0
7.526726e-01 4.045380e-02 0.0
7.466301e-01 3.842012e-02 0.0
7.406787e-01 3.620915e-02 0.0
7.348577e-01 3.384352e-02 0.0
7.292053e-01 3.135155e-02 0.0
7.237580e-01 2.876633e-02 0.0
7.185490e-01 2.612470e-02 0.0
7.136069e-01 2.346603e-02 0.0
7.089548e-01 2.083088e-02 0.0
7.046085e-01 1.825908e-02 0.0
7.005778e-01 1.578697e-02 0.0
6.968658e-01 1.344707e-02 0.0
6.934701e-01 1.126822e-02 0.0
6.903836e-01 9.275098e-03 0.0
6.875953e-01 7.487287e-03 0.0
6.850925e-01 5.918210e-03 0.0
6.828599e-01 4.573722e-03 0.0
6.808811e-01 3.452493e-03 0.0
6.791410e-01 2.544988e-03 0.0
6.776218e-01 1.832426e-03 0.0
6.763026e-01 1.291936e-03 0.0
6.751649e-01 8.988426e-04 0.0
6.741902e-01 6.247856e-04 0.0
6.733619e-01 4.434940e-04 0.0
6.726717e-01 3.320283e-04 0.0
6.721211e-01 2.743702e-04 0.0
6.717215e-01 2.640394e-04 0.0
6.714937e-01 3.097347e-04 0.0
6.714568e-01 4.391270e-04 0.0
0.000000e+00 4.338930e-04 0.0
0.000000e+00 0.000000e+00 0.0
0.000000e+00 0.000000e+00 0.0
0.000000e+00 0.000000e+00 0.0
0.000000e+00 0.000000e+00 0.0
0.000000e+00 0.000000e+00 0.0
0.000000e+00 0.000000e+00 0.0
0.000000e+00 0.000000e+00 0.0
0.000000e+00 0.000000e+00 0.0
0.000000e+00 0.000000e+00 0.0
0.000000e+00 0.000000e+00 0.0
0.000000e+00 -8.330773e-02 0.0
-1.353057e-02 8.331256e-02 0.0
-6.071692e-03 1.020610e-01 0.0
1.747190e-02 8.375091e-02 0.0
4.944893e-02 6.139151e-02 0.0
8.833754e-02 3.740756e-02 0.0
1.364721e-01 1.016570e-02 0.0
1.971271e-01 -2.053726e-02 0.0
2.683260e-01 -5.406418e-02 0.0
3.469314e-01 -9.129056e-02 0.0
4.304929e-01 -1.319768e-01 0.0
5.157514e-01 -1.753931e-01 0.0
5.989844e-01 -2.202435e-01 0.0
6.763493e-01 -2.645809e-01 0.0
7.445696e-01 -3.058257e-01 0.0
8.011406e-01 -3.412551e-01 0.0
8.446668e-01 -3.683420e-01 0.0
8.750429e-01 -3.851267e-01 0.0
8.932206e-01 -3.905192e-01 0.0
9.007539e-01 -3.841890e-01 0.0
9.008498e-01 -3.675631e-01 0.0
8.964802e-01 -3.430107e-01 0.0
8.898870e-01 -3.129172e-01 0.0
8.826889e-01 -2.795344e-01 0.0
8.759082e-01 -2.446739e-01 0.0
8.700962e-01 -2.097847e-01 0.0
8.655038e-01 -1.760660e-01 0.0
8.621948e-01 -1.444130e-01 0.0
8.600426e-01 -1.152654e-01 0.0
8.588439e-01 -8.889508e-02 0.0
8.583681e-01 -6.541983e-02 0.0
8.583867e-01 -4.484318e-02 0.0
8.586899e-01 -2.709496e-02 0.0
8.590758e-01 -1.206922e-02 0.0
8.593882e-01 3.959187e-04 0.0
8.595116e-01 1.065667e-02 0.0
8.593870e-01 1.909712e-02 0.0
8.589887e-01 2.602247e-02 0.0
8.583117e-01 3.168419e-02 0.0
8.573630e-01 3.629385e-02 0.0
8.561562e-01 4.003128e-02 0.0
8.547082e-01 4.304933e-02 0.0
8.530360e-01 4.547683e-02 0.0
8.511551e-01 4.742212e-02 0.0
8.490801e-01 4.897612e-02 0.0
8.468238e-01 5.021330e-02 0.0
8.443967e-01 5.119313e-02 0.0
8.418078e-01 5.196215e-02 0.0
8.390640e-01 5.255534e-02 0.0
8.361709e-01 5.299751e-02 0.0
8.331328e-01 5.330500e-02 0.0
8.299514e-01 5.348649e-02 0.0
8.266278e-01 5.354451e-02 0.0
8.231632e-01 5.347571e-02 0.0
8.195597e-01 5.326987e-02 0.0
8.158214e-01 5.291243e-02 0.0
8.119542e-01 5.238668e-02 0.0
8.079664e-01 5.167530e-02 0.0
8.038692e-01 5.076244e-02 0.0
7.996753e-01 4.963725e-02 0.0
7.954008e-01 4.828981e-02 0.0
7.910648e-01 4.671534e-02 0.0
7.866893e-01 4.491491e-02 0.0
7.822989e-01 4.289615e-02 0.0
7.779201e-01 4.067353e-02 0.0
7.735809e-01 3.826837e-02 0.0
7.693096e-01 3.570844e-02 0.0
7.651343e-01 3.302721e-02 0.0
7.610818e-01 3.026280e-02 0.0
7.571766e-01 2.745682e-02 0.0
7.534398e-01 2.465333e-02 0.0
7.498869e-01 2.189764e-02 0.0
7.465289e-01 1.923050e-02 0.0
7.433733e-01 1.668838e-02 0.0
7.404230e-01 1.430410e-02 0.0
7.376779e-01 1.210581e-02 0.0
7.351350e-01 1.011581e-02 0.0
7.327894e-01 8.349411e-03 0.0
7.306347e-01 6.813980e-03 0.0
7.286642e-01 5.508692e-03 0.0
7.268707e-01 4.424086e-03 0.0
7.252459e-01 3.542821e-03 0.0
7.237810e-01 2.842473e-03 0.0
7.224685e-01 2.296890e-03 0.0
7.213018e-01 1.877097e-03 0.0
7.202766e-01 1.554371e-03 0.0
7.193927e-01 1.301522e-03 0.0
7.186577e-01 1.094933e-03 0.0
7.180921e-01 9.153345e-04 0.0
7.177396e-01 7.478086e-04 0.0
7.176660e-01 5.983084e-04 0.0
0.000000e+00 5.919812e-04 0.0
0.000000e+00 0.000000e+00 0.0
0.000000e+00 0.000000e+00 0.0
0.000000e+00 0.000000e+00 0.0
0.000000e+00 0.000000e+00 0.0
0.000000e+00 0.000000e+00 0.0
0.000000e+00 0.000000e+00 0.0
0.000000e+00 0.000000e+00 0.0
0.000000e+00 0.000000e+00 0.0
0.000000e+00 0.000000e+00 0.0
0.000000e+00 0.000000e+00 0.0
0.000000e+00 -7.847586e-02 0.0
5.162015e-03 7.847872e-02 0.0
5.317651e-02 5.413213e-02 0.0
1.155310e-01 2.148207e-02 0.0
1.868698e-01 -9.861677e-03 0.0
2.648014e-01 -4.043847e-02 0.0
3.462972e-01 -7.124449e-02 0.0
4.297846e-01 -1.039391e-01 0.0
5.142682e-01 -1.384622e-01 0.0
5.977894e-01 -1.747261e-01 0.0
6.780846e-01 -2.121864e-01 0.0
7.526694e-01 -2.498922e-01 0.0
8.190195e-01 -2.865081e-01 0.0