# vtk DataFile Version 3.0
Vector Field
ASCII
DATASET RECTILINEAR_GRID
DIMENSIONS 102 22 1
X_COORDINATES 102 double
0.000000 0.100000 0.200000 0.300000 0.400000 0.500000 0.600000 0.700000 0.800000 0.900000 1.000000 1.100000 1.200000 1.300000 1.400000 1.500000 1.600000 1.700000 1.800000 1.900000 2.000000 2.100000 2.200000 2.300000 2.400000 2.500000 2.600000 2.700000 2.800000 2.900000 3.000000 3.100000 3.200000 3.300000 3.400000 3.500000 3.600000 3.700000 3.800000 3.900000 4.000000 4.100000 4.200000 4.300000 4.400000 4.500000 4.600000 4.700000 4.800000 4.900000 5.000000 5.100000 5.200000 5.300000 5.400000 5.500000 5.600000 5.700000 5.800000 5.900000 6.000000 6.100000 6.200000 6.300000 6.400000 6.500000 6.600000 6.700000 6.800000 6.900000 7.000000 7.100000 7.200000 7.300000 7.400000 7.500000 7.600000 7.700000 7.800000 7.900000 8.000000 8.100000 8.200000 8.300000 8.400000 8.500000 8.600000 8.700000 8.800000 8.900000 9.000000 9.100000 9.200000 9.300000 9.400000 9.500000 9.600000 9.700000 9.800000 9.900000 10.000000 10.100000 
Y_COORDINATES 22 double
0.000000 0.100000 0.200000 0.300000 0.400000 0.500000 0.600000 0.700000 0.800000 0.900000 1.000000 1.100000 1.200000 1.300000 1.400000 1.500000 1.600000 1.700000 1.800000 1.900000 2.000000 2.100000 
Z_COORDINATES 1 double
0.0
POINT_DATA 2244
VECTORS Velocity double
0.000000e+00 0.000000e+00 0.0
-0.000000e+00 0.000000e+00 0.0
-0.000000e+00 0.000000e+00 0.0
-0.000000e+00 0.000000e+00 0.0
-0.000000e+00 0.000000e+00 0.0
-0.000000e+00 0.000000e+00 0.0
-0.000000e+00 0.000000e+00 0.0
-0.000000e+00 0.000000e+00 0.0
-0.000000e+00 0.000000e+00 0.0
-0.000000e+00 0.000000e+00 0.0
-0.000000e+00 0.000000e+00 0.0
5.195945e-04 0.000000e+00 0.0
4.900969e-03 0.000000e+00 0.0
1.167869e-02 0.000000e+00 0.0
1.966309e-02 0.000000e+00 0.0
2.846827e-02 0.000000e+00 0.0
3.818842e-02 0.000000e+00 0.0
4.911271e-02 0.000000e+00 0.0
6.159255e-02 0.000000e+00 0.0
7.597510e-02 0.000000e+00 0.0
9.252892e-02 0.000000e+00 0.0
1.113342e-01 0.000000e+00 0.0
1.321116e-01 0.000000e+00 0.0
1.540367e-01 0.000000e+00 0.0
1.754999e-01 0.000000e+00 0.0
1.937772e-01 0.000000e+00 0.0
2.053434e-01 0.000000e+00 0.0
2.062240e-01 0.000000e+00 0.0
1.933308e-01 0.000000e+00 0.0
1.657518e-01 0.000000e+00 0.0
1.252249e-01 0.000000e+00 0.0
7.582807e-02 0.000000e+00 0.0
2.026833e-02 0.000000e+00 0.0
-3.448105e-02 0.000000e+00 0.0
-8.128045e-02 0.000000e+00 0.0
-1.182147e-01 0.000000e+00 0.0
-1.455290e-01 0.000000e+00 0.0
-1.643636e-01 0.000000e+00 0.0
-1.761792e-01 0.000000e+00 0.0
-1.824780e-01 0.000000e+00 0.0
-1.846770e-01 0.000000e+00 0.0
-1.840493e-01 0.000000e+00 0.0
-1.813329e-01 0.000000e+00 0.0
-1.770836e-01 0.000000e+00 0.0
-1.718645e-01 0.000000e+00 0.0
-1.661392e-01 0.000000e+00 0.0
-1.602555e-01 0.000000e+00 0.0
-1.544450e-01 0.000000e+00 0.0
-1.488443e-01 0.000000e+00 0.0
-1.435394e-01 0.000000e+00 0.0
-1.385722e-01 0.000000e+00 0.0
-1.339584e-01 0.000000e+00 0.0
-1.296965e-01 0.000000e+00 0.0
-1.257749e-01 0.000000e+00 0.0
-1.221766e-01 0.000000e+00 0.0
-1.188813e-01 0.000000e+00 0.0
-1.158681e-01 0.000000e+00 0.0
-1.131160e-01 0.000000e+00 0.0
-1.106048e-01 0.000000e+00 0.0
-1.083149e-01 0.000000e+00 0.0
-1.062282e-01 0.000000e+00 0.0
-1.043274e-01 0.000000e+00 0.0
-1.025962e-01 0.000000e+00 0.0
-1.010197e-01 0.000000e+00 0.0
-9.958392e-02 0.000000e+00 0.0
-9.827583e-02 0.000000e+00 0.0
-9.708354e-02 0.000000e+00 0.0
-9.599609e-02 0.000000e+00 0.0
-9.500345e-02 0.000000e+00 0.0
-9.409648e-02 0.000000e+00 0.0
-9.326690e-02 0.000000e+00 0.0
-9.250720e-02 0.000000e+00 0.0
-9.181063e-02 0.000000e+00 0.0
-9.117113e-02 0.000000e+00 0.0
-9.058329e-02 0.000000e+00 0.0
-9.004232e-02 0.000000e+00 0.0
-8.954401e-02 0.000000e+00 0.0
-8.908468e-02 0.000000e+00 0.0
-8.866116e-02 0.000000e+00 0.0
-8.827077e-02 0.000000e+00 0.0
-8.791128e-02 0.000000e+00 0.0
-8.758088e-02 0.000000e+00 0.0
-8.727821e-02 0.000000e+00 0.0
-8.700233e-02 0.000000e+00 0.0
-8.675269e-02 0.000000e+00 0.0
-8.652918e-02 0.000000e+00 0.0
-8.633210e-02 0.000000e+00 0.0
-8.616217e-02 0.000000e+00 0.0
-8.602060e-02 0.000000e+00 0.0
-8.590905e-02 0.000000e+00 0.0
-8.582973e-02 0.000000e+00 0.0
-8.578558e-02 0.000000e+00 0.0
-8.578035e-02 0.000000e+00 0.0
-8.581650e-02 0.000000e+00 0.0
-8.589200e-02 0.000000e+00 0.0
-8.600037e-02 0.000000e+00 0.0
-8.613584e-02 0.000000e+00 0.0
-8.628709e-02 0.000000e+00 0.0
-8.643276e-02 0.000000e+00 0.0
-8.652946e-02 0.000000e+00 0.0
-8.652946e-02 0.000000e+00 0.0
0.000000e+00 0.000000e+00 0.0
0.000000e+00 0.000000e+00 0.0
0.000000e+00 0.000000e+00 0.0
0.000000e+00 0.000000e+00 0.0
0.000000e+00 0.000000e+00 0.0
0.000000e+00 0.000000e+00 0.0
0.000000e+00 0.000000e+00 0.0
0.000000e+00 0.000000e+00 0.0
0.000000e+00 0.000000e+00 0.0
0.000000e+00 0.000000e+00 0.0
0.000000e+00 0.000000e+00 0.0
0.000000e+00 -5.182938e-04 0.0
-5.235273e-04 5.160671e-04 0.0
-4.901631e-03 4.378742e-03 0.0
-1.167540e-02 6.779085e-03 0.0
-1.965809e-02 7.989723e-03 0.0
-2.846528e-02 8.811633e-03 0.0
-3.818972e-02 9.723964e-03 0.0
-4.911736e-02 1.092365e-02 0.0
-6.159722e-02 1.247622e-02 0.0
-7.597656e-02 1.437952e-02 0.0
-9.252633e-02 1.655427e-02 0.0
-1.113297e-01 1.880952e-02 0.0
-1.321086e-01 2.078291e-02 0.0
-1.540373e-01 2.192872e-02 0.0
-1.755036e-01 2.146297e-02 0.0
-1.937818e-01 1.827413e-02 0.0
-2.053464e-01 1.156234e-02 0.0
-2.062243e-01 8.782158e-04 0.0
-1.933285e-01 -1.289327e-02 0.0
-1.657484e-01 -2.757719e-02 0.0
-1.252219e-01 -4.052446e-02 0.0
-7.582650e-02 -4.939532e-02 0.0
-2.026812e-02 -5.555992e-02 0.0
3.448047e-02 -5.475092e-02 0.0
8.128017e-02 -4.680151e-02 0.0
1.182156e-01 -3.693569e-02 0.0
1.455310e-01 -2.731405e-02 0.0
1.643659e-01 -1.883297e-02 0.0
1.761807e-01 -1.181361e-02 0.0
1.824781e-01 -6.297577e-03 0.0
1.846763e-01 -2.199211e-03 0.0
1.840486e-01 6.267993e-04 0.0
1.813329e-01 2.715606e-03 0.0
1.770841e-01 4.249453e-03 0.0
1.718650e-01 5.219739e-03 0.0
1.661394e-01 5.725902e-03 0.0
1.602553e-01 5.883963e-03 0.0
1.544448e-01 5.810331e-03 0.0
1.488443e-01 5.600607e-03 0.0
1.435395e-01 5.304939e-03 0.0
1.385722e-01 4.967329e-03 0.0
1.339583e-01 4.613962e-03 0.0
1.296964e-01 4.261953e-03 0.0
1.257749e-01 3.921552e-03 0.0
1.221766e-01 3.598435e-03 0.0
1.188813e-01 3.295350e-03 0.0
1.158681e-01 3.013264e-03 0.0
1.131160e-01 2.752122e-03 0.0
1.106048e-01 2.511297e-03 0.0
1.083149e-01 2.289865e-03 0.0
1.062282e-01 2.086769e-03 0.0
1.043274e-01 1.900911e-03 0.0
1.025962e-01 1.731194e-03 0.0
1.010198e-01 1.576536e-03 0.0
9.958395e-02 1.435868e-03 0.0
9.827586e-02 1.308145e-03 0.0
9.708357e-02 1.192350e-03 0.0
9.599611e-02 1.087507e-03 0.0
9.500347e-02 9.926827e-04 0.0
9.409650e-02 9.069963e-04 0.0
9.326693e-02 8.296131e-04 0.0
9.250725e-02 7.597394e-04 0.0
9.181069e-02 6.966233e-04 0.0
9.117118e-02 6.395599e-04 0.0
9.058334e-02 5.878944e-04 0.0
9.004237e-02 5.410176e-04 0.0
8.954406e-02 4.983578e-04 0.0
8.908473e-02 4.593762e-04 0.0
8.866122e-02 4.235637e-04 0.0
8.827083e-02 3.904395e-04 0.0
8.791134e-02 3.595466e-04 0.0
8.758094e-02 3.304465e-04 0.0
8.727828e-02 3.027137e-04 0.0
8.700239e-02 2.759312e-04 0.0
8.675276e-02 2.496852e-04 0.0
8.652925e-02 2.235607e-04 0.0
8.633217e-02 1.971355e-04 0.0
8.616225e-02 1.699748e-04 0.0
8.602068e-02 1.416258e-04 0.0
8.590912e-02 1.116058e-04 0.0
8.582981e-02 7.936503e-05 0.0
8.578566e-02 4.420209e-05 0.0
8.578043e-02 5.278435e-06 0.0
8.581658e-02 -3.609443e-05 0.0
8.589209e-02 -7.545435e-05 0.0
8.600045e-02 -1.083107e-04 0.0
8.613593e-02 -1.354219e-04 0.0
8.628717e-02 -1.511937e-04 0.0
8.643284e-02 -1.456171e-04 0.0
8.652954e-02 -9.664545e-05 0.0
8.652946e-02 1.359761e-07 0.0
0.000000e+00 1.374408e-07 0.0
0.000000e+00 0.000000e+00 0.0
0.000000e+00 0.000000e+00 0.0
0.000000e+00 0.000000e+00 0.0
0.000000e+00 0.000000e+00 0.0
0.000000e+00 0.000000e+00 0.0
0.000000e+00 0.000000e+00 0.0
0.000000e+00 0.000000e+00 0.0
0.000000e+00 0.000000e+00 0.0
0.000000e+00 0.000000e+00 0.0
0.000000e+00 0.000000e+00 0.0
0.000000e+00 -6.337121e-03 0.0
-5.821667e-03 6.337533e-03 0.0
-1.944964e-02 1.801097e-02 0.0
-3.735649e-02 2.468966e-02 0.0
-5.740319e-02 2.803699e-02 0.0
-7.877522e-02 3.018048e-02 0.0
-1.013810e-01 3.232500e-02 0.0
-1.253501e-01 3.488961e-02 0.0
-1.507559e-01 3.788241e-02 0.0
-1.774427e-01 4.106974e-02 0.0
-2.048744e-01 4.398942e-02 0.0
-2.320174e-01 4.595351e-02 0.0
-2.571677e-01 4.593110e-02 0.0
-2.778599e-01 4.261707e-02 0.0
-2.909484e-01 3.454857e-02 0.0
-2.926087e-01 1.993392e-02 0.0
-2.781206e-01 -2.924298e-03 0.0
-2.448108e-01 -3.242893e-02 0.0
-1.939059e-01 -6.379636e-02 0.0
-1.283027e-01 -9.317995e-02 0.0
-5.064992e-02 -1.181783e-01 0.0
3.391844e-02 -1.339655e-01 0.0
1.143717e-01 -1.360149e-01 0.0
1.857139e-01 -1.260938e-01 0.0
2.479338e-01 -1.090207e-01 0.0
3.002601e-01 -8.926041e-02 0.0
3.426206e-01 -6.967297e-02 0.0
3.755678e-01 -5.177981e-02 0.0
4.000158e-01 -3.626249e-02 0.0
4.170450e-01 -2.332798e-02 0.0
4.277713e-01 -1.292627e-02 0.0
4.332576e-01 -4.859137e-03 0.0
4.348029e-01 1.171153e-03 0.0
4.332433e-01 5.809621e-03 0.0
4.292597e-01 9.203328e-03 0.0
4.234398e-01 1.154540e-02 0.0
4.162679e-01 1.305565e-02 0.0
4.081586e-01 1.391967e-02 0.0
3.994849e-01 1.427449e-02 0.0
3.905494e-01 1.424051e-02 0.0
3.815666e-01 1.395010e-02 0.0
3.726985e-01 1.348196e-02 0.0
3.640609e-01 1.289964e-02 0.0
3.557336e-01 1.224889e-02 0.0
3.477694e-01 1.156269e-02 0.0
3.402003e-01 1.086447e-02 0.0
3.330429e-01 1.017062e-02 0.0
3.263026e-01 9.492446e-03 0.0
3.199763e-01 8.837634e-03 0.0
3.140549e-01 8.211288e-03 0.0
3.085250e-01 7.616669e-03 0.0
3.033702e-01 7.055686e-03 0.0
2.985722e-01 6.529230e-03 0.0
2.941113e-01 6.037412e-03 0.0
2.899675e-01 5.579749e-03 0.0
2.861203e-01 5.155309e-03 0.0
2.825498e-01 4.762829e-03 0.0
2.792365e-01 4.400809e-03 0.0
2.761616e-01 4.067592e-03 0.0
2.733072e-01 3.761422e-03 0.0
2.706564e-01 3.480484e-03 0.0
2.681932e-01 3.222934e-03 0.0
2.659029e-01 2.986939e-03 0.0
2.637718e-01 2.770699e-03 0.0
2.617872e-01 2.572466e-03 0.0
2.599377e-01 2.390550e-03 0.0
2.582127e-01 2.223313e-03 0.0
2.566030e-01 2.069180e-03 0.0
2.550999e-01 1.926635e-03 0.0
2.536961e-01 1.794216e-03 0.0
2.523852e-01 1.670511e-03 0.0
2.511615e-01 1.554148e-03 0.0
2.500204e-01 1.443783e-03 0.0
2.489583e-01 1.338092e-03 0.0
2.479722e-01 1.235756e-03 0.0
2.470604e-01 1.135449e-03 0.0
2.462217e-01 1.035823e-03 0.0
2.454562e-01 9.354959e-04 0.0
2.447648e-01 8.330427e-04 0.0
2.441494e-01 7.269972e-04 0.0
2.436129e-01 6.158572e-04 0.0
2.431590e-01 4.981298e-04 0.0
2.427917e-01 3.726130e-04 0.0
2.425159e-01 2.396882e-04 0.0
2.423385e-01 1.019812e-04 0.0
2.422666e-01 -3.635482e-05 0.0
2.422903e-01 -1.591436e-04 0.0
2.423832e-01 -2.441351e-04 0.0
2.425061e-01 -2.684858e-04 0.0
2.426037e-01 -1.942164e-04 0.0
2.426035e-01 3.809704e-07 0.0
0.000000e+00 3.849341e-07 0.0
0.000000e+00 0.000000e+00 0.0
0.000000e+00 0.000000e+00 0.0
0.000000e+00 0.000000e+00 0.0
0.000000e+00 0.000000e+00 0.0
0.000000e+00 0.000000e+00 0.0
0.000000e+00 0.000000e+00 0.0
0.000000e+00 0.000000e+00 0.0
0.000000e+00 0.000000e+00 0.0
0.000000e+00 0.000000e+00 0.0
0.000000e+00 0.000000e+00 0.0
0.000000e+00 -1.696269e-02 0.0
-1.062512e-02 1.696371e-02 0.0
-3.137427e-02 3.876319e-02 0.0
-5.609549e-02 4.941218e-02 0.0
-8.184874e-02 5.378795e-02 0.0
-1.075284e-01 5.585518e-02 0.0
-1.327645e-01 5.755637e-02 0.0
-1.573161e-01 5.943944e-02 0.0
-1.808248e-01 6.139287e-02 0.0
-2.026827e-01 6.293098e-02 0.0
-2.218916e-01 6.320045e-02 0.0
-2.371024e-01 6.116357e-02 0.0
-2.464894e-01 5.531489e-02 0.0
-2.475508e-01 4.367490e-02 0.0
-2.364552e-01 2.345114e-02 0.0
-2.067132e-01 -9.807294e-03 0.0
-1.582687e-01 -5.136649e-02 0.0
-9.243532e-02 -9.826015e-02 0.0
-1.250956e-02 -1.437212e-01 0.0
7.448224e-02 -1.801724e-01 0.0
1.592021e-01 -2.028998e-01 0.0
2.369273e-01 -2.116926e-01 0.0
3.054957e-01 -2.045843e-01 0.0
3.654373e-01 -1.860352e-01 0.0
4.176621e-01 -1.612441e-01 0.0
4.625826e-01 -1.341793e-01 0.0
5.004324e-01 -1.075220e-01 0.0
5.315146e-01 -8.286251e-02 0.0
5.562598e-01 -6.100905e-02 0.0
5.751991e-01 -4.226825e-02 0.0
5.889193e-01 -2.664647e-02 0.0
5.980350e-01 -1.397408e-02 0.0
6.031881e-01 -3.981112e-03 0.0
6.053075e-01 3.690455e-03 0.0
6.048967e-01 9.613752e-03 0.0
6.024062e-01 1.403549e-02 0.0
5.982319e-01 1.722986e-02 0.0
5.927127e-01 1.943903e-02 0.0
5.861208e-01 2.086657e-02 0.0
5.786734e-01 2.168799e-02 0.0
5.706161e-01 2.200726e-02 0.0
5.621672e-01 2.193092e-02 0.0
5.534989e-01 2.156800e-02 0.0
5.447509e-01 2.099693e-02 0.0
5.360346e-01 2.027893e-02 0.0
5.274380e-01 1.946107e-02 0.0
5.190293e-01 1.857933e-02 0.0
5.108605e-01 1.766125e-02 0.0
5.029701e-01 1.672806e-02 0.0
4.953853e-01 1.579611e-02 0.0
4.881239e-01 1.487805e-02 0.0
4.811962e-01 1.398348e-02 0.0
4.746058e-01 1.311956e-02 0.0
4.683518e-01 1.229143e-02 0.0
4.624290e-01 1.150260e-02 0.0
4.568291e-01 1.075521e-02 0.0
4.515416e-01 1.005033e-02 0.0
4.465543e-01 9.388120e-03 0.0
4.418538e-01 8.768084e-03 0.0
4.374261e-01 8.189154e-03 0.0
4.332568e-01 7.649838e-03 0.0
4.293314e-01 7.148323e-03 0.0
4.256358e-01 6.682571e-03 0.0
4.221561e-01 6.250393e-03 0.0
4.188791e-01 5.849503e-03 0.0
4.157921e-01 5.477552e-03 0.0
4.128833e-01 5.132162e-03 0.0
4.101415e-01 4.810952e-03 0.0
4.075566e-01 4.511553e-03 0.0
4.051192e-01 4.231619e-03 0.0
4.028209e-01 3.968822e-03 0.0
4.006542e-01 3.720851e-03 0.0
3.986126e-01 3.485406e-03 0.0
3.966905e-01 3.260183e-03 0.0
3.948834e-01 3.042863e-03 0.0
3.931878e-01 2.831091e-03 0.0
3.916012e-01 2.622451e-03 0.0
3.901223e-01 2.414447e-03 0.0
3.887508e-01 2.204495e-03 0.0
3.874879e-01 1.989925e-03 0.0
3.863358e-01 1.768022e-03 0.0
3.852978e-01 1.536142e-03 0.0
3.843783e-01 1.292064e-03 0.0
3.835832e-01 1.034862e-03 0.0
3.829193e-01 7.658930e-04 0.0
3.823927e-01 4.902522e-04 0.0
3.820106e-01 2.229904e-04 0.0
3.817760e-01 -9.543126e-06 0.0
3.816665e-01 -1.589949e-04 0.0
3.816431e-01 -1.708286e-04 0.0
3.816428e-01 7.225570e-07 0.0
0.000000e+00 7.298331e-07 0.0
0.000000e+00 0.000000e+00 0.0
0.000000e+00 0.000000e+00 0.0
0.000000e+00 0.000000e+00 0.0
0.000000e+00 0.000000e+00 0.0
0.000000e+00 0.000000e+00 0.0
0.000000e+00 0.000000e+00 0.0
0.000000e+00 0.000000e+00 0.0
0.000000e+00 0.000000e+00 0.0
0.000000e+00 0.000000e+00 0.0
0.000000e+00 0.000000e+00 0.0
0.000000e+00 -3.010452e-02 0.0
-1.314013e-02 3.010477e-02 0.0
-3.667598e-02 6.230038e-02 0.0
-6.237061e-02 7.510573e-02 0.0
-8.686216e-02 7.827557e-02 0.0
-1.090580e-01 7.804612e-02 0.0
-1.285301e-01 7.702538e-02 0.0
-1.449292e-01 7.583876e-02 0.0
-1.578170e-01 7.428354e-02 0.0
-1.666312e-01 7.174855e-02 0.0
-1.704048e-01 6.697517e-02 0.0
-1.677307e-01 5.848770e-02 0.0
-1.561647e-01 4.374509e-02 0.0
-1.321235e-01 1.963080e-02 0.0
-8.762733e-02 -2.104547e-02 0.0
-2.399501e-02 -7.343788e-02 0.0
5.505471e-02 -1.304136e-01 0.0
1.402095e-01 -1.834133e-01 0.0
2.245727e-01 -2.280844e-01 0.0
3.037468e-01 -2.593480e-01 0.0
3.752238e-01 -2.743788e-01 0.0
4.363765e-01 -2.728467e-01 0.0
4.880273e-01 -2.562352e-01 0.0
5.322712e-01 -2.302780e-01 0.0
5.705082e-01 -1.994795e-01 0.0
6.035402e-01 -1.672100e-01 0.0
6.318148e-01 -1.357967e-01 0.0
6.556322e-01 -1.066812e-01 0.0
6.752598e-01 -8.063792e-02 0.0
6.909768e-01 -5.798564e-02 0.0
7.030861e-01 -3.875516e-02 0.0
7.119162e-01 -2.280320e-02 0.0
7.178258e-01 -9.890136e-03 0.0
7.212388e-01 2.771509e-04 0.0
7.226263e-01 8.225708e-03 0.0
7.223130e-01 1.434860e-02 0.0
7.205589e-01 1.898404e-02 0.0
7.175849e-01 2.241330e-02 0.0
7.135826e-01 2.486899e-02 0.0
7.087273e-01 2.654323e-02 0.0
7.031495e-01 2.758491e-02 0.0
6.969618e-01 2.811875e-02 0.0
6.903055e-01 2.822431e-02 0.0
6.833070e-01 2.799548e-02 0.0
6.760741e-01 2.751182e-02 0.0
6.686991e-01 2.683609e-02 0.0
6.612606e-01 2.601780e-02 0.0
6.538254e-01 2.509647e-02 0.0
6.464494e-01 2.410407e-02 0.0
6.391789e-01 2.306667e-02 0.0
6.320513e-01 2.200561e-02 0.0
6.250966e-01 2.093820e-02 0.0
6.183378e-01 1.987835e-02 0.0
6.117922e-01 1.883709e-02 0.0
6.054719e-01 1.782297e-02 0.0
5.993846e-01 1.684248e-02 0.0
5.935346e-01 1.590034e-02 0.0
5.879229e-01 1.499976e-02 0.0
5.825483e-01 1.414273e-02 0.0
5.774073e-01 1.333021e-02 0.0
5.724949e-01 1.256227e-02 0.0
5.678049e-01 1.183831e-02 0.0
5.633303e-01 1.115720e-02 0.0
5.590633e-01 1.051735e-02 0.0
5.549960e-01 9.916841e-03 0.0
5.511201e-01 9.353497e-03 0.0
5.474273e-01 8.824930e-03 0.0
5.439097e-01 8.328605e-03 0.0
5.405594e-01 7.861880e-03 0.0
5.373690e-01 7.422025e-03 0.0
5.343316e-01 7.006237e-03 0.0
5.314408e-01 6.611652e-03 0.0
5.286909e-01 6.235342e-03 0.0
5.260768e-01 5.874311e-03 0.0
5.235941e-01 5.525485e-03 0.0
5.212396e-01 5.185689e-03 0.0
5.190104e-01 4.851619e-03 0.0
5.169051e-01 4.519808e-03 0.0
5.149230e-01 4.186611e-03 0.0
5.130647e-01 3.848205e-03 0.0
5.113321e-01 3.500624e-03 0.0
5.097284e-01 3.139878e-03 0.0
5.082582e-01 2.762253e-03 0.0
5.069281e-01 2.364947e-03 0.0
5.057470e-01 1.947048e-03 0.0
5.047260e-01 1.511308e-03 0.0
5.038807e-01 1.068300e-03 0.0
5.032302e-01 6.409713e-04 0.0
5.027964e-01 2.747676e-04 0.0
5.025844e-01 4.115536e-05 0.0
5.025841e-01 1.091389e-06 0.0
0.000000e+00 1.102286e-06 0.0
0.000000e+00 0.000000e+00 0.0
0.000000e+00 0.000000e+00 0.0
0.000000e+00 0.000000e+00 0.0
0.000000e+00 0.000000e+00 0.0
0.000000e+00 0.000000e+00 0.0
0.000000e+00 0.000000e+00 0.0
0.000000e+00 0.000000e+00 0.0
0.000000e+00 0.000000e+00 0.0
0.000000e+00 0.000000e+00 0.0
0.000000e+00 0.000000e+00 0.0
0.000000e+00 -4.360731e-02 0.0
-1.350119e-02 4.360605e-02 0.0
-3.553207e-02 8.433208e-02 0.0
-5.694212e-02 9.651445e-02 0.0
-7.478493e-02 9.611496e-02 0.0
-8.838004e-02 9.163772e-02 0.0
-9.747864e-02 8.612270e-02 0.0
-1.018136e-01 8.017556e-02 0.0
-1.008916e-01 7.336535e-02 0.0
-9.422083e-02 6.508098e-02 0.0
-8.009753e-02 5.285229e-02 0.0
-5.627920e-02 3.466671e-02 0.0
-1.564701e-02 3.109315e-03 0.0
4.627922e-02 -4.229749e-02 0.0
1.221139e-01 -9.687937e-02 0.0
2.054063e-01 -1.567276e-01 0.0
2.900597e-01 -2.150645e-01 0.0
3.715137e-01 -2.648665e-01 0.0
4.452878e-01 -3.018596e-01 0.0
5.090501e-01 -3.231123e-01 0.0
5.620747e-01 -3.274052e-01 0.0
6.042049e-01 -3.149775e-01 0.0
6.387427e-01 -2.907723e-01 0.0
6.678247e-01 -2.593585e-01 0.0
6.927954e-01 -2.244487e-01 0.0
7.144406e-01 -1.888547e-01 0.0
7.331951e-01 -1.545520e-01 0.0
7.492970e-01 -1.227845e-01 0.0
7.628945e-01 -9.423630e-02 0.0
7.741081e-01 -6.919904e-02 0.0
7.830657e-01 -4.771169e-02 0.0
7.899139e-01 -2.965058e-02 0.0
7.948163e-01 -1.479254e-02 0.0
7.979590e-01 -2.866042e-03 0.0
7.996528e-01 6.531447e-03 0.0
8.001109e-01 1.389042e-02 0.0
7.994986e-01 1.959664e-02 0.0
7.979551e-01 2.395706e-02 0.0
7.956040e-01 2.722004e-02 0.0
7.925589e-01 2.958824e-02 0.0
7.889178e-01 3.122594e-02 0.0
7.847676e-01 3.226905e-02 0.0
7.801649e-01 3.282706e-02 0.0
7.751815e-01 3.297891e-02 0.0
7.698927e-01 3.280056e-02 0.0
7.643661e-01 3.236271e-02 0.0
7.586625e-01 3.172145e-02 0.0
7.528364e-01 3.092257e-02 0.0
7.469364e-01 3.000412e-02 0.0
7.410049e-01 2.899814e-02 0.0
7.350789e-01 2.793166e-02 0.0
7.291898e-01 2.682725e-02 0.0
7.233646e-01 2.570362e-02 0.0
7.176255e-01 2.457616e-02 0.0
7.119911e-01 2.345740e-02 0.0
7.064763e-01 2.235734e-02 0.0
7.010928e-01 2.128384e-02 0.0
6.958496e-01 2.024288e-02 0.0
6.907535e-01 1.923887e-02 0.0
6.858090e-01 1.827480e-02 0.0
6.810187e-01 1.735256e-02 0.0
6.763840e-01 1.647305e-02 0.0
6.719048e-01 1.563639e-02 0.0
6.675801e-01 1.484202e-02 0.0
6.634081e-01 1.408884e-02 0.0
6.593863e-01 1.337530e-02 0.0
6.555118e-01 1.269949e-02 0.0
6.517812e-01 1.205919e-02 0.0
6.481911e-01 1.145196e-02 0.0
6.447381e-01 1.087512e-02 0.0
6.414185e-01 1.032583e-02 0.0
6.382291e-01 9.801089e-03 0.0
6.351667e-01 9.297727e-03 0.0
6.322286e-01 8.812426e-03 0.0
6.294124e-01 8.341700e-03 0.0
6.267162e-01 7.881891e-03 0.0
6.241387e-01 7.429118e-03 0.0
6.216793e-01 6.979227e-03 0.0
6.193382e-01 6.527764e-03 0.0
6.171164e-01 6.069965e-03 0.0
6.150163e-01 5.600763e-03 0.0
6.130414e-01 5.114844e-03 0.0
6.111968e-01 4.606831e-03 0.0
6.094901e-01 4.071661e-03 0.0
6.079319e-01 3.505253e-03 0.0
6.065375e-01 2.905760e-03 0.0
6.053297e-01 2.276101e-03 0.0
6.043429e-01 1.627710e-03 0.0
6.036298e-01 9.879709e-04 0.0
6.032597e-01 4.112025e-04 0.0
6.032594e-01 1.424968e-06 0.0
0.000000e+00 1.439407e-06 0.0
0.000000e+00 0.000000e+00 0.0
0.000000e+00 0.000000e+00 0.0
0.000000e+00 0.000000e+00 0.0
0.000000e+00 0.000000e+00 0.0
0.000000e+00 0.000000e+00 0.0
0.000000e+00 0.000000e+00 0.0
0.000000e+00 0.000000e+00 0.0
0.000000e+00 0.000000e+00 0.0
0.000000e+00 0.000000e+00 0.0
0.000000e+00 0.000000e+00 0.0
0.000000e+00 -5.674825e-02 0.0
-1.314007e-02 5.674703e-02 0.0
-3.053024e-02 1.017237e-01 0.0
-4.348164e-02 1.094649e-01 0.0
-5.067478e-02 1.033055e-01 0.0
-5.210121e-02 9.306186e-02 0.0
-4.781970e-02 8.184119e-02 0.0
-3.759814e-02 6.995679e-02 0.0
-2.003356e-02 5.580485e-02 0.0
6.358114e-03 3.869207e-02 0.0
4.612274e-02 1.308722e-02 0.0
1.045271e-01 -2.374098e-02 0.0
1.778986e-01 -7.026564e-02 0.0
2.607001e-01 -1.251000e-01 0.0
3.476573e-01 -1.838347e-01 0.0
4.325796e-01 -2.416468e-01 0.0
5.104745e-01 -2.929574e-01 0.0
5.783401e-01 -3.327322e-01 0.0
6.344081e-01 -3.579294e-01 0.0
6.783916e-01 -3.670977e-01 0.0
7.107956e-01 -3.598103e-01 0.0
7.349618e-01 -3.391436e-01 0.0
7.536766e-01 -3.094860e-01 0.0
7.688806e-01 -2.745610e-01 0.0
7.817939e-01 -2.373610e-01 0.0
7.931130e-01 -2.001739e-01 0.0
8.031969e-01 -1.646372e-01 0.0
8.121834e-01 -1.317723e-01 0.0
8.200924e-01 -1.021456e-01 0.0
8.268965e-01 -7.600242e-02 0.0
8.325727e-01 -5.338689e-02 0.0
8.371196e-01 -3.419701e-02 0.0
8.405484e-01 -1.822169e-02 0.0
8.428928e-01 -5.211069e-03 0.0
8.442885e-01 5.135566e-03 0.0
8.448446e-01 1.333446e-02 0.0
8.446519e-01 1.978962e-02 0.0
8.437924e-01 2.481670e-02 0.0
8.423432e-01 2.866913e-02 0.0
8.403776e-01 3.155378e-02 0.0
8.379627e-01 3.364084e-02 0.0
8.351600e-01 3.507182e-02 0.0
8.320228e-01 3.596435e-02 0.0
8.285872e-01 3.641439e-02 0.0
8.248910e-01 3.649679e-02 0.0
8.209753e-01 3.627842e-02 0.0
8.168796e-01 3.581719e-02 0.0
8.126408e-01 3.516135e-02 0.0
8.082930e-01 3.435200e-02 0.0
8.038667e-01 3.342445e-02 0.0
7.993891e-01 3.240926e-02 0.0
7.948842e-01 3.133210e-02 0.0
7.903733e-01 3.021459e-02 0.0
7.858747e-01 2.907482e-02 0.0
7.814043e-01 2.792780e-02 0.0
7.769758e-01 2.678577e-02 0.0
7.726011e-01 2.565863e-02 0.0
7.682898e-01 2.455420e-02 0.0
7.640502e-01 2.347851e-02 0.0
7.598889e-01 2.243605e-02 0.0
7.558115e-01 2.142996e-02 0.0
7.518223e-01 2.046232e-02 0.0
7.479245e-01 1.953422e-02 0.0
7.441205e-01 1.864598e-02 0.0
7.404121e-01 1.779723e-02 0.0
7.368004e-01 1.698702e-02 0.0
7.332860e-01 1.621396e-02 0.0
7.298689e-01 1.547623e-02 0.0
7.265492e-01 1.477170e-02 0.0
7.233264e-01 1.409792e-02 0.0
7.202001e-01 1.345218e-02 0.0
7.171696e-01 1.283153e-02 0.0
7.142346e-01 1.223279e-02 0.0
7.113945e-01 1.165252e-02 0.0
7.086492e-01 1.108707e-02 0.0
7.059985e-01 1.053253e-02 0.0
7.034429e-01 9.984727e-03 0.0
7.009831e-01 9.439040e-03 0.0
6.986205e-01 8.890449e-03 0.0
6.963570e-01 8.333477e-03 0.0
6.941956e-01 7.762153e-03 0.0
6.921405e-01 7.169986e-03 0.0
6.901973e-01 6.549977e-03 0.0
6.883743e-01 5.894716e-03 0.0
6.866830e-01 5.196567e-03 0.0
6.851407e-01 4.448076e-03 0.0
6.837740e-01 3.642792e-03 0.0
6.826251e-01 2.776624e-03 0.0
6.817618e-01 1.851313e-03 0.0
6.812859e-01 8.870808e-04 0.0
6.812857e-01 1.672919e-06 0.0
0.000000e+00 1.690162e-06 0.0
0.000000e+00 0.000000e+00 0.0
0.000000e+00 0.000000e+00 0.0
0.000000e+00 0.000000e+00 0.0
0.000000e+00 0.000000e+00 0.0
0.000000e+00 0.000000e+00 0.0
0.000000e+00 0.000000e+00 0.0
0.000000e+00 0.000000e+00 0.0
0.000000e+00 0.000000e+00 0.0
0.000000e+00 0.000000e+00 0.0
0.000000e+00 0.000000e+00 0.0
0.000000e+00 -7.039291e-02 0.0
-1.364324e-02 7.039362e-02 0.0
-2.291096e-02 1.109937e-01 0.0
-2.230586e-02 1.088593e-01 0.0
-1.384261e-02 9.483999e-02 0.0
1.869176e-03 7.734831e-02 0.0
2.495567e-02 5.875521e-02 0.0
5.570616e-02 3.920950e-02 0.0
9.773511e-02 1.378008e-02 0.0
1.558852e-01 -1.945577e-02 0.0
2.282461e-01 -5.927512e-02 0.0
3.104647e-01 -1.059636e-01 0.0
3.981893e-01 -1.579934e-01 0.0
4.859333e-01 -2.128440e-01 0.0
5.687184e-01 -2.666169e-01 0.0
6.421572e-01 -3.150824e-01 0.0
7.033239e-01 -3.541229e-01 0.0
7.510901e-01 -3.804996e-01 0.0
7.856717e-01 -3.925131e-01 0.0
8.081779e-01 -3.896055e-01 0.0
8.215142e-01 -3.731470e-01 0.0
8.291133e-01 -3.467420e-01 0.0
8.334651e-01 -3.138364e-01 0.0
8.362433e-01 -2.773379e-01 0.0
8.384578e-01 -2.395752e-01 0.0
8.406510e-01 -2.023679e-01 0.0
8.430764e-01 -1.670638e-01 0.0
8.457533e-01 -1.344500e-01 0.0
8.485772e-01 -1.049692e-01 0.0
8.513881e-01 -7.881238e-02 0.0
8.540359e-01 -5.603384e-02 0.0
8.563972e-01 -3.655831e-02 0.0
8.583540e-01 -2.017901e-02 0.0
8.598212e-01 -6.678797e-03 0.0
8.607679e-01 4.188832e-03 0.0
8.612052e-01 1.289751e-02 0.0
8.611558e-01 1.983920e-02 0.0
8.606535e-01 2.531899e-02 0.0
8.597390e-01 2.958357e-02 0.0
8.584562e-01 3.283656e-02 0.0
8.568491e-01 3.524797e-02 0.0
8.549601e-01 3.696086e-02 0.0
8.528284e-01 3.809600e-02 0.0
8.504877e-01 3.875507e-02 0.0
8.479614e-01 3.902312e-02 0.0
8.452714e-01 3.896850e-02 0.0
8.424415e-01 3.864705e-02 0.0
8.394955e-01 3.810739e-02 0.0
8.364554e-01 3.739208e-02 0.0
8.333415e-01 3.653839e-02 0.0
8.301712e-01 3.557953e-02 0.0
8.269604e-01 3.454292e-02 0.0
8.237230e-01 3.345201e-02 0.0
8.204714e-01 3.232653e-02 0.0
8.172162e-01 3.118297e-02 0.0
8.139670e-01 3.003493e-02 0.0
8.107321e-01 2.889349e-02 0.0
8.075188e-01 2.776753e-02 0.0
8.043334e-01 2.666401e-02 0.0
8.011812e-01 2.558825e-02 0.0
7.980670e-01 2.454418e-02 0.0
7.949948e-01 2.353451e-02 0.0
7.919681e-01 2.256095e-02 0.0
7.889898e-01 2.162432e-02 0.0
7.860623e-01 2.072469e-02 0.0
7.831878e-01 1.986151e-02 0.0
7.803681e-01 1.903373e-02 0.0
7.776045e-01 1.823981e-02 0.0
7.748984e-01 1.747783e-02 0.0
7.722508e-01 1.674551e-02 0.0
7.696627e-01 1.604028e-02 0.0
7.671351e-01 1.535924e-02 0.0
7.646686e-01 1.469923e-02 0.0
7.622644e-01 1.405677e-02 0.0
7.599234e-01 1.342809e-02 0.0
7.576468e-01 1.280919e-02 0.0
7.554358e-01 1.219575e-02 0.0
7.532920e-01 1.158281e-02 0.0
7.512175e-01 1.096494e-02 0.0
7.492149e-01 1.033611e-02 0.0
7.472874e-01 9.689634e-03 0.0
7.454394e-01 9.018021e-03 0.0
7.436766e-01 8.312826e-03 0.0
7.420069e-01 7.564448e-03 0.0
7.404416e-01 6.761822e-03 0.0
7.389978e-01 5.891911e-03 0.0
7.377017e-01 4.938869e-03 0.0
7.365958e-01 3.882605e-03 0.0
7.357493e-01 2.697778e-03 0.0
7.352713e-01 1.365079e-03 0.0
7.352712e-01 1.804274e-06 0.0
0.000000e+00 1.823054e-06 0.0
0.000000e+00 0.000000e+00 0.0
0.000000e+00 0.000000e+00 0.0
0.000000e+00 0.000000e+00 0.0
0.000000e+00 0.000000e+00 0.0
0.000000e+00 0.000000e+00 0.0
0.000000e+00 0.000000e+00 0.0
0.000000e+00 0.000000e+00 0.0
0.000000e+00 0.000000e+00 0.0
0.000000e+00 0.000000e+00 0.0
0.000000e+00 0.000000e+00 0.0
0.000000e+00 -8.412100e-02 0.0
-1.372470e-02 8.412335e-02 0.0
-5.676986e-03 1.029468e-01 0.0
1.885204e-02 8.432864e-02 0.0
5.209792e-02 6.159131e-02 0.0
9.297420e-02 3.646999e-02 0.0
1.441885e-01 7.541521e-03 0.0
2.087541e-01 -2.535275e-02 0.0
2.841484e-01 -6.161012e-02 0.0
3.669193e-01 -1.022253e-01 0.0
4.542866e-01 -1.466449e-01 0.0
5.422968e-01 -1.939782e-01 0.0
6.267496e-01 -2.424486e-01 0.0
7.034687e-01 -2.895618e-01 0.0
7.690655e-01 -3.322102e-01 0.0
8.212415e-01 -3.672558e-01 0.0
8.591213e-01 -3.920026e-01 0.0
8.832621e-01 -4.046422e-01 0.0
8.952181e-01 -4.044710e-01 0.0
8.974928e-01 -3.918811e-01 0.0
8.938050e-01 -3.694590e-01 0.0
8.869599e-01 -3.398959e-01 0.0
8.790067e-01 -3.058820e-01 0.0
8.712698e-01 -2.696002e-01 0.0
8.644937e-01 -2.327993e-01 0.0
8.590317e-01 -1.969069e-01 0.0
8.550196e-01 -1.630527e-01 0.0
8.523499e-01 -1.317806e-01 0.0
8.508169e-01 -1.034356e-01 0.0
8.501822e-01 -7.817683e-02 0.0
8.501855e-01 -5.603672e-02 0.0
8.505718e-01 -3.694487e-02 0.0
8.511377e-01 -2.074540e-02 0.0
8.517126e-01 -7.254028e-03 0.0
8.521594e-01 3.742210e-03 0.0
8.523914e-01 1.266570e-02 0.0
8.523696e-01 1.986118e-02 0.0
8.520834e-01 2.560513e-02 0.0
8.515402e-01 3.012667e-02 0.0
8.507577e-01 3.361904e-02 0.0
8.497591e-01 3.624672e-02 0.0
8.485695e-01 3.815049e-02 0.0
8.472144e-01 3.945107e-02 0.0
8.457176e-01 4.025184e-02 0.0
8.440995e-01 4.064123e-02 0.0
8.423739e-01 4.069416e-02 0.0
8.405545e-01 4.046644e-02 0.0
8.386559e-01 4.000596e-02 0.0
8.366918e-01 3.935619e-02 0.0
8.346744e-01 3.855583e-02 0.0
8.326149e-01 3.763904e-02 0.0
8.305229e-01 3.663490e-02 0.0
8.284069e-01 3.556812e-02 0.0
8.262738e-01 3.445954e-02 0.0
8.241302e-01 3.332659e-02 0.0
8.219815e-01 3.218367e-02 0.0
8.198325e-01 3.104252e-02 0.0
8.176874e-01 2.991261e-02 0.0
8.155501e-01 2.880139e-02 0.0
8.134237e-01 2.771463e-02 0.0
8.113113e-01 2.665661e-02 0.0
8.092154e-01 2.563039e-02 0.0
8.071384e-01 2.463793e-02 0.0
8.050824e-01 2.368032e-02 0.0
8.030493e-01 2.275783e-02 0.0
8.010407e-01 2.187011e-02 0.0
7.990582e-01 2.101623e-02 0.0
7.971033e-01 2.019482e-02 0.0
7.951771e-01 1.940403e-02 0.0
7.932809e-01 1.864167e-02 0.0
7.914160e-01 1.790521e-02 0.0
7.895835e-01 1.719180e-02 0.0
7.877844e-01 1.649826e-02 0.0
7.860202e-01 1.582106e-02 0.0
7.842920e-01 1.515629e-02 0.0
7.826012e-01 1.449996e-02 0.0
7.809493e-01 1.384770e-02 0.0
7.793379e-01 1.319423e-02 0.0
7.777690e-01 1.253380e-02 0.0
7.762451e-01 1.185999e-02 0.0
7.747692e-01 1.116556e-02 0.0
7.733451e-01 1.044221e-02 0.0
7.719776e-01 9.680340e-03 0.0
7.706735e-01 8.868517e-03 0.0
7.694426e-01 7.992785e-03 0.0
7.682991e-01 7.035379e-03 0.0
7.672655e-01 5.972513e-03 0.0
7.663775e-01 4.770605e-03 0.0
7.656937e-01 3.381567e-03 0.0
7.653059e-01 1.752864e-03 0.0
7.653060e-01 1.809083e-06 0.0
0.000000e+00 1.828323e-06 0.0
0.000000e+00 0.000000e+00 0.0
0.000000e+00 0.000000e+00 0.0
0.000000e+00 0.000000e+00 0.0
0.000000e+00 0.000000e+00 0.0
0.000000e+00 0.000000e+00 0.0
0.000000e+00 0.000000e+00 0.0
0.000000e+00 0.000000e+00 0.0
0.000000e+00 0.000000e+00 0.0
0.000000e+00 0.000000e+00 0.0
0.000000e+00 0.000000e+00 0.0
0.000000e+00 -7.896681e-02 0.0
5.159358e-03 7.896937e-02 0.0
5.423816e-02 5.386864e-02 0.0
1.182644e-01 2.030074e-02 0.0
1.921671e-01 -1.231437e-02 0.0
2.729835e-01 -4.434874e-02 0.0
3.575518e-01 -7.702595e-02 0.0
4.441653e-01 -1.119624e-01 0.0
5.315958e-01 -1.490366e-01 0.0
6.174877e-01 -1.881167e-01 0.0
6.992790e-01 -2.284399e-01 0.0
7.741162e-01 -2.688199e-01 0.0
8.392305e-01 -3.075642e-01 0.0
8.922747e-01 -3.426035e-01 0.0
9.317478e-01 -3.716796e-01 0.0