# vtk DataFile Version 3.0
Vector Field
ASCII
DATASET RECTILINEAR_GRID
DIMENSIONS 102 22 1
X_COORDINATES 102 double
0.000000 0.100000 0.200000 0.300000 0.400000 0.500000 0.600000 0.700000 0.800000 0.900000 1.000000 1.100000 1.200000 1.300000 1.400000 1.500000 1.600000 1.700000 1.800000 1.900000 2.000000 2.100000 2.200000 2.300000 2.400000 2.500000 2.600000 2.700000 2.800000 2.900000 3.000000 3.100000 3.200000 3.300000 3.400000 3.500000 3.600000 3.700000 3.800000 3.900000 4.000000 4.100000 4.200000 4.300000 4.400000 4.500000 4.600000 4.700000 4.800000 4.900000 5.000000 5.100000 5.200000 5.300000 5.400000 5.500000 5.600000 5.700000 5.800000 5.900000 6.000000 6.100000 6.200000 6.300000 6.400000 6.500000 6.600000 6.700000 6.800000 6.900000 7.000000 7.100000 7.200000 7.300000 7.400000 7.500000 7.600000 7.700000 7.800000 7.900000 8.000000 8.100000 8.200000 8.300000 8.400000 8.500000 8.600000 8.700000 8.800000 8.900000 9.000000 9.100000 9.200000 9.300000 9.400000 9.500000 9.600000 9.700000 9.800000 9.900000 10.000000 10.100000 
Y_COORDINATES 22 double
0.000000 0.100000 0.200000 0.300000 0.400000 0.500000 0.600000 0.700000 0.800000 0.900000 1.000000 1.100000 1.200000 1.300000 1.400000 1.500000 1.600000 1.700000 1.800000 1.900000 2.000000 2.100000 
Z_COORDINATES 1 double
0.0
POINT_DATA 2244
VECTORS Velocity double
0.000000e+00 0.000000e+00 0.0
-0.000000e+00 0.000000e+00 0.0
-0.000000e+00 0.000000e+00 0.0
-0.000000e+00 0.000000e+00 0.0
-0.000000e+00 0.000000e+00 0.0
-0.000000e+00 0.000000e+00 0.0
-0.000000e+00 0.000000e+00 0.0
-0.000000e+00 0.000000e+00 0.0
-0.000000e+00 0.000000e+00 0.0
-0.000000e+00 0.000000e+00 0.0
-0.000000e+00 0.000000e+00 0.0
5.273105e-04 0.000000e+00 0.0
4.905419e-03 0.000000e+00 0.0
1.167776e-02 0.000000e+00 0.0
1.966040e-02 0.000000e+00 0.0
2.847043e-02 0.000000e+00 0.0
3.820001e-02 0.000000e+00 0.0
4.913350e-02 0.000000e+00 0.0
6.161924e-02 0.000000e+00 0.0
7.600572e-02 0.000000e+00 0.0
9.256527e-02 0.000000e+00 0.0
1.113807e-01 0.000000e+00 0.0
1.321714e-01 0.000000e+00 0.0
1.541083e-01 0.000000e+00 0.0
1.755761e-01 0.000000e+00 0.0
1.938478e-01 0.000000e+00 0.0
2.053954e-01 0.000000e+00 0.0
2.062439e-01 0.000000e+00 0.0
1.933095e-01 0.000000e+00 0.0
1.656839e-01 0.000000e+00 0.0
1.251163e-01 0.000000e+00 0.0
7.568887e-02 0.000000e+00 0.0
2.010328e-02 0.000000e+00 0.0
-3.464378e-02 0.000000e+00 0.0
-8.142721e-02 0.000000e+00 0.0
-1.183398e-01 0.000000e+00 0.0
-1.456309e-01 0.000000e+00 0.0
-1.644432e-01 0.000000e+00 0.0
-1.762390e-01 0.000000e+00 0.0
-1.825212e-01 0.000000e+00 0.0
-1.847075e-01 0.000000e+00 0.0
-1.840710e-01 0.000000e+00 0.0
-1.813473e-01 0.000000e+00 0.0
-1.770920e-01 0.000000e+00 0.0
-1.718683e-01 0.000000e+00 0.0
-1.661396e-01 0.000000e+00 0.0
-1.602539e-01 0.000000e+00 0.0
-1.544423e-01 0.000000e+00 0.0
-1.488411e-01 0.000000e+00 0.0
-1.435361e-01 0.000000e+00 0.0
-1.385689e-01 0.000000e+00 0.0
-1.339552e-01 0.000000e+00 0.0
-1.296936e-01 0.000000e+00 0.0
-1.257724e-01 0.000000e+00 0.0
-1.221744e-01 0.000000e+00 0.0
-1.188795e-01 0.000000e+00 0.0
-1.158667e-01 0.000000e+00 0.0
-1.131151e-01 0.000000e+00 0.0
-1.106042e-01 0.000000e+00 0.0
-1.083147e-01 0.000000e+00 0.0
-1.062284e-01 0.000000e+00 0.0
-1.043279e-01 0.000000e+00 0.0
-1.025971e-01 0.000000e+00 0.0
-1.010210e-01 0.000000e+00 0.0
-9.958547e-02 0.000000e+00 0.0
-9.827769e-02 0.000000e+00 0.0
-9.708569e-02 0.000000e+00 0.0
-9.599852e-02 0.000000e+00 0.0
-9.500616e-02 0.000000e+00 0.0
-9.409946e-02 0.000000e+00 0.0
-9.327014e-02 0.000000e+00 0.0
-9.251069e-02 0.000000e+00 0.0
-9.181436e-02 0.000000e+00 0.0
-9.117508e-02 0.000000e+00 0.0
-9.058746e-02 0.000000e+00 0.0
-9.004670e-02 0.000000e+00 0.0
-8.954860e-02 0.000000e+00 0.0
-8.908947e-02 0.000000e+00 0.0
-8.866615e-02 0.000000e+00 0.0
-8.827595e-02 0.000000e+00 0.0
-8.791664e-02 0.000000e+00 0.0
-8.758643e-02 0.000000e+00 0.0
-8.728394e-02 0.000000e+00 0.0
-8.700823e-02 0.000000e+00 0.0
-8.675877e-02 0.000000e+00 0.0
-8.653542e-02 0.000000e+00 0.0
-8.633849e-02 0.000000e+00 0.0
-8.616872e-02 0.000000e+00 0.0
-8.602729e-02 0.000000e+00 0.0
-8.591587e-02 0.000000e+00 0.0
-8.583669e-02 0.000000e+00 0.0
-8.579266e-02 0.000000e+00 0.0
-8.578756e-02 0.000000e+00 0.0
-8.582380e-02 0.000000e+00 0.0
-8.589938e-02 0.000000e+00 0.0
-8.600779e-02 0.000000e+00 0.0
-8.614329e-02 0.000000e+00 0.0
-8.629455e-02 0.000000e+00 0.0
-8.644023e-02 0.000000e+00 0.0
-8.653695e-02 0.000000e+00 0.0
-8.653695e-02 0.000000e+00 0.0
0.000000e+00 0.000000e+00 0.0
0.000000e+00 0.000000e+00 0.0
0.000000e+00 0.000000e+00 0.0
0.000000e+00 0.000000e+00 0.0
0.000000e+00 0.000000e+00 0.0
0.000000e+00 0.000000e+00 0.0
0.000000e+00 0.000000e+00 0.0
0.000000e+00 0.000000e+00 0.0
0.000000e+00 0.000000e+00 0.0
0.000000e+00 0.000000e+00 0.0
0.000000e+00 0.000000e+00 0.0
0.000000e+00 -5.139038e-04 0.0
-5.137600e-04 5.212798e-04 0.0
-4.891459e-03 4.384301e-03 0.0
-1.167321e-02 6.780145e-03 0.0
-1.966697e-02 7.984915e-03 0.0
-2.848125e-02 8.804792e-03 0.0
-3.820608e-02 9.721083e-03 0.0
-4.913118e-02 1.092798e-02 0.0
-6.161227e-02 1.248626e-02 0.0
-7.600051e-02 1.439095e-02 0.0
-9.256540e-02 1.656345e-02 0.0
-1.113848e-01 1.881583e-02 0.0
-1.321756e-01 2.078798e-02 0.0
-1.541097e-01 2.193388e-02 0.0
-1.755749e-01 2.146661e-02 0.0
-1.938458e-01 1.827236e-02 0.0
-2.053942e-01 1.154900e-02 0.0
-2.062440e-01 8.493379e-04 0.0
-1.933102e-01 -1.293455e-02 0.0
-1.656845e-01 -2.762616e-02 0.0
-1.251163e-01 -4.056824e-02 0.0
-7.568862e-02 -4.942772e-02 0.0
-2.010298e-02 -5.558572e-02 0.0
3.464404e-02 -5.474710e-02 0.0
8.142755e-02 -4.678342e-02 0.0
1.183403e-01 -3.691245e-02 0.0
1.456313e-01 -2.729078e-02 0.0
1.644433e-01 -1.881208e-02 0.0
1.762387e-01 -1.179570e-02 0.0
1.825208e-01 -6.282422e-03 0.0
1.847075e-01 -2.186646e-03 0.0
1.840712e-01 6.364963e-04 0.0
1.813476e-01 2.723845e-03 0.0
1.770921e-01 4.255586e-03 0.0
1.718681e-01 5.223835e-03 0.0
1.661395e-01 5.728559e-03 0.0
1.602538e-01 5.885672e-03 0.0
1.544424e-01 5.811478e-03 0.0
1.488412e-01 5.601213e-03 0.0
1.435361e-01 5.305107e-03 0.0
1.385689e-01 4.967209e-03 0.0
1.339552e-01 4.613704e-03 0.0
1.296936e-01 4.261625e-03 0.0
1.257724e-01 3.921163e-03 0.0
1.221744e-01 3.597991e-03 0.0
1.188795e-01 3.294881e-03 0.0
1.158667e-01 3.012802e-03 0.0
1.131150e-01 2.751679e-03 0.0
1.106042e-01 2.510866e-03 0.0
1.083148e-01 2.289437e-03 0.0
1.062284e-01 2.086345e-03 0.0
1.043279e-01 1.900496e-03 0.0
1.025971e-01 1.730793e-03 0.0
1.010210e-01 1.576150e-03 0.0
9.958547e-02 1.435495e-03 0.0
9.827769e-02 1.307783e-03 0.0
9.708569e-02 1.191998e-03 0.0
9.599853e-02 1.087168e-03 0.0
9.500616e-02 9.923622e-04 0.0
9.409947e-02 9.066933e-04 0.0
9.327015e-02 8.293205e-04 0.0
9.251070e-02 7.594499e-04 0.0
9.181436e-02 6.963352e-04 0.0
9.117508e-02 6.392769e-04 0.0
9.058746e-02 5.876207e-04 0.0
9.004671e-02 5.407538e-04 0.0
8.954860e-02 4.981020e-04 0.0
8.908948e-02 4.591259e-04 0.0
8.866616e-02 4.233178e-04 0.0
8.827596e-02 3.901980e-04 0.0
8.791665e-02 3.593097e-04 0.0
8.758643e-02 3.302142e-04 0.0
8.728395e-02 3.024860e-04 0.0
8.700824e-02 2.757080e-04 0.0
8.675877e-02 2.494668e-04 0.0
8.653542e-02 2.233470e-04 0.0
8.633850e-02 1.969266e-04 0.0
8.616873e-02 1.697712e-04 0.0
8.602730e-02 1.414287e-04 0.0
8.591588e-02 1.114163e-04 0.0
8.583670e-02 7.918336e-05 0.0
8.579267e-02 4.402645e-05 0.0
8.578756e-02 5.105463e-06 0.0
8.582381e-02 -3.624711e-05 0.0
8.589939e-02 -7.558115e-05 0.0
8.600780e-02 -1.084046e-04 0.0
8.614330e-02 -1.355040e-04 0.0
8.629456e-02 -1.512587e-04 0.0
8.644024e-02 -1.456781e-04 0.0
8.653696e-02 -9.671975e-05 0.0
8.653695e-02 7.709930e-09 0.0
0.000000e+00 7.804495e-09 0.0
0.000000e+00 0.000000e+00 0.0
0.000000e+00 0.000000e+00 0.0
0.000000e+00 0.000000e+00 0.0
0.000000e+00 0.000000e+00 0.0
0.000000e+00 0.000000e+00 0.0
0.000000e+00 0.000000e+00 0.0
0.000000e+00 0.000000e+00 0.0
0.000000e+00 0.000000e+00 0.0
0.000000e+00 0.000000e+00 0.0
0.000000e+00 0.000000e+00 0.0
0.000000e+00 -6.335705e-03 0.0
-5.813527e-03 6.342724e-03 0.0
-1.944793e-02 1.801576e-02 0.0
-3.736665e-02 2.469151e-02 0.0
-5.742405e-02 2.803715e-02 0.0
-7.880149e-02 3.018313e-02 0.0
-1.014092e-01 3.233387e-02 0.0
-1.253818e-01 3.490543e-02 0.0
-1.507968e-01 3.790244e-02 0.0
-1.774981e-01 4.108981e-02 0.0
-2.049445e-01 4.400644e-02 0.0
-2.320965e-01 4.596637e-02 0.0
-2.572464e-01 4.593885e-02 0.0
-2.779278e-01 4.261727e-02 0.0
-2.909965e-01 3.453662e-02 0.0
-2.926279e-01 1.990378e-02 0.0
-2.780954e-01 -2.984355e-03 0.0
-2.447366e-01 -3.251012e-02 0.0
-1.937832e-01 -6.388807e-02 0.0
-1.281325e-01 -9.327654e-02 0.0
-5.043899e-02 -1.182616e-01 0.0
3.415773e-02 -1.340244e-01 0.0
1.146045e-01 -1.360326e-01 0.0
1.859357e-01 -1.260782e-01 0.0
2.481379e-01 -1.089854e-01 0.0
3.004422e-01 -8.921663e-02 0.0
3.427790e-01 -6.962764e-02 0.0
3.757031e-01 -5.173658e-02 0.0
4.001301e-01 -3.622288e-02 0.0
4.171404e-01 -2.329263e-02 0.0
4.278498e-01 -1.289572e-02 0.0
4.333204e-01 -4.833927e-03 0.0
4.348533e-01 1.190857e-03 0.0
4.332828e-01 5.825921e-03 0.0
4.292904e-01 9.216170e-03 0.0
4.234634e-01 1.155548e-02 0.0
4.162856e-01 1.306360e-02 0.0
4.081715e-01 1.392564e-02 0.0
3.994940e-01 1.427866e-02 0.0
3.905558e-01 1.424336e-02 0.0
3.815710e-01 1.395197e-02 0.0
3.727015e-01 1.348315e-02 0.0
3.640629e-01 1.290029e-02 0.0
3.557349e-01 1.224911e-02 0.0
3.477703e-01 1.156257e-02 0.0
3.402011e-01 1.086412e-02 0.0
3.330438e-01 1.017011e-02 0.0
3.263037e-01 9.491812e-03 0.0
3.199776e-01 8.836899e-03 0.0
3.140566e-01 8.210474e-03 0.0
3.085272e-01 7.615798e-03 0.0
3.033729e-01 7.054780e-03 0.0
2.985753e-01 6.528303e-03 0.0
2.941150e-01 6.036474e-03 0.0
2.899717e-01 5.578805e-03 0.0
2.861251e-01 5.154363e-03 0.0
2.825552e-01 4.761887e-03 0.0
2.792425e-01 4.399881e-03 0.0
2.761682e-01 4.066683e-03 0.0
2.733144e-01 3.760530e-03 0.0
2.706641e-01 3.479600e-03 0.0
2.682015e-01 3.222057e-03 0.0
2.659118e-01 2.986070e-03 0.0
2.637812e-01 2.769844e-03 0.0
2.617972e-01 2.571628e-03 0.0
2.599482e-01 2.389726e-03 0.0
2.582238e-01 2.222501e-03 0.0
2.566146e-01 2.068379e-03 0.0
2.551120e-01 1.925843e-03 0.0
2.537088e-01 1.793434e-03 0.0
2.523984e-01 1.669740e-03 0.0
2.511752e-01 1.553387e-03 0.0
2.500346e-01 1.443033e-03 0.0
2.489730e-01 1.337352e-03 0.0
2.479874e-01 1.235028e-03 0.0
2.470761e-01 1.134733e-03 0.0
2.462379e-01 1.035121e-03 0.0
2.454728e-01 9.348093e-04 0.0
2.447819e-01 8.323753e-04 0.0
2.441669e-01 7.263524e-04 0.0
2.436309e-01 6.152375e-04 0.0
2.431774e-01 4.975367e-04 0.0
2.428104e-01 3.720488e-04 0.0
2.425350e-01 2.391636e-04 0.0
2.423579e-01 1.015009e-04 0.0
2.422863e-01 -3.679266e-05 0.0
2.423103e-01 -1.595112e-04 0.0
2.424035e-01 -2.444224e-04 0.0
2.425266e-01 -2.687462e-04 0.0
2.426243e-01 -1.944836e-04 0.0
2.426243e-01 2.880046e-08 0.0
0.000000e+00 2.913344e-08 0.0
0.000000e+00 0.000000e+00 0.0
0.000000e+00 0.000000e+00 0.0
0.000000e+00 0.000000e+00 0.0
0.000000e+00 0.000000e+00 0.0
0.000000e+00 0.000000e+00 0.0
0.000000e+00 0.000000e+00 0.0
0.000000e+00 0.000000e+00 0.0
0.000000e+00 0.000000e+00 0.0
0.000000e+00 0.000000e+00 0.0
0.000000e+00 0.000000e+00 0.0
0.000000e+00 -1.696358e-02 0.0
-1.062020e-02 1.696927e-02 0.0
-3.137908e-02 3.876984e-02 0.0
-5.611163e-02 4.941817e-02 0.0
-8.187174e-02 5.379538e-02 0.0
-1.075524e-01 5.586751e-02 0.0
-1.327876e-01 5.757527e-02 0.0
-1.573416e-01 5.946331e-02 0.0
-1.808577e-01 6.141801e-02 0.0
-2.027246e-01 6.295337e-02 0.0
-2.219381e-01 6.321729e-02 0.0
-2.371451e-01 6.117346e-02 0.0
-2.465198e-01 5.531567e-02 0.0
-2.475601e-01 4.365955e-02 0.0
-2.364325e-01 2.340931e-02 0.0
-2.066444e-01 -9.885037e-03 0.0
-1.581547e-01 -5.147510e-02 0.0
-9.227495e-02 -9.839014e-02 0.0
-1.230835e-02 -1.438544e-01 0.0
7.470015e-02 -1.802847e-01 0.0
1.594233e-01 -2.029845e-01 0.0
2.371389e-01 -2.117401e-01 0.0
3.056912e-01 -2.045849e-01 0.0
3.656184e-01 -1.860052e-01 0.0
4.178291e-01 -1.611959e-01 0.0
4.627350e-01 -1.341226e-01 0.0
5.005701e-01 -1.074630e-01 0.0
5.316382e-01 -8.280497e-02 0.0
5.563703e-01 -6.095494e-02 0.0
5.752968e-01 -4.221888e-02 0.0
5.890043e-01 -2.660294e-02 0.0
5.981075e-01 -1.393713e-02 0.0
6.032489e-01 -3.950725e-03 0.0
6.053594e-01 3.715252e-03 0.0
6.049414e-01 9.634112e-03 0.0
6.024447e-01 1.405226e-02 0.0
5.982648e-01 1.724357e-02 0.0
5.927405e-01 1.945000e-02 0.0
5.861439e-01 2.087526e-02 0.0
5.786925e-01 2.169469e-02 0.0
5.706322e-01 2.201232e-02 0.0
5.621806e-01 2.193473e-02 0.0
5.535101e-01 2.157076e-02 0.0
5.447604e-01 2.099883e-02 0.0
5.360428e-01 2.028013e-02 0.0
5.274452e-01 1.946173e-02 0.0
5.190358e-01 1.857955e-02 0.0
5.108665e-01 1.766111e-02 0.0
5.029758e-01 1.672761e-02 0.0
4.953908e-01 1.579542e-02 0.0
4.881295e-01 1.487716e-02 0.0
4.812018e-01 1.398244e-02 0.0
4.746117e-01 1.311839e-02 0.0
4.683580e-01 1.229017e-02 0.0
4.624356e-01 1.150125e-02 0.0
4.568362e-01 1.075380e-02 0.0
4.515492e-01 1.004887e-02 0.0
4.465624e-01 9.386637e-03 0.0
4.418625e-01 8.766584e-03 0.0
4.374354e-01 8.187636e-03 0.0
4.332667e-01 7.648302e-03 0.0
4.293420e-01 7.146774e-03 0.0
4.256470e-01 6.681018e-03 0.0
4.221680e-01 6.248844e-03 0.0
4.188917e-01 5.847959e-03 0.0
4.158054e-01 5.476012e-03 0.0
4.128973e-01 5.130625e-03 0.0
4.101563e-01 4.809418e-03 0.0
4.075721e-01 4.510025e-03 0.0
4.051354e-01 4.230097e-03 0.0
4.028378e-01 3.967307e-03 0.0
4.006719e-01 3.719344e-03 0.0
3.986310e-01 3.483908e-03 0.0
3.967097e-01 3.258696e-03 0.0
3.949033e-01 3.041388e-03 0.0
3.932084e-01 2.829631e-03 0.0
3.916225e-01 2.621008e-03 0.0
3.901443e-01 2.413028e-03 0.0
3.887736e-01 2.203105e-03 0.0
3.875114e-01 1.988570e-03 0.0
3.863599e-01 1.766708e-03 0.0
3.853225e-01 1.534876e-03 0.0
3.844037e-01 1.290854e-03 0.0
3.836092e-01 1.033720e-03 0.0
3.829459e-01 7.648298e-04 0.0
3.824198e-01 4.892731e-04 0.0
3.820382e-01 2.221070e-04 0.0
3.818041e-01 -1.034007e-05 0.0
3.816950e-01 -1.596939e-04 0.0
3.816720e-01 -1.714682e-04 0.0
3.816720e-01 5.706692e-08 0.0
0.000000e+00 5.772801e-08 0.0
0.000000e+00 0.000000e+00 0.0
0.000000e+00 0.000000e+00 0.0
0.000000e+00 0.000000e+00 0.0
0.000000e+00 0.000000e+00 0.0
0.000000e+00 0.000000e+00 0.0
0.000000e+00 0.000000e+00 0.0
0.000000e+00 0.000000e+00 0.0
0.000000e+00 0.000000e+00 0.0
0.000000e+00 0.000000e+00 0.0
0.000000e+00 0.000000e+00 0.0
0.000000e+00 -3.010668e-02 0.0
-1.313746e-02 3.011142e-02 0.0
-3.668306e-02 6.230958e-02 0.0
-6.238506e-02 7.511600e-02 0.0
-8.687722e-02 7.828847e-02 0.0
-1.090684e-01 7.806338e-02 0.0
-1.285358e-01 7.704712e-02 0.0
-1.449344e-01 7.586275e-02 0.0
-1.578255e-01 7.430617e-02 0.0
-1.666420e-01 7.176619e-02 0.0
-1.704110e-01 6.698491e-02 0.0
-1.677227e-01 5.848648e-02 0.0
-1.561341e-01 4.372934e-02 0.0
-1.320573e-01 1.958387e-02 0.0
-8.751742e-02 -2.113112e-02 0.0
-2.384535e-02 -7.355822e-02 0.0
5.523123e-02 -1.305523e-01 0.0
1.404002e-01 -1.835590e-01 0.0
2.247653e-01 -2.282191e-01 0.0
3.039344e-01 -2.594536e-01 0.0
3.753972e-01 -2.744475e-01 0.0
4.365257e-01 -2.728687e-01 0.0
4.881609e-01 -2.562201e-01 0.0
5.323931e-01 -2.302371e-01 0.0
5.706201e-01 -1.994228e-01 0.0
6.036429e-01 -1.671455e-01 0.0
6.319094e-01 -1.357298e-01 0.0
6.557197e-01 -1.066154e-01 0.0
6.753405e-01 -8.057552e-02 0.0
6.910502e-01 -5.792831e-02 0.0
7.031517e-01 -3.870430e-02 0.0
7.119739e-01 -2.275948e-02 0.0
7.178764e-01 -9.853444e-03 0.0
7.212841e-01 3.075228e-04 0.0
7.226672e-01 8.251114e-03 0.0
7.223496e-01 1.436987e-02 0.0
7.205916e-01 1.900167e-02 0.0
7.176138e-01 2.242774e-02 0.0
7.136083e-01 2.488079e-02 0.0
7.087501e-01 2.655285e-02 0.0
7.031696e-01 2.759277e-02 0.0
6.969794e-01 2.812502e-02 0.0
6.903210e-01 2.822915e-02 0.0
6.833206e-01 2.799915e-02 0.0
6.760862e-01 2.751453e-02 0.0
6.687099e-01 2.683802e-02 0.0
6.612704e-01 2.601906e-02 0.0
6.538344e-01 2.509716e-02 0.0
6.464578e-01 2.410427e-02 0.0
6.391867e-01 2.306646e-02 0.0
6.320588e-01 2.200505e-02 0.0
6.251039e-01 2.093735e-02 0.0
6.183450e-01 1.987726e-02 0.0
6.117994e-01 1.883578e-02 0.0
6.054792e-01 1.782148e-02 0.0
5.993921e-01 1.684085e-02 0.0
5.935424e-01 1.589859e-02 0.0
5.879311e-01 1.499792e-02 0.0
5.825569e-01 1.414081e-02 0.0
5.774164e-01 1.332821e-02 0.0
5.725044e-01 1.256020e-02 0.0
5.678150e-01 1.183620e-02 0.0
5.633410e-01 1.115504e-02 0.0
5.590747e-01 1.051516e-02 0.0
5.550080e-01 9.914630e-03 0.0
5.511328e-01 9.351261e-03 0.0
5.474407e-01 8.822671e-03 0.0
5.439238e-01 8.326329e-03 0.0
5.405742e-01 7.859590e-03 0.0
5.373846e-01 7.419724e-03 0.0
5.343480e-01 7.003927e-03 0.0
5.314580e-01 6.609336e-03 0.0
5.287089e-01 6.233022e-03 0.0
5.260956e-01 5.871992e-03 0.0
5.236138e-01 5.523168e-03 0.0
5.212601e-01 5.183380e-03 0.0
5.190317e-01 4.849324e-03 0.0
5.169272e-01 4.517534e-03 0.0
5.149460e-01 4.184367e-03 0.0
5.130885e-01 3.845999e-03 0.0
5.113568e-01 3.498468e-03 0.0
5.097539e-01 3.137785e-03 0.0
5.082845e-01 2.760237e-03 0.0
5.069552e-01 2.363025e-03 0.0
5.057748e-01 1.945238e-03 0.0
5.047544e-01 1.509627e-03 0.0
5.039098e-01 1.066764e-03 0.0
5.032598e-01 6.395884e-04 0.0
5.028266e-01 2.735482e-04 0.0
5.026151e-01 4.007742e-05 0.0
5.026150e-01 8.486020e-08 0.0
0.000000e+00 8.586190e-08 0.0
0.000000e+00 0.000000e+00 0.0
0.000000e+00 0.000000e+00 0.0
0.000000e+00 0.000000e+00 0.0
0.000000e+00 0.000000e+00 0.0
0.000000e+00 0.000000e+00 0.0
0.000000e+00 0.000000e+00 0.0
0.000000e+00 0.000000e+00 0.0
0.000000e+00 0.000000e+00 0.0
0.000000e+00 0.000000e+00 0.0
0.000000e+00 0.000000e+00 0.0
0.000000e+00 -4.361016e-02 0.0
-1.349959e-02 4.361368e-02 0.0
-3.553827e-02 8.434231e-02 0.0
-5.695115e-02 9.652623e-02 0.0
-7.478911e-02 9.612941e-02 0.0
-8.837506e-02 9.165561e-02 0.0
-9.746620e-02 8.614282e-02 0.0
-1.017987e-01 8.019499e-02 0.0
-1.008771e-01 7.338077e-02 0.0
-9.420347e-02 6.508919e-02 0.0
-8.006829e-02 5.284948e-02 0.0
-5.622483e-02 3.464531e-02 0.0
-1.555068e-02 3.057429e-03 0.0
4.641196e-02 -4.237838e-02 0.0
1.222718e-01 -9.699216e-02 0.0
2.055774e-01 -1.568650e-01 0.0
2.902357e-01 -2.152108e-01 0.0
3.716840e-01 -2.650068e-01 0.0
4.454439e-01 -3.019785e-01 0.0
5.091868e-01 -3.231965e-01 0.0
5.621862e-01 -3.274471e-01 0.0
6.042980e-01 -3.149806e-01 0.0
6.388228e-01 -2.907447e-01 0.0
6.678952e-01 -2.593093e-01 0.0
6.928586e-01 -2.243862e-01 0.0
7.144983e-01 -1.887855e-01 0.0
7.332490e-01 -1.544808e-01 0.0
7.493481e-01 -1.227144e-01 0.0
7.629425e-01 -9.416967e-02 0.0
7.741523e-01 -6.913782e-02 0.0
7.831052e-01 -4.765727e-02 0.0
7.899490e-01 -2.960344e-02 0.0
7.948478e-01 -1.475244e-02 0.0
7.979879e-01 -2.832528e-03 0.0
7.996793e-01 6.559774e-03 0.0
8.001351e-01 1.391422e-02 0.0
7.995203e-01 1.961646e-02 0.0
7.979745e-01 2.397347e-02 0.0
7.956216e-01 2.723366e-02 0.0
7.925749e-01 2.959957e-02 0.0
7.889323e-01 3.123534e-02 0.0
7.847806e-01 3.227674e-02 0.0
7.801765e-01 3.283328e-02 0.0
7.751918e-01 3.298381e-02 0.0
7.699020e-01 3.280437e-02 0.0
7.643744e-01 3.236558e-02 0.0
7.586700e-01 3.172351e-02 0.0
7.528432e-01 3.092392e-02 0.0
7.469426e-01 3.000487e-02 0.0
7.410107e-01 2.899836e-02 0.0
7.350843e-01 2.793144e-02 0.0
7.291950e-01 2.682664e-02 0.0
7.233696e-01 2.570266e-02 0.0
7.176305e-01 2.457491e-02 0.0
7.119961e-01 2.345589e-02 0.0
7.064813e-01 2.235562e-02 0.0
7.010980e-01 2.128194e-02 0.0
6.958551e-01 2.024082e-02 0.0
6.907592e-01 1.923666e-02 0.0
6.858150e-01 1.827246e-02 0.0
6.810251e-01 1.735011e-02 0.0
6.763907e-01 1.647051e-02 0.0
6.719120e-01 1.563377e-02 0.0
6.675879e-01 1.483932e-02 0.0
6.634164e-01 1.408608e-02 0.0
6.593952e-01 1.337248e-02 0.0
6.555212e-01 1.269662e-02 0.0
6.517913e-01 1.205627e-02 0.0
6.482019e-01 1.144899e-02 0.0
6.447495e-01 1.087212e-02 0.0
6.414306e-01 1.032280e-02 0.0
6.382419e-01 9.798025e-03 0.0
6.351803e-01 9.294638e-03 0.0
6.322430e-01 8.809317e-03 0.0
6.294276e-01 8.338576e-03 0.0
6.267322e-01 7.878759e-03 0.0
6.241556e-01 7.425988e-03 0.0
6.216970e-01 6.976107e-03 0.0
6.193567e-01 6.524665e-03 0.0
6.171358e-01 6.066900e-03 0.0
6.150365e-01 5.597747e-03 0.0
6.130624e-01 5.111896e-03 0.0
6.112187e-01 4.603972e-03 0.0
6.095128e-01 4.068914e-03 0.0
6.079554e-01 3.502644e-03 0.0
6.065617e-01 2.903318e-03 0.0
6.053546e-01 2.273854e-03 0.0
6.043685e-01 1.625684e-03 0.0
6.036558e-01 9.861907e-04 0.0
6.032862e-01 4.096705e-04 0.0
6.032862e-01 1.056595e-07 0.0
0.000000e+00 1.069502e-07 0.0
0.000000e+00 0.000000e+00 0.0
0.000000e+00 0.000000e+00 0.0
0.000000e+00 0.000000e+00 0.0
0.000000e+00 0.000000e+00 0.0
0.000000e+00 0.000000e+00 0.0
0.000000e+00 0.000000e+00 0.0
0.000000e+00 0.000000e+00 0.0
0.000000e+00 0.000000e+00 0.0
0.000000e+00 0.000000e+00 0.0
0.000000e+00 0.000000e+00 0.0
0.000000e+00 -5.675223e-02 0.0
-1.313974e-02 5.675425e-02 0.0
-3.053545e-02 1.017328e-01 0.0
-4.348555e-02 1.094748e-01 0.0
-5.066992e-02 1.033167e-01 0.0
-5.208477e-02 9.307486e-02 0.0
-4.779481e-02 8.185471e-02 0.0
-3.756952e-02 6.996740e-02 0.0
-2.000162e-02 5.580869e-02 0.0
6.401997e-03 3.868321e-02 0.0
4.619283e-02 1.305967e-02 0.0
1.046324e-01 -2.379159e-02 0.0
1.780335e-01 -7.034203e-02 0.0
2.608559e-01 -1.252013e-01 0.0
3.478205e-01 -1.839582e-01 0.0
4.327384e-01 -2.417837e-01 0.0
5.106215e-01 -2.930937e-01 0.0
5.784691e-01 -3.328539e-01 0.0
6.345150e-01 -3.580242e-01 0.0
6.784753e-01 -3.671570e-01 0.0
7.108570e-01 -3.598291e-01 0.0
7.350068e-01 -3.391302e-01 0.0
7.537105e-01 -3.094481e-01 0.0
7.689073e-01 -2.745060e-01 0.0
7.818162e-01 -2.372953e-01 0.0
7.931332e-01 -2.001029e-01 0.0
8.032167e-01 -1.645645e-01 0.0
8.122034e-01 -1.317009e-01 0.0
8.201119e-01 -1.020779e-01 0.0
8.269144e-01 -7.594019e-02 0.0
8.325885e-01 -5.333147e-02 0.0
8.371334e-01 -3.414860e-02 0.0
8.405608e-01 -1.817995e-02 0.0
8.429040e-01 -5.175596e-03 0.0
8.442985e-01 5.165352e-03 0.0
8.448533e-01 1.335944e-02 0.0
8.446593e-01 1.981048e-02 0.0
8.437986e-01 2.483411e-02 0.0
8.423486e-01 2.868370e-02 0.0
8.403821e-01 3.156598e-02 0.0
8.379665e-01 3.365098e-02 0.0
8.351631e-01 3.508018e-02 0.0
8.320252e-01 3.597117e-02 0.0
8.285891e-01 3.641990e-02 0.0
8.248923e-01 3.650114e-02 0.0
8.209761e-01 3.628177e-02 0.0
8.168800e-01 3.581965e-02 0.0
8.126409e-01 3.516304e-02 0.0
8.082927e-01 3.435302e-02 0.0
8.038662e-01 3.342488e-02 0.0
7.993885e-01 3.240918e-02 0.0
7.948835e-01 3.133157e-02 0.0
7.903725e-01 3.021367e-02 0.0
7.858739e-01 2.907355e-02 0.0
7.814035e-01 2.792623e-02 0.0
7.769752e-01 2.678394e-02 0.0
7.726006e-01 2.565658e-02 0.0
7.682895e-01 2.455195e-02 0.0
7.640500e-01 2.347607e-02 0.0
7.598891e-01 2.243343e-02 0.0
7.558120e-01 2.142721e-02 0.0
7.518230e-01 2.045944e-02 0.0
7.479256e-01 1.953123e-02 0.0
7.441220e-01 1.864289e-02 0.0
7.404141e-01 1.779403e-02 0.0
7.368028e-01 1.698374e-02 0.0
7.332888e-01 1.621059e-02 0.0
7.298723e-01 1.547279e-02 0.0
7.265531e-01 1.476819e-02 0.0
7.233309e-01 1.409434e-02 0.0
7.202051e-01 1.344855e-02 0.0
7.171753e-01 1.282784e-02 0.0
7.142409e-01 1.222905e-02 0.0
7.114015e-01 1.164874e-02 0.0
7.086568e-01 1.108325e-02 0.0
7.060069e-01 1.052869e-02 0.0
7.034520e-01 9.980870e-03 0.0
7.009929e-01 9.435177e-03 0.0
6.986310e-01 8.886594e-03 0.0
6.963682e-01 8.329646e-03 0.0
6.942076e-01 7.758365e-03 0.0
6.921533e-01 7.166264e-03 0.0
6.902109e-01 6.546347e-03 0.0
6.883886e-01 5.891208e-03 0.0
6.866980e-01 5.193215e-03 0.0
6.851564e-01 4.444920e-03 0.0
6.837904e-01 3.639875e-03 0.0
6.826421e-01 2.773990e-03 0.0
6.817793e-01 1.849009e-03 0.0
6.813038e-01 8.851420e-04 0.0
6.813038e-01 1.145935e-07 0.0
0.000000e+00 1.160724e-07 0.0
0.000000e+00 0.000000e+00 0.0
0.000000e+00 0.000000e+00 0.0
0.000000e+00 0.000000e+00 0.0
0.000000e+00 0.000000e+00 0.0
0.000000e+00 0.000000e+00 0.0
0.000000e+00 0.000000e+00 0.0
0.000000e+00 0.000000e+00 0.0
0.000000e+00 0.000000e+00 0.0
0.000000e+00 0.000000e+00 0.0
0.000000e+00 0.000000e+00 0.0
0.000000e+00 -7.039809e-02 0.0
-1.364524e-02 7.039835e-02 0.0
-2.291672e-02 1.109993e-01 0.0
-2.230729e-02 1.088654e-01 0.0
-1.383209e-02 9.484644e-02 0.0
1.894050e-03 7.735413e-02 0.0
2.499067e-02 5.875936e-02 0.0
5.574738e-02 3.920709e-02 0.0
9.778674e-02 1.376465e-02 0.0
1.559563e-01 -1.948797e-02 0.0
2.283440e-01 -5.932579e-02 0.0
3.105895e-01 -1.060341e-01 0.0
3.983319e-01 -1.580835e-01 0.0
4.860809e-01 -2.129516e-01 0.0
5.688584e-01 -2.667373e-01 0.0
6.422811e-01 -3.152067e-01 0.0
7.034267e-01 -3.542387e-01 0.0
7.511689e-01 -3.805955e-01 0.0
7.857250e-01 -3.925804e-01 0.0
8.082058e-01 -3.896381e-01 0.0
8.215250e-01 -3.731484e-01 0.0
8.291128e-01 -3.467178e-01 0.0
8.334577e-01 -3.137928e-01 0.0
8.362323e-01 -2.772806e-01 0.0
8.384459e-01 -2.395092e-01 0.0
8.406406e-01 -2.022978e-01 0.0
8.430686e-01 -1.669925e-01 0.0
8.457481e-01 -1.343802e-01 0.0
8.485735e-01 -1.049030e-01 0.0
8.513847e-01 -7.875140e-02 0.0
8.540324e-01 -5.597937e-02 0.0
8.563939e-01 -3.651022e-02 0.0
8.583510e-01 -2.013705e-02 0.0
8.598182e-01 -6.642768e-03 0.0
8.607645e-01 4.219161e-03 0.0
8.612010e-01 1.292301e-02 0.0
8.611508e-01 1.986060e-02 0.0
8.606479e-01 2.533697e-02 0.0
8.597329e-01 2.959869e-02 0.0
8.584497e-01 3.284924e-02 0.0
8.568421e-01 3.525852e-02 0.0
8.549528e-01 3.696956e-02 0.0
8.528208e-01 3.810311e-02 0.0
8.504799e-01 3.876081e-02 0.0
8.479534e-01 3.902768e-02 0.0
8.452631e-01 3.897202e-02 0.0
8.424331e-01 3.864964e-02 0.0
8.394870e-01 3.810918e-02 0.0
8.364469e-01 3.739316e-02 0.0
8.333329e-01 3.653885e-02 0.0
8.301626e-01 3.557944e-02 0.0
8.269519e-01 3.454235e-02 0.0
8.237145e-01 3.345100e-02 0.0
8.204629e-01 3.232516e-02 0.0
8.172079e-01 3.118128e-02 0.0
8.139588e-01 3.003296e-02 0.0
8.107242e-01 2.889127e-02 0.0
8.075110e-01 2.776508e-02 0.0
8.043258e-01 2.666134e-02 0.0
8.011738e-01 2.558540e-02 0.0
7.980598e-01 2.454116e-02 0.0
7.949879e-01 2.353135e-02 0.0
7.919615e-01 2.255766e-02 0.0
7.889835e-01 2.162090e-02 0.0
7.860564e-01 2.072115e-02 0.0
7.831822e-01 1.985787e-02 0.0
7.803628e-01 1.902998e-02 0.0
7.775997e-01 1.823597e-02 0.0
7.748940e-01 1.747389e-02 0.0
7.722468e-01 1.674149e-02 0.0
7.696592e-01 1.603618e-02 0.0
7.671320e-01 1.535507e-02 0.0
7.646660e-01 1.469499e-02 0.0
7.622623e-01 1.405247e-02 0.0
7.599218e-01 1.342373e-02 0.0
7.576457e-01 1.280480e-02 0.0
7.554353e-01 1.219132e-02 0.0
7.532921e-01 1.157836e-02 0.0
7.512182e-01 1.096048e-02 0.0
7.492162e-01 1.033167e-02 0.0
7.472893e-01 9.685227e-03 0.0
7.454419e-01 9.013674e-03 0.0
7.436797e-01 8.308570e-03 0.0
7.420106e-01 7.560320e-03 0.0
7.404459e-01 6.757863e-03 0.0
7.390027e-01 5.888170e-03 0.0
7.377071e-01 4.935401e-03 0.0
7.366017e-01 3.879475e-03 0.0
7.357556e-01 2.695056e-03 0.0
7.352779e-01 1.362837e-03 0.0
7.352779e-01 1.092347e-07 0.0
0.000000e+00 1.107699e-07 0.0
0.000000e+00 0.000000e+00 0.0
0.000000e+00 0.000000e+00 0.0
0.000000e+00 0.000000e+00 0.0
0.000000e+00 0.000000e+00 0.0
0.000000e+00 0.000000e+00 0.0
0.000000e+00 0.000000e+00 0.0
0.000000e+00 0.000000e+00 0.0
0.000000e+00 0.000000e+00 0.0
0.000000e+00 0.000000e+00 0.0
0.000000e+00 0.000000e+00 0.0
0.000000e+00 -8.412666e-02 0.0
-1.372913e-02 8.412487e-02 0.0
-5.682982e-03 1.029479e-01 0.0
1.885326e-02 8.432833e-02 0.0
5.211363e-02 6.159005e-02 0.0
9.300699e-02 3.646535e-02 0.0
1.442357e-01 7.531127e-03 0.0
2.088117e-01 -2.537287e-02 0.0
2.842164e-01 -6.164416e-02 0.0
3.670036e-01 -1.022756e-01 0.0
4.543916e-01 -1.467108e-01 0.0
5.424181e-01 -1.940581e-01 0.0
6.268754e-01 -2.425409e-01 0.0
7.035862e-01 -2.896642e-01 0.0
7.691654e-01 -3.323177e-01 0.0
8.213187e-01 -3.673599e-01 0.0
8.591739e-01 -3.920931e-01 0.0
8.832895e-01 -4.047109e-01 0.0
8.952206e-01 -4.045118e-01 0.0
8.974770e-01 -3.918947e-01 0.0
8.937771e-01 -3.694484e-01 0.0
8.869246e-01 -3.398651e-01 0.0
8.789679e-01 -3.058360e-01 0.0
8.712305e-01 -2.695434e-01 0.0
8.644563e-01 -2.327353e-01 0.0
8.589983e-01 -1.968399e-01 0.0
8.549909e-01 -1.629849e-01 0.0
8.523254e-01 -1.317144e-01 0.0
8.507954e-01 -1.033729e-01 0.0
8.501629e-01 -7.811898e-02 0.0
8.501678e-01 -5.598446e-02 0.0
8.505557e-01 -3.689823e-02 0.0
8.511230e-01 -2.070434e-02 0.0
8.516989e-01 -7.218533e-03 0.0
8.521458e-01 3.772344e-03 0.0
8.523775e-01 1.269124e-02 0.0
8.523553e-01 1.988279e-02 0.0
8.520688e-01 2.562344e-02 0.0
8.515253e-01 3.014215e-02 0.0
8.507426e-01 3.363204e-02 0.0
8.497435e-01 3.625754e-02 0.0
8.485537e-01 3.815941e-02 0.0
8.471984e-01 3.945835e-02 0.0
8.457015e-01 4.025771e-02 0.0
8.440833e-01 4.064588e-02 0.0
8.423576e-01 4.069775e-02 0.0
8.405382e-01 4.046908e-02 0.0
8.386396e-01 4.000776e-02 0.0
8.366755e-01 3.935725e-02 0.0
8.346581e-01 3.855624e-02 0.0
8.325987e-01 3.763888e-02 0.0
8.305068e-01 3.663423e-02 0.0
8.283908e-01 3.556700e-02 0.0
8.262579e-01 3.445804e-02 0.0
8.241144e-01 3.332476e-02 0.0
8.219658e-01 3.218154e-02 0.0
8.198170e-01 3.104013e-02 0.0
8.176721e-01 2.990997e-02 0.0
8.155349e-01 2.879854e-02 0.0
8.134087e-01 2.771158e-02 0.0
8.112965e-01 2.665339e-02 0.0
8.092008e-01 2.562701e-02 0.0
8.071241e-01 2.463441e-02 0.0
8.050683e-01 2.367666e-02 0.0
8.030354e-01 2.275404e-02 0.0
8.010271e-01 2.186620e-02 0.0
7.990449e-01 2.101221e-02 0.0
7.970901e-01 2.019068e-02 0.0
7.951642e-01 1.939979e-02 0.0
7.932684e-01 1.863734e-02 0.0
7.914038e-01 1.790079e-02 0.0
7.895716e-01 1.718730e-02 0.0
7.877729e-01 1.649367e-02 0.0
7.860089e-01 1.581639e-02 0.0
7.842811e-01 1.515157e-02 0.0
7.825907e-01 1.449518e-02 0.0
7.809392e-01 1.384287e-02 0.0
7.793282e-01 1.318937e-02 0.0
7.777597e-01 1.252893e-02 0.0
7.762363e-01 1.185512e-02 0.0
7.747608e-01 1.116071e-02 0.0
7.733370e-01 1.043743e-02 0.0
7.719699e-01 9.675642e-03 0.0
7.706663e-01 8.863949e-03 0.0
7.694358e-01 7.988396e-03 0.0
7.682927e-01 7.031225e-03 0.0
7.672595e-01 5.968660e-03 0.0
7.663718e-01 4.767134e-03 0.0
7.656883e-01 3.378573e-03 0.0
7.653007e-01 1.750456e-03 0.0
7.653007e-01 8.984574e-08 0.0
0.000000e+00 9.130373e-08 0.0
0.000000e+00 0.000000e+00 0.0
0.000000e+00 0.000000e+00 0.0
0.000000e+00 0.000000e+00 0.0
0.000000e+00 0.000000e+00 0.0
0.000000e+00 0.000000e+00 0.0
0.000000e+00 0.000000e+00 0.0
0.000000e+00 0.000000e+00 0.0
0.000000e+00 0.000000e+00 0.0
0.000000e+00 0.000000e+00 0.0
0.000000e+00 0.000000e+00 0.0
0.000000e+00 -7.896917e-02 0.0
5.154868e-03 7.896772e-02 0.0
5.423425e-02 5.386548e-02 0.0
1.182714e-01 2.029275e-02 0.0
1.921953e-01 -1.232802e-02 0.0
2.730321e-01 -4.436678e-02 0.0
3.576121e-01 -7.704996e-02 0.0
4.442303e-01 -1.119962e-01 0.0
5.316661e-01 -1.490835e-01 0.0
6.175688e-01 -1.881769e-01 0.0
6.993723e-01 -2.285106e-01 0.0
7.742145e-01 -2.688985e-01 0.0
8.393219e-01 -3.076493e-01 0.0
8.923489e-01 -3.426930e-01 0.0
9.317995e-01 -3.717687e-01 0.0