# vtk DataFile Version 3.0
Vector Field
ASCII
DATASET RECTILINEAR_GRID
DIMENSIONS 102 22 1
X_COORDINATES 102 double
0.000000 0.100000 0.200000 0.300000 0.400000 0.500000 0.600000 0.700000 0.800000 0.900000 1.000000 1.100000 1.200000 1.300000 1.400000 1.500000 1.600000 1.700000 1.800000 1.900000 2.000000 2.100000 2.200000 2.300000 2.400000 2.500000 2.600000 2.700000 2.800000 2.900000 3.000000 3.100000 3.200000 3.300000 3.400000 3.500000 3.600000 3.700000 3.800000 3.900000 4.000000 4.100000 4.200000 4.300000 4.400000 4.500000 4.600000 4.700000 4.800000 4.900000 5.000000 5.100000 5.200000 5.300000 5.400000 5.500000 5.600000 5.700000 5.800000 5.900000 6.000000 6.100000 6.200000 6.300000 6.400000 6.500000 6.600000 6.700000 6.800000 6.900000 7.000000 7.100000 7.200000 7.300000 7.400000 7.500000 7.600000 7.700000 7.800000 7.900000 8.000000 8.100000 8.200000 8.300000 8.400000 8.500000 8.600000 8.700000 8.800000 8.900000 9.000000 9.100000 9.200000 9.300000 9.400000 9.500000 9.600000 9.700000 9.800000 9.900000 10.000000 10.100000 
Y_COORDINATES 22 double
0.000000 0.100000 0.200000 0.300000 0.400000 0.500000 0.600000 0.700000 0.800000 0.900000 1.000000 1.100000 1.200000 1.300000 1.400000 1.500000 1.600000 1.700000 1.800000 1.900000 2.000000 2.100000 
Z_COORDINATES 1 double
0.0
POINT_DATA 2244
VECTORS Velocity double
0.000000e+00 0.000000e+00 0.0
-0.000000e+00 0.000000e+00 0.0
-0.000000e+00 0.000000e+00 0.0
-0.000000e+00 0.000000e+00 0.0
-0.000000e+00 0.000000e+00 0.0
-0.000000e+00 0.000000e+00 0.0
-0.000000e+00 0.000000e+00 0.0
-0.000000e+00 0.000000e+00 0.0
-0.000000e+00 0.000000e+00 0.0
-0.000000e+00 0.000000e+00 0.0
-0.000000e+00 0.000000e+00 0.0
5.259261e-04 0.000000e+00 0.0
4.900709e-03 0.000000e+00 0.0
1.167514e-02 0.000000e+00 0.0
1.966333e-02 0.000000e+00 0.0
2.847714e-02 0.000000e+00 0.0
3.820577e-02 0.000000e+00 0.0
4.913576e-02 0.000000e+00 0.0
6.162009e-02 0.000000e+00 0.0
7.600948e-02 0.000000e+00 0.0
9.257464e-02 0.000000e+00 0.0
1.113950e-01 0.000000e+00 0.0
1.321879e-01 0.000000e+00 0.0
1.541248e-01 0.000000e+00 0.0
1.755917e-01 0.000000e+00 0.0
1.938620e-01 0.000000e+00 0.0
2.054066e-01 0.000000e+00 0.0
2.062490e-01 0.000000e+00 0.0
1.933056e-01 0.000000e+00 0.0
1.656690e-01 0.000000e+00 0.0
1.250914e-01 0.000000e+00 0.0
7.565652e-02 0.000000e+00 0.0
2.006490e-02 0.000000e+00 0.0
-3.468152e-02 0.000000e+00 0.0
-8.146114e-02 0.000000e+00 0.0
-1.183686e-01 0.000000e+00 0.0
-1.456541e-01 0.000000e+00 0.0
-1.644611e-01 0.000000e+00 0.0
-1.762522e-01 0.000000e+00 0.0
-1.825309e-01 0.000000e+00 0.0
-1.847147e-01 0.000000e+00 0.0
-1.840762e-01 0.000000e+00 0.0
-1.813507e-01 0.000000e+00 0.0
-1.770937e-01 0.000000e+00 0.0
-1.718689e-01 0.000000e+00 0.0
-1.661396e-01 0.000000e+00 0.0
-1.602534e-01 0.000000e+00 0.0
-1.544417e-01 0.000000e+00 0.0
-1.488404e-01 0.000000e+00 0.0
-1.435352e-01 0.000000e+00 0.0
-1.385680e-01 0.000000e+00 0.0
-1.339544e-01 0.000000e+00 0.0
-1.296928e-01 0.000000e+00 0.0
-1.257717e-01 0.000000e+00 0.0
-1.221738e-01 0.000000e+00 0.0
-1.188790e-01 0.000000e+00 0.0
-1.158663e-01 0.000000e+00 0.0
-1.131147e-01 0.000000e+00 0.0
-1.106039e-01 0.000000e+00 0.0
-1.083145e-01 0.000000e+00 0.0
-1.062282e-01 0.000000e+00 0.0
-1.043278e-01 0.000000e+00 0.0
-1.025971e-01 0.000000e+00 0.0
-1.010210e-01 0.000000e+00 0.0
-9.958558e-02 0.000000e+00 0.0
-9.827785e-02 0.000000e+00 0.0
-9.708591e-02 0.000000e+00 0.0
-9.599879e-02 0.000000e+00 0.0
-9.500647e-02 0.000000e+00 0.0
-9.409982e-02 0.000000e+00 0.0
-9.327054e-02 0.000000e+00 0.0
-9.251112e-02 0.000000e+00 0.0
-9.181482e-02 0.000000e+00 0.0
-9.117557e-02 0.000000e+00 0.0
-9.058798e-02 0.000000e+00 0.0
-9.004725e-02 0.000000e+00 0.0
-8.954917e-02 0.000000e+00 0.0
-8.909007e-02 0.000000e+00 0.0
-8.866677e-02 0.000000e+00 0.0
-8.827659e-02 0.000000e+00 0.0
-8.791729e-02 0.000000e+00 0.0
-8.758709e-02 0.000000e+00 0.0
-8.728462e-02 0.000000e+00 0.0
-8.700893e-02 0.000000e+00 0.0
-8.675947e-02 0.000000e+00 0.0
-8.653613e-02 0.000000e+00 0.0
-8.633922e-02 0.000000e+00 0.0
-8.616945e-02 0.000000e+00 0.0
-8.602803e-02 0.000000e+00 0.0
-8.591662e-02 0.000000e+00 0.0
-8.583745e-02 0.000000e+00 0.0
-8.579343e-02 0.000000e+00 0.0
-8.578833e-02 0.000000e+00 0.0
-8.582458e-02 0.000000e+00 0.0
-8.590017e-02 0.000000e+00 0.0
-8.600857e-02 0.000000e+00 0.0
-8.614408e-02 0.000000e+00 0.0
-8.629534e-02 0.000000e+00 0.0
-8.644102e-02 0.000000e+00 0.0
-8.653774e-02 0.000000e+00 0.0
-8.653774e-02 0.000000e+00 0.0
0.000000e+00 0.000000e+00 0.0
0.000000e+00 0.000000e+00 0.0
0.000000e+00 0.000000e+00 0.0
0.000000e+00 0.000000e+00 0.0
0.000000e+00 0.000000e+00 0.0
0.000000e+00 0.000000e+00 0.0
0.000000e+00 0.000000e+00 0.0
0.000000e+00 0.000000e+00 0.0
0.000000e+00 0.000000e+00 0.0
0.000000e+00 0.000000e+00 0.0
0.000000e+00 0.000000e+00 0.0
0.000000e+00 -5.126874e-04 0.0
-5.121905e-04 5.249674e-04 0.0
-4.895890e-03 4.383201e-03 0.0
-1.167921e-02 6.777330e-03 0.0
-1.966902e-02 7.984721e-03 0.0
-2.847850e-02 8.808454e-03 0.0
-3.820289e-02 9.725837e-03 0.0
-4.913254e-02 1.093043e-02 0.0
-6.161947e-02 1.248571e-02 0.0
-7.601121e-02 1.438948e-02 0.0
-9.257666e-02 1.656364e-02 0.0
-1.113958e-01 1.881852e-02 0.0
-1.321875e-01 2.079189e-02 0.0
-1.541240e-01 2.193690e-02 0.0
-1.755913e-01 2.146733e-02 0.0
-1.938621e-01 1.827051e-02 0.0
-2.054070e-01 1.154445e-02 0.0
-2.062494e-01 8.420811e-04 0.0
-1.933058e-01 -1.294378e-02 0.0
-1.656691e-01 -2.763678e-02 0.0
-1.250914e-01 -4.057772e-02 0.0
-7.565644e-02 -4.943483e-02 0.0
-2.006468e-02 -5.559151e-02 0.0
3.468171e-02 -5.474625e-02 0.0
8.146109e-02 -4.677948e-02 0.0
1.183683e-01 -3.690747e-02 0.0
1.456538e-01 -2.728569e-02 0.0
1.644611e-01 -1.880718e-02 0.0
1.762525e-01 -1.179116e-02 0.0
1.825311e-01 -6.278508e-03 0.0
1.847147e-01 -2.183638e-03 0.0
1.840761e-01 6.385115e-04 0.0
1.813506e-01 2.725455e-03 0.0
1.770937e-01 4.256886e-03 0.0
1.718689e-01 5.224872e-03 0.0
1.661396e-01 5.729327e-03 0.0
1.602534e-01 5.886160e-03 0.0
1.544417e-01 5.811749e-03 0.0
1.488404e-01 5.601331e-03 0.0
1.435352e-01 5.305142e-03 0.0
1.385680e-01 4.967203e-03 0.0
1.339544e-01 4.613672e-03 0.0
1.296928e-01 4.261570e-03 0.0
1.257717e-01 3.921090e-03 0.0
1.221738e-01 3.597910e-03 0.0
1.188790e-01 3.294800e-03 0.0
1.158663e-01 3.012725e-03 0.0
1.131147e-01 2.751602e-03 0.0
1.106039e-01 2.510787e-03 0.0
1.083145e-01 2.289356e-03 0.0
1.062282e-01 2.086266e-03 0.0
1.043278e-01 1.900423e-03 0.0
1.025971e-01 1.730728e-03 0.0
1.010210e-01 1.576090e-03 0.0
9.958558e-02 1.435437e-03 0.0
9.827785e-02 1.307726e-03 0.0
9.708590e-02 1.191944e-03 0.0
9.599879e-02 1.087119e-03 0.0
9.500647e-02 9.923176e-04 0.0
9.409982e-02 9.066522e-04 0.0
9.327054e-02 8.292820e-04 0.0
9.251112e-02 7.594138e-04 0.0
9.181482e-02 6.963020e-04 0.0
9.117557e-02 6.392471e-04 0.0
9.058798e-02 5.875940e-04 0.0
9.004725e-02 5.407294e-04 0.0
8.954917e-02 4.980791e-04 0.0
8.909007e-02 4.591045e-04 0.0
8.866677e-02 4.232983e-04 0.0
8.827659e-02 3.901804e-04 0.0
8.791729e-02 3.592939e-04 0.0
8.758709e-02 3.301997e-04 0.0
8.728462e-02 3.024726e-04 0.0
8.700893e-02 2.756955e-04 0.0
8.675947e-02 2.494552e-04 0.0
8.653613e-02 2.233363e-04 0.0
8.633922e-02 1.969166e-04 0.0
8.616945e-02 1.697620e-04 0.0
8.602803e-02 1.414202e-04 0.0
8.591662e-02 1.114083e-04 0.0
8.583745e-02 7.917599e-05 0.0
8.579343e-02 4.401950e-05 0.0
8.578833e-02 5.098737e-06 0.0
8.582458e-02 -3.625296e-05 0.0
8.590017e-02 -7.558589e-05 0.0
8.600857e-02 -1.084079e-04 0.0
8.614408e-02 -1.355070e-04 0.0
8.629534e-02 -1.512611e-04 0.0
8.644102e-02 -1.456808e-04 0.0
8.653774e-02 -9.672378e-05 0.0
8.653774e-02 -6.416160e-10 0.0
0.000000e+00 -5.990416e-10 0.0
0.000000e+00 0.000000e+00 0.0
0.000000e+00 0.000000e+00 0.0
0.000000e+00 0.000000e+00 0.0
0.000000e+00 0.000000e+00 0.0
0.000000e+00 0.000000e+00 0.0
0.000000e+00 0.000000e+00 0.0
0.000000e+00 0.000000e+00 0.0
0.000000e+00 0.000000e+00 0.0
0.000000e+00 0.000000e+00 0.0
0.000000e+00 0.000000e+00 0.0
0.000000e+00 -6.337176e-03 0.0
-5.817057e-03 6.343743e-03 0.0
-1.945484e-02 1.801387e-02 0.0
-3.737135e-02 2.469060e-02 0.0
-5.742458e-02 2.803962e-02 0.0
-7.880109e-02 3.018818e-02 0.0
-1.014127e-01 3.233888e-02 0.0
-1.253914e-01 3.490852e-02 0.0
-1.508111e-01 3.790411e-02 0.0
-1.775140e-01 4.109188e-02 0.0
-2.049600e-01 4.401012e-02 0.0
-2.321117e-01 4.597105e-02 0.0
-2.572619e-01 4.594262e-02 0.0
-2.779430e-01 4.261800e-02 0.0
-2.910089e-01 3.453300e-02 0.0
-2.926341e-01 1.989539e-02 0.0
-2.780906e-01 -2.999213e-03 0.0
-2.447194e-01 -3.252902e-02 0.0
-1.937543e-01 -6.390880e-02 0.0
-1.280928e-01 -9.329824e-02 0.0
-5.039008e-02 -1.182803e-01 0.0
3.421301e-02 -1.340378e-01 0.0
1.146582e-01 -1.360367e-01 0.0
1.859864e-01 -1.260747e-01 0.0
2.481842e-01 -1.089776e-01 0.0
3.004835e-01 -8.920682e-02 0.0
3.428152e-01 -6.961723e-02 0.0
3.757345e-01 -5.172632e-02 0.0
4.001567e-01 -3.621332e-02 0.0
4.171624e-01 -2.328426e-02 0.0
4.278674e-01 -1.288880e-02 0.0
4.333343e-01 -4.828425e-03 0.0
4.348646e-01 1.195196e-03 0.0
4.332919e-01 5.829703e-03 0.0
4.292974e-01 9.219288e-03 0.0
4.234688e-01 1.155794e-02 0.0
4.162895e-01 1.306547e-02 0.0
4.081742e-01 1.392701e-02 0.0
3.994959e-01 1.427962e-02 0.0
3.905570e-01 1.424406e-02 0.0
3.815718e-01 1.395246e-02 0.0
3.727020e-01 1.348347e-02 0.0
3.640630e-01 1.290049e-02 0.0
3.557349e-01 1.224920e-02 0.0
3.477703e-01 1.156260e-02 0.0
3.402010e-01 1.086409e-02 0.0
3.330436e-01 1.017004e-02 0.0
3.263035e-01 9.491719e-03 0.0
3.199775e-01 8.836780e-03 0.0
3.140566e-01 8.210336e-03 0.0
3.085272e-01 7.615652e-03 0.0
3.033730e-01 7.054631e-03 0.0
2.985755e-01 6.528154e-03 0.0
2.941153e-01 6.036323e-03 0.0
2.899721e-01 5.578653e-03 0.0
2.861256e-01 5.154213e-03 0.0
2.825558e-01 4.761742e-03 0.0
2.792432e-01 4.399741e-03 0.0
2.761689e-01 4.066550e-03 0.0
2.733152e-01 3.760403e-03 0.0
2.706650e-01 3.479479e-03 0.0
2.682025e-01 3.221942e-03 0.0
2.659128e-01 2.985963e-03 0.0
2.637823e-01 2.769744e-03 0.0
2.617984e-01 2.571535e-03 0.0
2.599495e-01 2.389638e-03 0.0
2.582251e-01 2.222419e-03 0.0
2.566159e-01 2.068302e-03 0.0
2.551135e-01 1.925772e-03 0.0
2.537103e-01 1.793368e-03 0.0
2.523999e-01 1.669678e-03 0.0
2.511767e-01 1.553329e-03 0.0
2.500362e-01 1.442979e-03 0.0
2.489746e-01 1.337302e-03 0.0
2.479891e-01 1.234980e-03 0.0
2.470778e-01 1.134688e-03 0.0
2.462396e-01 1.035079e-03 0.0
2.454746e-01 9.347695e-04 0.0
2.447837e-01 8.323378e-04 0.0
2.441688e-01 7.263170e-04 0.0
2.436327e-01 6.152042e-04 0.0
2.431792e-01 4.975054e-04 0.0
2.428123e-01 3.720193e-04 0.0
2.425369e-01 2.391362e-04 0.0
2.423599e-01 1.014753e-04 0.0
2.422883e-01 -3.681686e-05 0.0
2.423123e-01 -1.595328e-04 0.0
2.424055e-01 -2.444410e-04 0.0
2.425286e-01 -2.687652e-04 0.0
2.426264e-01 -1.945052e-04 0.0
2.426264e-01 -4.368663e-10 0.0
0.000000e+00 -3.912691e-10 0.0
0.000000e+00 0.000000e+00 0.0
0.000000e+00 0.000000e+00 0.0
0.000000e+00 0.000000e+00 0.0
0.000000e+00 0.000000e+00 0.0
0.000000e+00 0.000000e+00 0.0
0.000000e+00 0.000000e+00 0.0
0.000000e+00 0.000000e+00 0.0
0.000000e+00 0.000000e+00 0.0
0.000000e+00 0.000000e+00 0.0
0.000000e+00 0.000000e+00 0.0
0.000000e+00 -1.696739e-02 0.0
-1.062713e-02 1.696786e-02 0.0
-3.138594e-02 3.876830e-02 0.0
-5.611410e-02 4.941963e-02 0.0
-8.187078e-02 5.380039e-02 0.0
-1.075529e-01 5.587390e-02 0.0
-1.327935e-01 5.758061e-02 0.0
-1.573525e-01 5.946700e-02 0.0
-1.808701e-01 6.142119e-02 0.0
-2.027352e-01 6.295736e-02 0.0
-2.219461e-01 6.322212e-02 0.0
-2.371515e-01 6.117773e-02 0.0
-2.465255e-01 5.531719e-02 0.0
-2.475634e-01 4.365591e-02 0.0
-2.364293e-01 2.339859e-02 0.0
-2.066300e-01 -9.904087e-03 0.0
-1.581285e-01 -5.150065e-02 0.0
-9.223746e-02 -9.841994e-02 0.0
-1.226141e-02 -1.438847e-01 0.0
7.475069e-02 -1.803102e-01 0.0
1.594743e-01 -2.030038e-01 0.0
2.371875e-01 -2.117510e-01 0.0
3.057359e-01 -2.045852e-01 0.0
3.656595e-01 -1.859985e-01 0.0
4.178669e-01 -1.611851e-01 0.0
4.627698e-01 -1.341096e-01 0.0
5.006020e-01 -1.074492e-01 0.0
5.316671e-01 -8.279129e-02 0.0
5.563958e-01 -6.094215e-02 0.0
5.753189e-01 -4.220751e-02 0.0
5.890232e-01 -2.659319e-02 0.0
5.981237e-01 -1.392889e-02 0.0
6.032628e-01 -3.943784e-03 0.0
6.053714e-01 3.721099e-03 0.0
6.049517e-01 9.638964e-03 0.0
6.024534e-01 1.405620e-02 0.0
5.982722e-01 1.724672e-02 0.0
5.927466e-01 1.945253e-02 0.0
5.861490e-01 2.087731e-02 0.0
5.786967e-01 2.169632e-02 0.0
5.706356e-01 2.201357e-02 0.0
5.621834e-01 2.193568e-02 0.0
5.535124e-01 2.157147e-02 0.0
5.447623e-01 2.099934e-02 0.0
5.360444e-01 2.028049e-02 0.0
5.274465e-01 1.946197e-02 0.0
5.190368e-01 1.857969e-02 0.0
5.108674e-01 1.766117e-02 0.0
5.029766e-01 1.672760e-02 0.0
4.953916e-01 1.579536e-02 0.0
4.881301e-01 1.487706e-02 0.0
4.812025e-01 1.398230e-02 0.0
4.746124e-01 1.311823e-02 0.0
4.683587e-01 1.228999e-02 0.0
4.624363e-01 1.150106e-02 0.0
4.568369e-01 1.075360e-02 0.0
4.515500e-01 1.004866e-02 0.0
4.465633e-01 9.386433e-03 0.0
4.418635e-01 8.766380e-03 0.0
4.374365e-01 8.187435e-03 0.0
4.332678e-01 7.648105e-03 0.0
4.293432e-01 7.146583e-03 0.0
4.256483e-01 6.680835e-03 0.0
4.221694e-01 6.248669e-03 0.0
4.188931e-01 5.847792e-03 0.0
4.158069e-01 5.475852e-03 0.0
4.128989e-01 5.130473e-03 0.0
4.101579e-01 4.809274e-03 0.0
4.075738e-01 4.509889e-03 0.0
4.051372e-01 4.229969e-03 0.0
4.028397e-01 3.967186e-03 0.0
4.006738e-01 3.719229e-03 0.0
3.986330e-01 3.483799e-03 0.0
3.967117e-01 3.258592e-03 0.0
3.949054e-01 3.041290e-03 0.0
3.932105e-01 2.829537e-03 0.0
3.916247e-01 2.620919e-03 0.0
3.901465e-01 2.412942e-03 0.0
3.887758e-01 2.203023e-03 0.0
3.875136e-01 1.988492e-03 0.0
3.863622e-01 1.766634e-03 0.0
3.853249e-01 1.534805e-03 0.0
3.844061e-01 1.290787e-03 0.0
3.836116e-01 1.033657e-03 0.0
3.829483e-01 7.647702e-04 0.0
3.824223e-01 4.892167e-04 0.0
3.820407e-01 2.220535e-04 0.0
3.818066e-01 -1.039234e-05 0.0
3.816976e-01 -1.597449e-04 0.0
3.816746e-01 -1.715202e-04 0.0
3.816746e-01 -1.998702e-10 0.0
0.000000e+00 -1.548569e-10 0.0
0.000000e+00 0.000000e+00 0.0
0.000000e+00 0.000000e+00 0.0
0.000000e+00 0.000000e+00 0.0
0.000000e+00 0.000000e+00 0.0
0.000000e+00 0.000000e+00 0.0
0.000000e+00 0.000000e+00 0.0
0.000000e+00 0.000000e+00 0.0
0.000000e+00 0.000000e+00 0.0
0.000000e+00 0.000000e+00 0.0
0.000000e+00 0.000000e+00 0.0
0.000000e+00 -3.011105e-02 0.0
-1.314545e-02 3.010903e-02 0.0
-3.668748e-02 6.230972e-02 0.0
-6.238393e-02 7.511965e-02 0.0
-8.687408e-02 7.829453e-02 0.0
-1.090683e-01 7.806973e-02 0.0
-1.285406e-01 7.705221e-02 0.0
-1.449415e-01 7.586654e-02 0.0
-1.578307e-01 7.430965e-02 0.0
-1.666431e-01 7.177007e-02 0.0
-1.704086e-01 6.698856e-02 0.0
-1.677180e-01 5.848792e-02 0.0
-1.561272e-01 4.372650e-02 0.0
-1.320442e-01 1.957266e-02 0.0
-8.749407e-02 -2.115184e-02 0.0
-2.381150e-02 -7.358670e-02 0.0
5.527242e-02 -1.305844e-01 0.0
1.404450e-01 -1.835922e-01 0.0
2.248102e-01 -2.282497e-01 0.0
3.039778e-01 -2.594776e-01 0.0
3.754371e-01 -2.744632e-01 0.0
4.365599e-01 -2.728738e-01 0.0
4.881913e-01 -2.562167e-01 0.0
5.324206e-01 -2.302279e-01 0.0
5.706454e-01 -1.994099e-01 0.0
6.036666e-01 -1.671306e-01 0.0
6.319316e-01 -1.357141e-01 0.0
6.557402e-01 -1.065999e-01 0.0
6.753589e-01 -8.056100e-02 0.0
6.910666e-01 -5.791530e-02 0.0
7.031663e-01 -3.869288e-02 0.0
7.119871e-01 -2.274956e-02 0.0
7.178882e-01 -9.844908e-03 0.0
7.212946e-01 3.146973e-04 0.0
7.226764e-01 8.257080e-03 0.0
7.223579e-01 1.437478e-02 0.0
7.205989e-01 1.900572e-02 0.0
7.176203e-01 2.243110e-02 0.0
7.136140e-01 2.488360e-02 0.0
7.087551e-01 2.655518e-02 0.0
7.031740e-01 2.759469e-02 0.0
6.969831e-01 2.812655e-02 0.0
6.903243e-01 2.823036e-02 0.0
6.833235e-01 2.800011e-02 0.0
6.760887e-01 2.751528e-02 0.0
6.687121e-01 2.683859e-02 0.0
6.612723e-01 2.601948e-02 0.0
6.538360e-01 2.509744e-02 0.0
6.464592e-01 2.410445e-02 0.0
6.391880e-01 2.306655e-02 0.0
6.320600e-01 2.200508e-02 0.0
6.251050e-01 2.093732e-02 0.0
6.183460e-01 1.987717e-02 0.0
6.118004e-01 1.883564e-02 0.0
6.054801e-01 1.782132e-02 0.0
5.993931e-01 1.684066e-02 0.0
5.935433e-01 1.589838e-02 0.0
5.879321e-01 1.499770e-02 0.0
5.825579e-01 1.414058e-02 0.0
5.774173e-01 1.332797e-02 0.0
5.725055e-01 1.255997e-02 0.0
5.678161e-01 1.183596e-02 0.0
5.633421e-01 1.115481e-02 0.0
5.590759e-01 1.051493e-02 0.0
5.550092e-01 9.914408e-03 0.0
5.511340e-01 9.351045e-03 0.0
5.474421e-01 8.822463e-03 0.0
5.439252e-01 8.326129e-03 0.0
5.405757e-01 7.859399e-03 0.0
5.373861e-01 7.419540e-03 0.0
5.343496e-01 7.003750e-03 0.0
5.314596e-01 6.609166e-03 0.0
5.287106e-01 6.232859e-03 0.0
5.260973e-01 5.871835e-03 0.0
5.236156e-01 5.523018e-03 0.0
5.212619e-01 5.183235e-03 0.0
5.190336e-01 4.849184e-03 0.0
5.169292e-01 4.517399e-03 0.0
5.149480e-01 4.184236e-03 0.0
5.130906e-01 3.845873e-03 0.0
5.113589e-01 3.498347e-03 0.0
5.097560e-01 3.137668e-03 0.0
5.082867e-01 2.760125e-03 0.0
5.069574e-01 2.362919e-03 0.0
5.057770e-01 1.945138e-03 0.0
5.047567e-01 1.509532e-03 0.0
5.039121e-01 1.066674e-03 0.0
5.032622e-01 6.395024e-04 0.0
5.028290e-01 2.734650e-04 0.0
5.026175e-01 3.999450e-05 0.0
5.026175e-01 -2.729305e-11 0.0
0.000000e+00 1.055332e-11 0.0
0.000000e+00 0.000000e+00 0.0
0.000000e+00 0.000000e+00 0.0
0.000000e+00 0.000000e+00 0.0
0.000000e+00 0.000000e+00 0.0
0.000000e+00 0.000000e+00 0.0
0.000000e+00 0.000000e+00 0.0
0.000000e+00 0.000000e+00 0.0
0.000000e+00 0.000000e+00 0.0
0.000000e+00 0.000000e+00 0.0
0.000000e+00 0.000000e+00 0.0
0.000000e+00 -4.361314e-02 0.0
-1.350630e-02 4.361182e-02 0.0
-3.553937e-02 8.434380e-02 0.0
-5.694672e-02 9.653062e-02 0.0
-7.478393e-02 9.613491e-02 0.0
-8.837367e-02 9.166042e-02 0.0
-9.746872e-02 8.614629e-02 0.0
-1.018011e-01 8.019762e-02 0.0
-1.008752e-01 7.338339e-02 0.0
-9.419626e-02 6.509175e-02 0.0
-8.005718e-02 5.285051e-02 0.0
-5.621043e-02 3.464170e-02 0.0
-1.552981e-02 3.045661e-03 0.0
4.643998e-02 -4.239774e-02 0.0
1.223067e-01 -9.701899e-02 0.0
2.056170e-01 -1.568970e-01 0.0
2.902773e-01 -2.152443e-01 0.0
3.717241e-01 -2.650387e-01 0.0
4.454801e-01 -3.020056e-01 0.0
5.092183e-01 -3.232158e-01 0.0
5.622118e-01 -3.274568e-01 0.0
6.043192e-01 -3.149813e-01 0.0
6.388407e-01 -2.907384e-01 0.0
6.679110e-01 -2.592981e-01 0.0
6.928731e-01 -2.243719e-01 0.0
7.145120e-01 -1.887694e-01 0.0
7.332620e-01 -1.544640e-01 0.0
7.493600e-01 -1.226980e-01 0.0
7.629532e-01 -9.415437e-02 0.0
7.741619e-01 -6.912399e-02 0.0
7.831141e-01 -4.764496e-02 0.0
7.899572e-01 -2.959258e-02 0.0
7.948553e-01 -1.474304e-02 0.0
7.979946e-01 -2.824647e-03 0.0
7.996853e-01 6.566345e-03 0.0
8.001404e-01 1.391968e-02 0.0
7.995251e-01 1.962103e-02 0.0
7.979789e-01 2.397733e-02 0.0
7.956256e-01 2.723693e-02 0.0
7.925784e-01 2.960231e-02 0.0
7.889355e-01 3.123762e-02 0.0
7.847834e-01 3.227863e-02 0.0
7.801790e-01 3.283483e-02 0.0
7.751940e-01 3.298508e-02 0.0
7.699039e-01 3.280540e-02 0.0
7.643761e-01 3.236640e-02 0.0
7.586714e-01 3.172415e-02 0.0
7.528444e-01 3.092440e-02 0.0
7.469437e-01 3.000521e-02 0.0
7.410116e-01 2.899860e-02 0.0
7.350851e-01 2.793158e-02 0.0
7.291957e-01 2.682670e-02 0.0
7.233702e-01 2.570265e-02 0.0
7.176310e-01 2.457484e-02 0.0
7.119966e-01 2.345578e-02 0.0
7.064818e-01 2.235547e-02 0.0
7.010984e-01 2.128175e-02 0.0
6.958555e-01 2.024062e-02 0.0
6.907596e-01 1.923643e-02 0.0
6.858154e-01 1.827222e-02 0.0
6.810255e-01 1.734986e-02 0.0
6.763912e-01 1.647026e-02 0.0
6.719125e-01 1.563351e-02 0.0
6.675884e-01 1.483907e-02 0.0
6.634169e-01 1.408583e-02 0.0
6.593958e-01 1.337223e-02 0.0
6.555218e-01 1.269637e-02 0.0
6.517919e-01 1.205603e-02 0.0
6.482026e-01 1.144876e-02 0.0
6.447502e-01 1.087189e-02 0.0
6.414314e-01 1.032258e-02 0.0
6.382427e-01 9.797813e-03 0.0
6.351812e-01 9.294433e-03 0.0
6.322439e-01 8.809118e-03 0.0
6.294285e-01 8.338383e-03 0.0
6.267332e-01 7.878571e-03 0.0
6.241566e-01 7.425804e-03 0.0
6.216980e-01 6.975928e-03 0.0
6.193578e-01 6.524491e-03 0.0
6.171369e-01 6.066732e-03 0.0
6.150377e-01 5.597583e-03 0.0
6.130636e-01 5.111738e-03 0.0
6.112199e-01 4.603819e-03 0.0
6.095141e-01 4.068767e-03 0.0
6.079567e-01 3.502505e-03 0.0
6.065631e-01 2.903186e-03 0.0
6.053560e-01 2.273730e-03 0.0
6.043699e-01 1.625567e-03 0.0
6.036573e-01 9.860791e-04 0.0
6.032878e-01 4.095621e-04 0.0
6.032878e-01 6.322108e-12 0.0
0.000000e+00 3.315138e-11 0.0
0.000000e+00 0.000000e+00 0.0
0.000000e+00 0.000000e+00 0.0
0.000000e+00 0.000000e+00 0.0
0.000000e+00 0.000000e+00 0.0
0.000000e+00 0.000000e+00 0.0
0.000000e+00 0.000000e+00 0.0
0.000000e+00 0.000000e+00 0.0
0.000000e+00 0.000000e+00 0.0
0.000000e+00 0.000000e+00 0.0
0.000000e+00 0.000000e+00 0.0
0.000000e+00 -5.675358e-02 0.0
-1.314448e-02 5.675324e-02 0.0
-3.053374e-02 1.017347e-01 0.0
-4.347911e-02 1.094785e-01 0.0
-5.066397e-02 1.033208e-01 0.0
-5.208281e-02 9.307812e-02 0.0
-4.779542e-02 8.185669e-02 0.0
-3.756787e-02 6.996833e-02 0.0
-1.999390e-02 5.580908e-02 0.0
6.416530e-03 3.868218e-02 0.0
4.621306e-02 1.305498e-02 0.0
1.046572e-01 -2.380219e-02 0.0
1.780621e-01 -7.035975e-02 0.0
2.608892e-01 -1.252255e-01 0.0
3.478574e-01 -1.839874e-01 0.0
4.327758e-01 -2.418153e-01 0.0
5.106566e-01 -2.931246e-01 0.0
5.784995e-01 -3.328815e-01 0.0
6.345398e-01 -3.580459e-01 0.0
6.784946e-01 -3.671707e-01 0.0
7.108711e-01 -3.598334e-01 0.0
7.350169e-01 -3.391271e-01 0.0
7.537179e-01 -3.094394e-01 0.0
7.689132e-01 -2.744934e-01 0.0
7.818215e-01 -2.372800e-01 0.0
7.931384e-01 -2.000861e-01 0.0
8.032218e-01 -1.645474e-01 0.0
8.122080e-01 -1.316843e-01 0.0
8.201160e-01 -1.020624e-01 0.0
8.269181e-01 -7.592611e-02 0.0
8.325921e-01 -5.331880e-02 0.0
8.371369e-01 -3.413733e-02 0.0
8.405640e-01 -1.817016e-02 0.0
8.429066e-01 -5.167340e-03 0.0
8.443007e-01 5.172211e-03 0.0
8.448552e-01 1.336519e-02 0.0
8.446610e-01 1.981534e-02 0.0
8.438000e-01 2.483824e-02 0.0
8.423498e-01 2.868720e-02 0.0
8.403831e-01 3.156892e-02 0.0
8.379673e-01 3.365345e-02 0.0
8.351637e-01 3.508224e-02 0.0
8.320257e-01 3.597289e-02 0.0
8.285894e-01 3.642134e-02 0.0
8.248925e-01 3.650231e-02 0.0
8.209762e-01 3.628272e-02 0.0
8.168799e-01 3.582040e-02 0.0
8.126407e-01 3.516363e-02 0.0
8.082924e-01 3.435346e-02 0.0
8.038658e-01 3.342520e-02 0.0
7.993880e-01 3.240940e-02 0.0
7.948830e-01 3.133169e-02 0.0
7.903720e-01 3.021370e-02 0.0
7.858733e-01 2.907353e-02 0.0
7.814029e-01 2.792614e-02 0.0
7.769746e-01 2.678381e-02 0.0
7.725999e-01 2.565641e-02 0.0
7.682888e-01 2.455175e-02 0.0
7.640494e-01 2.347585e-02 0.0
7.598884e-01 2.243320e-02 0.0
7.558113e-01 2.142696e-02 0.0
7.518224e-01 2.045918e-02 0.0
7.479249e-01 1.953097e-02 0.0
7.441214e-01 1.864262e-02 0.0
7.404134e-01 1.779376e-02 0.0
7.368022e-01 1.698347e-02 0.0
7.332883e-01 1.621033e-02 0.0
7.298718e-01 1.547253e-02 0.0
7.265526e-01 1.476793e-02 0.0
7.233304e-01 1.409409e-02 0.0
7.202047e-01 1.344830e-02 0.0
7.171749e-01 1.282760e-02 0.0
7.142405e-01 1.222882e-02 0.0
7.114011e-01 1.164851e-02 0.0
7.086564e-01 1.108303e-02 0.0
7.060065e-01 1.052847e-02 0.0
7.034517e-01 9.980654e-03 0.0
7.009927e-01 9.434966e-03 0.0
6.986308e-01 8.886387e-03 0.0
6.963680e-01 8.329444e-03 0.0
6.942075e-01 7.758168e-03 0.0
6.921531e-01 7.166071e-03 0.0
6.902108e-01 6.546161e-03 0.0
6.883885e-01 5.891029e-03 0.0
6.866980e-01 5.193044e-03 0.0
6.851564e-01 4.444758e-03 0.0
6.837904e-01 3.639724e-03 0.0
6.826421e-01 2.773849e-03 0.0
6.817793e-01 1.848877e-03 0.0
6.813039e-01 8.850182e-04 0.0
6.813039e-01 -1.694183e-10 0.0
0.000000e+00 -1.457777e-10 0.0
0.000000e+00 0.000000e+00 0.0
0.000000e+00 0.000000e+00 0.0
0.000000e+00 0.000000e+00 0.0
0.000000e+00 0.000000e+00 0.0
0.000000e+00 0.000000e+00 0.0
0.000000e+00 0.000000e+00 0.0
0.000000e+00 0.000000e+00 0.0
0.000000e+00 0.000000e+00 0.0
0.000000e+00 0.000000e+00 0.0
0.000000e+00 0.000000e+00 0.0
0.000000e+00 -7.039876e-02 0.0
-1.364836e-02 7.039799e-02 0.0
-2.291337e-02 1.110009e-01 0.0
-2.229991e-02 1.088679e-01 0.0
-1.382609e-02 9.484879e-02 0.0
1.896202e-03 7.735534e-02 0.0
2.499163e-02 5.875927e-02 0.0
5.575285e-02 3.920556e-02 0.0
9.780064e-02 1.376129e-02 0.0
1.559780e-01 -1.949401e-02 0.0
2.283699e-01 -5.933592e-02 0.0
3.106174e-01 -1.060498e-01 0.0
3.983616e-01 -1.581049e-01 0.0
4.861128e-01 -2.129774e-01 0.0
5.688908e-01 -2.667655e-01 0.0
6.423109e-01 -3.152350e-01 0.0
7.034515e-01 -3.542648e-01 0.0
7.511875e-01 -3.806174e-01 0.0
7.857374e-01 -3.925960e-01 0.0
8.082121e-01 -3.896457e-01 0.0
8.215273e-01 -3.731487e-01 0.0
8.291124e-01 -3.467122e-01 0.0
8.334558e-01 -3.137828e-01 0.0
8.362299e-01 -2.772674e-01 0.0
8.384437e-01 -2.394938e-01 0.0
8.406388e-01 -2.022812e-01 0.0
8.430671e-01 -1.669758e-01 0.0
8.457468e-01 -1.343641e-01 0.0
8.485723e-01 -1.048880e-01 0.0
8.513838e-01 -7.873751e-02 0.0
8.540318e-01 -5.596679e-02 0.0
8.563935e-01 -3.649898e-02 0.0
8.583505e-01 -2.012724e-02 0.0
8.598176e-01 -6.634440e-03 0.0
8.607637e-01 4.226124e-03 0.0
8.612000e-01 1.292890e-02 0.0
8.611497e-01 1.986562e-02 0.0
8.606467e-01 2.534125e-02 0.0
8.597316e-01 2.960232e-02 0.0
8.584482e-01 3.285230e-02 0.0
8.568406e-01 3.526108e-02 0.0
8.549511e-01 3.697171e-02 0.0
8.528191e-01 3.810491e-02 0.0
8.504781e-01 3.876231e-02 0.0
8.479515e-01 3.902892e-02 0.0
8.452612e-01 3.897302e-02 0.0
8.424311e-01 3.865045e-02 0.0
8.394850e-01 3.810981e-02 0.0
8.364448e-01 3.739364e-02 0.0
8.333308e-01 3.653920e-02 0.0
8.301605e-01 3.557967e-02 0.0
8.269497e-01 3.454248e-02 0.0
8.237124e-01 3.345105e-02 0.0
8.204608e-01 3.232514e-02 0.0
8.172057e-01 3.118120e-02 0.0
8.139567e-01 3.003283e-02 0.0
8.107220e-01 2.889110e-02 0.0
8.075089e-01 2.776487e-02 0.0
8.043236e-01 2.666111e-02 0.0
8.011716e-01 2.558515e-02 0.0
7.980577e-01 2.454090e-02 0.0
7.949858e-01 2.353108e-02 0.0
7.919594e-01 2.255738e-02 0.0
7.889814e-01 2.162061e-02 0.0
7.860543e-01 2.072086e-02 0.0
7.831802e-01 1.985758e-02 0.0
7.803608e-01 1.902970e-02 0.0
7.775977e-01 1.823569e-02 0.0
7.748920e-01 1.747362e-02 0.0
7.722448e-01 1.674122e-02 0.0
7.696572e-01 1.603591e-02 0.0
7.671300e-01 1.535481e-02 0.0
7.646641e-01 1.469473e-02 0.0
7.622604e-01 1.405222e-02 0.0
7.599200e-01 1.342349e-02 0.0
7.576439e-01 1.280455e-02 0.0
7.554334e-01 1.219108e-02 0.0
7.532903e-01 1.157813e-02 0.0
7.512164e-01 1.096025e-02 0.0
7.492144e-01 1.033144e-02 0.0
7.472876e-01 9.685005e-03 0.0
7.454402e-01 9.013457e-03 0.0
7.436780e-01 8.308360e-03 0.0
7.420089e-01 7.560117e-03 0.0
7.404443e-01 6.757670e-03 0.0
7.390011e-01 5.887988e-03 0.0
7.377055e-01 4.935232e-03 0.0
7.366001e-01 3.879320e-03 0.0
7.357540e-01 2.694915e-03 0.0
7.352763e-01 1.362711e-03 0.0
7.352763e-01 -5.796018e-10 0.0
0.000000e+00 -5.666840e-10 0.0
0.000000e+00 0.000000e+00 0.0
0.000000e+00 0.000000e+00 0.0
0.000000e+00 0.000000e+00 0.0
0.000000e+00 0.000000e+00 0.0
0.000000e+00 0.000000e+00 0.0
0.000000e+00 0.000000e+00 0.0
0.000000e+00 0.000000e+00 0.0
0.000000e+00 0.000000e+00 0.0
0.000000e+00 0.000000e+00 0.0
0.000000e+00 0.000000e+00 0.0
0.000000e+00 -8.412724e-02 0.0
-1.373138e-02 8.412497e-02 0.0
-5.678723e-03 1.029485e-01 0.0
1.886122e-02 8.432912e-02 0.0
5.211967e-02 6.159060e-02 0.0
9.300937e-02 3.646416e-02 0.0
1.442389e-01 7.527574e-03 0.0
2.088219e-01 -2.537853e-02 0.0
2.842355e-01 -6.165162e-02 0.0
3.670285e-01 -1.022855e-01 0.0
4.544178e-01 -1.467244e-01 0.0
5.424438e-01 -1.940763e-01 0.0
6.269011e-01 -2.425632e-01 0.0
7.036119e-01 -2.896887e-01 0.0
7.691891e-01 -3.323425e-01 0.0
8.213380e-01 -3.673832e-01 0.0
8.591869e-01 -3.921135e-01 0.0
8.832961e-01 -4.047267e-01 0.0
8.952211e-01 -4.045213e-01 0.0
8.974733e-01 -3.918979e-01 0.0
8.937706e-01 -3.694459e-01 0.0
8.869163e-01 -3.398579e-01 0.0
8.789589e-01 -3.058254e-01 0.0
8.712217e-01 -2.695301e-01 0.0
8.644483e-01 -2.327203e-01 0.0
8.589912e-01 -1.968241e-01 0.0
8.549845e-01 -1.629691e-01 0.0
8.523195e-01 -1.316992e-01 0.0
8.507902e-01 -1.033586e-01 0.0
8.501584e-01 -7.810570e-02 0.0
8.501640e-01 -5.597231e-02 0.0
8.505523e-01 -3.688734e-02 0.0
8.511199e-01 -2.069480e-02 0.0
8.516958e-01 -7.210365e-03 0.0
8.521427e-01 3.779271e-03 0.0
8.523744e-01 1.269717e-02 0.0
8.523521e-01 1.988789e-02 0.0
8.520656e-01 2.562780e-02 0.0
8.515220e-01 3.014585e-02 0.0
8.507392e-01 3.363516e-02 0.0
8.497401e-01 3.626017e-02 0.0
8.485502e-01 3.816163e-02 0.0
8.471949e-01 3.946021e-02 0.0
8.456979e-01 4.025926e-02 0.0
8.440797e-01 4.064715e-02 0.0
8.423540e-01 4.069878e-02 0.0
8.405345e-01 4.046991e-02 0.0
8.386359e-01 4.000841e-02 0.0
8.366718e-01 3.935774e-02 0.0
8.346544e-01 3.855659e-02 0.0
8.325950e-01 3.763911e-02 0.0
8.305031e-01 3.663436e-02 0.0
8.283871e-01 3.556704e-02 0.0
8.262542e-01 3.445801e-02 0.0
8.241108e-01 3.332467e-02 0.0
8.219622e-01 3.218140e-02 0.0
8.198133e-01 3.103995e-02 0.0
8.176685e-01 2.990976e-02 0.0
8.155313e-01 2.879829e-02 0.0
8.134051e-01 2.771132e-02 0.0
8.112929e-01 2.665311e-02 0.0
8.091973e-01 2.562672e-02 0.0
8.071205e-01 2.463412e-02 0.0
8.050648e-01 2.367636e-02 0.0
8.030319e-01 2.275374e-02 0.0
8.010236e-01 2.186590e-02 0.0
7.990414e-01 2.101191e-02 0.0
7.970867e-01 2.019039e-02 0.0
7.951608e-01 1.939950e-02 0.0
7.932650e-01 1.863705e-02 0.0
7.914004e-01 1.790051e-02 0.0
7.895682e-01 1.718702e-02 0.0
7.877695e-01 1.649340e-02 0.0
7.860056e-01 1.581613e-02 0.0
7.842778e-01 1.515131e-02 0.0
7.825874e-01 1.449492e-02 0.0
7.809359e-01 1.384262e-02 0.0
7.793249e-01 1.318912e-02 0.0
7.777564e-01 1.252868e-02 0.0
7.762330e-01 1.185488e-02 0.0
7.747575e-01 1.116047e-02 0.0
7.733338e-01 1.043719e-02 0.0
7.719667e-01 9.675415e-03 0.0
7.706631e-01 8.863731e-03 0.0
7.694326e-01 7.988188e-03 0.0
7.682896e-01 7.031030e-03 0.0
7.672563e-01 5.968481e-03 0.0
7.663687e-01 4.766974e-03 0.0
7.656852e-01 3.378433e-03 0.0
7.652975e-01 1.750338e-03 0.0
7.652975e-01 -1.208149e-09 0.0
0.000000e+00 -1.208305e-09 0.0
0.000000e+00 0.000000e+00 0.0
0.000000e+00 0.000000e+00 0.0
0.000000e+00 0.000000e+00 0.0
0.000000e+00 0.000000e+00 0.0
0.000000e+00 0.000000e+00 0.0
0.000000e+00 0.000000e+00 0.0
0.000000e+00 0.000000e+00 0.0
0.000000e+00 0.000000e+00 0.0
0.000000e+00 0.000000e+00 0.0
0.000000e+00 0.000000e+00 0.0
0.000000e+00 -7.896962e-02 0.0
5.152780e-03 7.896829e-02 0.0
5.423965e-02 5.386479e-02 0.0
1.182809e-01 2.029170e-02 0.0
1.922030e-01 -1.233003e-02 0.0
2.730363e-01 -4.437087e-02 0.0
3.576181e-01 -7.705678e-02 0.0
4.442439e-01 -1.120051e-01 0.0
5.316873e-01 -1.490937e-01 0.0
6.175925e-01 -1.881890e-01 0.0
6.993942e-01 -2.285257e-01 0.0
7.742341e-01 -2.689172e-01 0.0
8.393401e-01 -3.076703e-01 0.0
8.923656e-01 -3.427144e-01 0.0