# vtk DataFile Version 3.0
Vector Field
ASCII
DATASET RECTILINEAR_GRID
DIMENSIONS 102 22 1
X_COORDINATES 102 double
0.000000 0.100000 0.200000 0.300000 0.400000 0.500000 0.600000 0.700000 0.800000 0.900000 1.000000 1.100000 1.200000 1.300000 1.400000 1.500000 1.600000 1.700000 1.800000 1.900000 2.000000 2.100000 2.200000 2.300000 2.400000 2.500000 2.600000 2.700000 2.800000 2.900000 3.000000 3.100000 3.200000 3.300000 3.400000 3.500000 3.600000 3.700000 3.800000 3.900000 4.000000 4.100000 4.200000 4.300000 4.400000 4.500000 4.600000 4.700000 4.800000 4.900000 5.000000 5.100000 5.200000 5.300000 5.400000 5.500000 5.600000 5.700000 5.800000 5.900000 6.000000 6.100000 6.200000 6.300000 6.400000 6.500000 6.600000 6.700000 6.800000 6.900000 7.000000 7.100000 7.200000 7.300000 7.400000 7.500000 7.600000 7.700000 7.800000 7.900000 8.000000 8.100000 8.200000 8.300000 8.400000 8.500000 8.600000 8.700000 8.800000 8.900000 9.000000 9.100000 9.200000 9.300000 9.400000 9.500000 9.600000 9.700000 9.800000 9.900000 10.000000 10.100000 
Y_COORDINATES 22 double
0.000000 0.100000 0.200000 0.300000 0.400000 0.500000 0.600000 0.700000 0.800000 0.900000 1.000000 1.100000 1.200000 1.300000 1.400000 1.500000 1.600000 1.700000 1.800000 1.900000 2.000000 2.100000 
Z_COORDINATES 1 double
0.0
POINT_DATA 2244
VECTORS Velocity double
0.000000e+00 0.000000e+00 0.0
-0.000000e+00 0.000000e+00 0.0
-0.000000e+00 0.000000e+00 0.0
-0.000000e+00 0.000000e+00 0.0
-0.000000e+00 0.000000e+00 0.0
-0.000000e+00 0.000000e+00 0.0
-0.000000e+00 0.000000e+00 0.0
-0.000000e+00 0.000000e+00 0.0
-0.000000e+00 0.000000e+00 0.0
-0.000000e+00 0.000000e+00 0.0
-0.000000e+00 0.000000e+00 0.0
4.943093e-04 0.000000e+00 0.0
4.842564e-03 0.000000e+00 0.0
1.154163e-02 0.000000e+00 0.0
1.939911e-02 0.000000e+00 0.0
2.801860e-02 0.000000e+00 0.0
3.747908e-02 0.000000e+00 0.0
4.805368e-02 0.000000e+00 0.0
6.007976e-02 0.000000e+00 0.0
7.389785e-02 0.000000e+00 0.0
8.978387e-02 0.000000e+00 0.0
1.078483e-01 0.000000e+00 0.0
1.278775e-01 0.000000e+00 0.0
1.491551e-01 0.000000e+00 0.0
1.702521e-01 0.000000e+00 0.0
1.886958e-01 0.000000e+00 0.0
2.012520e-01 0.000000e+00 0.0
2.041273e-01 0.000000e+00 0.0
1.940479e-01 0.000000e+00 0.0
1.698297e-01 0.000000e+00 0.0
1.323730e-01 0.000000e+00 0.0
8.536804e-02 0.000000e+00 0.0
3.183904e-02 0.000000e+00 0.0
-2.262208e-02 0.000000e+00 0.0
-7.042097e-02 0.000000e+00 0.0
-1.088654e-01 0.000000e+00 0.0
-1.378061e-01 0.000000e+00 0.0
-1.581857e-01 0.000000e+00 0.0
-1.713685e-01 0.000000e+00 0.0
-1.788146e-01 0.000000e+00 0.0
-1.819241e-01 0.000000e+00 0.0
-1.819687e-01 0.000000e+00 0.0
-1.798253e-01 0.000000e+00 0.0
-1.760282e-01 0.000000e+00 0.0
-1.711382e-01 0.000000e+00 0.0
-1.656352e-01 0.000000e+00 0.0
-1.598865e-01 0.000000e+00 0.0
-1.541553e-01 0.000000e+00 0.0
-1.485925e-01 0.000000e+00 0.0
-1.432949e-01 0.000000e+00 0.0
-1.383145e-01 0.000000e+00 0.0
-1.336738e-01 0.000000e+00 0.0
-1.293762e-01 0.000000e+00 0.0
-1.254132e-01 0.000000e+00 0.0
-1.217695e-01 0.000000e+00 0.0
-1.184265e-01 0.000000e+00 0.0
-1.153639e-01 0.000000e+00 0.0
-1.125612e-01 0.000000e+00 0.0
-1.099983e-01 0.000000e+00 0.0
-1.076561e-01 0.000000e+00 0.0
-1.055160e-01 0.000000e+00 0.0
-1.035610e-01 0.000000e+00 0.0
-1.017747e-01 0.000000e+00 0.0
-1.001420e-01 0.000000e+00 0.0
-9.864862e-02 0.000000e+00 0.0
-9.728145e-02 0.000000e+00 0.0
-9.602828e-02 0.000000e+00 0.0
-9.487781e-02 0.000000e+00 0.0
-9.381966e-02 0.000000e+00 0.0
-9.284428e-02 0.000000e+00 0.0
-9.194293e-02 0.000000e+00 0.0
-9.110762e-02 0.000000e+00 0.0
-9.033111e-02 0.000000e+00 0.0
-8.960683e-02 0.000000e+00 0.0
-8.892887e-02 0.000000e+00 0.0
-8.829195e-02 0.000000e+00 0.0
-8.769142e-02 0.000000e+00 0.0
-8.712322e-02 0.000000e+00 0.0
-8.658390e-02 0.000000e+00 0.0
-8.607060e-02 0.000000e+00 0.0
-8.558109e-02 0.000000e+00 0.0
-8.511373e-02 0.000000e+00 0.0
-8.466756e-02 0.000000e+00 0.0
-8.424225e-02 0.000000e+00 0.0
-8.383819e-02 0.000000e+00 0.0
-8.345649e-02 0.000000e+00 0.0
-8.309900e-02 0.000000e+00 0.0
-8.276831e-02 0.000000e+00 0.0
-8.246783e-02 0.000000e+00 0.0
-8.220168e-02 0.000000e+00 0.0
-8.197470e-02 0.000000e+00 0.0
-8.179227e-02 0.000000e+00 0.0
-8.166009e-02 0.000000e+00 0.0
-8.158371e-02 0.000000e+00 0.0
-8.156780e-02 0.000000e+00 0.0
-8.161474e-02 0.000000e+00 0.0
-8.171792e-02 0.000000e+00 0.0
-8.185798e-02 0.000000e+00 0.0
-8.200085e-02 0.000000e+00 0.0
-8.208370e-02 0.000000e+00 0.0
-8.208370e-02 0.000000e+00 0.0
0.000000e+00 0.000000e+00 0.0
0.000000e+00 0.000000e+00 0.0
0.000000e+00 0.000000e+00 0.0
0.000000e+00 0.000000e+00 0.0
0.000000e+00 0.000000e+00 0.0
0.000000e+00 0.000000e+00 0.0
0.000000e+00 0.000000e+00 0.0
0.000000e+00 0.000000e+00 0.0
0.000000e+00 0.000000e+00 0.0
0.000000e+00 0.000000e+00 0.0
0.000000e+00 0.000000e+00 0.0
0.000000e+00 -5.634674e-04 0.0
-4.945863e-04 5.630393e-04 0.0
-4.843001e-03 4.387775e-03 0.0
-1.154253e-02 6.738891e-03 0.0
-1.940080e-02 7.897629e-03 0.0
-2.802147e-02 8.660029e-03 0.0
-3.748360e-02 9.501491e-03 0.0
-4.806041e-02 1.061617e-02 0.0
-6.008937e-02 1.206832e-02 0.0
-7.391104e-02 1.386103e-02 0.0
-8.980132e-02 1.592964e-02 0.0
-1.078705e-01 1.810857e-02 0.0
-1.279046e-01 2.007346e-02 0.0
-1.491866e-01 2.132130e-02 0.0
-1.702862e-01 2.113900e-02 0.0
-1.887292e-01 1.848233e-02 0.0
-2.012796e-01 1.258979e-02 0.0
-2.041427e-01 2.902451e-03 0.0
-1.940458e-01 -1.005757e-02 0.0
-1.698063e-01 -2.420008e-02 0.0
-1.323300e-01 -3.743700e-02 0.0
-8.530938e-02 -4.698121e-02 0.0
-3.176698e-02 -5.350304e-02 0.0
2.269882e-02 -5.442644e-02 0.0
7.049211e-02 -4.775393e-02 0.0
1.089272e-01 -3.839568e-02 0.0
1.378577e-01 -2.889115e-02 0.0
1.582274e-01 -2.033035e-02 0.0
1.714015e-01 -1.313478e-02 0.0
1.788402e-01 -7.399283e-03 0.0
1.819439e-01 -3.064341e-03 0.0
1.819841e-01 -8.520445e-07 0.0
1.798370e-01 2.186496e-03 0.0
1.760370e-01 3.839358e-03 0.0
1.711449e-01 4.931456e-03 0.0
1.656405e-01 5.543779e-03 0.0
1.598909e-01 5.788986e-03 0.0
1.541592e-01 5.771027e-03 0.0
1.485962e-01 5.602367e-03 0.0
1.432986e-01 5.336954e-03 0.0
1.383183e-01 5.019675e-03 0.0
1.336779e-01 4.679784e-03 0.0
1.293806e-01 4.336659e-03 0.0
1.254179e-01 4.002013e-03 0.0
1.217747e-01 3.682600e-03 0.0
1.184321e-01 3.381947e-03 0.0
1.153700e-01 3.101533e-03 0.0
1.125677e-01 2.841612e-03 0.0
1.100053e-01 2.601746e-03 0.0
1.076636e-01 2.381146e-03 0.0
1.055241e-01 2.178854e-03 0.0
1.035696e-01 1.993844e-03 0.0
1.017839e-01 1.825068e-03 0.0
1.001518e-01 1.671485e-03 0.0
9.865909e-02 1.532070e-03 0.0
9.729264e-02 1.405825e-03 0.0
9.604023e-02 1.291783e-03 0.0
9.489058e-02 1.189016e-03 0.0
9.383332e-02 1.096634e-03 0.0
9.285890e-02 1.013789e-03 0.0
9.195859e-02 9.396765e-04 0.0
9.112443e-02 8.735342e-04 0.0
9.034916e-02 8.146385e-04 0.0
8.962623e-02 7.623015e-04 0.0
8.894974e-02 7.158662e-04 0.0
8.831441e-02 6.747006e-04 0.0
8.771559e-02 6.381915e-04 0.0
8.714923e-02 6.057375e-04 0.0
8.661186e-02 5.767427e-04 0.0
8.610062e-02 5.506096e-04 0.0
8.561326e-02 5.267330e-04 0.0
8.514814e-02 5.044939e-04 0.0
8.470426e-02 4.832538e-04 0.0
8.428128e-02 4.623499e-04 0.0
8.387956e-02 4.410926e-04 0.0
8.350017e-02 4.187645e-04 0.0
8.314492e-02 3.946225e-04 0.0
8.281639e-02 3.679035e-04 0.0
8.251793e-02 3.378368e-04 0.0
8.225364e-02 3.036679e-04 0.0
8.202831e-02 2.647005e-04 0.0
8.184731e-02 2.203716e-04 0.0
8.171631e-02 1.703735e-04 0.0
8.164085e-02 1.148385e-04 0.0
8.162561e-02 5.461253e-05 0.0
8.167301e-02 -8.021370e-06 0.0
8.177640e-02 -6.402094e-05 0.0
8.191648e-02 -1.007028e-04 0.0
8.205933e-02 -1.034820e-04 0.0
8.214233e-02 -4.362615e-05 0.0
8.208370e-02 9.800402e-05 0.0
0.000000e+00 9.894747e-05 0.0
0.000000e+00 0.000000e+00 0.0
0.000000e+00 0.000000e+00 0.0
0.000000e+00 0.000000e+00 0.0
0.000000e+00 0.000000e+00 0.0
0.000000e+00 0.000000e+00 0.0
0.000000e+00 0.000000e+00 0.0
0.000000e+00 0.000000e+00 0.0
0.000000e+00 0.000000e+00 0.0
0.000000e+00 0.000000e+00 0.0
0.000000e+00 0.000000e+00 0.0
0.000000e+00 -6.306377e-03 0.0
-5.704042e-03 6.306441e-03 0.0
-1.915126e-02 1.784526e-02 0.0
-3.679041e-02 2.438831e-02 0.0
-5.647420e-02 2.759168e-02 0.0
-7.737913e-02 2.957523e-02 0.0
-9.941371e-02 3.154634e-02 0.0
-1.227220e-01 3.393469e-02 0.0
-1.474077e-01 3.676430e-02 0.0
-1.733690e-01 3.983266e-02 0.0
-2.001508e-01 4.272172e-02 0.0
-2.268289e-01 4.479686e-02 0.0
-2.518481e-01 4.510297e-02 0.0
-2.729145e-01 4.239793e-02 0.0
-2.869849e-01 3.521971e-02 0.0
-2.904945e-01 2.200219e-02 0.0
-2.791252e-01 1.230710e-03 0.0
-2.494354e-01 -2.677703e-02 0.0
-2.021442e-01 -5.733847e-02 0.0
-1.400667e-01 -8.626736e-02 0.0
-6.548107e-02 -1.120124e-01 0.0
1.682622e-02 -1.292782e-01 0.0
9.741036e-02 -1.340769e-01 0.0
1.696050e-01 -1.266108e-01 0.0
2.329482e-01 -1.110869e-01 0.0
2.866635e-01 -9.210072e-02 0.0
3.305487e-01 -7.276612e-02 0.0
3.650403e-01 -5.481166e-02 0.0
3.909714e-01 -3.905558e-02 0.0
4.093709e-01 -2.578857e-02 0.0
4.213286e-01 -1.501173e-02 0.0
4.279012e-01 -6.563220e-03 0.0
4.302711e-01 -1.731273e-04 0.0
4.294399e-01 4.680808e-03 0.0
4.260655e-01 8.316205e-03 0.0
4.207452e-01 1.087428e-02 0.0
4.139849e-01 1.255958e-02 0.0
4.061906e-01 1.357556e-02 0.0
3.977466e-01 1.405668e-02 0.0
3.889701e-01 1.412366e-02 0.0
3.800913e-01 1.390883e-02 0.0
3.712827e-01 1.349863e-02 0.0
3.626685e-01 1.296112e-02 0.0
3.543358e-01 1.234496e-02 0.0
3.463430e-01 1.168567e-02 0.0
3.387266e-01 1.100868e-02 0.0
3.315065e-01 1.033190e-02 0.0
3.246906e-01 9.667758e-03 0.0
3.182778e-01 9.024770e-03 0.0
3.122606e-01 8.408676e-03 0.0
3.066265e-01 7.823219e-03 0.0
3.013599e-01 7.270688e-03 0.0
2.964430e-01 6.752284e-03 0.0
2.918563e-01 6.268397e-03 0.0
2.875799e-01 5.818801e-03 0.0
2.835931e-01 5.402807e-03 0.0
2.798758e-01 5.019385e-03 0.0
2.764078e-01 4.667255e-03 0.0
2.731698e-01 4.344967e-03 0.0
2.701429e-01 4.050954e-03 0.0
2.673093e-01 3.783579e-03 0.0
2.646519e-01 3.541168e-03 0.0
2.621548e-01 3.322027e-03 0.0
2.598029e-01 3.124460e-03 0.0
2.575823e-01 2.946766e-03 0.0
2.554800e-01 2.787243e-03 0.0
2.534843e-01 2.644181e-03 0.0
2.515844e-01 2.515846e-03 0.0
2.497710e-01 2.400472e-03 0.0
2.480356e-01 2.296248e-03 0.0
2.463713e-01 2.201298e-03 0.0
2.447724e-01 2.113671e-03 0.0
2.432346e-01 2.031328e-03 0.0
2.417551e-01 1.952125e-03 0.0
2.403327e-01 1.873810e-03 0.0
2.389677e-01 1.794021e-03 0.0
2.376623e-01 1.710293e-03 0.0
2.364204e-01 1.620072e-03 0.0
2.352477e-01 1.520746e-03 0.0
2.341520e-01 1.409704e-03 0.0
2.331425e-01 1.284437e-03 0.0
2.322304e-01 1.142731e-03 0.0
2.314281e-01 9.829925e-04 0.0
2.307483e-01 8.048381e-04 0.0
2.302031e-01 6.101654e-04 0.0
2.298000e-01 4.053096e-04 0.0
2.295404e-01 2.058617e-04 0.0
2.294103e-01 3.969887e-05 0.0
2.293660e-01 -4.896298e-05 0.0
2.293286e-01 4.067283e-06 0.0
2.291603e-01 2.765638e-04 0.0
0.000000e+00 2.789142e-04 0.0
0.000000e+00 0.000000e+00 0.0
0.000000e+00 0.000000e+00 0.0
0.000000e+00 0.000000e+00 0.0
0.000000e+00 0.000000e+00 0.0
0.000000e+00 0.000000e+00 0.0
0.000000e+00 0.000000e+00 0.0
0.000000e+00 0.000000e+00 0.0
0.000000e+00 0.000000e+00 0.0
0.000000e+00 0.000000e+00 0.0
0.000000e+00 0.000000e+00 0.0
0.000000e+00 -1.679473e-02 0.0
-1.044990e-02 1.679570e-02 0.0
-3.094111e-02 3.834675e-02 0.0
-5.533662e-02 4.879408e-02 0.0
-8.070575e-02 5.297108e-02 0.0
-1.059553e-01 5.483509e-02 0.0
-1.307399e-01 5.634118e-02 0.0
-1.548577e-01 5.806271e-02 0.0
-1.779962e-01 5.991314e-02 0.0
-1.996087e-01 6.145534e-02 0.0
-2.187733e-01 6.189663e-02 0.0
-2.342148e-01 6.024860e-02 0.0
-2.441973e-01 5.509579e-02 0.0
-2.464659e-01 4.467678e-02 0.0
-2.373393e-01 2.610337e-02 0.0
-2.108408e-01 -4.486009e-03 0.0
-1.658236e-01 -4.377625e-02 0.0
-1.035280e-01 -8.906232e-02 0.0
-2.671780e-02 -1.341384e-01 0.0
5.889931e-02 -1.718742e-01 0.0
1.432741e-01 -1.963768e-01 0.0
2.215857e-01 -2.075796e-01 0.0
2.912681e-01 -2.037491e-01 0.0
3.521646e-01 -1.874969e-01 0.0
4.052611e-01 -1.641732e-01 0.0
4.510703e-01 -1.378997e-01 0.0
4.898516e-01 -1.115371e-01 0.0
5.218903e-01 -8.684002e-02 0.0
5.475874e-01 -6.474249e-02 0.0
5.674478e-01 -4.563860e-02 0.0
5.820394e-01 -2.959316e-02 0.0
5.919647e-01 -1.647824e-02 0.0
5.978575e-01 -6.055642e-03 0.0
6.005519e-01 1.996659e-03 0.0
6.006296e-01 8.248784e-03 0.0
5.985605e-01 1.295364e-02 0.0
5.947433e-01 1.638707e-02 0.0
5.895295e-01 1.879965e-02 0.0
5.832004e-01 2.039611e-02 0.0
5.759741e-01 2.136015e-02 0.0
5.680857e-01 2.180753e-02 0.0
5.597593e-01 2.183529e-02 0.0
5.511726e-01 2.155814e-02 0.0
5.424707e-01 2.105713e-02 0.0
5.337698e-01 2.039684e-02 0.0
5.251616e-01 1.962714e-02 0.0
5.167176e-01 1.878617e-02 0.0
5.084924e-01 1.790316e-02 0.0
5.005269e-01 1.700062e-02 0.0
4.928499e-01 1.609594e-02 0.0
4.854808e-01 1.520257e-02 0.0
4.784309e-01 1.433080e-02 0.0
4.717051e-01 1.348837e-02 0.0
4.653028e-01 1.268099e-02 0.0
4.592192e-01 1.191269e-02 0.0
4.534462e-01 1.118610e-02 0.0
4.479731e-01 1.050277e-02 0.0
4.427872e-01 9.863338e-03 0.0
4.378747e-01 9.267745e-03 0.0
4.332206e-01 8.715357e-03 0.0
4.288094e-01 8.205099e-03 0.0
4.246252e-01 7.735550e-03 0.0
4.206525e-01 7.305019e-03 0.0
4.168757e-01 6.911593e-03 0.0
4.132795e-01 6.553180e-03 0.0
4.098495e-01 6.227523e-03 0.0
4.065717e-01 5.932214e-03 0.0
4.034332e-01 5.664690e-03 0.0
4.004217e-01 5.422226e-03 0.0
3.975263e-01 5.201916e-03 0.0
3.947372e-01 5.000667e-03 0.0
3.920460e-01 4.815169e-03 0.0
3.894457e-01 4.641885e-03 0.0
3.869311e-01 4.477026e-03 0.0
3.844986e-01 4.316538e-03 0.0
3.821468e-01 4.156106e-03 0.0
3.798762e-01 3.991162e-03 0.0
3.776896e-01 3.816905e-03 0.0
3.755923e-01 3.628344e-03 0.0
3.735919e-01 3.420378e-03 0.0
3.716987e-01 3.187927e-03 0.0
3.699255e-01 2.926189e-03 0.0
3.682877e-01 2.631083e-03 0.0
3.668027e-01 2.300064e-03 0.0
3.654895e-01 1.933624e-03 0.0
3.643670e-01 1.538121e-03 0.0
3.634521e-01 1.131021e-03 0.0
3.627538e-01 7.482891e-04 0.0
3.622599e-01 4.551948e-04 0.0
3.619272e-01 3.470008e-04 0.0
3.616759e-01 5.381851e-04 0.0
0.000000e+00 5.426188e-04 0.0
0.000000e+00 0.000000e+00 0.0
0.000000e+00 0.000000e+00 0.0
0.000000e+00 0.000000e+00 0.0
0.000000e+00 0.000000e+00 0.0
0.000000e+00 0.000000e+00 0.0
0.000000e+00 0.000000e+00 0.0
0.000000e+00 0.000000e+00 0.0
0.000000e+00 0.000000e+00 0.0
0.000000e+00 0.000000e+00 0.0
0.000000e+00 0.000000e+00 0.0
0.000000e+00 -2.981917e-02 0.0
-1.298588e-02 2.982094e-02 0.0
-3.632128e-02 6.169241e-02 0.0
-6.179880e-02 7.428188e-02 0.0
-8.607618e-02 7.725873e-02 0.0
-1.080866e-01 7.685578e-02 0.0
-1.274333e-01 7.569813e-02 0.0
-1.437968e-01 7.443655e-02 0.0
-1.567670e-01 7.289357e-02 0.0
-1.658111e-01 7.050974e-02 0.0
-1.700099e-01 6.610564e-02 0.0
-1.680625e-01 5.831149e-02 0.0
-1.575720e-01 4.461553e-02 0.0
-1.355418e-01 2.265689e-02 0.0
-9.443820e-02 -1.498998e-02 0.0
-3.403537e-02 -6.487857e-02 0.0
4.268086e-02 -1.204822e-01 0.0
1.265154e-01 -1.728865e-01 0.0
2.105535e-01 -2.181663e-01 0.0
2.899877e-01 -2.512981e-01 0.0
3.624535e-01 -2.688324e-01 0.0
4.253069e-01 -2.704227e-01 0.0
4.780855e-01 -2.565174e-01 0.0
5.231504e-01 -2.325515e-01 0.0
5.620359e-01 -2.030484e-01 0.0
5.956351e-01 -1.714887e-01 0.0
6.244480e-01 -1.403397e-01 0.0
6.487947e-01 -1.111764e-01 0.0
6.689443e-01 -8.488187e-02 0.0
6.851706e-01 -6.185462e-02 0.0
6.977684e-01 -4.218068e-02 0.0
7.070582e-01 -2.575778e-02 0.0
7.133857e-01 -1.237289e-02 0.0
7.171464e-01 -1.753741e-03 0.0
7.188329e-01 6.572577e-03 0.0
7.187792e-01 1.301754e-02 0.0
7.172496e-01 1.792692e-02 0.0
7.144700e-01 2.158953e-02 0.0
7.106333e-01 2.424308e-02 0.0
7.059180e-01 2.608572e-02 0.0
7.004652e-01 2.727065e-02 0.0
6.943777e-01 2.793299e-02 0.0
6.877917e-01 2.815445e-02 0.0
6.808367e-01 2.802240e-02 0.0
6.736229e-01 2.762096e-02 0.0
6.662442e-01 2.701609e-02 0.0
6.587809e-01 2.625975e-02 0.0
6.513010e-01 2.539334e-02 0.0
6.438616e-01 2.445027e-02 0.0
6.365100e-01 2.345780e-02 0.0
6.292847e-01 2.243818e-02 0.0
6.222162e-01 2.140953e-02 0.0
6.153283e-01 2.038653e-02 0.0
6.086386e-01 1.938093e-02 0.0
6.021596e-01 1.840201e-02 0.0
5.958990e-01 1.745694e-02 0.0
5.898609e-01 1.655112e-02 0.0
5.840461e-01 1.568846e-02 0.0
5.784525e-01 1.487160e-02 0.0
5.730759e-01 1.410217e-02 0.0
5.679104e-01 1.338092e-02 0.0
5.629484e-01 1.270787e-02 0.0
5.581812e-01 1.208248e-02 0.0
5.535994e-01 1.150365e-02 0.0
5.491929e-01 1.096988e-02 0.0
5.449515e-01 1.047925e-02 0.0
5.408645e-01 1.002947e-02 0.0
5.369216e-01 9.617899e-03 0.0
5.331125e-01 9.241522e-03 0.0
5.294278e-01 8.896960e-03 0.0
5.258583e-01 8.580446e-03 0.0
5.223959e-01 8.287809e-03 0.0
5.190336e-01 8.014450e-03 0.0
5.157656e-01 7.755306e-03 0.0
5.125876e-01 7.504837e-03 0.0
5.094969e-01 7.257023e-03 0.0
5.064930e-01 7.005372e-03 0.0
5.035772e-01 6.742942e-03 0.0
5.007534e-01 6.462382e-03 0.0
4.980281e-01 6.156003e-03 0.0
4.954104e-01 5.815908e-03 0.0
4.929126e-01 5.434237e-03 0.0
4.905504e-01 5.003587e-03 0.0
4.883429e-01 4.517798e-03 0.0
4.863134e-01 3.973393e-03 0.0
4.844896e-01 3.372239e-03 0.0
4.829045e-01 2.726399e-03 0.0
4.815968e-01 2.066252e-03 0.0
4.806082e-01 1.454046e-03 0.0
4.799654e-01 1.000093e-03 0.0
4.796691e-01 8.447190e-04 0.0
0.000000e+00 8.518015e-04 0.0
0.000000e+00 0.000000e+00 0.0
0.000000e+00 0.000000e+00 0.0
0.000000e+00 0.000000e+00 0.0
0.000000e+00 0.000000e+00 0.0
0.000000e+00 0.000000e+00 0.0
0.000000e+00 0.000000e+00 0.0
0.000000e+00 0.000000e+00 0.0
0.000000e+00 0.000000e+00 0.0
0.000000e+00 0.000000e+00 0.0
0.000000e+00 0.000000e+00 0.0
0.000000e+00 -4.327929e-02 0.0
-1.342111e-02 4.328141e-02 0.0
-3.538946e-02 8.367103e-02 0.0
-5.675637e-02 9.565905e-02 0.0
-7.460448e-02 9.511711e-02 0.0
-8.827115e-02 9.053272e-02 0.0
-9.753388e-02 8.497112e-02 0.0
-1.021515e-01 7.906447e-02 0.0
-1.016451e-01 7.239745e-02 0.0
-9.555612e-02 6.443098e-02 0.0
-8.228468e-02 5.284448e-02 0.0
-5.990353e-02 3.594060e-02 0.0
-2.184785e-02 6.570114e-03 0.0
3.749578e-02 -3.667647e-02 0.0
1.113217e-01 -8.880566e-02 0.0
1.932884e-01 -1.468350e-01 0.0
2.772807e-01 -2.044642e-01 0.0
3.589730e-01 -2.545686e-01 0.0
4.337085e-01 -2.928916e-01 0.0
4.988143e-01 -3.163936e-01 0.0
5.535050e-01 -3.235128e-01 0.0
5.971071e-01 -3.140145e-01 0.0
6.326916e-01 -2.920917e-01 0.0
6.624811e-01 -2.623307e-01 0.0
6.879382e-01 -2.284952e-01 0.0
7.099418e-01 -1.934820e-01 0.0
7.289901e-01 -1.593778e-01 0.0
7.453575e-01 -1.275335e-01 0.0
7.592087e-01 -9.872278e-02 0.0
7.706694e-01 -7.330506e-02 0.0
7.798637e-01 -5.136466e-02 0.0
7.869354e-01 -3.281927e-02 0.0
7.920429e-01 -1.747008e-02 0.0
7.953586e-01 -5.059179e-03 0.0
7.972020e-01 4.739366e-03 0.0
7.977871e-01 1.244273e-02 0.0
7.972820e-01 1.844227e-02 0.0
7.958285e-01 2.305333e-02 0.0
7.935508e-01 2.653102e-02 0.0
7.905630e-01 2.908379e-02 0.0
7.869633e-01 3.088066e-02 0.0
7.828430e-01 3.206351e-02 0.0
7.782647e-01 3.274303e-02 0.0
7.732899e-01 3.300755e-02 0.0
7.679942e-01 3.292687e-02 0.0
7.624457e-01 3.257484e-02 0.0
7.567056e-01 3.201019e-02 0.0
7.508286e-01 3.128059e-02 0.0
7.448636e-01 3.042557e-02 0.0
7.388532e-01 2.947838e-02 0.0
7.328348e-01 2.846692e-02 0.0
7.268400e-01 2.741461e-02 0.0
7.208958e-01 2.634100e-02 0.0
7.150246e-01 2.526233e-02 0.0
7.092450e-01 2.419193e-02 0.0
7.035716e-01 2.314063e-02 0.0
6.980159e-01 2.211711e-02 0.0
6.925864e-01 2.112819e-02 0.0
6.872892e-01 2.017910e-02 0.0
6.821279e-01 1.927371e-02 0.0
6.771043e-01 1.841477e-02 0.0
6.722184e-01 1.760402e-02 0.0
6.674688e-01 1.684237e-02 0.0
6.628527e-01 1.612998e-02 0.0
6.583665e-01 1.546638e-02 0.0
6.540056e-01 1.485047e-02 0.0
6.497647e-01 1.428061e-02 0.0
6.456383e-01 1.375459e-02 0.0
6.416204e-01 1.326967e-02 0.0
6.377051e-01 1.282255e-02 0.0
6.338865e-01 1.240932e-02 0.0
6.301591e-01 1.202551e-02 0.0
6.265178e-01 1.166600e-02 0.0
6.229583e-01 1.132502e-02 0.0
6.194774e-01 1.099603e-02 0.0
6.160729e-01 1.067182e-02 0.0
6.127441e-01 1.034444e-02 0.0
6.094921e-01 1.000526e-02 0.0
6.063198e-01 9.644926e-03 0.0
6.032326e-01 9.253487e-03 0.0
6.002383e-01 8.820427e-03 0.0
5.973480e-01 8.334848e-03 0.0
5.945761e-01 7.785769e-03 0.0
5.919415e-01 7.162664e-03 0.0
5.894687e-01 6.456470e-03 0.0
5.871897e-01 5.661435e-03 0.0
5.851479e-01 4.778483e-03 0.0
5.834033e-01 3.821195e-03 0.0
5.820408e-01 2.826790e-03 0.0
5.811739e-01 1.877261e-03 0.0
5.808744e-01 1.154515e-03 0.0
0.000000e+00 1.164560e-03 0.0
0.000000e+00 0.000000e+00 0.0
0.000000e+00 0.000000e+00 0.0
0.000000e+00 0.000000e+00 0.0
0.000000e+00 0.000000e+00 0.0
0.000000e+00 0.000000e+00 0.0
0.000000e+00 0.000000e+00 0.0
0.000000e+00 0.000000e+00 0.0
0.000000e+00 0.000000e+00 0.0
0.000000e+00 0.000000e+00 0.0
0.000000e+00 0.000000e+00 0.0
0.000000e+00 -5.644907e-02 0.0
-1.313030e-02 5.645107e-02 0.0
-3.057881e-02 1.011298e-01 0.0
-4.363932e-02 1.087298e-01 0.0
-5.100521e-02 1.024933e-01 0.0
-5.268878e-02 9.222656e-02 0.0
-4.877018e-02 8.106279e-02 0.0
-3.907255e-02 6.937711e-02 0.0
-2.224328e-02 5.557844e-02 0.0
3.003948e-03 3.919402e-02 0.0
4.103683e-02 1.482186e-02 0.0
9.732786e-02 -2.034016e-02 0.0
1.688238e-01 -6.491559e-02 0.0
2.500037e-01 -1.178461e-01 0.0
3.361068e-01 -1.748985e-01 0.0
4.209988e-01 -2.317167e-01 0.0
4.995515e-01 -2.830066e-01 0.0
5.686841e-01 -3.236909e-01 0.0
6.264048e-01 -3.506020e-01 0.0
6.721695e-01 -3.621481e-01 0.0
7.063585e-01 -3.576915e-01 0.0
7.317485e-01 -3.393942e-01 0.0
7.512529e-01 -3.115859e-01 0.0
7.669317e-01 -2.779992e-01 0.0
7.801147e-01 -2.416680e-01 0.0
7.915777e-01 -2.049347e-01 0.0
8.017420e-01 -1.695319e-01 0.0
8.107852e-01 -1.365665e-01 0.0
8.187493e-01 -1.066766e-01 0.0
8.256175e-01 -8.016301e-02 0.0
8.313604e-01 -5.709730e-02 0.0
8.359788e-01 -3.742736e-02 0.0
8.394853e-01 -2.096638e-02 0.0
8.419180e-01 -7.481566e-03 0.0
8.433727e-01 3.294951e-03 0.0
8.439753e-01 1.185039e-02 0.0
8.438197e-01 1.860813e-02 0.0
8.429883e-01 2.389498e-02 0.0
8.415578e-01 2.797183e-02 0.0
8.396006e-01 3.105121e-02 0.0
8.371837e-01 3.330789e-02 0.0
8.343698e-01 3.488761e-02 0.0
8.312128e-01 3.591035e-02 0.0
8.277546e-01 3.647602e-02 0.0
8.240270e-01 3.666472e-02 0.0
8.200712e-01 3.654089e-02 0.0
8.159263e-01 3.616539e-02 0.0
8.116290e-01 3.558816e-02 0.0
8.072132e-01 3.485168e-02 0.0
8.027093e-01 3.399255e-02 0.0
7.981445e-01 3.304196e-02 0.0
7.935429e-01 3.202646e-02 0.0
7.889256e-01 3.096861e-02 0.0
7.843108e-01 2.988739e-02 0.0
7.797143e-01 2.879870e-02 0.0
7.751495e-01 2.771571e-02 0.0
7.706276e-01 2.664922e-02 0.0
7.661581e-01 2.560801e-02 0.0
7.617484e-01 2.459906e-02 0.0
7.574045e-01 2.362786e-02 0.0
7.531310e-01 2.269859e-02 0.0
7.489310e-01 2.181432e-02 0.0
7.448065e-01 2.097711e-02 0.0
7.407586e-01 2.018818e-02 0.0
7.367873e-01 1.944796e-02 0.0
7.328918e-01 1.875617e-02 0.0
7.290709e-01 1.811182e-02 0.0
7.253225e-01 1.751328e-02 0.0
7.216442e-01 1.695821e-02 0.0
7.180334e-01 1.644359e-02 0.0
7.144874e-01 1.596566e-02 0.0
7.110032e-01 1.551992e-02 0.0
7.075783e-01 1.510114e-02 0.0
7.042104e-01 1.470318e-02 0.0
7.008978e-01 1.431896e-02 0.0
6.976394e-01 1.394050e-02 0.0
6.944352e-01 1.355886e-02 0.0
6.912866e-01 1.316416e-02 0.0
6.881962e-01 1.274559e-02 0.0
6.851686e-01 1.229135e-02 0.0
6.822106e-01 1.178875e-02 0.0
6.793315e-01 1.122419e-02 0.0
6.765442e-01 1.058331e-02 0.0
6.738660e-01 9.851158e-03 0.0
6.713202e-01 9.012539e-03 0.0
6.689392e-01 8.052729e-03 0.0
6.667692e-01 6.958703e-03 0.0
6.648792e-01 5.721531e-03 0.0
6.633742e-01 4.342006e-03 0.0
6.624105e-01 2.851262e-03 0.0
6.621434e-01 1.431855e-03 0.0
0.000000e+00 1.444833e-03 0.0
0.000000e+00 0.000000e+00 0.0
0.000000e+00 0.000000e+00 0.0
0.000000e+00 0.000000e+00 0.0
0.000000e+00 0.000000e+00 0.0
0.000000e+00 0.000000e+00 0.0
0.000000e+00 0.000000e+00 0.0
0.000000e+00 0.000000e+00 0.0
0.000000e+00 0.000000e+00 0.0
0.000000e+00 0.000000e+00 0.0
0.000000e+00 0.000000e+00 0.0
0.000000e+00 -7.014371e-02 0.0
-1.365500e-02 7.014543e-02 0.0
-2.305627e-02 1.105413e-01 0.0
-2.266435e-02 1.083482e-01 0.0
-1.450284e-02 9.434202e-02 0.0
7.566367e-04 7.697735e-02 0.0
2.325742e-02 5.857228e-02 0.0
5.317330e-02 3.947150e-02 0.0
9.391714e-02 1.484487e-02 0.0
1.504567e-01 -1.733529e-02 0.0
2.211592e-01 -5.587034e-02 0.0
3.018682e-01 -1.010389e-01 0.0
3.884733e-01 -1.515104e-01 0.0
4.756453e-01 -2.050079e-01 0.0
5.585982e-01 -2.578412e-01 0.0
6.329250e-01 -3.060332e-01 0.0
6.955295e-01 -3.456008e-01 0.0
7.450953e-01 -3.732465e-01 0.0
7.816173e-01 -3.871137e-01 0.0
8.060747e-01 -3.865952e-01 0.0
8.207605e-01 -3.723671e-01 0.0
8.292347e-01 -3.478582e-01 0.0
8.340921e-01 -3.164330e-01 0.0
8.371106e-01 -2.810074e-01 0.0
8.393947e-01 -2.439418e-01 0.0
8.415430e-01 -2.070727e-01 0.0
8.438704e-01 -1.718489e-01 0.0
8.464360e-01 -1.391218e-01 0.0
8.491592e-01 -1.093896e-01 0.0
8.518963e-01 -8.288985e-02 0.0
8.544825e-01 -5.967317e-02 0.0
8.568054e-01 -3.973998e-02 0.0
8.587480e-01 -2.289876e-02 0.0
8.602224e-01 -8.945718e-03 0.0
8.611811e-01 2.346584e-03 0.0
8.616312e-01 1.141050e-02 0.0
8.615934e-01 1.865620e-02 0.0
8.610991e-01 2.439954e-02 0.0
8.601871e-01 2.889413e-02 0.0
8.588999e-01 3.234866e-02 0.0
8.572809e-01 3.493717e-02 0.0
8.553726e-01 3.680619e-02 0.0
8.532141e-01 3.807909e-02 0.0
8.508401e-01 3.886031e-02 0.0
8.482773e-01 3.923780e-02 0.0
8.455458e-01 3.928268e-02 0.0
8.426685e-01 3.905297e-02 0.0
8.396687e-01 3.859824e-02 0.0
8.365684e-01 3.796220e-02 0.0
8.333875e-01 3.718375e-02 0.0
8.301437e-01 3.629602e-02 0.0
8.268529e-01 3.532757e-02 0.0
8.235289e-01 3.430283e-02 0.0
8.201841e-01 3.324253e-02 0.0
8.168289e-01 3.216411e-02 0.0
8.134728e-01 3.108215e-02 0.0
8.101235e-01 3.000873e-02 0.0
8.067880e-01 2.895376e-02 0.0
8.034721e-01 2.792528e-02 0.0
8.001805e-01 2.692972e-02 0.0
7.969172e-01 2.597212e-02 0.0
7.936855e-01 2.505634e-02 0.0
7.904877e-01 2.418518e-02 0.0
7.873256e-01 2.336052e-02 0.0
7.842004e-01 2.258340e-02 0.0
7.811128e-01 2.185407e-02 0.0
7.780629e-01 2.117203e-02 0.0
7.750504e-01 2.053606e-02 0.0
7.720747e-01 1.994417e-02 0.0
7.691350e-01 1.939357e-02 0.0
7.662302e-01 1.888068e-02 0.0
7.633593e-01 1.840106e-02 0.0
7.605213e-01 1.794951e-02 0.0
7.577150e-01 1.751975e-02 0.0
7.549398e-01 1.710436e-02 0.0
7.521957e-01 1.669486e-02 0.0
7.494832e-01 1.628169e-02 0.0
7.468035e-01 1.585410e-02 0.0
7.441592e-01 1.540021e-02 0.0
7.415539e-01 1.490687e-02 0.0
7.389933e-01 1.435965e-02 0.0
7.364850e-01 1.374276e-02 0.0
7.340396e-01 1.303893e-02 0.0
7.316719e-01 1.222919e-02 0.0
7.294021e-01 1.129260e-02 0.0
7.272594e-01 1.020565e-02 0.0
7.252871e-01 8.941302e-03 0.0
7.235515e-01 7.467448e-03 0.0
7.221574e-01 5.746303e-03 0.0
7.212672e-01 3.751767e-03 0.0
7.210576e-01 1.651752e-03 0.0
0.000000e+00 1.667285e-03 0.0
0.000000e+00 0.000000e+00 0.0
0.000000e+00 0.000000e+00 0.0
0.000000e+00 0.000000e+00 0.0
0.000000e+00 0.000000e+00 0.0
0.000000e+00 0.000000e+00 0.0
0.000000e+00 0.000000e+00 0.0
0.000000e+00 0.000000e+00 0.0
0.000000e+00 0.000000e+00 0.0
0.000000e+00 0.000000e+00 0.0
0.000000e+00 0.000000e+00 0.0
0.000000e+00 -8.390561e-02 0.0
-1.372230e-02 8.390709e-02 0.0
-5.878235e-03 1.027076e-01 0.0
1.830968e-02 8.417054e-02 0.0
5.112207e-02 6.153990e-02 0.0
9.133801e-02 3.677168e-02 0.0
1.415524e-01 8.368196e-03 0.0
2.048746e-01 -2.384043e-02 0.0
2.789751e-01 -5.924541e-02 0.0
3.604791e-01 -9.882898e-02 0.0
4.467329e-01 -1.421139e-01 0.0
5.339795e-01 -1.882753e-01 0.0
6.181649e-01 -2.356855e-01 0.0
6.951954e-01 -2.820282e-01 0.0
7.617151e-01 -3.243505e-01 0.0
8.153371e-01 -3.596450e-01 0.0
8.550033e-01 -3.852568e-01 0.0
8.810761e-01 -3.993089e-01 0.0
8.949545e-01 -4.009818e-01 0.0
8.986704e-01 -3.903009e-01 0.0
8.959619e-01 -3.696484e-01 0.0
8.897088e-01 -3.415948e-01 0.0
8.820297e-01 -3.087436e-01 0.0
8.743408e-01 -2.733082e-01 0.0
8.674733e-01 -2.370641e-01 0.0
8.618143e-01 -2.014035e-01 0.0
8.575680e-01 -1.675924e-01 0.0
8.546614e-01 -1.362050e-01 0.0
8.529078e-01 -1.076256e-01 0.0
8.520752e-01 -8.204706e-02 0.0
8.519301e-01 -5.951776e-02 0.0
8.522073e-01 -4.000690e-02 0.0
8.526977e-01 -2.337891e-02 0.0
8.532271e-01 -9.464820e-03 0.0
8.536534e-01 1.930530e-03 0.0
8.538792e-01 1.119494e-02 0.0
8.538584e-01 1.868732e-02 0.0
8.535756e-01 2.469254e-02 0.0
8.530350e-01 2.944506e-02 0.0
8.522518e-01 3.314207e-02 0.0
8.512480e-01 3.595130e-02 0.0
8.500481e-01 3.801632e-02 0.0
8.486773e-01 3.946018e-02 0.0
8.471594e-01 4.038851e-02 0.0
8.455156e-01 4.089185e-02 0.0
8.437616e-01 4.104689e-02 0.0
8.419098e-01 4.091509e-02 0.0
8.399741e-01 4.054417e-02 0.0
8.379683e-01 3.997832e-02 0.0
8.359050e-01 3.925732e-02 0.0
8.337954e-01 3.841590e-02 0.0
8.316491e-01 3.748407e-02 0.0
8.294747e-01 3.648756e-02 0.0
8.272792e-01 3.544825e-02 0.0
8.250690e-01 3.438458e-02 0.0
8.228495e-01 3.331197e-02 0.0
8.206252e-01 3.224326e-02 0.0
8.184003e-01 3.118899e-02 0.0
8.161780e-01 3.015778e-02 0.0
8.139615e-01 2.915657e-02 0.0
8.117530e-01 2.819088e-02 0.0
8.095546e-01 2.726495e-02 0.0
8.073681e-01 2.638200e-02 0.0
8.051946e-01 2.554424e-02 0.0
8.030353e-01 2.475305e-02 0.0
8.008906e-01 2.400898e-02 0.0
7.987611e-01 2.331183e-02 0.0
7.966468e-01 2.266060e-02 0.0
7.945478e-01 2.205351e-02 0.0
7.924636e-01 2.148796e-02 0.0
7.903941e-01 2.096045e-02 0.0
7.883389e-01 2.046655e-02 0.0
7.862975e-01 2.000123e-02 0.0
7.842693e-01 1.955816e-02 0.0
7.822543e-01 1.912962e-02 0.0
7.802526e-01 1.870687e-02 0.0
7.782646e-01 1.827991e-02 0.0
7.762915e-01 1.783748e-02 0.0
7.743351e-01 1.736694e-02 0.0
7.723980e-01 1.685420e-02 0.0
7.704844e-01 1.628358e-02 0.0
7.685998e-01 1.563763e-02 0.0
7.667522e-01 1.489679e-02 0.0
7.649527e-01 1.403890e-02 0.0
7.632174e-01 1.303824e-02 0.0
7.615693e-01 1.186395e-02 0.0
7.600438e-01 1.047713e-02 0.0
7.586955e-01 8.825982e-03 0.0
7.576121e-01 6.840006e-03 0.0
7.569291e-01 4.445003e-03 0.0
7.567904e-01 1.800718e-03 0.0
0.000000e+00 1.818176e-03 0.0
0.000000e+00 0.000000e+00 0.0
0.000000e+00 0.000000e+00 0.0
0.000000e+00 0.000000e+00 0.0
0.000000e+00 0.000000e+00 0.0
0.000000e+00 0.000000e+00 0.0
0.000000e+00 0.000000e+00 0.0
0.000000e+00 0.000000e+00 0.0
0.000000e+00 0.000000e+00 0.0
0.000000e+00 0.000000e+00 0.0
0.000000e+00 0.000000e+00 0.0
0.000000e+00 -7.883430e-02 0.0
5.111248e-03 7.883520e-02 0.0
5.385384e-02 5.397523e-02 0.0
1.173412e-01 2.069345e-02 0.0
1.904195e-01 -1.152816e-02 0.0
2.703174e-01 -4.311596e-02 0.0
3.539165e-01 -7.522062e-02 0.0
4.395588e-01 -1.094725e-01 0.0
5.260956e-01 -1.457719e-01 0.0
6.112859e-01 -1.840090e-01 0.0
6.926657e-01 -2.234833e-01 0.0
7.674868e-01 -2.630861e-01 0.0
8.330482e-01 -3.012366e-01 0.0
8.870136e-01 -3.359833e-01 0.0
9.278351e-01 -3.651618e-01 0.0