# vtk DataFile Version 3.0
Vector Field
ASCII
DATASET RECTILINEAR_GRID
DIMENSIONS 102 22 1
X_COORDINATES 102 double
0.000000 0.100000 0.200000 0.300000 0.400000 0.500000 0.600000 0.700000 0.800000 0.900000 1.000000 1.100000 1.200000 1.300000 1.400000 1.500000 1.600000 1.700000 1.800000 1.900000 2.000000 2.100000 2.200000 2.300000 2.400000 2.500000 2.600000 2.700000 2.800000 2.900000 3.000000 3.100000 3.200000 3.300000 3.400000 3.500000 3.600000 3.700000 3.800000 3.900000 4.000000 4.100000 4.200000 4.300000 4.400000 4.500000 4.600000 4.700000 4.800000 4.900000 5.000000 5.100000 5.200000 5.300000 5.400000 5.500000 5.600000 5.700000 5.800000 5.900000 6.000000 6.100000 6.200000 6.300000 6.400000 6.500000 6.600000 6.700000 6.800000 6.900000 7.000000 7.100000 7.200000 7.300000 7.400000 7.500000 7.600000 7.700000 7.800000 7.900000 8.000000 8.100000 8.200000 8.300000 8.400000 8.500000 8.600000 8.700000 8.800000 8.900000 9.000000 9.100000 9.200000 9.300000 9.400000 9.500000 9.600000 9.700000 9.800000 9.900000 10.000000 10.100000 
Y_COORDINATES 22 double
0.000000 0.100000 0.200000 0.300000 0.400000 0.500000 0.600000 0.700000 0.800000 0.900000 1.000000 1.100000 1.200000 1.300000 1.400000 1.500000 1.600000 1.700000 1.800000 1.900000 2.000000 2.100000 
Z_COORDINATES 1 double
0.0
POINT_DATA 2244
VECTORS Velocity double
0.000000e+00 0.000000e+00 0.0
-0.000000e+00 0.000000e+00 0.0
-0.000000e+00 0.000000e+00 0.0
-0.000000e+00 0.000000e+00 0.0
-0.000000e+00 0.000000e+00 0.0
-0.000000e+00 0.000000e+00 0.0
-0.000000e+00 0.000000e+00 0.0
-0.000000e+00 0.000000e+00 0.0
-0.000000e+00 0.000000e+00 0.0
-0.000000e+00 0.000000e+00 0.0
-0.000000e+00 0.000000e+00 0.0
5.003895e-04 0.000000e+00 0.0
4.852502e-03 0.000000e+00 0.0
1.156246e-02 0.000000e+00 0.0
1.943852e-02 0.000000e+00 0.0
2.808568e-02 0.000000e+00 0.0
3.758487e-02 0.000000e+00 0.0
4.821140e-02 0.000000e+00 0.0
6.030474e-02 0.000000e+00 0.0
7.420668e-02 0.000000e+00 0.0
9.019242e-02 0.000000e+00 0.0
1.083683e-01 0.000000e+00 0.0
1.285114e-01 0.000000e+00 0.0
1.498897e-01 0.000000e+00 0.0
1.710478e-01 0.000000e+00 0.0
1.894745e-01 0.000000e+00 0.0
2.018926e-01 0.000000e+00 0.0
2.044814e-01 0.000000e+00 0.0
1.939896e-01 0.000000e+00 0.0
1.692738e-01 0.000000e+00 0.0
1.313578e-01 0.000000e+00 0.0
8.399015e-02 0.000000e+00 0.0
3.015066e-02 0.000000e+00 0.0
-2.441681e-02 0.000000e+00 0.0
-7.208196e-02 0.000000e+00 0.0
-1.103052e-01 0.000000e+00 0.0
-1.390046e-01 0.000000e+00 0.0
-1.591539e-01 0.000000e+00 0.0
-1.721322e-01 0.000000e+00 0.0
-1.794060e-01 0.000000e+00 0.0
-1.823784e-01 0.000000e+00 0.0
-1.823211e-01 0.000000e+00 0.0
-1.800910e-01 0.000000e+00 0.0
-1.762259e-01 0.000000e+00 0.0
-1.712866e-01 0.000000e+00 0.0
-1.657505e-01 0.000000e+00 0.0
-1.599818e-01 0.000000e+00 0.0
-1.542393e-01 0.000000e+00 0.0
-1.486715e-01 0.000000e+00 0.0
-1.433738e-01 0.000000e+00 0.0
-1.383966e-01 0.000000e+00 0.0
-1.337615e-01 0.000000e+00 0.0
-1.294711e-01 0.000000e+00 0.0
-1.255163e-01 0.000000e+00 0.0
-1.218816e-01 0.000000e+00 0.0
-1.185481e-01 0.000000e+00 0.0
-1.154954e-01 0.000000e+00 0.0
-1.127030e-01 0.000000e+00 0.0
-1.101508e-01 0.000000e+00 0.0
-1.078196e-01 0.000000e+00 0.0
-1.056911e-01 0.000000e+00 0.0
-1.037481e-01 0.000000e+00 0.0
-1.019744e-01 0.000000e+00 0.0
-1.003550e-01 0.000000e+00 0.0
-9.887559e-02 0.000000e+00 0.0
-9.752329e-02 0.000000e+00 0.0
-9.628596e-02 0.000000e+00 0.0
-9.515247e-02 0.000000e+00 0.0
-9.411259e-02 0.000000e+00 0.0
-9.315694e-02 0.000000e+00 0.0
-9.227696e-02 0.000000e+00 0.0
-9.146488e-02 0.000000e+00 0.0
-9.071361e-02 0.000000e+00 0.0
-9.001680e-02 0.000000e+00 0.0
-8.936869e-02 0.000000e+00 0.0
-8.876416e-02 0.000000e+00 0.0
-8.819866e-02 0.000000e+00 0.0
-8.766818e-02 0.000000e+00 0.0
-8.716927e-02 0.000000e+00 0.0
-8.669900e-02 0.000000e+00 0.0
-8.625496e-02 0.000000e+00 0.0
-8.583529e-02 0.000000e+00 0.0
-8.543865e-02 0.000000e+00 0.0
-8.506428e-02 0.000000e+00 0.0
-8.471202e-02 0.000000e+00 0.0
-8.438233e-02 0.000000e+00 0.0
-8.407634e-02 0.000000e+00 0.0
-8.379586e-02 0.000000e+00 0.0
-8.354343e-02 0.000000e+00 0.0
-8.332232e-02 0.000000e+00 0.0
-8.313651e-02 0.000000e+00 0.0
-8.299057e-02 0.000000e+00 0.0
-8.288949e-02 0.000000e+00 0.0
-8.283838e-02 0.000000e+00 0.0
-8.284184e-02 0.000000e+00 0.0
-8.290266e-02 0.000000e+00 0.0
-8.301279e-02 0.000000e+00 0.0
-8.315384e-02 0.000000e+00 0.0
-8.329685e-02 0.000000e+00 0.0
-8.338343e-02 0.000000e+00 0.0
-8.338343e-02 0.000000e+00 0.0
0.000000e+00 0.000000e+00 0.0
0.000000e+00 0.000000e+00 0.0
0.000000e+00 0.000000e+00 0.0
0.000000e+00 0.000000e+00 0.0
0.000000e+00 0.000000e+00 0.0
0.000000e+00 0.000000e+00 0.0
0.000000e+00 0.000000e+00 0.0
0.000000e+00 0.000000e+00 0.0
0.000000e+00 0.000000e+00 0.0
0.000000e+00 0.000000e+00 0.0
0.000000e+00 0.000000e+00 0.0
0.000000e+00 -5.539172e-04 0.0
-5.005994e-04 5.535814e-04 0.0
-4.852860e-03 4.382725e-03 0.0
-1.156323e-02 6.740836e-03 0.0
-1.943998e-02 7.907213e-03 0.0
-2.808817e-02 8.678655e-03 0.0
-3.758880e-02 9.531101e-03 0.0
-4.821726e-02 1.065892e-02 0.0
-6.031310e-02 1.212630e-02 0.0
-7.421815e-02 1.393551e-02 0.0
-9.020759e-02 1.601991e-02 0.0
-1.083877e-01 1.821052e-02 0.0
-1.285350e-01 2.017776e-02 0.0
-1.499169e-01 2.141241e-02 0.0
-1.710772e-01 2.119082e-02 0.0
-1.895033e-01 1.845648e-02 0.0
-2.019162e-01 1.244339e-02 0.0
-2.044943e-01 2.608581e-03 0.0
-1.939871e-01 -1.047671e-02 0.0
-1.692528e-01 -2.470386e-02 0.0
-1.313198e-01 -3.790251e-02 0.0
-8.393879e-02 -4.735056e-02 0.0
-3.008789e-02 -5.382043e-02 0.0
2.448342e-02 -5.454084e-02 0.0
7.214350e-02 -4.762962e-02 0.0
1.103584e-01 -3.818446e-02 0.0
1.390489e-01 -2.865995e-02 0.0
1.591895e-01 -2.011019e-02 0.0
1.721603e-01 -1.294028e-02 0.0
1.794277e-01 -7.236939e-03 0.0
1.823949e-01 -2.936803e-03 0.0
1.823338e-01 9.157092e-05 0.0
1.801006e-01 2.263678e-03 0.0
1.762330e-01 3.898107e-03 0.0
1.712918e-01 4.971613e-03 0.0
1.657545e-01 5.567848e-03 0.0
1.599851e-01 5.799851e-03 0.0
1.542421e-01 5.773426e-03 0.0
1.486741e-01 5.598488e-03 0.0
1.433764e-01 5.328142e-03 0.0
1.383994e-01 5.007547e-03 0.0
1.337645e-01 4.665342e-03 0.0
1.294743e-01 4.320655e-03 0.0
1.255198e-01 3.984964e-03 0.0
1.218854e-01 3.664835e-03 0.0
1.185522e-01 3.363659e-03 0.0
1.154999e-01 3.082825e-03 0.0
1.127078e-01 2.822525e-03 0.0
1.101560e-01 2.582285e-03 0.0
1.078252e-01 2.361289e-03 0.0
1.056971e-01 2.158562e-03 0.0
1.037545e-01 1.973063e-03 0.0
1.019813e-01 1.803732e-03 0.0
1.003622e-01 1.649514e-03 0.0
9.888333e-02 1.509370e-03 0.0
9.753151e-02 1.382288e-03 0.0
9.629470e-02 1.267284e-03 0.0
9.516176e-02 1.163414e-03 0.0
9.412246e-02 1.069772e-03 0.0
9.316744e-02 9.854972e-04 0.0
9.228814e-02 9.097732e-04 0.0
9.147678e-02 8.418300e-04 0.0
9.072631e-02 7.809428e-04 0.0
9.003035e-02 7.264295e-04 0.0
8.938318e-02 6.776476e-04 0.0
8.877966e-02 6.339899e-04 0.0
8.821526e-02 5.948790e-04 0.0
8.768597e-02 5.597612e-04 0.0
8.718835e-02 5.280998e-04 0.0
8.671945e-02 4.993682e-04 0.0
8.627689e-02 4.730421e-04 0.0
8.585877e-02 4.485925e-04 0.0
8.546377e-02 4.254771e-04 0.0
8.509111e-02 4.031331e-04 0.0
8.474061e-02 3.809700e-04 0.0
8.441272e-02 3.583645e-04 0.0
8.410854e-02 3.346583e-04 0.0
8.382986e-02 3.091593e-04 0.0
8.357918e-02 2.811496e-04 0.0
8.335975e-02 2.499030e-04 0.0
8.317551e-02 2.147205e-04 0.0
8.303099e-02 1.749923e-04 0.0
8.293117e-02 1.302971e-04 0.0
8.288110e-02 8.054187e-05 0.0
8.288541e-02 2.616565e-05 0.0
8.294684e-02 -3.095308e-05 0.0
8.305731e-02 -7.998892e-05 0.0
8.319842e-02 -1.106363e-04 0.0
8.334144e-02 -1.125493e-04 0.0
8.342817e-02 -5.624582e-05 0.0
8.338343e-02 7.521541e-05 0.0
0.000000e+00 7.608233e-05 0.0
0.000000e+00 0.000000e+00 0.0
0.000000e+00 0.000000e+00 0.0
0.000000e+00 0.000000e+00 0.0
0.000000e+00 0.000000e+00 0.0
0.000000e+00 0.000000e+00 0.0
0.000000e+00 0.000000e+00 0.0
0.000000e+00 0.000000e+00 0.0
0.000000e+00 0.000000e+00 0.0
0.000000e+00 0.000000e+00 0.0
0.000000e+00 0.000000e+00 0.0
0.000000e+00 -6.308333e-03 0.0
-5.724378e-03 6.308424e-03 0.0
-1.919880e-02 1.786510e-02 0.0
-3.687776e-02 2.442774e-02 0.0
-5.661532e-02 2.765272e-02 0.0
-7.758946e-02 2.966074e-02 0.0
-9.970898e-02 3.165857e-02 0.0
-1.231162e-01 3.407412e-02 0.0
-1.479108e-01 3.692885e-02 0.0
-1.739830e-01 4.001568e-02 0.0
-2.008654e-01 4.291021e-02 0.0
-2.276171e-01 4.497014e-02 0.0
-2.526608e-01 4.522949e-02 0.0
-2.736774e-01 4.243692e-02 0.0
-2.876093e-01 3.513064e-02 0.0
-2.908503e-01 2.170539e-02 0.0
-2.790241e-01 6.251943e-04 0.0
-2.487957e-01 -2.761188e-02 0.0
-2.009611e-01 -5.830332e-02 0.0
-1.383483e-01 -8.730879e-02 0.0
-6.328868e-02 -1.129541e-01 0.0
1.938369e-02 -1.300150e-01 0.0
9.998610e-02 -1.344149e-01 0.0
1.720355e-01 -1.265823e-01 0.0
2.352248e-01 -1.108110e-01 0.0
2.887450e-01 -9.169674e-02 0.0
3.324103e-01 -7.231725e-02 0.0
3.666761e-01 -5.436808e-02 0.0
3.923892e-01 -3.864543e-02 0.0
4.105869e-01 -2.542668e-02 0.0
4.223630e-01 -1.470500e-02 0.0
4.287756e-01 -6.313109e-03 0.0
4.310241e-01 2.316473e-05 0.0
4.300863e-01 4.843848e-03 0.0
4.266232e-01 8.442637e-03 0.0
4.212310e-01 1.096804e-02 0.0
4.144120e-01 1.262676e-02 0.0
4.065738e-01 1.361957e-02 0.0
3.980987e-01 1.408153e-02 0.0
3.893025e-01 1.413230e-02 0.0
3.804124e-01 1.390566e-02 0.0
3.715997e-01 1.348594e-02 0.0
3.629873e-01 1.294106e-02 0.0
3.546610e-01 1.231917e-02 0.0
3.466785e-01 1.165533e-02 0.0
3.390754e-01 1.097463e-02 0.0
3.318715e-01 1.029471e-02 0.0
3.250742e-01 9.627799e-03 0.0
3.186822e-01 8.982252e-03 0.0
3.126877e-01 8.363701e-03 0.0
3.070784e-01 7.775801e-03 0.0
3.018386e-01 7.220764e-03 0.0
2.969506e-01 6.699725e-03 0.0
2.923951e-01 6.213009e-03 0.0
2.881521e-01 5.760324e-03 0.0
2.842014e-01 5.340916e-03 0.0
2.805229e-01 4.953686e-03 0.0
2.770970e-01 4.597286e-03 0.0
2.739045e-01 4.270196e-03 0.0
2.709272e-01 3.970786e-03 0.0
2.681475e-01 3.697366e-03 0.0
2.655491e-01 3.448219e-03 0.0
2.631164e-01 3.221630e-03 0.0
2.608348e-01 3.015903e-03 0.0
2.586911e-01 2.829373e-03 0.0
2.566726e-01 2.660408e-03 0.0
2.547680e-01 2.507403e-03 0.0
2.529670e-01 2.368780e-03 0.0
2.512600e-01 2.242966e-03 0.0
2.496390e-01 2.128389e-03 0.0
2.480965e-01 2.023453e-03 0.0
2.466265e-01 1.926522e-03 0.0
2.452241e-01 1.835897e-03 0.0
2.438853e-01 1.749797e-03 0.0
2.426079e-01 1.666337e-03 0.0
2.413907e-01 1.583509e-03 0.0
2.402342e-01 1.499176e-03 0.0
2.391402e-01 1.411072e-03 0.0
2.381125e-01 1.316811e-03 0.0
2.371564e-01 1.213934e-03 0.0
2.362791e-01 1.099984e-03 0.0
2.354894e-01 9.726718e-04 0.0
2.347975e-01 8.301615e-04 0.0
2.342143e-01 6.715953e-04 0.0
2.337504e-01 4.980822e-04 0.0
2.334125e-01 3.148799e-04 0.0
2.332038e-01 1.366382e-04 0.0
2.331134e-01 -1.227107e-05 0.0
2.330973e-01 -8.847490e-05 0.0
2.330830e-01 -3.403098e-05 0.0
2.329502e-01 2.159692e-04 0.0
0.000000e+00 2.183899e-04 0.0
0.000000e+00 0.000000e+00 0.0
0.000000e+00 0.000000e+00 0.0
0.000000e+00 0.000000e+00 0.0
0.000000e+00 0.000000e+00 0.0
0.000000e+00 0.000000e+00 0.0
0.000000e+00 0.000000e+00 0.0
0.000000e+00 0.000000e+00 0.0
0.000000e+00 0.000000e+00 0.0
0.000000e+00 0.000000e+00 0.0
0.000000e+00 0.000000e+00 0.0
0.000000e+00 -1.681764e-02 0.0
-1.047961e-02 1.681850e-02 0.0
-3.101075e-02 3.840418e-02 0.0
-5.545577e-02 4.888071e-02 0.0
-8.088274e-02 5.308763e-02 0.0
-1.061970e-01 5.498298e-02 0.0
-1.310500e-01 5.651953e-02 0.0
-1.552346e-01 5.826659e-02 0.0
-1.784314e-01 6.013367e-02 0.0
-2.000843e-01 6.167647e-02 0.0
-2.192595e-01 6.209338e-02 0.0
-2.346699e-01 6.038843e-02 0.0
-2.445654e-01 5.513295e-02 0.0
-2.466552e-01 4.453473e-02 0.0
-2.372406e-01 2.572397e-02 0.0
-2.102632e-01 -5.264082e-03 0.0
-1.647309e-01 -4.489913e-02 0.0
-1.018982e-01 -9.043663e-02 0.0
-2.460963e-02 -1.355839e-01 0.0
6.123058e-02 -1.731411e-01 0.0
1.456715e-01 -1.973871e-01 0.0
2.239127e-01 -2.082483e-01 0.0
2.934368e-01 -2.039310e-01 0.0
3.541901e-01 -1.873277e-01 0.0
4.071595e-01 -1.637724e-01 0.0
4.528408e-01 -1.373701e-01 0.0
4.914877e-01 -1.109562e-01 0.0
5.233877e-01 -8.626016e-02 0.0
5.489467e-01 -6.419641e-02 0.0
5.686731e-01 -4.514521e-02 0.0
5.831383e-01 -2.916222e-02 0.0
5.929464e-01 -1.611330e-02 0.0
5.987329e-01 -5.755393e-03 0.0
6.013458e-01 2.238961e-03 0.0
6.013546e-01 8.441779e-03 0.0
5.992268e-01 1.310379e-02 0.0
5.953609e-01 1.650064e-02 0.0
5.901067e-01 1.888170e-02 0.0
5.837447e-01 2.045150e-02 0.0
5.764911e-01 2.139375e-02 0.0
5.685834e-01 2.182139e-02 0.0
5.602456e-01 2.183165e-02 0.0
5.516541e-01 2.154048e-02 0.0
5.429533e-01 2.102797e-02 0.0
5.342585e-01 2.035805e-02 0.0
5.256610e-01 1.958011e-02 0.0
5.172318e-01 1.873189e-02 0.0
5.090252e-01 1.784233e-02 0.0
5.010817e-01 1.693370e-02 0.0
4.934301e-01 1.602319e-02 0.0
4.860898e-01 1.512411e-02 0.0
4.790719e-01 1.424658e-02 0.0
4.723813e-01 1.339825e-02 0.0
4.660176e-01 1.258467e-02 0.0
4.599762e-01 1.180973e-02 0.0
4.542491e-01 1.107596e-02 0.0
4.488260e-01 1.038475e-02 0.0
4.436946e-01 9.736602e-03 0.0
4.388414e-01 9.131304e-03 0.0
4.342521e-01 8.568082e-03 0.0
4.299117e-01 8.045733e-03 0.0
4.258051e-01 7.562730e-03 0.0
4.219174e-01 7.117303e-03 0.0
4.182337e-01 6.707510e-03 0.0
4.147398e-01 6.331282e-03 0.0
4.114217e-01 5.986452e-03 0.0
4.082662e-01 5.670778e-03 0.0
4.052610e-01 5.381947e-03 0.0
4.023944e-01 5.117570e-03 0.0
3.996555e-01 4.875171e-03 0.0
3.970348e-01 4.652166e-03 0.0
3.945234e-01 4.445838e-03 0.0
3.921140e-01 4.253310e-03 0.0
3.898002e-01 4.071505e-03 0.0
3.875774e-01 3.897112e-03 0.0
3.854423e-01 3.726551e-03 0.0
3.833934e-01 3.555962e-03 0.0
3.814313e-01 3.381188e-03 0.0
3.795582e-01 3.197789e-03 0.0
3.777791e-01 3.001082e-03 0.0
3.761007e-01 2.786243e-03 0.0
3.745329e-01 2.548511e-03 0.0
3.730874e-01 2.283578e-03 0.0
3.717786e-01 1.988322e-03 0.0
3.706224e-01 1.662201e-03 0.0
3.696353e-01 1.309972e-03 0.0
3.688331e-01 9.467904e-04 0.0
3.682243e-01 6.044818e-04 0.0
3.678004e-01 3.433367e-04 0.0
3.675256e-01 2.487731e-04 0.0
3.673278e-01 4.216778e-04 0.0
0.000000e+00 4.263892e-04 0.0
0.000000e+00 0.000000e+00 0.0
0.000000e+00 0.000000e+00 0.0
0.000000e+00 0.000000e+00 0.0
0.000000e+00 0.000000e+00 0.0
0.000000e+00 0.000000e+00 0.0
0.000000e+00 0.000000e+00 0.0
0.000000e+00 0.000000e+00 0.0
0.000000e+00 0.000000e+00 0.0
0.000000e+00 0.000000e+00 0.0
0.000000e+00 0.000000e+00 0.0
0.000000e+00 -2.986072e-02 0.0
-1.301330e-02 2.986227e-02 0.0
-3.638125e-02 6.178008e-02 0.0
-6.189328e-02 7.440069e-02 0.0
-8.620419e-02 7.740649e-02 0.0
-1.082438e-01 7.703051e-02 0.0
-1.276111e-01 7.589480e-02 0.0
-1.439825e-01 7.464597e-02 0.0
-1.569434e-01 7.310253e-02 0.0
-1.659564e-01 7.069736e-02 0.0
-1.700947e-01 6.623959e-02 0.0
-1.680421e-01 5.834379e-02 0.0
-1.573944e-01 4.449327e-02 0.0
-1.350709e-01 2.221908e-02 0.0
-9.345581e-02 -1.588312e-02 0.0
-3.256148e-02 -6.615046e-02 0.0
4.451873e-02 -1.219714e-01 0.0
1.285684e-01 -1.744783e-01 0.0
2.126732e-01 -2.196808e-01 0.0
2.920838e-01 -2.525437e-01 0.0
3.644106e-01 -2.697059e-01 0.0
4.270182e-01 -2.708480e-01 0.0
4.796260e-01 -2.565308e-01 0.0
5.245625e-01 -2.322563e-01 0.0
5.633474e-01 -2.025493e-01 0.0
5.968609e-01 -1.708756e-01 0.0
6.255942e-01 -1.396815e-01 0.0
6.498639e-01 -1.105219e-01 0.0
6.699383e-01 -8.426289e-02 0.0
6.860916e-01 -6.129060e-02 0.0
6.986197e-01 -4.168236e-02 0.0
7.078444e-01 -2.533006e-02 0.0
7.141135e-01 -1.201655e-02 0.0
7.178271e-01 -1.466608e-03 0.0
7.194729e-01 6.803914e-03 0.0
7.193848e-01 1.319979e-02 0.0
7.178266e-01 1.806678e-02 0.0
7.150235e-01 2.169280e-02 0.0
7.111680e-01 2.431495e-02 0.0
7.064389e-01 2.613080e-02 0.0
7.009759e-01 2.729230e-02 0.0
6.948809e-01 2.793459e-02 0.0
6.882922e-01 2.813717e-02 0.0
6.813390e-01 2.798905e-02 0.0
6.741313e-01 2.757373e-02 0.0
6.667628e-01 2.695662e-02 0.0
6.593134e-01 2.618922e-02 0.0
6.518511e-01 2.531259e-02 0.0
6.444328e-01 2.435987e-02 0.0
6.371059e-01 2.335807e-02 0.0
6.299087e-01 2.232925e-02 0.0
6.228719e-01 2.129135e-02 0.0
6.160192e-01 2.025887e-02 0.0
6.093685e-01 1.924337e-02 0.0
6.029322e-01 1.825397e-02 0.0
5.967185e-01 1.729762e-02 0.0
5.907317e-01 1.637953e-02 0.0
5.849728e-01 1.550338e-02 0.0
5.794405e-01 1.467159e-02 0.0
5.741310e-01 1.388557e-02 0.0
5.690388e-01 1.314584e-02 0.0
5.641572e-01 1.245225e-02 0.0
5.594784e-01 1.180408e-02 0.0
5.549937e-01 1.120017e-02 0.0
5.506939e-01 1.063897e-02 0.0
5.465697e-01 1.011864e-02 0.0
5.426113e-01 9.637084e-03 0.0
5.388093e-01 9.191947e-03 0.0
5.351542e-01 8.780659e-03 0.0
5.316369e-01 8.400416e-03 0.0
5.282488e-01 8.048160e-03 0.0
5.249820e-01 7.720560e-03 0.0
5.218293e-01 7.413978e-03 0.0
5.187844e-01 7.124421e-03 0.0
5.158419e-01 6.847481e-03 0.0
5.129981e-01 6.578296e-03 0.0
5.102505e-01 6.311517e-03 0.0
5.075984e-01 6.041284e-03 0.0
5.050429e-01 5.761221e-03 0.0
5.025875e-01 5.464455e-03 0.0
5.002380e-01 5.143700e-03 0.0
4.980030e-01 4.791426e-03 0.0
4.958943e-01 4.400225e-03 0.0
4.939271e-01 3.963503e-03 0.0
4.921204e-01 3.476793e-03 0.0
4.904981e-01 2.940253e-03 0.0
4.890897e-01 2.363199e-03 0.0
4.879306e-01 1.771446e-03 0.0
4.870617e-01 1.220224e-03 0.0
4.865105e-01 8.079248e-04 0.0
4.862810e-01 6.591133e-04 0.0
0.000000e+00 6.665957e-04 0.0
0.000000e+00 0.000000e+00 0.0
0.000000e+00 0.000000e+00 0.0
0.000000e+00 0.000000e+00 0.0
0.000000e+00 0.000000e+00 0.0
0.000000e+00 0.000000e+00 0.0
0.000000e+00 0.000000e+00 0.0
0.000000e+00 0.000000e+00 0.0
0.000000e+00 0.000000e+00 0.0
0.000000e+00 0.000000e+00 0.0
0.000000e+00 0.000000e+00 0.0
0.000000e+00 -4.332875e-02 0.0
-1.343785e-02 4.333059e-02 0.0
-3.541882e-02 8.376899e-02 0.0
-5.679485e-02 9.578467e-02 0.0
-7.464422e-02 9.526380e-02 0.0
-8.830192e-02 9.069616e-02 0.0
-9.754197e-02 8.514280e-02 0.0
-1.021195e-01 7.923143e-02 0.0
-1.015530e-01 7.254402e-02 0.0
-9.537842e-02 6.453070e-02 0.0
-8.198033e-02 5.284945e-02 0.0
-5.938538e-02 3.575679e-02 0.0
-2.094717e-02 6.063013e-03 0.0
3.878826e-02 -3.750840e-02 0.0
1.129234e-01 -9.001026e-02 0.0
1.951013e-01 -1.483205e-01 0.0
2.792059e-01 -2.060681e-01 0.0
3.608760e-01 -2.561405e-01 0.0
4.354804e-01 -2.942773e-01 0.0
5.003996e-01 -3.174550e-01 0.0
5.548667e-01 -3.241650e-01 0.0
5.982320e-01 -3.142054e-01 0.0
6.336432e-01 -2.919340e-01 0.0
6.633153e-01 -2.619204e-01 0.0
6.886931e-01 -2.279192e-01 0.0
7.106402e-01 -1.928148e-01 0.0
7.296443e-01 -1.586777e-01 0.0
7.459732e-01 -1.268429e-01 0.0
7.597886e-01 -9.807033e-02 0.0
7.712150e-01 -7.270907e-02 0.0
7.803764e-01 -5.083581e-02 0.0
7.874176e-01 -3.236328e-02 0.0
7.924970e-01 -1.708805e-02 0.0
7.957875e-01 -4.749159e-03 0.0
7.976126e-01 4.986766e-03 0.0
7.981836e-01 1.263677e-02 0.0
7.976678e-01 1.859051e-02 0.0
7.962066e-01 2.316200e-02 0.0
7.939240e-01 2.660547e-02 0.0
7.909342e-01 2.912856e-02 0.0
7.873350e-01 3.089950e-02 0.0
7.832177e-01 3.205980e-02 0.0
7.786434e-01 3.271937e-02 0.0
7.736754e-01 3.296506e-02 0.0
7.683893e-01 3.286775e-02 0.0
7.628531e-01 3.250076e-02 0.0
7.571280e-01 3.192233e-02 0.0
7.512687e-01 3.117977e-02 0.0
7.453243e-01 3.031230e-02 0.0
7.393373e-01 2.935295e-02 0.0
7.333451e-01 2.832939e-02 0.0
7.273796e-01 2.726485e-02 0.0
7.214677e-01 2.617866e-02 0.0
7.156322e-01 2.508686e-02 0.0
7.098916e-01 2.400254e-02 0.0
7.042608e-01 2.293631e-02 0.0
6.987517e-01 2.189657e-02 0.0
6.933732e-01 2.088987e-02 0.0
6.881316e-01 1.992113e-02 0.0
6.830312e-01 1.899396e-02 0.0
6.780742e-01 1.811077e-02 0.0
6.732613e-01 1.727305e-02 0.0
6.685919e-01 1.648148e-02 0.0
6.640640e-01 1.573604e-02 0.0
6.596747e-01 1.503617e-02 0.0
6.554205e-01 1.438081e-02 0.0
6.512971e-01 1.376847e-02 0.0
6.472997e-01 1.319727e-02 0.0
6.434234e-01 1.266494e-02 0.0
6.396629e-01 1.216883e-02 0.0
6.360131e-01 1.170589e-02 0.0
6.324690e-01 1.127268e-02 0.0
6.290256e-01 1.086525e-02 0.0
6.256788e-01 1.047920e-02 0.0
6.224248e-01 1.010948e-02 0.0
6.192606e-01 9.750405e-03 0.0
6.161845e-01 9.395580e-03 0.0
6.131958e-01 9.037872e-03 0.0
6.102956e-01 8.669371e-03 0.0
6.074867e-01 8.281371e-03 0.0
6.047739e-01 7.864394e-03 0.0
6.021650e-01 7.408287e-03 0.0
5.996708e-01 6.902440e-03 0.0
5.973060e-01 6.336245e-03 0.0
5.950907e-01 5.699987e-03 0.0
5.930524e-01 4.986528e-03 0.0
5.912292e-01 4.194381e-03 0.0
5.896755e-01 3.333107e-03 0.0
5.884702e-01 2.433421e-03 0.0
5.877198e-01 1.566325e-03 0.0
5.874925e-01 8.942803e-04 0.0
0.000000e+00 9.046761e-04 0.0
0.000000e+00 0.000000e+00 0.0
0.000000e+00 0.000000e+00 0.0
0.000000e+00 0.000000e+00 0.0
0.000000e+00 0.000000e+00 0.0
0.000000e+00 0.000000e+00 0.0
0.000000e+00 0.000000e+00 0.0
0.000000e+00 0.000000e+00 0.0
0.000000e+00 0.000000e+00 0.0
0.000000e+00 0.000000e+00 0.0
0.000000e+00 0.000000e+00 0.0
0.000000e+00 -5.649562e-02 0.0
-1.313629e-02 5.649734e-02 0.0
-3.057908e-02 1.012197e-01 0.0
-4.362579e-02 1.088393e-01 0.0
-5.096782e-02 1.026138e-01 0.0
-5.261450e-02 9.235079e-02 0.0
-4.864316e-02 8.117940e-02 0.0
-3.886884e-02 6.946507e-02 0.0
-2.193120e-02 5.561433e-02 0.0
3.485557e-03 3.912188e-02 0.0
4.177710e-02 1.456585e-02 0.0
9.838650e-02 -2.084467e-02 0.0
1.701697e-01 -6.571225e-02 0.0
2.516009e-01 -1.189316e-01 0.0
3.378415e-01 -1.762430e-01 0.0
4.227483e-01 -2.332193e-01 0.0
5.012114e-01 -2.845232e-01 0.0
5.701605e-01 -3.250816e-01 0.0
6.276360e-01 -3.517448e-01 0.0
6.731297e-01 -3.629407e-01 0.0
7.070343e-01 -3.580617e-01 0.0
7.322382e-01 -3.394013e-01 0.0
7.516220e-01 -3.113098e-01 0.0
7.672272e-01 -2.775177e-01 0.0
7.803681e-01 -2.410522e-01 0.0
7.918088e-01 -2.042476e-01 0.0
8.019614e-01 -1.688223e-01 0.0
8.109972e-01 -1.358707e-01 0.0
8.189547e-01 -1.060199e-01 0.0
8.258154e-01 -7.956186e-02 0.0
8.315496e-01 -5.656209e-02 0.0
8.361594e-01 -3.696505e-02 0.0
8.396570e-01 -2.057778e-02 0.0
8.420804e-01 -7.164602e-03 0.0
8.435294e-01 3.545774e-03 0.0
8.441284e-01 1.204567e-02 0.0
8.439711e-01 1.875578e-02 0.0
8.431397e-01 2.400131e-02 0.0
8.417110e-01 2.804212e-02 0.0
8.397576e-01 3.108994e-02 0.0
8.373462e-01 3.331884e-02 0.0
8.345398e-01 3.487411e-02 0.0
8.313920e-01 3.587518e-02 0.0
8.279437e-01 3.642131e-02 0.0
8.242277e-01 3.659169e-02 0.0
8.202852e-01 3.645119e-02 0.0
8.161554e-01 3.606011e-02 0.0
8.118750e-01 3.546804e-02 0.0
8.074782e-01 3.471711e-02 0.0
8.029953e-01 3.384377e-02 0.0
7.984537e-01 3.287895e-02 0.0
7.938775e-01 3.184900e-02 0.0
7.892879e-01 3.077624e-02 0.0
7.847032e-01 2.967942e-02 0.0
7.801396e-01 2.857417e-02 0.0
7.756104e-01 2.747340e-02 0.0
7.711274e-01 2.638760e-02 0.0
7.667000e-01 2.532521e-02 0.0
7.623362e-01 2.429288e-02 0.0
7.580423e-01 2.329574e-02 0.0
7.538234e-01 2.233761e-02 0.0
7.496832e-01 2.142120e-02 0.0
7.456244e-01 2.054827e-02 0.0
7.416486e-01 1.971980e-02 0.0
7.377567e-01 1.893606e-02 0.0
7.339487e-01 1.819675e-02 0.0
7.302241e-01 1.750100e-02 0.0
7.265819e-01 1.684746e-02 0.0
7.230205e-01 1.623429e-02 0.0
7.195381e-01 1.565916e-02 0.0
7.161327e-01 1.511925e-02 0.0
7.128021e-01 1.461119e-02 0.0
7.095443e-01 1.413104e-02 0.0
7.063571e-01 1.367429e-02 0.0
7.032390e-01 1.323560e-02 0.0
7.001885e-01 1.280880e-02 0.0
6.972052e-01 1.238685e-02 0.0
6.942893e-01 1.196173e-02 0.0
6.914422e-01 1.152444e-02 0.0
6.886666e-01 1.106486e-02 0.0
6.859672e-01 1.057175e-02 0.0
6.833508e-01 1.003268e-02 0.0
6.808271e-01 9.434107e-03 0.0
6.784098e-01 8.761450e-03 0.0
6.761183e-01 7.999385e-03 0.0
6.739804e-01 7.132412e-03 0.0
6.720368e-01 6.145928e-03 0.0
6.703496e-01 5.028280e-03 0.0
6.690152e-01 3.775779e-03 0.0
6.681778e-01 2.411645e-03 0.0
6.679799e-01 1.100170e-03 0.0
0.000000e+00 1.113283e-03 0.0
0.000000e+00 0.000000e+00 0.0
0.000000e+00 0.000000e+00 0.0
0.000000e+00 0.000000e+00 0.0
0.000000e+00 0.000000e+00 0.0
0.000000e+00 0.000000e+00 0.0
0.000000e+00 0.000000e+00 0.0
0.000000e+00 0.000000e+00 0.0
0.000000e+00 0.000000e+00 0.0
0.000000e+00 0.000000e+00 0.0
0.000000e+00 0.000000e+00 0.0
0.000000e+00 -7.018342e-02 0.0
-1.365707e-02 7.018488e-02 0.0
-2.304029e-02 1.106109e-01 0.0
-2.261833e-02 1.084253e-01 0.0
-1.441334e-02 9.441675e-02 0.0
9.121503e-04 7.703324e-02 0.0
2.349922e-02 5.860027e-02 0.0
5.353876e-02 3.943347e-02 0.0
9.447392e-02 1.468712e-02 0.0
1.512549e-01 -1.765118e-02 0.0
2.222082e-01 -5.637946e-02 0.0
3.031484e-01 -1.017769e-01 0.0
3.899284e-01 -1.524843e-01 0.0
4.771940e-01 -2.061892e-01 0.0
5.601291e-01 -2.591702e-01 0.0
6.343291e-01 -3.074114e-01 0.0
6.967222e-01 -3.469083e-01 0.0
7.460193e-01 -3.743708e-01 0.0
7.822481e-01 -3.879657e-01 0.0
8.064064e-01 -3.870911e-01 0.0
8.208804e-01 -3.725277e-01 0.0
8.292169e-01 -3.477298e-01 0.0
8.339931e-01 -3.160781e-01 0.0
8.369711e-01 -2.804877e-01 0.0
8.392412e-01 -2.433143e-01 0.0
8.413938e-01 -2.063923e-01 0.0
8.437345e-01 -1.711550e-01 0.0
8.463162e-01 -1.384444e-01 0.0
8.490544e-01 -1.087502e-01 0.0
8.518035e-01 -8.230301e-02 0.0
8.543979e-01 -5.914858e-02 0.0
8.567275e-01 -3.928671e-02 0.0
8.586741e-01 -2.251639e-02 0.0
8.601500e-01 -8.632585e-03 0.0
8.611094e-01 2.594353e-03 0.0
8.615603e-01 1.160275e-02 0.0
8.615236e-01 1.880038e-02 0.0
8.610312e-01 2.450163e-02 0.0
8.601222e-01 2.895911e-02 0.0
8.588393e-01 3.238081e-02 0.0
8.572259e-01 3.494020e-02 0.0
8.553246e-01 3.678333e-02 0.0
8.531746e-01 3.803311e-02 0.0
8.508104e-01 3.879351e-02 0.0
8.482580e-01 3.915201e-02 0.0
8.455379e-01 3.917921e-02 0.0
8.426733e-01 3.893272e-02 0.0
8.396874e-01 3.846187e-02 0.0
8.366025e-01 3.780996e-02 0.0
8.334383e-01 3.701586e-02 0.0
8.302128e-01 3.611244e-02 0.0
8.269418e-01 3.512801e-02 0.0
8.236392e-01 3.408677e-02 0.0
8.203174e-01 3.300916e-02 0.0
8.169871e-01 3.191238e-02 0.0
8.136578e-01 3.081068e-02 0.0
8.103375e-01 2.971580e-02 0.0
8.070334e-01 2.863730e-02 0.0
8.037514e-01 2.758282e-02 0.0
8.004967e-01 2.655839e-02 0.0
7.972736e-01 2.556864e-02 0.0
7.940858e-01 2.461701e-02 0.0
7.909361e-01 2.370594e-02 0.0
7.878268e-01 2.283700e-02 0.0
7.847598e-01 2.201101e-02 0.0
7.817364e-01 2.122815e-02 0.0
7.787573e-01 2.048800e-02 0.0
7.758231e-01 1.978957e-02 0.0
7.729340e-01 1.913136e-02 0.0
7.700898e-01 1.851129e-02 0.0
7.672903e-01 1.792675e-02 0.0
7.645350e-01 1.737447e-02 0.0
7.618234e-01 1.685056e-02 0.0
7.591550e-01 1.635060e-02 0.0
7.565295e-01 1.586910e-02 0.0
7.539467e-01 1.539958e-02 0.0
7.514069e-01 1.493457e-02 0.0
7.489111e-01 1.446551e-02 0.0
7.464609e-01 1.398259e-02 0.0
7.440590e-01 1.347468e-02 0.0
7.417095e-01 1.292916e-02 0.0
7.394184e-01 1.233180e-02 0.0
7.371939e-01 1.166655e-02 0.0
7.350480e-01 1.091530e-02 0.0
7.329978e-01 1.005751e-02 0.0
7.310685e-01 9.069628e-03 0.0
7.292983e-01 7.924069e-03 0.0
7.277469e-01 6.587640e-03 0.0
7.265099e-01 5.020767e-03 0.0
7.257358e-01 3.193690e-03 0.0
7.255844e-01 1.259543e-03 0.0
0.000000e+00 1.274902e-03 0.0
0.000000e+00 0.000000e+00 0.0
0.000000e+00 0.000000e+00 0.0
0.000000e+00 0.000000e+00 0.0
0.000000e+00 0.000000e+00 0.0
0.000000e+00 0.000000e+00 0.0
0.000000e+00 0.000000e+00 0.0
0.000000e+00 0.000000e+00 0.0
0.000000e+00 0.000000e+00 0.0
0.000000e+00 0.000000e+00 0.0
0.000000e+00 0.000000e+00 0.0
0.000000e+00 -8.393987e-02 0.0
-1.372579e-02 8.394113e-02 0.0
-5.852049e-03 1.027451e-01 0.0
1.838586e-02 8.419534e-02 0.0
5.126222e-02 6.154834e-02 0.0
9.157606e-02 3.672735e-02 0.0
1.419390e-01 8.245256e-03 0.0
2.054467e-01 -2.406627e-02 0.0
2.797414e-01 -5.959962e-02 0.0
3.614371e-01 -9.933892e-02 0.0
4.478612e-01 -1.427957e-01 0.0
5.352272e-01 -1.891350e-01 0.0
6.194583e-01 -2.367074e-01 0.0
6.964473e-01 -2.831703e-01 0.0
7.628325e-01 -3.255474e-01 0.0
8.162400e-01 -3.608109e-01 0.0
8.556384e-01 -3.862988e-01 0.0
8.814188e-01 -4.001432e-01 0.0
8.950035e-01 -4.015424e-01 0.0
8.984957e-01 -3.905754e-01 0.0
8.956318e-01 -3.696559e-01 0.0
8.892827e-01 -3.413727e-01 0.0
8.815563e-01 -3.083439e-01 0.0
8.738552e-01 -2.727786e-01 0.0
8.669973e-01 -2.364485e-01 0.0
8.613648e-01 -2.007518e-01 0.0
8.571512e-01 -1.669335e-01 0.0
8.542782e-01 -1.355634e-01 0.0
8.525557e-01 -1.070198e-01 0.0
8.517506e-01 -8.149002e-02 0.0
8.516285e-01 -5.901854e-02 0.0
8.519220e-01 -3.957222e-02 0.0
8.524239e-01 -2.301032e-02 0.0
8.529606e-01 -9.161407e-03 0.0
8.533910e-01 2.171959e-03 0.0
8.536190e-01 1.138268e-02 0.0
8.535995e-01 1.882781e-02 0.0
8.533181e-01 2.479106e-02 0.0
8.527790e-01 2.950615e-02 0.0
8.519980e-01 3.316968e-02 0.0
8.509972e-01 3.594895e-02 0.0
8.498014e-01 3.798711e-02 0.0
8.484357e-01 3.940682e-02 0.0
8.469238e-01 4.031334e-02 0.0
8.452869e-01 4.079685e-02 0.0
8.435404e-01 4.093369e-02 0.0
8.416967e-01 4.078429e-02 0.0
8.397702e-01 4.039634e-02 0.0
8.377744e-01 3.981376e-02 0.0
8.357220e-01 3.907622e-02 0.0
8.336242e-01 3.821819e-02 0.0
8.314907e-01 3.726945e-02 0.0
8.293299e-01 3.625549e-02 0.0
8.271491e-01 3.519789e-02 0.0
8.249547e-01 3.411479e-02 0.0
8.227520e-01 3.302131e-02 0.0
8.205458e-01 3.192991e-02 0.0
8.183403e-01 3.085075e-02 0.0
8.161391e-01 2.979201e-02 0.0
8.139452e-01 2.876021e-02 0.0
8.117614e-01 2.776038e-02 0.0
8.095900e-01 2.679636e-02 0.0
8.074330e-01 2.587090e-02 0.0
8.052921e-01 2.498589e-02 0.0
8.031686e-01 2.414243e-02 0.0
8.010637e-01 2.334096e-02 0.0
7.989784e-01 2.258127e-02 0.0
7.969133e-01 2.186261e-02 0.0
7.948690e-01 2.118363e-02 0.0
7.928458e-01 2.054245e-02 0.0
7.908439e-01 1.993653e-02 0.0
7.888637e-01 1.936269e-02 0.0
7.869052e-01 1.881701e-02 0.0
7.849684e-01 1.829535e-02 0.0
7.830534e-01 1.779200e-02 0.0
7.811607e-01 1.730030e-02 0.0
7.792907e-01 1.681250e-02 0.0
7.774444e-01 1.631968e-02 0.0
7.756235e-01 1.581152e-02 0.0
7.738299e-01 1.527616e-02 0.0
7.720670e-01 1.470001e-02 0.0
7.703393e-01 1.406746e-02 0.0
7.686533e-01 1.336054e-02 0.0
7.670182e-01 1.255831e-02 0.0
7.654477e-01 1.163599e-02 0.0
7.639620e-01 1.056333e-02 0.0
7.625921e-01 9.301859e-03 0.0
7.613874e-01 7.800304e-03 0.0
7.604271e-01 5.989003e-03 0.0
7.598345e-01 3.794277e-03 0.0
7.597378e-01 1.364159e-03 0.0
0.000000e+00 1.381125e-03 0.0
0.000000e+00 0.000000e+00 0.0
0.000000e+00 0.000000e+00 0.0
0.000000e+00 0.000000e+00 0.0
0.000000e+00 0.000000e+00 0.0
0.000000e+00 0.000000e+00 0.0
0.000000e+00 0.000000e+00 0.0
0.000000e+00 0.000000e+00 0.0
0.000000e+00 0.000000e+00 0.0
0.000000e+00 0.000000e+00 0.0
0.000000e+00 0.000000e+00 0.0
0.000000e+00 -7.885511e-02 0.0
5.115711e-03 7.885588e-02 0.0
5.390857e-02 5.396021e-02 0.0
1.174762e-01 2.063563e-02 0.0
1.906775e-01 -1.164496e-02 0.0
2.707127e-01 -4.329992e-02 0.0
3.544567e-01 -7.549083e-02 0.0
4.402445e-01 -1.098462e-01 0.0
5.269160e-01 -1.462631e-01 0.0
6.122134e-01 -1.846284e-01 0.0
6.936579e-01 -2.242322e-01 0.0
7.684850e-01 -2.639541e-01 0.0
8.339825e-01 -3.021970e-01 0.0
8.878117e-01 -3.369916e-01 0.0
9.284317e-01 -3.661595e-01 0.0