# vtk DataFile Version 3.0
Vector Field
ASCII
DATASET RECTILINEAR_GRID
DIMENSIONS 102 22 1
X_COORDINATES 102 double
0.000000 0.100000 0.200000 0.300000 0.400000 0.500000 0.600000 0.700000 0.800000 0.900000 1.000000 1.100000 1.200000 1.300000 1.400000 1.500000 1.600000 1.700000 1.800000 1.900000 2.000000 2.100000 2.200000 2.300000 2.400000 2.500000 2.600000 2.700000 2.800000 2.900000 3.000000 3.100000 3.200000 3.300000 3.400000 3.500000 3.600000 3.700000 3.800000 3.900000 4.000000 4.100000 4.200000 4.300000 4.400000 4.500000 4.600000 4.700000 4.800000 4.900000 5.000000 5.100000 5.200000 5.300000 5.400000 5.500000 5.600000 5.700000 5.800000 5.900000 6.000000 6.100000 6.200000 6.300000 6.400000 6.500000 6.600000 6.700000 6.800000 6.900000 7.000000 7.100000 7.200000 7.300000 7.400000 7.500000 7.600000 7.700000 7.800000 7.900000 8.000000 8.100000 8.200000 8.300000 8.400000 8.500000 8.600000 8.700000 8.800000 8.900000 9.000000 9.100000 9.200000 9.300000 9.400000 9.500000 9.600000 9.700000 9.800000 9.900000 10.000000 10.100000 
Y_COORDINATES 22 double
0.000000 0.100000 0.200000 0.300000 0.400000 0.500000 0.600000 0.700000 0.800000 0.900000 1.000000 1.100000 1.200000 1.300000 1.400000 1.500000 1.600000 1.700000 1.800000 1.900000 2.000000 2.100000 
Z_COORDINATES 1 double
0.0
POINT_DATA 2244
VECTORS Velocity double
0.000000e+00 0.000000e+00 0.0
-0.000000e+00 0.000000e+00 0.0
-0.000000e+00 0.000000e+00 0.0
-0.000000e+00 0.000000e+00 0.0
-0.000000e+00 0.000000e+00 0.0
-0.000000e+00 0.000000e+00 0.0
-0.000000e+00 0.000000e+00 0.0
-0.000000e+00 0.000000e+00 0.0
-0.000000e+00 0.000000e+00 0.0
-0.000000e+00 0.000000e+00 0.0
-0.000000e+00 0.000000e+00 0.0
-1.801125e-04 0.000000e+00 0.0
4.265816e-03 0.000000e+00 0.0
1.088352e-02 0.000000e+00 0.0
1.843096e-02 0.000000e+00 0.0
2.648371e-02 0.000000e+00 0.0
3.508285e-02 0.000000e+00 0.0
4.445249e-02 0.000000e+00 0.0
5.487380e-02 0.000000e+00 0.0
6.663936e-02 0.000000e+00 0.0
8.001447e-02 0.000000e+00 0.0
9.517562e-02 0.000000e+00 0.0
1.121033e-01 0.000000e+00 0.0
1.304309e-01 0.000000e+00 0.0
1.492769e-01 0.000000e+00 0.0
1.671010e-01 0.000000e+00 0.0
1.816260e-01 0.000000e+00 0.0
1.898176e-01 0.000000e+00 0.0
1.884598e-01 0.000000e+00 0.0
1.753792e-01 0.000000e+00 0.0
1.498594e-01 0.000000e+00 0.0
1.135399e-01 0.000000e+00 0.0
6.984851e-02 0.000000e+00 0.0
2.090989e-02 0.000000e+00 0.0
-2.758649e-02 0.000000e+00 0.0
-6.946506e-02 0.000000e+00 0.0
-1.028919e-01 0.000000e+00 0.0
-1.278986e-01 0.000000e+00 0.0
-1.453445e-01 0.000000e+00 0.0
-1.564239e-01 0.000000e+00 0.0
-1.624154e-01 0.000000e+00 0.0
-1.645497e-01 0.000000e+00 0.0
-1.638545e-01 0.000000e+00 0.0
-1.607936e-01 0.000000e+00 0.0
-1.560147e-01 0.000000e+00 0.0
-1.501223e-01 0.000000e+00 0.0
-1.435988e-01 0.000000e+00 0.0
-1.368017e-01 0.000000e+00 0.0
-1.299934e-01 0.000000e+00 0.0
-1.233361e-01 0.000000e+00 0.0
-1.169532e-01 0.000000e+00 0.0
-1.109290e-01 0.000000e+00 0.0
-1.053191e-01 0.000000e+00 0.0
-1.001564e-01 0.000000e+00 0.0
-9.545666e-02 0.000000e+00 0.0
-9.122345e-02 0.000000e+00 0.0
-8.745163e-02 0.000000e+00 0.0
-8.413005e-02 0.000000e+00 0.0
-8.124334e-02 0.000000e+00 0.0
-7.877303e-02 0.000000e+00 0.0
-7.669835e-02 0.000000e+00 0.0
-7.499667e-02 0.000000e+00 0.0
-7.364376e-02 0.000000e+00 0.0
-7.261389e-02 0.000000e+00 0.0
-7.187981e-02 0.000000e+00 0.0
-7.141270e-02 0.000000e+00 0.0
-7.118200e-02 0.000000e+00 0.0
-7.115514e-02 0.000000e+00 0.0
-7.129709e-02 0.000000e+00 0.0
-7.156993e-02 0.000000e+00 0.0
-7.193351e-02 0.000000e+00 0.0
-7.235123e-02 0.000000e+00 0.0
-7.281087e-02 0.000000e+00 0.0
-7.330704e-02 0.000000e+00 0.0
-7.383151e-02 0.000000e+00 0.0
-7.437427e-02 0.000000e+00 0.0
-7.492445e-02 0.000000e+00 0.0
-7.546869e-02 0.000000e+00 0.0
-7.599435e-02 0.000000e+00 0.0
-7.649185e-02 0.000000e+00 0.0
-7.695467e-02 0.000000e+00 0.0
-7.737862e-02 0.000000e+00 0.0
-7.776081e-02 0.000000e+00 0.0
-7.810119e-02 0.000000e+00 0.0
-7.840238e-02 0.000000e+00 0.0
-7.866582e-02 0.000000e+00 0.0
-7.889263e-02 0.000000e+00 0.0
-7.908470e-02 0.000000e+00 0.0
-7.924550e-02 0.000000e+00 0.0
-7.937792e-02 0.000000e+00 0.0
-7.948459e-02 0.000000e+00 0.0
-7.956829e-02 0.000000e+00 0.0
-7.963184e-02 0.000000e+00 0.0
-7.967813e-02 0.000000e+00 0.0
-7.971048e-02 0.000000e+00 0.0
-7.973307e-02 0.000000e+00 0.0
-7.975164e-02 0.000000e+00 0.0
-7.977267e-02 0.000000e+00 0.0
-7.980173e-02 0.000000e+00 0.0
-7.984451e-02 0.000000e+00 0.0
-7.984451e-02 0.000000e+00 0.0
0.000000e+00 0.000000e+00 0.0
0.000000e+00 0.000000e+00 0.0
0.000000e+00 0.000000e+00 0.0
0.000000e+00 0.000000e+00 0.0
0.000000e+00 0.000000e+00 0.0
0.000000e+00 0.000000e+00 0.0
0.000000e+00 0.000000e+00 0.0
0.000000e+00 0.000000e+00 0.0
0.000000e+00 0.000000e+00 0.0
0.000000e+00 0.000000e+00 0.0
0.000000e+00 0.000000e+00 0.0
0.000000e+00 -1.443703e-03 0.0
1.726444e-04 1.434618e-03 0.0
-4.271085e-03 5.367905e-03 0.0
-1.088711e-02 7.540198e-03 0.0
-1.843395e-02 8.471024e-03 0.0
-2.648728e-02 8.977501e-03 0.0
-3.508820e-02 9.525102e-03 0.0
-4.446093e-02 1.029690e-02 0.0
-5.488672e-02 1.134997e-02 0.0
-6.665830e-02 1.269575e-02 0.0
-8.004101e-02 1.430689e-02 0.0
-9.521125e-02 1.609442e-02 0.0
-1.121491e-01 1.786202e-02 0.0
-1.304869e-01 1.926199e-02 0.0
-1.493417e-01 1.977893e-02 0.0
-1.671704e-01 1.875295e-02 0.0
-1.816938e-01 1.544751e-02 0.0
-1.898768e-01 9.107225e-03 0.0
-1.885011e-01 -4.515348e-04 0.0
-1.753955e-01 -1.218142e-02 0.0
-1.498455e-01 -2.462575e-02 0.0
-1.134981e-01 -3.542326e-02 0.0
-6.978430e-02 -4.278962e-02 0.0
-2.082473e-02 -4.803539e-02 0.0
2.768100e-02 -4.758154e-02 0.0
6.956369e-02 -4.095851e-02 0.0
1.029932e-01 -3.250537e-02 0.0
1.280035e-01 -2.408606e-02 0.0
1.454549e-01 -1.652725e-02 0.0
1.565424e-01 -1.016329e-02 0.0
1.625439e-01 -5.077324e-03 0.0
1.646896e-01 -1.221483e-03 0.0
1.640127e-01 1.601075e-03 0.0
1.609755e-01 3.961350e-03 0.0
1.562225e-01 5.677186e-03 0.0
1.503557e-01 6.791077e-03 0.0
1.438557e-01 7.424130e-03 0.0
1.370793e-01 7.700634e-03 0.0
1.302876e-01 7.715824e-03 0.0
1.236428e-01 7.569010e-03 0.0
1.172668e-01 7.300248e-03 0.0
1.112439e-01 6.947079e-03 0.0
1.056298e-01 6.538241e-03 0.0
1.004578e-01 6.096234e-03 0.0
9.574413e-02 5.637855e-03 0.0
9.149297e-02 5.175355e-03 0.0
8.769979e-02 4.717381e-03 0.0
8.435402e-02 4.269963e-03 0.0
8.144085e-02 3.837359e-03 0.0
7.894238e-02 3.422668e-03 0.0
7.683835e-02 3.028230e-03 0.0
7.510664e-02 2.655908e-03 0.0
7.372354e-02 2.307299e-03 0.0
7.266384e-02 1.983894e-03 0.0
7.190085e-02 1.687188e-03 0.0
7.140630e-02 1.418747e-03 0.0
7.115022e-02 1.180279e-03 0.0
7.110067e-02 9.737485e-04 0.0
7.122332e-02 8.015572e-04 0.0
7.148089e-02 6.666219e-04 0.0
7.183361e-02 5.714824e-04 0.0
7.224375e-02 5.140581e-04 0.0
7.269652e-02 4.714362e-04 0.0
7.318666e-02 4.340600e-04 0.0
7.370630e-02 4.045611e-04 0.0
7.424557e-02 3.849355e-04 0.0
7.479377e-02 3.760045e-04 0.0
7.533787e-02 3.801020e-04 0.0
7.586496e-02 3.971100e-04 0.0
7.636505e-02 4.241088e-04 0.0
7.683130e-02 4.579582e-04 0.0
7.725932e-02 4.961813e-04 0.0
7.764624e-02 5.372838e-04 0.0
7.799098e-02 5.794633e-04 0.0
7.829641e-02 6.187713e-04 0.0
7.856416e-02 6.564566e-04 0.0
7.879534e-02 6.930255e-04 0.0
7.899157e-02 7.279787e-04 0.0
7.915613e-02 7.596397e-04 0.0
7.929208e-02 7.882583e-04 0.0
7.940198e-02 8.143045e-04 0.0
7.948860e-02 8.375823e-04 0.0
7.955474e-02 8.580668e-04 0.0
7.960329e-02 8.756570e-04 0.0
7.963751e-02 8.899834e-04 0.0
7.966153e-02 9.001832e-04 0.0
7.968099e-02 9.047461e-04 0.0
7.970243e-02 9.027697e-04 0.0
7.973149e-02 8.951406e-04 0.0
7.977398e-02 8.817221e-04 0.0
7.984451e-02 8.536731e-04 0.0
0.000000e+00 8.626840e-04 0.0
0.000000e+00 0.000000e+00 0.0
0.000000e+00 0.000000e+00 0.0
0.000000e+00 0.000000e+00 0.0
0.000000e+00 0.000000e+00 0.0
0.000000e+00 0.000000e+00 0.0
0.000000e+00 0.000000e+00 0.0
0.000000e+00 0.000000e+00 0.0
0.000000e+00 0.000000e+00 0.0
0.000000e+00 0.000000e+00 0.0
0.000000e+00 0.000000e+00 0.0
0.000000e+00 -6.891400e-03 0.0
-4.524476e-03 6.883270e-03 0.0
-1.735770e-02 1.844222e-02 0.0
-3.419197e-02 2.461556e-02 0.0
-5.274565e-02 2.726579e-02 0.0
-7.210525e-02 2.857819e-02 0.0
-9.213987e-02 2.980081e-02 0.0
-1.130051e-01 3.140319e-02 0.0
-1.348725e-01 3.345848e-02 0.0
-1.577892e-01 3.585352e-02 0.0
-1.815600e-01 3.831884e-02 0.0
-2.056467e-01 4.042218e-02 0.0
-2.290445e-01 4.150094e-02 0.0
-2.501374e-01 4.059597e-02 0.0
-2.665121e-01 3.639471e-02 0.0
-2.753872e-01 2.786919e-02 0.0
-2.735771e-01 1.387849e-02 0.0
-2.567025e-01 -7.526276e-03 0.0
-2.235443e-01 -3.336867e-02 0.0
-1.754896e-01 -5.999503e-02 0.0
-1.148819e-01 -8.499237e-02 0.0
-4.417599e-02 -1.058881e-01 0.0
3.233528e-02 -1.190598e-01 0.0
1.052920e-01 -1.207511e-01 0.0
1.702728e-01 -1.123212e-01 0.0
2.270728e-01 -9.751739e-02 0.0
2.748914e-01 -8.008292e-02 0.0
3.135659e-01 -6.251950e-02 0.0
3.435041e-01 -4.622432e-02 0.0
3.654552e-01 -3.187330e-02 0.0
3.803363e-01 -1.971735e-02 0.0
3.891162e-01 -9.760266e-03 0.0
3.927942e-01 -1.835886e-03 0.0
3.924755e-01 4.521128e-03 0.0
3.888272e-01 9.566654e-03 0.0
3.824840e-01 1.337529e-02 0.0
3.740196e-01 1.612962e-02 0.0
3.639335e-01 1.802782e-02 0.0
3.526398e-01 1.925065e-02 0.0
3.405532e-01 1.989672e-02 0.0
3.280519e-01 2.004262e-02 0.0
3.154469e-01 1.979317e-02 0.0
3.030029e-01 1.922330e-02 0.0
2.909387e-01 1.840162e-02 0.0
2.794309e-01 1.738669e-02 0.0
2.686186e-01 1.622874e-02 0.0
2.586069e-01 1.497019e-02 0.0
2.494710e-01 1.364697e-02 0.0
2.412595e-01 1.228996e-02 0.0
2.339973e-01 1.092593e-02 0.0
2.276884e-01 9.578234e-03 0.0
2.223182e-01 8.267248e-03 0.0
2.178559e-01 7.010672e-03 0.0
2.142571e-01 5.823810e-03 0.0
2.114656e-01 4.719767e-03 0.0
2.094158e-01 3.709585e-03 0.0
2.080348e-01 2.802371e-03 0.0
2.072442e-01 2.005507e-03 0.0
2.069618e-01 1.325001e-03 0.0
2.071037e-01 7.658145e-04 0.0
2.075852e-01 3.311519e-04 0.0
2.083228e-01 1.752082e-05 0.0
2.092451e-01 -2.098107e-04 0.0
2.102934e-01 -3.730622e-04 0.0
2.114211e-01 -4.820739e-04 0.0
2.125904e-01 -5.432686e-04 0.0
2.137697e-01 -5.622222e-04 0.0
2.149316e-01 -5.407024e-04 0.0
2.160538e-01 -4.840183e-04 0.0
2.171199e-01 -4.008094e-04 0.0
2.181193e-01 -3.003561e-04 0.0
2.190476e-01 -1.910748e-04 0.0
2.199056e-01 -7.956569e-05 0.0
2.206948e-01 3.132957e-05 0.0
2.214113e-01 1.433478e-04 0.0
2.220555e-01 2.534054e-04 0.0
2.226297e-01 3.598413e-04 0.0
2.231363e-01 4.625432e-04 0.0
2.235796e-01 5.573810e-04 0.0
2.239641e-01 6.448506e-04 0.0
2.242934e-01 7.261808e-04 0.0
2.245721e-01 7.999508e-04 0.0
2.248054e-01 8.658276e-04 0.0
2.249989e-01 9.233118e-04 0.0
2.251586e-01 9.713523e-04 0.0
2.252918e-01 1.008078e-03 0.0
2.254074e-01 1.030269e-03 0.0
2.255183e-01 1.032930e-03 0.0
2.256399e-01 1.014685e-03 0.0
2.257906e-01 9.720730e-04 0.0
2.260050e-01 8.804058e-04 0.0
0.000000e+00 8.902384e-04 0.0
0.000000e+00 0.000000e+00 0.0
0.000000e+00 0.000000e+00 0.0
0.000000e+00 0.000000e+00 0.0
0.000000e+00 0.000000e+00 0.0
0.000000e+00 0.000000e+00 0.0
0.000000e+00 0.000000e+00 0.0
0.000000e+00 0.000000e+00 0.0
0.000000e+00 0.000000e+00 0.0
0.000000e+00 0.000000e+00 0.0
0.000000e+00 0.000000e+00 0.0
0.000000e+00 -1.675850e-02 0.0
-8.945565e-03 1.675301e-02 0.0
-2.827258e-02 3.801032e-02 0.0
-5.139189e-02 4.797596e-02 0.0
-7.533076e-02 5.144575e-02 0.0
-9.895740e-02 5.244592e-02 0.0
-1.219543e-01 5.303880e-02 0.0
-1.442199e-01 5.390991e-02 0.0
-1.655963e-01 5.507596e-02 0.0
-1.857527e-01 5.625095e-02 0.0
-2.040627e-01 5.686998e-02 0.0
-2.195757e-01 5.617629e-02 0.0
-2.309857e-01 5.315197e-02 0.0
-2.367314e-01 4.658276e-02 0.0
-2.339204e-01 3.382485e-02 0.0
-2.185895e-01 1.277937e-02 0.0
-1.860133e-01 -1.845660e-02 0.0
-1.374591e-01 -5.583938e-02 0.0
-7.411163e-02 -9.647507e-02 0.0
8.901864e-04 -1.347558e-01 0.0
8.083231e-02 -1.646934e-01 0.0
1.585784e-01 -1.833931e-01 0.0
2.301590e-01 -1.903993e-01 0.0
2.935285e-01 -1.838795e-01 0.0
3.488589e-01 -1.674105e-01 0.0
3.968725e-01 -1.452899e-01 0.0
4.379213e-01 -1.208906e-01 0.0
4.722028e-01 -9.655991e-02 0.0
4.999655e-01 -7.374588e-02 0.0
5.215646e-01 -5.323132e-02 0.0
5.374466e-01 -3.535831e-02 0.0
5.481210e-01 -2.019359e-02 0.0
5.541575e-01 -7.631203e-03 0.0
5.563574e-01 2.562272e-03 0.0
5.553064e-01 1.085871e-02 0.0
5.514528e-01 1.746999e-02 0.0
5.451830e-01 2.264051e-02 0.0
5.368525e-01 2.659948e-02 0.0
5.268035e-01 2.954071e-02 0.0
5.153309e-01 3.161045e-02 0.0
5.026769e-01 3.293766e-02 0.0
4.891397e-01 3.357143e-02 0.0
4.750552e-01 3.354891e-02 0.0
4.607272e-01 3.297077e-02 0.0
4.464326e-01 3.192234e-02 0.0
4.324205e-01 3.048196e-02 0.0
4.189116e-01 2.872017e-02 0.0
4.060973e-01 2.670236e-02 0.0
3.941378e-01 2.449061e-02 0.0
3.831603e-01 2.214454e-02 0.0
3.732583e-01 1.972132e-02 0.0
3.644915e-01 1.727511e-02 0.0
3.568870e-01 1.485626e-02 0.0
3.504414e-01 1.251057e-02 0.0
3.451237e-01 1.027851e-02 0.0
3.408798e-01 8.194602e-03 0.0
3.376364e-01 6.286843e-03 0.0
3.353066e-01 4.576419e-03 0.0
3.337952e-01 3.077536e-03 0.0
3.330048e-01 1.797287e-03 0.0
3.328412e-01 7.358619e-04 0.0
3.332107e-01 -1.109040e-04 0.0
3.339661e-01 -7.241329e-04 0.0
3.349893e-01 -1.155151e-03 0.0
3.361900e-01 -1.441658e-03 0.0
3.374965e-01 -1.608684e-03 0.0
3.388523e-01 -1.676919e-03 0.0
3.402181e-01 -1.665466e-03 0.0
3.415626e-01 -1.587417e-03 0.0
3.428613e-01 -1.458362e-03 0.0
3.440964e-01 -1.294341e-03 0.0
3.452560e-01 -1.109637e-03 0.0
3.463330e-01 -9.154963e-04 0.0
3.473250e-01 -7.195088e-04 0.0
3.482361e-01 -5.266993e-04 0.0
3.490728e-01 -3.421885e-04 0.0
3.498435e-01 -1.697804e-04 0.0
3.505581e-01 -1.088052e-05 0.0
3.512160e-01 1.405435e-04 0.0
3.518149e-01 2.870692e-04 0.0
3.523539e-01 4.282869e-04 0.0
3.528357e-01 5.591565e-04 0.0
3.532638e-01 6.788543e-04 0.0
3.536422e-01 7.860488e-04 0.0
3.539762e-01 8.784607e-04 0.0
3.542722e-01 9.531585e-04 0.0
3.545381e-01 1.005423e-03 0.0
3.547847e-01 1.027425e-03 0.0
3.550316e-01 1.008914e-03 0.0
3.553052e-01 9.396013e-04 0.0
3.556415e-01 7.852135e-04 0.0
0.000000e+00 7.948466e-04 0.0
0.000000e+00 0.000000e+00 0.0
0.000000e+00 0.000000e+00 0.0
0.000000e+00 0.000000e+00 0.0
0.000000e+00 0.000000e+00 0.0
0.000000e+00 0.000000e+00 0.0
0.000000e+00 0.000000e+00 0.0
0.000000e+00 0.000000e+00 0.0
0.000000e+00 0.000000e+00 0.0
0.000000e+00 0.000000e+00 0.0
0.000000e+00 0.000000e+00 0.0
0.000000e+00 -2.907819e-02 0.0
-1.139982e-02 2.907701e-02 0.0
-3.347604e-02 6.032763e-02 0.0
-5.773697e-02 7.247798e-02 0.0
-8.089224e-02 7.484211e-02 0.0
-1.019053e-01 7.370002e-02 0.0
-1.204467e-01 7.182136e-02 0.0
-1.362996e-01 7.000390e-02 0.0
-1.491654e-01 6.818286e-02 0.0
-1.586378e-01 6.596442e-02 0.0
-1.640054e-01 6.247864e-02 0.0
-1.642346e-01 5.664662e-02 0.0
-1.574400e-01 4.659840e-02 0.0
-1.418956e-01 3.127950e-02 0.0
-1.122915e-01 4.461773e-03 0.0
-6.430449e-02 -3.496651e-02 0.0
-1.661795e-04 -8.235382e-02 0.0
7.538691e-02 -1.311514e-01 0.0
1.550609e-01 -1.759079e-01 0.0
2.334357e-01 -2.128895e-01 0.0
3.071315e-01 -2.381481e-01 0.0
3.737730e-01 -2.497934e-01 0.0
4.309066e-01 -2.472919e-01 0.0
4.791584e-01 -2.318902e-01 0.0
5.202831e-01 -2.082940e-01 0.0
5.555092e-01 -1.802750e-01 0.0
5.855683e-01 -1.507085e-01 0.0
6.108756e-01 -1.216262e-01 0.0
6.317039e-01 -9.433302e-02 0.0
6.482852e-01 -6.957156e-02 0.0
6.608594e-01 -4.769145e-02 0.0
6.696976e-01 -2.879068e-02 0.0
6.751258e-01 -1.281830e-02 0.0
6.775555e-01 3.737100e-04 0.0
6.774358e-01 1.121946e-02 0.0
6.750573e-01 2.008959e-02 0.0
6.706483e-01 2.729059e-02 0.0
6.644152e-01 3.307372e-02 0.0
6.565575e-01 3.763950e-02 0.0
6.472646e-01 4.114437e-02 0.0
6.367296e-01 4.371378e-02 0.0
6.251084e-01 4.543377e-02 0.0
6.125320e-01 4.636636e-02 0.0
5.992460e-01 4.649788e-02 0.0
5.854977e-01 4.591171e-02 0.0
5.715280e-01 4.469277e-02 0.0
5.575723e-01 4.291695e-02 0.0
5.438569e-01 4.065888e-02 0.0
5.305935e-01 3.799510e-02 0.0
5.179738e-01 3.500537e-02 0.0
5.061638e-01 3.177237e-02 0.0
4.952997e-01 2.838036e-02 0.0
4.854839e-01 2.491307e-02 0.0
4.767842e-01 2.145136e-02 0.0
4.692331e-01 1.807074e-02 0.0
4.628299e-01 1.483886e-02 0.0
4.575446e-01 1.181326e-02 0.0
4.533226e-01 9.039512e-03 0.0
4.500912e-01 6.550103e-03 0.0
4.477658e-01 4.363721e-03 0.0
4.462568e-01 2.486010e-03 0.0
4.454715e-01 9.154770e-04 0.0
4.453287e-01 -3.402529e-04 0.0
4.456668e-01 -1.252125e-03 0.0
4.463472e-01 -1.881040e-03 0.0
4.472611e-01 -2.281428e-03 0.0
4.483220e-01 -2.496784e-03 0.0
4.494669e-01 -2.569244e-03 0.0
4.506528e-01 -2.532236e-03 0.0
4.518456e-01 -2.410001e-03 0.0
4.530188e-01 -2.226519e-03 0.0
4.541534e-01 -2.003126e-03 0.0
4.552365e-01 -1.757428e-03 0.0
4.562611e-01 -1.503019e-03 0.0
4.572255e-01 -1.249992e-03 0.0
4.581301e-01 -1.005702e-03 0.0
4.589760e-01 -7.746255e-04 0.0
4.597644e-01 -5.581313e-04 0.0
4.605008e-01 -3.548466e-04 0.0
4.611940e-01 -1.649558e-04 0.0
4.618524e-01 1.092414e-05 0.0
4.624744e-01 1.782608e-04 0.0
4.630558e-01 3.385381e-04 0.0
4.635953e-01 4.876871e-04 0.0
4.640940e-01 6.208785e-04 0.0
4.645543e-01 7.339500e-04 0.0
4.649802e-01 8.206047e-04 0.0
4.653773e-01 8.714052e-04 0.0
4.657588e-01 8.685598e-04 0.0
4.661468e-01 7.926564e-04 0.0
4.665614e-01 6.117466e-04 0.0
0.000000e+00 6.204174e-04 0.0
0.000000e+00 0.000000e+00 0.0
0.000000e+00 0.000000e+00 0.0
0.000000e+00 0.000000e+00 0.0
0.000000e+00 0.000000e+00 0.0
0.000000e+00 0.000000e+00 0.0
0.000000e+00 0.000000e+00 0.0
0.000000e+00 0.000000e+00 0.0
0.000000e+00 0.000000e+00 0.0
0.000000e+00 0.000000e+00 0.0
0.000000e+00 0.000000e+00 0.0
0.000000e+00 -4.200405e-02 0.0
-1.200668e-02 4.200787e-02 0.0
-3.302351e-02 8.158554e-02 0.0
-5.358859e-02 9.328415e-02 0.0
-7.089842e-02 9.239304e-02 0.0
-8.434155e-02 8.738424e-02 0.0
-9.376236e-02 8.148325e-02 0.0
-9.902076e-02 7.550340e-02 0.0
-9.971406e-02 6.911725e-02 0.0
-9.545138e-02 6.194283e-02 0.0
-8.511873e-02 5.238708e-02 0.0
-6.732035e-02 3.908933e-02 0.0
-3.785304e-02 1.737218e-02 0.0
1.041166e-02 -1.674411e-02 0.0
7.473019e-02 -5.961566e-02 0.0
1.492300e-01 -1.092252e-01 0.0
2.286112e-01 -1.614940e-01 0.0
3.083374e-01 -2.106365e-01 0.0
3.843742e-01 -2.517036e-01 0.0
4.531787e-01 -2.814530e-01 0.0
5.129294e-01 -2.976577e-01 0.0
5.628027e-01 -2.994256e-01 0.0
6.026877e-01 -2.869358e-01 0.0
6.353570e-01 -2.643184e-01 0.0
6.626678e-01 -2.353638e-01 0.0
6.858213e-01 -2.031874e-01 0.0
7.055339e-01 -1.701800e-01 0.0
7.222045e-01 -1.380557e-01 0.0
7.360524e-01 -1.079398e-01 0.0
7.472082e-01 -8.048625e-02 0.0
7.557743e-01 -5.601654e-02 0.0
7.618641e-01 -3.463931e-02 0.0
7.656285e-01 -1.634160e-02 0.0
7.672736e-01 -1.030318e-03 0.0
7.670698e-01 1.166436e-02 0.0
7.651904e-01 2.221004e-02 0.0
7.617672e-01 3.095490e-02 0.0
7.569174e-01 3.816459e-02 0.0
7.507554e-01 4.404260e-02 0.0
7.433961e-01 4.874480e-02 0.0
7.349593e-01 5.239166e-02 0.0
7.255597e-01 5.507442e-02 0.0
7.153046e-01 5.686260e-02 0.0
7.042446e-01 5.779898e-02 0.0
6.925321e-01 5.786528e-02 0.0
6.803375e-01 5.712842e-02 0.0
6.678406e-01 5.565501e-02 0.0
6.552282e-01 5.351238e-02 0.0
6.426900e-01 5.077439e-02 0.0
6.304123e-01 4.752412e-02 0.0
6.185718e-01 4.385403e-02 0.0
6.073288e-01 3.986444e-02 0.0
5.968221e-01 3.566080e-02 0.0
5.871643e-01 3.135033e-02 0.0
5.784380e-01 2.703810e-02 0.0
5.706951e-01 2.282284e-02 0.0
5.639569e-01 1.879255e-02 0.0
5.582169e-01 1.502068e-02 0.0
5.534443e-01 1.156373e-02 0.0
5.495891e-01 8.460083e-03 0.0
5.465853e-01 5.730826e-03 0.0
5.443572e-01 3.384735e-03 0.0
5.428300e-01 1.428040e-03 0.0
5.419545e-01 -1.355453e-04 0.0
5.416070e-01 -1.292455e-03 0.0
5.416509e-01 -2.084194e-03 0.0
5.419797e-01 -2.584485e-03 0.0
5.425046e-01 -2.853127e-03 0.0
5.431628e-01 -2.949286e-03 0.0
5.439110e-01 -2.917081e-03 0.0
5.447150e-01 -2.789439e-03 0.0
5.455483e-01 -2.595310e-03 0.0
5.463911e-01 -2.359118e-03 0.0
5.472293e-01 -2.100204e-03 0.0
5.480535e-01 -1.833111e-03 0.0
5.488570e-01 -1.568035e-03 0.0
5.496348e-01 -1.311395e-03 0.0
5.503844e-01 -1.066586e-03 0.0
5.511057e-01 -8.350703e-04 0.0
5.517996e-01 -6.177157e-04 0.0
5.524659e-01 -4.143343e-04 0.0
5.531086e-01 -2.233218e-04 0.0
5.537336e-01 -4.537974e-05 0.0
5.543417e-01 1.206594e-04 0.0
5.549282e-01 2.754837e-04 0.0
5.554894e-01 4.138662e-04 0.0
5.560237e-01 5.273871e-04 0.0
5.565307e-01 6.054954e-04 0.0
5.570112e-01 6.292300e-04 0.0
5.574731e-01 5.718110e-04 0.0
5.579102e-01 4.158037e-04 0.0
0.000000e+00 4.229823e-04 0.0
0.000000e+00 0.000000e+00 0.0
0.000000e+00 0.000000e+00 0.0
0.000000e+00 0.000000e+00 0.0
0.000000e+00 0.000000e+00 0.0
0.000000e+00 0.000000e+00 0.0
0.000000e+00 0.000000e+00 0.0
0.000000e+00 0.000000e+00 0.0
0.000000e+00 0.000000e+00 0.0
0.000000e+00 0.000000e+00 0.0
0.000000e+00 0.000000e+00 0.0
0.000000e+00 -5.494929e-02 0.0
-1.202497e-02 5.495701e-02 0.0
-2.898777e-02 9.878944e-02 0.0
-4.176827e-02 1.063057e-01 0.0
-4.913591e-02 1.000018e-01 0.0
-5.120945e-02 8.969887e-02 0.0
-4.812752e-02 7.864241e-02 0.0
-3.991660e-02 6.753357e-02 0.0
-2.545329e-02 5.489503e-02 0.0
-3.676561e-03 4.040719e-02 0.0
2.860872e-02 2.034289e-02 0.0
7.626019e-02 -8.321051e-03 0.0
1.392247e-01 -4.535125e-02 0.0
2.128468e-01 -9.012506e-02 0.0
2.933572e-01 -1.398850e-01 0.0
3.756953e-01 -1.913223e-01 0.0
4.548373e-01 -2.403949e-01 0.0
5.270793e-01 -2.826374e-01 0.0
5.900254e-01 -3.144086e-01 0.0
6.423206e-01 -3.335071e-01 0.0
6.837646e-01 -3.388606e-01 0.0
7.146208e-01 -3.300407e-01 0.0
7.379105e-01 -3.099844e-01 0.0
7.560349e-01 -2.822018e-01 0.0
7.706797e-01 -2.497675e-01 0.0
7.829266e-01 -2.151932e-01 0.0
7.933988e-01 -1.804111e-01 0.0
8.024131e-01 -1.468290e-01 0.0
8.100971e-01 -1.153826e-01 0.0
8.164649e-01 -8.661301e-02 0.0
8.214818e-01 -6.079236e-02 0.0
8.251097e-01 -3.802608e-02 0.0
8.273387e-01 -1.832955e-02 0.0
8.282079e-01 -1.658367e-03 0.0
8.278117e-01 1.230162e-02 0.0
8.262175e-01 2.404535e-02 0.0
8.234837e-01 3.392980e-02 0.0
8.196699e-01 4.221946e-02 0.0
8.148410e-01 4.911265e-02 0.0
8.090678e-01 5.475906e-02 0.0
8.024276e-01 5.927291e-02 0.0
7.950006e-01 6.274256e-02 0.0
7.868659e-01 6.523835e-02 0.0
7.780917e-01 6.681431e-02 0.0
7.687026e-01 6.749551e-02 0.0
7.587955e-01 6.727658e-02 0.0
7.484829e-01 6.620874e-02 0.0
7.378922e-01 6.434411e-02 0.0
7.271624e-01 6.174530e-02 0.0
7.164385e-01 5.848911e-02 0.0
7.058666e-01 5.466706e-02 0.0
6.955881e-01 5.038398e-02 0.0
6.857349e-01 4.575517e-02 0.0
6.764236e-01 4.090271e-02 0.0
6.677518e-01 3.595094e-02 0.0
6.597946e-01 3.102117e-02 0.0
6.526025e-01 2.622572e-02 0.0
6.462026e-01 2.166173e-02 0.0
6.405997e-01 1.740773e-02 0.0
6.357785e-01 1.352238e-02 0.0
6.317055e-01 1.004485e-02 0.0
6.283333e-01 6.998097e-03 0.0
6.256081e-01 4.394253e-03 0.0
6.234775e-01 2.236223e-03 0.0
6.219076e-01 5.185511e-04 0.0
6.208421e-01 -7.776303e-04 0.0
6.201778e-01 -1.679090e-03 0.0
6.198236e-01 -2.257818e-03 0.0
6.197024e-01 -2.586985e-03 0.0
6.197560e-01 -2.729606e-03 0.0
6.199466e-01 -2.738932e-03 0.0
6.202431e-01 -2.650762e-03 0.0
6.206210e-01 -2.495924e-03 0.0
6.210608e-01 -2.298858e-03 0.0
6.215471e-01 -2.078303e-03 0.0
6.220677e-01 -1.847524e-03 0.0
6.226127e-01 -1.615371e-03 0.0
6.231746e-01 -1.387361e-03 0.0
6.237473e-01 -1.166706e-03 0.0
6.243259e-01 -9.551405e-04 0.0
6.249060e-01 -7.533264e-04 0.0
6.254852e-01 -5.614682e-04 0.0
6.260611e-01 -3.801983e-04 0.0
6.266326e-01 -2.097045e-04 0.0
6.272009e-01 -5.169628e-05 0.0
6.277644e-01 9.137589e-05 0.0
6.283171e-01 2.158567e-04 0.0
6.288519e-01 3.117512e-04 0.0
6.293598e-01 3.624796e-04 0.0
6.298307e-01 3.419695e-04 0.0
6.302362e-01 2.513691e-04 0.0
0.000000e+00 2.567974e-04 0.0
0.000000e+00 0.000000e+00 0.0
0.000000e+00 0.000000e+00 0.0
0.000000e+00 0.000000e+00 0.0
0.000000e+00 0.000000e+00 0.0
0.000000e+00 0.000000e+00 0.0
0.000000e+00 0.000000e+00 0.0
0.000000e+00 0.000000e+00 0.0
0.000000e+00 0.000000e+00 0.0
0.000000e+00 0.000000e+00 0.0
0.000000e+00 0.000000e+00 0.0
0.000000e+00 -6.868858e-02 0.0
-1.281650e-02 6.869768e-02 0.0
-2.223758e-02 1.084516e-01 0.0
-2.207344e-02 1.063827e-01 0.0
-1.442241e-02 9.259184e-02 0.0
-2.150625e-04 7.573261e-02 0.0
2.065812e-02 5.801032e-02 0.0
4.800859e-02 4.042419e-02 0.0
8.457518e-02 1.856954e-02 0.0
1.347161e-01 -9.492637e-03 0.0
1.983898e-01 -4.308975e-02 0.0
2.723959e-01 -8.208601e-02 0.0
3.533306e-01 -1.260449e-01 0.0
4.368539e-01 -1.734073e-01 0.0
5.187187e-01 -2.215087e-01 0.0
5.948327e-01 -2.671952e-01 0.0
6.618046e-01 -3.071256e-01 0.0
7.175627e-01 -3.381544e-01 0.0
7.613625e-01 -3.579674e-01 0.0
7.934628e-01 -3.653663e-01 0.0
8.147212e-01 -3.598778e-01 0.0
8.279592e-01 -3.430376e-01 0.0
8.359999e-01 -3.177840e-01 0.0
8.409545e-01 -2.869152e-01 0.0
8.442807e-01 -2.528526e-01 0.0
8.468859e-01 -2.175573e-01 0.0
8.492549e-01 -1.825391e-01 0.0
8.516011e-01 -1.489341e-01 0.0
8.539589e-01 -1.174993e-01 0.0
8.562318e-01 -8.864490e-02 0.0
8.582615e-01 -6.258096e-02 0.0
8.598745e-01 -3.939792e-02 0.0
8.609149e-01 -1.912887e-02 0.0
8.612676e-01 -1.770011e-03 0.0
8.608646e-01 1.294575e-02 0.0
8.596698e-01 2.548118e-02 0.0
8.576719e-01 3.616881e-02 0.0
8.548794e-01 4.525306e-02 0.0
8.513175e-01 5.291565e-02 0.0
8.470247e-01 5.929297e-02 0.0
8.420497e-01 6.448894e-02 0.0
8.364484e-01 6.858502e-02 0.0
8.302797e-01 7.164806e-02 0.0
8.236006e-01 7.373453e-02 0.0
8.164497e-01 7.488751e-02 0.0
8.088512e-01 7.511620e-02 0.0
8.008657e-01 7.443533e-02 0.0
7.925719e-01 7.287906e-02 0.0
7.840612e-01 7.049704e-02 0.0
7.754342e-01 6.735725e-02 0.0
7.667961e-01 6.354621e-02 0.0
7.582537e-01 5.916749e-02 0.0
7.499108e-01 5.433911e-02 0.0
7.418649e-01 4.918979e-02 0.0
7.342025e-01 4.385442e-02 0.0
7.269960e-01 3.846869e-02 0.0
7.203006e-01 3.316226e-02 0.0
7.141540e-01 2.804938e-02 0.0
7.085782e-01 2.322465e-02 0.0
7.035791e-01 1.876261e-02 0.0
6.991475e-01 1.471750e-02 0.0
6.952618e-01 1.112497e-02 0.0
6.918921e-01 8.004987e-03 0.0
6.890060e-01 5.363455e-03 0.0
6.865730e-01 3.192584e-03 0.0
6.845646e-01 1.471881e-03 0.0
6.829633e-01 1.633687e-04 0.0
6.817248e-01 -7.782229e-04 0.0
6.807865e-01 -1.407606e-03 0.0
6.800902e-01 -1.792208e-03 0.0
6.795893e-01 -1.996929e-03 0.0
6.792532e-01 -2.073625e-03 0.0
6.790575e-01 -2.059120e-03 0.0
6.789814e-01 -1.981625e-03 0.0
6.790078e-01 -1.863568e-03 0.0
6.791220e-01 -1.720720e-03 0.0
6.793117e-01 -1.563955e-03 0.0
6.795659e-01 -1.400459e-03 0.0
6.798750e-01 -1.234687e-03 0.0
6.802302e-01 -1.069212e-03 0.0
6.806234e-01 -9.054439e-04 0.0
6.810474e-01 -7.443483e-04 0.0
6.814952e-01 -5.869243e-04 0.0
6.819609e-01 -4.343346e-04 0.0
6.824389e-01 -2.885762e-04 0.0
6.829236e-01 -1.522615e-04 0.0
6.834103e-01 -2.975880e-05 0.0
6.838909e-01 7.231934e-05 0.0
6.843507e-01 1.437509e-04 0.0
6.847667e-01 1.670311e-04 0.0
6.851025e-01 1.566626e-04 0.0
0.000000e+00 1.603081e-04 0.0
0.000000e+00 0.000000e+00 0.0
0.000000e+00 0.000000e+00 0.0
0.000000e+00 0.000000e+00 0.0
0.000000e+00 0.000000e+00 0.0
0.000000e+00 0.000000e+00 0.0
0.000000e+00 0.000000e+00 0.0
0.000000e+00 0.000000e+00 0.0
0.000000e+00 0.000000e+00 0.0
0.000000e+00 0.000000e+00 0.0
0.000000e+00 0.000000e+00 0.0
0.000000e+00 -8.265744e-02 0.0
-1.304342e-02 8.266528e-02 0.0
-5.732676e-03 1.013820e-01 0.0
1.756356e-02 8.332753e-02 0.0
4.916990e-02 6.122659e-02 0.0
8.732066e-02 3.782294e-02 0.0
1.341273e-01 1.144472e-02 0.0
1.929236e-01 -1.813100e-02 0.0
2.619580e-01 -5.022376e-02 0.0
3.382987e-01 -8.559223e-02 0.0
4.196307e-01 -1.241806e-01 0.0
5.030978e-01 -1.653121e-01 0.0
5.852361e-01 -2.079420e-01 0.0
6.624577e-01 -2.503878e-01 0.0
7.315734e-01 -2.903833e-01 0.0
7.900534e-01 -3.254341e-01 0.0
8.363116e-01 -3.531427e-01 0.0
8.699274e-01 -3.715291e-01 0.0
8.915348e-01 -3.793337e-01 0.0
9.024250e-01 -3.760154e-01 0.0
9.050888e-01 -3.623006e-01 0.0
9.025962e-01 -3.403039e-01 0.0
8.972878e-01 -3.122345e-01 0.0
8.908998e-01 -2.802862e-01 0.0
8.845994e-01 -2.463110e-01 0.0
8.790745e-01 -2.117913e-01 0.0
8.746441e-01 -1.778676e-01 0.0
8.714128e-01 -1.454616e-01 0.0
8.693286e-01 -1.151740e-01 0.0
8.681973e-01 -8.727244e-02 0.0
8.677643e-01 -6.190687e-02 0.0
8.677537e-01 -3.914622e-02 0.0
8.678942e-01 -1.902834e-02 0.0
8.679404e-01 -1.575059e-03 0.0
8.676886e-01 1.343860e-02 0.0
8.670121e-01 2.639878e-02 0.0
8.658351e-01 3.758693e-02 0.0
8.641185e-01 4.721074e-02 0.0
8.618506e-01 5.542462e-02 0.0
8.590403e-01 6.234439e-02 0.0
8.557115e-01 6.805880e-02 0.0
8.518989e-01 7.263870e-02 0.0
8.476439e-01 7.614423e-02 0.0
8.429901e-01 7.862940e-02 0.0
8.379766e-01 8.014205e-02 0.0
8.326184e-01 8.071554e-02 0.0
8.269402e-01 8.035457e-02 0.0
8.209863e-01 7.907408e-02 0.0
8.148118e-01 7.691263e-02 0.0
8.084803e-01 7.392988e-02 0.0
8.020609e-01 7.020664e-02 0.0
7.956262e-01 6.584337e-02 0.0
7.892488e-01 6.095756e-02 0.0
7.829996e-01 5.568009e-02 0.0
7.769444e-01 5.015075e-02 0.0
7.711408e-01 4.451332e-02 0.0
7.656339e-01 3.891030e-02 0.0
7.604567e-01 3.346770e-02 0.0
7.556331e-01 2.828929e-02 0.0
7.511770e-01 2.345985e-02 0.0
7.470916e-01 1.904396e-02 0.0
7.433715e-01 1.508621e-02 0.0
7.400049e-01 1.161266e-02 0.0
7.369774e-01 8.632089e-03 0.0
7.342741e-01 6.136986e-03 0.0
7.318822e-01 4.104872e-03 0.0
7.297883e-01 2.498379e-03 0.0
7.279792e-01 1.271894e-03 0.0
7.264436e-01 3.691670e-04 0.0
7.251617e-01 -2.692850e-04 0.0
7.241027e-01 -6.967995e-04 0.0
7.232354e-01 -9.651890e-04 0.0
7.225354e-01 -1.118084e-03 0.0
7.219856e-01 -1.190738e-03 0.0
7.215718e-01 -1.208587e-03 0.0
7.212807e-01 -1.188551e-03 0.0
7.211004e-01 -1.142618e-03 0.0
7.210200e-01 -1.078964e-03 0.0
7.210292e-01 -1.002726e-03 0.0
7.211180e-01 -9.168875e-04 0.0
7.212767e-01 -8.230567e-04 0.0
7.214957e-01 -7.223181e-04 0.0
7.217657e-01 -6.157648e-04 0.0
7.220772e-01 -5.047890e-04 0.0
7.224211e-01 -3.913212e-04 0.0
7.227878e-01 -2.779016e-04 0.0
7.231673e-01 -1.681338e-04 0.0
7.235475e-01 -6.680603e-05 0.0
7.239129e-01 1.941856e-05 0.0
7.242371e-01 8.391637e-05 0.0
7.244897e-01 1.451982e-04 0.0
0.000000e+00 1.473432e-04 0.0
0.000000e+00 0.000000e+00 0.0
0.000000e+00 0.000000e+00 0.0
0.000000e+00 0.000000e+00 0.0
0.000000e+00 0.000000e+00 0.0
0.000000e+00 0.000000e+00 0.0
0.000000e+00 0.000000e+00 0.0
0.000000e+00 0.000000e+00 0.0
0.000000e+00 0.000000e+00 0.0
0.000000e+00 0.000000e+00 0.0
0.000000e+00 0.000000e+00 0.0
0.000000e+00 -7.809658e-02 0.0
5.488394e-03 7.810106e-02 0.0
5.301354e-02 5.409790e-02 0.0
1.146730e-01 2.190917e-02 0.0
1.849179e-01 -8.777230e-03 0.0
2.615501e-01 -3.856822e-02 0.0
3.415896e-01 -6.835366e-02 0.0
4.235079e-01 -9.980816e-02 0.0
5.064164e-01 -1.328912e-01 0.0
5.885832e-01 -1.675180e-01 0.0
6.679032e-01 -2.032596e-01 0.0