# vtk DataFile Version 3.0
Vector Field
ASCII
DATASET RECTILINEAR_GRID
DIMENSIONS 102 22 1
X_COORDINATES 102 double
0.000000 0.100000 0.200000 0.300000 0.400000 0.500000 0.600000 0.700000 0.800000 0.900000 1.000000 1.100000 1.200000 1.300000 1.400000 1.500000 1.600000 1.700000 1.800000 1.900000 2.000000 2.100000 2.200000 2.300000 2.400000 2.500000 2.600000 2.700000 2.800000 2.900000 3.000000 3.100000 3.200000 3.300000 3.400000 3.500000 3.600000 3.700000 3.800000 3.900000 4.000000 4.100000 4.200000 4.300000 4.400000 4.500000 4.600000 4.700000 4.800000 4.900000 5.000000 5.100000 5.200000 5.300000 5.400000 5.500000 5.600000 5.700000 5.800000 5.900000 6.000000 6.100000 6.200000 6.300000 6.400000 6.500000 6.600000 6.700000 6.800000 6.900000 7.000000 7.100000 7.200000 7.300000 7.400000 7.500000 7.600000 7.700000 7.800000 7.900000 8.000000 8.100000 8.200000 8.300000 8.400000 8.500000 8.600000 8.700000 8.800000 8.900000 9.000000 9.100000 9.200000 9.300000 9.400000 9.500000 9.600000 9.700000 9.800000 9.900000 10.000000 10.100000 
Y_COORDINATES 22 double
0.000000 0.100000 0.200000 0.300000 0.400000 0.500000 0.600000 0.700000 0.800000 0.900000 1.000000 1.100000 1.200000 1.300000 1.400000 1.500000 1.600000 1.700000 1.800000 1.900000 2.000000 2.100000 
Z_COORDINATES 1 double
0.0
POINT_DATA 2244
VECTORS Velocity double
0.000000e+00 0.000000e+00 0.0
-0.000000e+00 0.000000e+00 0.0
-0.000000e+00 0.000000e+00 0.0
-0.000000e+00 0.000000e+00 0.0
-0.000000e+00 0.000000e+00 0.0
-0.000000e+00 0.000000e+00 0.0
-0.000000e+00 0.000000e+00 0.0
-0.000000e+00 0.000000e+00 0.0
-0.000000e+00 0.000000e+00 0.0
-0.000000e+00 0.000000e+00 0.0
-0.000000e+00 0.000000e+00 0.0
5.051600e-04 0.000000e+00 0.0
4.860966e-03 0.000000e+00 0.0
1.158093e-02 0.000000e+00 0.0
1.947383e-02 0.000000e+00 0.0
2.814597e-02 0.000000e+00 0.0
3.768004e-02 0.000000e+00 0.0
4.835329e-02 0.000000e+00 0.0
6.050708e-02 0.000000e+00 0.0
7.448431e-02 0.000000e+00 0.0
9.055950e-02 0.000000e+00 0.0
1.088353e-01 0.000000e+00 0.0
1.290801e-01 0.000000e+00 0.0
1.505478e-01 0.000000e+00 0.0
1.717595e-01 0.000000e+00 0.0
1.901690e-01 0.000000e+00 0.0
2.024603e-01 0.000000e+00 0.0
2.047884e-01 0.000000e+00 0.0
1.939239e-01 0.000000e+00 0.0
1.687603e-01 0.000000e+00 0.0
1.304333e-01 0.000000e+00 0.0
8.274348e-02 0.000000e+00 0.0
2.862994e-02 0.000000e+00 0.0
-2.602831e-02 0.000000e+00 0.0
-7.356939e-02 0.000000e+00 0.0
-1.115906e-01 0.000000e+00 0.0
-1.400708e-01 0.000000e+00 0.0
-1.600114e-01 0.000000e+00 0.0
-1.728050e-01 0.000000e+00 0.0
-1.799237e-01 0.000000e+00 0.0
-1.827729e-01 0.000000e+00 0.0
-1.826244e-01 0.000000e+00 0.0
-1.803169e-01 0.000000e+00 0.0
-1.763907e-01 0.000000e+00 0.0
-1.714072e-01 0.000000e+00 0.0
-1.658413e-01 0.000000e+00 0.0
-1.600548e-01 0.000000e+00 0.0
-1.543021e-01 0.000000e+00 0.0
-1.487296e-01 0.000000e+00 0.0
-1.434316e-01 0.000000e+00 0.0
-1.384570e-01 0.000000e+00 0.0
-1.338265e-01 0.000000e+00 0.0
-1.295420e-01 0.000000e+00 0.0
-1.255940e-01 0.000000e+00 0.0
-1.219667e-01 0.000000e+00 0.0
-1.186410e-01 0.000000e+00 0.0
-1.155964e-01 0.000000e+00 0.0
-1.128123e-01 0.000000e+00 0.0
-1.102686e-01 0.000000e+00 0.0
-1.079461e-01 0.000000e+00 0.0
-1.058266e-01 0.000000e+00 0.0
-1.038929e-01 0.000000e+00 0.0
-1.021287e-01 0.000000e+00 0.0
-1.005191e-01 0.000000e+00 0.0
-9.904996e-02 0.000000e+00 0.0
-9.770837e-02 0.000000e+00 0.0
-9.648229e-02 0.000000e+00 0.0
-9.536067e-02 0.000000e+00 0.0
-9.433337e-02 0.000000e+00 0.0
-9.339112e-02 0.000000e+00 0.0
-9.252548e-02 0.000000e+00 0.0
-9.172880e-02 0.000000e+00 0.0
-9.099414e-02 0.000000e+00 0.0
-9.031527e-02 0.000000e+00 0.0
-8.968660e-02 0.000000e+00 0.0
-8.910313e-02 0.000000e+00 0.0
-8.856046e-02 0.000000e+00 0.0
-8.805470e-02 0.000000e+00 0.0
-8.758249e-02 0.000000e+00 0.0
-8.714097e-02 0.000000e+00 0.0
-8.672775e-02 0.000000e+00 0.0
-8.634093e-02 0.000000e+00 0.0
-8.597908e-02 0.000000e+00 0.0
-8.564127e-02 0.000000e+00 0.0
-8.532709e-02 0.000000e+00 0.0
-8.503663e-02 0.000000e+00 0.0
-8.477058e-02 0.000000e+00 0.0
-8.453022e-02 0.000000e+00 0.0
-8.431745e-02 0.000000e+00 0.0
-8.413484e-02 0.000000e+00 0.0
-8.398558e-02 0.000000e+00 0.0
-8.387344e-02 0.000000e+00 0.0
-8.380270e-02 0.000000e+00 0.0
-8.377796e-02 0.000000e+00 0.0
-8.380367e-02 0.000000e+00 0.0
-8.387988e-02 0.000000e+00 0.0
-8.399826e-02 0.000000e+00 0.0
-8.414101e-02 0.000000e+00 0.0
-8.428458e-02 0.000000e+00 0.0
-8.437465e-02 0.000000e+00 0.0
-8.437465e-02 0.000000e+00 0.0
0.000000e+00 0.000000e+00 0.0
0.000000e+00 0.000000e+00 0.0
0.000000e+00 0.000000e+00 0.0
0.000000e+00 0.000000e+00 0.0
0.000000e+00 0.000000e+00 0.0
0.000000e+00 0.000000e+00 0.0
0.000000e+00 0.000000e+00 0.0
0.000000e+00 0.000000e+00 0.0
0.000000e+00 0.000000e+00 0.0
0.000000e+00 0.000000e+00 0.0
0.000000e+00 0.000000e+00 0.0
0.000000e+00 -5.461675e-04 0.0
-5.053176e-04 5.459070e-04 0.0
-4.861259e-03 4.379280e-03 0.0
-1.158158e-02 6.743659e-03 0.0
-1.947508e-02 7.916843e-03 0.0
-2.814811e-02 8.696363e-03 0.0
-3.768342e-02 9.558650e-03 0.0
-4.835832e-02 1.069825e-02 0.0
-6.051427e-02 1.217928e-02 0.0
-7.449416e-02 1.400324e-02 0.0
-9.057252e-02 1.610169e-02 0.0
-1.088518e-01 1.830264e-02 0.0
-1.291002e-01 2.027175e-02 0.0
-1.505711e-01 2.149425e-02 0.0
-1.717847e-01 2.123690e-02 0.0
-1.901935e-01 1.843218e-02 0.0
-2.024803e-01 1.231007e-02 0.0
-2.047991e-01 2.342194e-03 0.0
-1.939213e-01 -1.085444e-02 0.0
-1.687418e-01 -2.515616e-02 0.0
-1.304003e-01 -3.831823e-02 0.0
-8.269911e-02 -4.767782e-02 0.0
-2.857591e-02 -5.409985e-02 0.0
2.608549e-02 -5.463806e-02 0.0
7.362211e-02 -4.751328e-02 0.0
1.116361e-01 -3.799069e-02 0.0
1.401085e-01 -2.844897e-02 0.0
1.600417e-01 -1.990987e-02 0.0
1.728287e-01 -1.276370e-02 0.0
1.799419e-01 -7.089844e-03 0.0
1.827867e-01 -2.821435e-03 0.0
1.826349e-01 1.750990e-04 0.0
1.803247e-01 2.333597e-03 0.0
1.763964e-01 3.951648e-03 0.0
1.714112e-01 5.008484e-03 0.0
1.658443e-01 5.590255e-03 0.0
1.600572e-01 5.810429e-03 0.0
1.543041e-01 5.776474e-03 0.0
1.487314e-01 5.595996e-03 0.0
1.434334e-01 5.321324e-03 0.0
1.384589e-01 4.997845e-03 0.0
1.338286e-01 4.653671e-03 0.0
1.295443e-01 4.307662e-03 0.0
1.255965e-01 3.971099e-03 0.0
1.219695e-01 3.650393e-03 0.0
1.186440e-01 3.348823e-03 0.0
1.155997e-01 3.067702e-03 0.0
1.128158e-01 2.807168e-03 0.0
1.102725e-01 2.566716e-03 0.0
1.079503e-01 2.345510e-03 0.0
1.058311e-01 2.142559e-03 0.0
1.038976e-01 1.956811e-03 0.0
1.021338e-01 1.787196e-03 0.0
1.005245e-01 1.632649e-03 0.0
9.905568e-02 1.492122e-03 0.0
9.771443e-02 1.364592e-03 0.0
9.648871e-02 1.249069e-03 0.0
9.536746e-02 1.144596e-03 0.0
9.434055e-02 1.050258e-03 0.0
9.339871e-02 9.651824e-04 0.0
9.253351e-02 8.885438e-04 0.0
9.173729e-02 8.195619e-04 0.0
9.100314e-02 7.575030e-04 0.0
9.032480e-02 7.016785e-04 0.0
8.969671e-02 6.514427e-04 0.0
8.911387e-02 6.061895e-04 0.0
8.857186e-02 5.653483e-04 0.0
8.806683e-02 5.283795e-04 0.0
8.759541e-02 4.947688e-04 0.0
8.715473e-02 4.640212e-04 0.0
8.674243e-02 4.356543e-04 0.0
8.635658e-02 4.091913e-04 0.0
8.599578e-02 3.841533e-04 0.0
8.565907e-02 3.600514e-04 0.0
8.534604e-02 3.363780e-04 0.0
8.505679e-02 3.126002e-04 0.0
8.479198e-02 2.881541e-04 0.0
8.455288e-02 2.624435e-04 0.0
8.434139e-02 2.348431e-04 0.0
8.416003e-02 2.047100e-04 0.0
8.401196e-02 1.714085e-04 0.0
8.390096e-02 1.343507e-04 0.0
8.383126e-02 9.304858e-05 0.0
8.380744e-02 4.716830e-05 0.0
8.383396e-02 -3.169677e-06 0.0
8.391072e-02 -5.341559e-05 0.0
8.402938e-02 -9.531592e-05 0.0
8.417224e-02 -1.195046e-04 0.0
8.431584e-02 -1.202590e-04 0.0
8.440605e-02 -6.686274e-05 0.0
8.437465e-02 5.475417e-05 0.0
0.000000e+00 5.545928e-05 0.0
0.000000e+00 0.000000e+00 0.0
0.000000e+00 0.000000e+00 0.0
0.000000e+00 0.000000e+00 0.0
0.000000e+00 0.000000e+00 0.0
0.000000e+00 0.000000e+00 0.0
0.000000e+00 0.000000e+00 0.0
0.000000e+00 0.000000e+00 0.0
0.000000e+00 0.000000e+00 0.0
0.000000e+00 0.000000e+00 0.0
0.000000e+00 0.000000e+00 0.0
0.000000e+00 -6.310892e-03 0.0
-5.741751e-03 6.310997e-03 0.0
-1.924066e-02 1.788428e-02 0.0
-3.695557e-02 2.446465e-02 0.0
-5.674164e-02 2.770900e-02 0.0
-7.777807e-02 2.973889e-02 0.0
-9.997393e-02 3.176060e-02 0.0
-1.234700e-01 3.420037e-02 0.0
-1.483620e-01 3.707738e-02 0.0
-1.745331e-01 4.018043e-02 0.0
-2.015047e-01 4.307940e-02 0.0
-2.283211e-01 4.512517e-02 0.0
-2.533853e-01 4.534203e-02 0.0
-2.743554e-01 4.247043e-02 0.0
-2.881611e-01 3.504866e-02 0.0
-2.911589e-01 2.143606e-02 0.0
-2.789199e-01 7.717146e-05 0.0
-2.482070e-01 -2.836462e-02 0.0
-1.998853e-01 -5.917004e-02 0.0
-1.367940e-01 -8.824137e-02 0.0
-6.131284e-02 -1.137933e-01 0.0
2.168283e-02 -1.306674e-01 0.0
1.022971e-01 -1.347080e-01 0.0
1.742119e-01 -1.265468e-01 0.0
2.372592e-01 -1.105545e-01 0.0
2.906012e-01 -9.132656e-02 0.0
3.340663e-01 -7.190794e-02 0.0
3.681271e-01 -5.396465e-02 0.0
3.936426e-01 -3.827310e-02 0.0
4.116575e-01 -2.509867e-02 0.0
4.232695e-01 -1.442736e-02 0.0
4.295375e-01 -6.086821e-03 0.0
4.316763e-01 2.009769e-04 0.0
4.306419e-01 4.992129e-03 0.0
4.270985e-01 8.557946e-03 0.0
4.216409e-01 1.105392e-02 0.0
4.147686e-01 1.268878e-02 0.0
4.068903e-01 1.366096e-02 0.0
3.983864e-01 1.410595e-02 0.0
3.895714e-01 1.414241e-02 0.0
3.806699e-01 1.390540e-02 0.0
3.718522e-01 1.347745e-02 0.0
3.632398e-01 1.292618e-02 0.0
3.549177e-01 1.229933e-02 0.0
3.469425e-01 1.163161e-02 0.0
3.393497e-01 1.094781e-02 0.0
3.321581e-01 1.026535e-02 0.0
3.253751e-01 9.596287e-03 0.0
3.189990e-01 8.948854e-03 0.0
3.130220e-01 8.328582e-03 0.0
3.074316e-01 7.739053e-03 0.0
3.022121e-01 7.182414e-03 0.0
2.973457e-01 6.659746e-03 0.0
2.928131e-01 6.171323e-03 0.0
2.885945e-01 5.716807e-03 0.0
2.846698e-01 5.295398e-03 0.0
2.810190e-01 4.905953e-03 0.0
2.776226e-01 4.547080e-03 0.0
2.744617e-01 4.217212e-03 0.0
2.715183e-01 3.914676e-03 0.0
2.687752e-01 3.637733e-03 0.0
2.662162e-01 3.384622e-03 0.0
2.638262e-01 3.153587e-03 0.0
2.615911e-01 2.942897e-03 0.0
2.594978e-01 2.750864e-03 0.0
2.575342e-01 2.575843e-03 0.0
2.556894e-01 2.416243e-03 0.0
2.539534e-01 2.270517e-03 0.0
2.523171e-01 2.137157e-03 0.0
2.507725e-01 2.014684e-03 0.0
2.493126e-01 1.901636e-03 0.0
2.479313e-01 1.796546e-03 0.0
2.466237e-01 1.697924e-03 0.0
2.453856e-01 1.604240e-03 0.0
2.442141e-01 1.513891e-03 0.0
2.431076e-01 1.425185e-03 0.0
2.420656e-01 1.336317e-03 0.0
2.410887e-01 1.245365e-03 0.0
2.401794e-01 1.150287e-03 0.0
2.393412e-01 1.048943e-03 0.0
2.385796e-01 9.391601e-04 0.0
2.379012e-01 8.188527e-04 0.0
2.373141e-01 6.862637e-04 0.0
2.368269e-01 5.404282e-04 0.0
2.364476e-01 3.822427e-04 0.0
2.361828e-01 2.173950e-04 0.0
2.360353e-01 5.831737e-05 0.0
2.359953e-01 -7.345094e-05 0.0
2.360159e-01 -1.347252e-04 0.0
2.360294e-01 -7.423810e-05 0.0
2.359335e-01 1.567424e-04 0.0
0.000000e+00 1.588378e-04 0.0
0.000000e+00 0.000000e+00 0.0
0.000000e+00 0.000000e+00 0.0
0.000000e+00 0.000000e+00 0.0
0.000000e+00 0.000000e+00 0.0
0.000000e+00 0.000000e+00 0.0
0.000000e+00 0.000000e+00 0.0
0.000000e+00 0.000000e+00 0.0
0.000000e+00 0.000000e+00 0.0
0.000000e+00 0.000000e+00 0.0
0.000000e+00 0.000000e+00 0.0
0.000000e+00 -1.683886e-02 0.0
-1.050529e-02 1.683963e-02 0.0
-3.107202e-02 3.845710e-02 0.0
-5.556138e-02 4.896010e-02 0.0
-8.104018e-02 5.319388e-02 0.0
-1.064124e-01 5.511718e-02 0.0
-1.313265e-01 5.668080e-02 0.0
-1.555705e-01 5.845041e-02 0.0
-1.788189e-01 6.033195e-02 0.0
-2.005072e-01 6.187475e-02 0.0
-2.196908e-01 6.226917e-02 0.0
-2.350722e-01 6.051265e-02 0.0
-2.448887e-01 5.516462e-02 0.0
-2.468171e-01 4.440488e-02 0.0
-2.371429e-01 2.538056e-02 0.0
-2.097338e-01 -5.966909e-03 0.0
-1.637396e-01 -4.591100e-02 0.0
-1.004265e-01 -9.167163e-02 0.0
-2.271158e-02 -1.368789e-01 0.0
6.332409e-02 -1.742709e-01 0.0
1.478199e-01 -1.982831e-01 0.0
2.259945e-01 -2.088358e-01 0.0
2.953742e-01 -2.040816e-01 0.0
3.559973e-01 -1.871639e-01 0.0
4.088508e-01 -1.634019e-01 0.0
4.544155e-01 -1.368851e-01 0.0
4.929399e-01 -1.104263e-01 0.0
5.247138e-01 -8.573246e-02 0.0
5.501470e-01 -6.370021e-02 0.0
5.697519e-01 -4.469744e-02 0.0
5.841022e-01 -2.877154e-02 0.0
5.938039e-01 -1.578244e-02 0.0
5.994936e-01 -5.482629e-03 0.0
6.020316e-01 2.460217e-03 0.0
6.019774e-01 8.618224e-03 0.0
5.997958e-01 1.324158e-02 0.0
5.958850e-01 1.660569e-02 0.0
5.905933e-01 1.895877e-02 0.0
5.842003e-01 2.050503e-02 0.0
5.769206e-01 2.142811e-02 0.0
5.689938e-01 2.183836e-02 0.0
5.606437e-01 2.183359e-02 0.0
5.520458e-01 2.153019e-02 0.0
5.433436e-01 2.100767e-02 0.0
5.346518e-01 2.032946e-02 0.0
5.260612e-01 1.954452e-02 0.0
5.176423e-01 1.869031e-02 0.0
5.094492e-01 1.779548e-02 0.0
5.015220e-01 1.688212e-02 0.0
4.938894e-01 1.596728e-02 0.0
4.865705e-01 1.506411e-02 0.0
4.795763e-01 1.418263e-02 0.0
4.729118e-01 1.333037e-02 0.0
4.665764e-01 1.251279e-02 0.0
4.605656e-01 1.173369e-02 0.0
4.548716e-01 1.099549e-02 0.0
4.494842e-01 1.029949e-02 0.0
4.443912e-01 9.646109e-03 0.0
4.395795e-01 9.035033e-03 0.0
4.350349e-01 8.465390e-03 0.0
4.307428e-01 7.935878e-03 0.0
4.266887e-01 7.444869e-03 0.0
4.228579e-01 6.990501e-03 0.0
4.192361e-01 6.570744e-03 0.0
4.158096e-01 6.183460e-03 0.0
4.125651e-01 5.826439e-03 0.0
4.094900e-01 5.497427e-03 0.0
4.065725e-01 5.194145e-03 0.0
4.038014e-01 4.914290e-03 0.0
4.011667e-01 4.655534e-03 0.0
3.986589e-01 4.415511e-03 0.0
3.962697e-01 4.191797e-03 0.0
3.939918e-01 3.981885e-03 0.0
3.918190e-01 3.783152e-03 0.0
3.897462e-01 3.592817e-03 0.0
3.877696e-01 3.407900e-03 0.0
3.858868e-01 3.225186e-03 0.0
3.840970e-01 3.041204e-03 0.0
3.824012e-01 2.852210e-03 0.0
3.808020e-01 2.654206e-03 0.0
3.793043e-01 2.443004e-03 0.0
3.779148e-01 2.214390e-03 0.0
3.766427e-01 1.964454e-03 0.0
3.754990e-01 1.690257e-03 0.0
3.744961e-01 1.391186e-03 0.0
3.736479e-01 1.071672e-03 0.0
3.729673e-01 7.450562e-04 0.0
3.724598e-01 4.401318e-04 0.0
3.721177e-01 2.135137e-04 0.0
3.719097e-01 1.398520e-04 0.0
3.717670e-01 3.054586e-04 0.0
0.000000e+00 3.095975e-04 0.0
0.000000e+00 0.000000e+00 0.0
0.000000e+00 0.000000e+00 0.0
0.000000e+00 0.000000e+00 0.0
0.000000e+00 0.000000e+00 0.0
0.000000e+00 0.000000e+00 0.0
0.000000e+00 0.000000e+00 0.0
0.000000e+00 0.000000e+00 0.0
0.000000e+00 0.000000e+00 0.0
0.000000e+00 0.000000e+00 0.0
0.000000e+00 0.000000e+00 0.0
0.000000e+00 -2.989835e-02 0.0
-1.303672e-02 2.989969e-02 0.0
-3.643327e-02 6.185973e-02 0.0
-6.197573e-02 7.450866e-02 0.0
-8.631624e-02 7.754048e-02 0.0
-1.083815e-01 7.718849e-02 0.0
-1.277667e-01 7.607212e-02 0.0
-1.441445e-01 7.483428e-02 0.0
-1.570964e-01 7.328996e-02 0.0
-1.660807e-01 7.086518e-02 0.0
-1.701642e-01 6.635877e-02 0.0
-1.680169e-01 5.837135e-02 0.0
-1.572283e-01 4.438212e-02 0.0
-1.346409e-01 2.182365e-02 0.0
-9.256556e-02 -1.668874e-02 0.0
-3.123100e-02 -6.729539e-02 0.0
4.617252e-02 -1.233084e-01 0.0
1.304109e-01 -1.759039e-01 0.0
2.145711e-01 -2.210331e-01 0.0
2.939572e-01 -2.536509e-01 0.0
3.661569e-01 -2.704768e-01 0.0
4.285431e-01 -2.712159e-01 0.0
4.809969e-01 -2.565294e-01 0.0
5.258178e-01 -2.319787e-01 0.0
5.645118e-01 -2.020898e-01 0.0
5.979475e-01 -1.703147e-01 0.0
6.266085e-01 -1.390812e-01 0.0
6.508080e-01 -1.099259e-01 0.0
6.708138e-01 -8.369984e-02 0.0
6.869004e-01 -6.077801e-02 0.0
6.993649e-01 -4.122997e-02 0.0
7.085302e-01 -2.494166e-02 0.0
7.147458e-01 -1.169213e-02 0.0
7.184153e-01 -1.203203e-03 0.0
7.200239e-01 7.015712e-03 0.0
7.199041e-01 1.336756e-02 0.0
7.183189e-01 1.819692e-02 0.0
7.154931e-01 2.179070e-02 0.0
7.116189e-01 2.438532e-02 0.0
7.068753e-01 2.617779e-02 0.0
7.014008e-01 2.731898e-02 0.0
6.952969e-01 2.794355e-02 0.0
6.887035e-01 2.812969e-02 0.0
6.817496e-01 2.796769e-02 0.0
6.745447e-01 2.754044e-02 0.0
6.671823e-01 2.691293e-02 0.0
6.597424e-01 2.613634e-02 0.0
6.522926e-01 2.525141e-02 0.0
6.448897e-01 2.429108e-02 0.0
6.375809e-01 2.328218e-02 0.0
6.304045e-01 2.224661e-02 0.0
6.233910e-01 2.120216e-02 0.0
6.165643e-01 2.016318e-02 0.0
6.099421e-01 1.914111e-02 0.0
6.035370e-01 1.814489e-02 0.0
5.973571e-01 1.718139e-02 0.0
5.914071e-01 1.625565e-02 0.0
5.856881e-01 1.537121e-02 0.0
5.801988e-01 1.453036e-02 0.0
5.749360e-01 1.373434e-02 0.0
5.698944e-01 1.298353e-02 0.0
5.650678e-01 1.227762e-02 0.0
5.604486e-01 1.161573e-02 0.0
5.560289e-01 1.099654e-02 0.0
5.518001e-01 1.041839e-02 0.0
5.477533e-01 9.879331e-03 0.0
5.438796e-01 9.377213e-03 0.0
5.401701e-01 8.909695e-03 0.0
5.366162e-01 8.474283e-03 0.0
5.332095e-01 8.068339e-03 0.0
5.299420e-01 7.689074e-03 0.0
5.268064e-01 7.333538e-03 0.0
5.237958e-01 6.998590e-03 0.0
5.209042e-01 6.680862e-03 0.0
5.181264e-01 6.376707e-03 0.0
5.154582e-01 6.082130e-03 0.0
5.128968e-01 5.792743e-03 0.0
5.104403e-01 5.503722e-03 0.0
5.080889e-01 5.209774e-03 0.0
5.058440e-01 4.905121e-03 0.0
5.037096e-01 4.583542e-03 0.0
5.016916e-01 4.238497e-03 0.0
4.997987e-01 3.863424e-03 0.0
4.980427e-01 3.452351e-03 0.0
4.964388e-01 3.001122e-03 0.0
4.950069e-01 2.509711e-03 0.0
4.937719e-01 1.986161e-03 0.0
4.927645e-01 1.453598e-03 0.0
4.920216e-01 9.624699e-04 0.0
4.915668e-01 6.007342e-04 0.0
4.914033e-01 4.751360e-04 0.0
0.000000e+00 4.816712e-04 0.0
0.000000e+00 0.000000e+00 0.0
0.000000e+00 0.000000e+00 0.0
0.000000e+00 0.000000e+00 0.0
0.000000e+00 0.000000e+00 0.0
0.000000e+00 0.000000e+00 0.0
0.000000e+00 0.000000e+00 0.0
0.000000e+00 0.000000e+00 0.0
0.000000e+00 0.000000e+00 0.0
0.000000e+00 0.000000e+00 0.0
0.000000e+00 0.000000e+00 0.0
0.000000e+00 -4.337302e-02 0.0
-1.345156e-02 4.337458e-02 0.0
-3.544297e-02 8.385723e-02 0.0
-5.682639e-02 9.589816e-02 0.0
-7.467615e-02 9.539633e-02 0.0
-8.832512e-02 9.084354e-02 0.0
-9.754415e-02 8.529723e-02 0.0
-1.020850e-01 7.938124e-02 0.0
-1.014642e-01 7.267520e-02 0.0
-9.521249e-02 6.461959e-02 0.0
-8.170061e-02 5.285298e-02 0.0
-5.891345e-02 3.559028e-02 0.0
-2.013097e-02 5.605724e-03 0.0
3.995536e-02 -3.825659e-02 0.0
1.143653e-01 -9.109256e-02 0.0
1.967291e-01 -1.496532e-01 0.0
2.809308e-01 -2.075041e-01 0.0
3.625774e-01 -2.575443e-01 0.0
4.370612e-01 -2.955108e-01 0.0
5.018115e-01 -3.183950e-01 0.0
5.560774e-01 -3.247365e-01 0.0
5.992308e-01 -3.143632e-01 0.0
6.344870e-01 -2.917794e-01 0.0
6.640543e-01 -2.615399e-01 0.0
6.893612e-01 -2.273907e-01 0.0
7.112577e-01 -1.922051e-01 0.0
7.302218e-01 -1.580393e-01 0.0
7.465157e-01 -1.262136e-01 0.0
7.602981e-01 -9.747620e-02 0.0
7.716928e-01 -7.216662e-02 0.0
7.808243e-01 -5.035532e-02 0.0
7.878376e-01 -3.194887e-02 0.0
7.928920e-01 -1.674049e-02 0.0
7.961624e-01 -4.467441e-03 0.0
7.979700e-01 5.214189e-03 0.0
7.985265e-01 1.281716e-02 0.0
7.979989e-01 1.873053e-02 0.0
7.965284e-01 2.326727e-02 0.0
7.942391e-01 2.668073e-02 0.0
7.912452e-01 2.917785e-02 0.0
7.876441e-01 3.092613e-02 0.0
7.835271e-01 3.206663e-02 0.0
7.789541e-01 3.270878e-02 0.0
7.739898e-01 3.293813e-02 0.0
7.687098e-01 3.282651e-02 0.0
7.631820e-01 3.244680e-02 0.0
7.574675e-01 3.185688e-02 0.0
7.516213e-01 3.110376e-02 0.0
7.456920e-01 3.022645e-02 0.0
7.397225e-01 2.925777e-02 0.0
7.337499e-01 2.822526e-02 0.0
7.278062e-01 2.715195e-02 0.0
7.219185e-01 2.605704e-02 0.0
7.161093e-01 2.495637e-02 0.0
7.103974e-01 2.386289e-02 0.0
7.047978e-01 2.278704e-02 0.0
6.993225e-01 2.173704e-02 0.0
6.939806e-01 2.071926e-02 0.0
6.887786e-01 1.973846e-02 0.0
6.837210e-01 1.879802e-02 0.0
6.788104e-01 1.790018e-02 0.0
6.740479e-01 1.704619e-02 0.0
6.694332e-01 1.623652e-02 0.0
6.649649e-01 1.547096e-02 0.0
6.606406e-01 1.474875e-02 0.0
6.564574e-01 1.406868e-02 0.0
6.524115e-01 1.342914e-02 0.0
6.484991e-01 1.282821e-02 0.0
6.447158e-01 1.226368e-02 0.0
6.410572e-01 1.173306e-02 0.0
6.375187e-01 1.123358e-02 0.0
6.340962e-01 1.076221e-02 0.0
6.307852e-01 1.031561e-02 0.0
6.275821e-01 9.890075e-03 0.0
6.244834e-01 9.481523e-03 0.0
6.214863e-01 9.085342e-03 0.0
6.185887e-01 8.696363e-03 0.0
6.157898e-01 8.308790e-03 0.0
6.130895e-01 7.916140e-03 0.0
6.104895e-01 7.511191e-03 0.0
6.079932e-01 7.085957e-03 0.0
6.056060e-01 6.631731e-03 0.0
6.033363e-01 6.139245e-03 0.0
6.011957e-01 5.599045e-03 0.0
5.992006e-01 5.002287e-03 0.0
5.973742e-01 4.342250e-03 0.0
5.957494e-01 3.617066e-03 0.0
5.943743e-01 2.834734e-03 0.0
5.933205e-01 2.022425e-03 0.0
5.926841e-01 1.243156e-03 0.0
5.925248e-01 6.405898e-04 0.0
0.000000e+00 6.495457e-04 0.0
0.000000e+00 0.000000e+00 0.0
0.000000e+00 0.000000e+00 0.0
0.000000e+00 0.000000e+00 0.0
0.000000e+00 0.000000e+00 0.0
0.000000e+00 0.000000e+00 0.0
0.000000e+00 0.000000e+00 0.0
0.000000e+00 0.000000e+00 0.0
0.000000e+00 0.000000e+00 0.0
0.000000e+00 0.000000e+00 0.0
0.000000e+00 0.000000e+00 0.0
0.000000e+00 -5.653687e-02 0.0
-1.314040e-02 5.653833e-02 0.0
-3.057723e-02 1.013001e-01 0.0
-4.361074e-02 1.089378e-01 0.0
-5.093060e-02 1.027223e-01 0.0
-5.254352e-02 9.246256e-02 0.0
-4.852428e-02 8.128407e-02 0.0
-3.868066e-02 6.954371e-02 0.0
-2.164537e-02 5.564601e-02 0.0
3.923952e-03 3.905635e-02 0.0
4.244773e-02 1.433529e-02 0.0
9.934236e-02 -2.129825e-02 0.0
1.713818e-01 -6.642767e-02 0.0
2.530366e-01 -1.199052e-01 0.0
3.393976e-01 -1.774475e-01 0.0
4.243144e-01 -2.345638e-01 0.0
5.026942e-01 -2.858777e-01 0.0
5.714766e-01 -3.263206e-01 0.0
6.287310e-01 -3.527592e-01 0.0
6.739816e-01 -3.636395e-01 0.0
7.076323e-01 -3.583812e-01 0.0
7.326703e-01 -3.393952e-01 0.0
7.519470e-01 -3.110501e-01 0.0
7.674873e-01 -2.770742e-01 0.0
7.805913e-01 -2.404886e-01 0.0
7.920127e-01 -2.036204e-01 0.0
8.021550e-01 -1.681756e-01 0.0
8.111841e-01 -1.352367e-01 0.0
8.191353e-01 -1.054213e-01 0.0
8.259886e-01 -7.901378e-02 0.0
8.317154e-01 -5.607606e-02 0.0
8.363173e-01 -3.654464e-02 0.0
8.398064e-01 -2.022357e-02 0.0
8.422200e-01 -6.874894e-03 0.0
8.436631e-01 3.777171e-03 0.0
8.442580e-01 1.222829e-02 0.0
8.440980e-01 1.889665e-02 0.0
8.432653e-01 2.410605e-02 0.0
8.418368e-01 2.811537e-02 0.0
8.398851e-01 3.113561e-02 0.0
8.374771e-01 3.334026e-02 0.0
8.346756e-01 3.487414e-02 0.0
8.315342e-01 3.585632e-02 0.0
8.280929e-01 3.638550e-02 0.0
8.243854e-01 3.654013e-02 0.0
8.204528e-01 3.638548e-02 0.0
8.163343e-01 3.598141e-02 0.0
8.120669e-01 3.537726e-02 0.0
8.076846e-01 3.461492e-02 0.0
8.032178e-01 3.373065e-02 0.0
7.986939e-01 3.275526e-02 0.0
7.941370e-01 3.171492e-02 0.0
7.895684e-01 3.063175e-02 0.0
7.850065e-01 2.952433e-02 0.0
7.804674e-01 2.840811e-02 0.0
7.759647e-01 2.729579e-02 0.0
7.715101e-01 2.619768e-02 0.0
7.671135e-01 2.512202e-02 0.0
7.627828e-01 2.407523e-02 0.0
7.585247e-01 2.306222e-02 0.0
7.543444e-01 2.208656e-02 0.0
7.502460e-01 2.115070e-02 0.0
7.462324e-01 2.025615e-02 0.0
7.423059e-01 1.940362e-02 0.0
7.384675e-01 1.859316e-02 0.0
7.347181e-01 1.782422e-02 0.0
7.310575e-01 1.709581e-02 0.0
7.274854e-01 1.640646e-02 0.0
7.240008e-01 1.575436e-02 0.0
7.206026e-01 1.513731e-02 0.0
7.172895e-01 1.455276e-02 0.0
7.140600e-01 1.399778e-02 0.0
7.109127e-01 1.346904e-02 0.0
7.078461e-01 1.296280e-02 0.0
7.048589e-01 1.247481e-02 0.0
7.019501e-01 1.200015e-02 0.0
6.991194e-01 1.153316e-02 0.0
6.963669e-01 1.106742e-02 0.0
6.936935e-01 1.059561e-02 0.0
6.911014e-01 1.010942e-02 0.0
6.885940e-01 9.599451e-03 0.0
6.861767e-01 9.055155e-03 0.0
6.838572e-01 8.464781e-03 0.0
6.816469e-01 7.815439e-03 0.0
6.795620e-01 7.093300e-03 0.0
6.776263e-01 6.284058e-03 0.0
6.758756e-01 5.373837e-03 0.0
6.743654e-01 4.351020e-03 0.0
6.731831e-01 3.210760e-03 0.0
6.724603e-01 1.972080e-03 0.0
6.723241e-01 7.828689e-04 0.0
0.000000e+00 7.939922e-04 0.0
0.000000e+00 0.000000e+00 0.0
0.000000e+00 0.000000e+00 0.0
0.000000e+00 0.000000e+00 0.0
0.000000e+00 0.000000e+00 0.0
0.000000e+00 0.000000e+00 0.0
0.000000e+00 0.000000e+00 0.0
0.000000e+00 0.000000e+00 0.0
0.000000e+00 0.000000e+00 0.0
0.000000e+00 0.000000e+00 0.0
0.000000e+00 0.000000e+00 0.0
0.000000e+00 -7.021836e-02 0.0
-1.365792e-02 7.021959e-02 0.0
-2.302440e-02 1.106727e-01 0.0
-2.257482e-02 1.084943e-01 0.0
-1.433015e-02 9.448370e-02 0.0
1.055243e-03 7.708326e-02 0.0
2.372020e-02 5.862520e-02 0.0
5.387100e-02 3.939900e-02 0.0
9.497795e-02 1.454514e-02 0.0
1.519754e-01 -1.793496e-02 0.0
2.231530e-01 -5.683623e-02 0.0
3.042993e-01 -1.024385e-01 0.0
3.912344e-01 -1.533567e-01 0.0
4.785819e-01 -2.072465e-01 0.0
5.614989e-01 -2.603584e-01 0.0
6.355831e-01 -3.086420e-01 0.0
6.977850e-01 -3.480736e-01 0.0
7.468404e-01 -3.753700e-01 0.0
7.828067e-01 -3.887194e-01 0.0
8.066981e-01 -3.875248e-01 0.0
8.209836e-01 -3.726606e-01 0.0
8.291982e-01 -3.476036e-01 0.0
8.339031e-01 -3.157489e-01 0.0
8.368460e-01 -2.800110e-01 0.0
8.391048e-01 -2.427413e-01 0.0
8.412625e-01 -2.057720e-01 0.0
8.436159e-01 -1.705229e-01 0.0
8.462125e-01 -1.378272e-01 0.0
8.489644e-01 -1.081671e-01 0.0
8.517235e-01 -8.176681e-02 0.0
8.543270e-01 -5.867351e-02 0.0
8.566627e-01 -3.887417e-02 0.0
8.586121e-01 -2.216691e-02 0.0
8.600881e-01 -8.344831e-03 0.0
8.610471e-01 2.824261e-03 0.0
8.614976e-01 1.178384e-02 0.0
8.614610e-01 1.893936e-02 0.0
8.609694e-01 2.460378e-02 0.0
8.600620e-01 2.902886e-02 0.0
8.587818e-01 3.242189e-02 0.0
8.571723e-01 3.495584e-02 0.0
8.552762e-01 3.677637e-02 0.0
8.531326e-01 3.800602e-02 0.0
8.507758e-01 3.874839e-02 0.0
8.482314e-01 3.909056e-02 0.0
8.455202e-01 3.910277e-02 0.0
8.426654e-01 3.884229e-02 0.0
8.396905e-01 3.835832e-02 0.0
8.366176e-01 3.769390e-02 0.0
8.334666e-01 3.688775e-02 0.0
8.302553e-01 3.597264e-02 0.0
8.269996e-01 3.497669e-02 0.0
8.237135e-01 3.392389e-02 0.0
8.204095e-01 3.283449e-02 0.0
8.170982e-01 3.172548e-02 0.0
8.137892e-01 3.061091e-02 0.0
8.104906e-01 2.950231e-02 0.0
8.072097e-01 2.840899e-02 0.0
8.039527e-01 2.733838e-02 0.0
8.007247e-01 2.629624e-02 0.0
7.975305e-01 2.528692e-02 0.0
7.943737e-01 2.431358e-02 0.0
7.912576e-01 2.337836e-02 0.0
7.881847e-01 2.248253e-02 0.0
7.851574e-01 2.162663e-02 0.0
7.821771e-01 2.081056e-02 0.0
7.792453e-01 2.003370e-02 0.0
7.763629e-01 1.929495e-02 0.0
7.735306e-01 1.859275e-02 0.0
7.707489e-01 1.792516e-02 0.0
7.680179e-01 1.728978e-02 0.0
7.653380e-01 1.668381e-02 0.0
7.627092e-01 1.610396e-02 0.0
7.601315e-01 1.554654e-02 0.0
7.576051e-01 1.500730e-02 0.0
7.551303e-01 1.448111e-02 0.0
7.527075e-01 1.396202e-02 0.0
7.503378e-01 1.344317e-02 0.0
7.480228e-01 1.291668e-02 0.0
7.457649e-01 1.237342e-02 0.0
7.435675e-01 1.180293e-02 0.0
7.414356e-01 1.119316e-02 0.0
7.393762e-01 1.053025e-02 0.0
7.373995e-01 9.798251e-03 0.0
7.355202e-01 8.978703e-03 0.0
7.337603e-01 8.050017e-03 0.0
7.321538e-01 6.986454e-03 0.0
7.307544e-01 5.756547e-03 0.0
7.296490e-01 4.322229e-03 0.0
7.289735e-01 2.653662e-03 0.0
7.288718e-01 8.907075e-04 0.0
0.000000e+00 9.035543e-04 0.0
0.000000e+00 0.000000e+00 0.0
0.000000e+00 0.000000e+00 0.0
0.000000e+00 0.000000e+00 0.0
0.000000e+00 0.000000e+00 0.0
0.000000e+00 0.000000e+00 0.0
0.000000e+00 0.000000e+00 0.0
0.000000e+00 0.000000e+00 0.0
0.000000e+00 0.000000e+00 0.0
0.000000e+00 0.000000e+00 0.0
0.000000e+00 0.000000e+00 0.0
0.000000e+00 -8.397005e-02 0.0
-1.372818e-02 8.397111e-02 0.0
-5.827582e-03 1.027782e-01 0.0
1.845561e-02 8.421717e-02 0.0
5.138978e-02 6.155561e-02 0.0
9.179186e-02 3.668726e-02 0.0
1.422885e-01 8.134686e-03 0.0
2.059626e-01 -2.426904e-02 0.0
2.804311e-01 -5.991731e-02 0.0
3.622982e-01 -9.979590e-02 0.0
4.488742e-01 -1.434061e-01 0.0
5.363461e-01 -1.899043e-01 0.0
6.206166e-01 -2.376212e-01 0.0
6.975670e-01 -2.841908e-01 0.0
7.638304e-01 -3.266158e-01 0.0
8.170446e-01 -3.618501e-01 0.0
8.562027e-01 -3.872256e-01 0.0
8.817215e-01 -4.008827e-01 0.0
8.950441e-01 -4.020359e-01 0.0
8.983373e-01 -3.908120e-01 0.0
8.953359e-01 -3.696531e-01 0.0
8.889024e-01 -3.411640e-01 0.0
8.811355e-01 -3.079760e-01 0.0
8.734250e-01 -2.722944e-01 0.0
8.665772e-01 -2.358874e-01 0.0
8.609698e-01 -2.001584e-01 0.0
8.567868e-01 -1.663337e-01 0.0
8.539449e-01 -1.349792e-01 0.0
8.522516e-01 -1.064677e-01 0.0
8.514730e-01 -8.098210e-02 0.0
8.513702e-01 -5.856467e-02 0.0
8.516781e-01 -3.917598e-02 0.0
8.521901e-01 -2.267279e-02 0.0
8.527330e-01 -8.881691e-03 0.0
8.531665e-01 2.396890e-03 0.0
8.533960e-01 1.156044e-02 0.0
8.533772e-01 1.896422e-02 0.0
8.530962e-01 2.489082e-02 0.0
8.525580e-01 2.957322e-02 0.0
8.517784e-01 3.320754e-02 0.0
8.507797e-01 3.596064e-02 0.0
8.495868e-01 3.797536e-02 0.0
8.482248e-01 3.937405e-02 0.0
8.467176e-01 4.026168e-02 0.0
8.450861e-01 4.072815e-02 0.0
8.433455e-01 4.084955e-02 0.0
8.415083e-01 4.068549e-02 0.0
8.395891e-01 4.028366e-02 0.0
8.376012e-01 3.968785e-02 0.0
8.355575e-01 3.893756e-02 0.0
8.334691e-01 3.806713e-02 0.0
8.313457e-01 3.710616e-02 0.0
8.291958e-01 3.607993e-02 0.0
8.270265e-01 3.500981e-02 0.0
8.248444e-01 3.391374e-02 0.0
8.226548e-01 3.280661e-02 0.0
8.204625e-01 3.170064e-02 0.0
8.182718e-01 3.060577e-02 0.0
8.160864e-01 2.952993e-02 0.0
8.139094e-01 2.847934e-02 0.0
8.117436e-01 2.745875e-02 0.0
8.095916e-01 2.647166e-02 0.0
8.074555e-01 2.552053e-02 0.0
8.053373e-01 2.460691e-02 0.0
8.032384e-01 2.373156e-02 0.0
8.011604e-01 2.289463e-02 0.0
7.991045e-01 2.209568e-02 0.0
7.970718e-01 2.133377e-02 0.0
7.950631e-01 2.060752e-02 0.0
7.930793e-01 1.991507e-02 0.0
7.911210e-01 1.925417e-02 0.0
7.891889e-01 1.862203e-02 0.0
7.872835e-01 1.801538e-02 0.0
7.854056e-01 1.743057e-02 0.0
7.835555e-01 1.686350e-02 0.0
7.817339e-01 1.630878e-02 0.0
7.799418e-01 1.576024e-02 0.0
7.781803e-01 1.521078e-02 0.0
7.764510e-01 1.465209e-02 0.0
7.747560e-01 1.407452e-02 0.0
7.730982e-01 1.346680e-02 0.0
7.714817e-01 1.281575e-02 0.0
7.699122e-01 1.210588e-02 0.0
7.683977e-01 1.131878e-02 0.0
7.669503e-01 1.043221e-02 0.0
7.655879e-01 9.418532e-03 0.0
7.643383e-01 8.242094e-03 0.0
7.632461e-01 6.854815e-03 0.0
7.623836e-01 5.190910e-03 0.0
7.618632e-01 3.180152e-03 0.0
7.618007e-01 9.592720e-04 0.0
0.000000e+00 9.732994e-04 0.0
0.000000e+00 0.000000e+00 0.0
0.000000e+00 0.000000e+00 0.0
0.000000e+00 0.000000e+00 0.0
0.000000e+00 0.000000e+00 0.0
0.000000e+00 0.000000e+00 0.0
0.000000e+00 0.000000e+00 0.0
0.000000e+00 0.000000e+00 0.0
0.000000e+00 0.000000e+00 0.0
0.000000e+00 0.000000e+00 0.0
0.000000e+00 0.000000e+00 0.0
0.000000e+00 -7.887348e-02 0.0
5.120320e-03 7.887413e-02 0.0
5.395828e-02 5.394633e-02 0.0
1.175982e-01 2.058336e-02 0.0
1.909100e-01 -1.175011e-02 0.0
2.710685e-01 -4.346519e-02 0.0
3.549426e-01 -7.573327e-02 0.0
4.408607e-01 -1.101811e-01 0.0
5.276525e-01 -1.467030e-01 0.0
6.130454e-01 -1.851827e-01 0.0
6.945472e-01 -2.249019e-01 0.0
7.693788e-01 -2.647298e-01 0.0
8.348183e-01 -3.030546e-01 0.0
8.885249e-01 -3.378913e-01 0.0
9.289639e-01 -3.670486e-01 0.0