# vtk DataFile Version 3.0
Vector Field
ASCII
DATASET RECTILINEAR_GRID
DIMENSIONS 102 22 1
X_COORDINATES 102 double
0.000000 0.100000 0.200000 0.300000 0.400000 0.500000 0.600000 0.700000 0.800000 0.900000 1.000000 1.100000 1.200000 1.300000 1.400000 1.500000 1.600000 1.700000 1.800000 1.900000 2.000000 2.100000 2.200000 2.300000 2.400000 2.500000 2.600000 2.700000 2.800000 2.900000 3.000000 3.100000 3.200000 3.300000 3.400000 3.500000 3.600000 3.700000 3.800000 3.900000 4.000000 4.100000 4.200000 4.300000 4.400000 4.500000 4.600000 4.700000 4.800000 4.900000 5.000000 5.100000 5.200000 5.300000 5.400000 5.500000 5.600000 5.700000 5.800000 5.900000 6.000000 6.100000 6.200000 6.300000 6.400000 6.500000 6.600000 6.700000 6.800000 6.900000 7.000000 7.100000 7.200000 7.300000 7.400000 7.500000 7.600000 7.700000 7.800000 7.900000 8.000000 8.100000 8.200000 8.300000 8.400000 8.500000 8.600000 8.700000 8.800000 8.900000 9.000000 9.100000 9.200000 9.300000 9.400000 9.500000 9.600000 9.700000 9.800000 9.900000 10.000000 10.100000 
Y_COORDINATES 22 double
0.000000 0.100000 0.200000 0.300000 0.400000 0.500000 0.600000 0.700000 0.800000 0.900000 1.000000 1.100000 1.200000 1.300000 1.400000 1.500000 1.600000 1.700000 1.800000 1.900000 2.000000 2.100000 
Z_COORDINATES 1 double
0.0
POINT_DATA 2244
VECTORS Velocity double
0.000000e+00 0.000000e+00 0.0
-0.000000e+00 0.000000e+00 0.0
-0.000000e+00 0.000000e+00 0.0
-0.000000e+00 0.000000e+00 0.0
-0.000000e+00 0.000000e+00 0.0
-0.000000e+00 0.000000e+00 0.0
-0.000000e+00 0.000000e+00 0.0
-0.000000e+00 0.000000e+00 0.0
-0.000000e+00 0.000000e+00 0.0
-0.000000e+00 0.000000e+00 0.0
-0.000000e+00 0.000000e+00 0.0
5.234443e-04 0.000000e+00 0.0
4.892330e-03 0.000000e+00 0.0
1.164192e-02 0.000000e+00 0.0
1.958528e-02 0.000000e+00 0.0
2.833493e-02 0.000000e+00 0.0
3.797952e-02 0.000000e+00 0.0
4.880157e-02 0.000000e+00 0.0
6.114681e-02 0.000000e+00 0.0
7.536038e-02 0.000000e+00 0.0
9.171433e-02 0.000000e+00 0.0
1.103003e-01 0.000000e+00 0.0
1.308613e-01 0.000000e+00 0.0
1.526080e-01 0.000000e+00 0.0
1.739859e-01 0.000000e+00 0.0
1.923365e-01 0.000000e+00 0.0
2.042165e-01 0.000000e+00 0.0
2.057008e-01 0.000000e+00 0.0
1.936370e-01 0.000000e+00 0.0
1.670386e-01 0.000000e+00 0.0
1.274021e-01 0.000000e+00 0.0
7.869540e-02 0.000000e+00 0.0
2.372291e-02 0.000000e+00 0.0
-3.104454e-02 0.000000e+00 0.0
-7.817087e-02 0.000000e+00 0.0
-1.155661e-01 0.000000e+00 0.0
-1.433700e-01 0.000000e+00 0.0
-1.626608e-01 0.000000e+00 0.0
-1.748687e-01 0.000000e+00 0.0
-1.814877e-01 0.000000e+00 0.0
-1.839388e-01 0.000000e+00 0.0
-1.835001e-01 0.000000e+00 0.0
-1.809509e-01 0.000000e+00 0.0
-1.768368e-01 0.000000e+00 0.0
-1.717159e-01 0.000000e+00 0.0
-1.660547e-01 0.000000e+00 0.0
-1.602076e-01 0.000000e+00 0.0
-1.544180e-01 0.000000e+00 0.0
-1.488280e-01 0.000000e+00 0.0
-1.435279e-01 0.000000e+00 0.0
-1.385609e-01 0.000000e+00 0.0
-1.339430e-01 0.000000e+00 0.0
-1.296735e-01 0.000000e+00 0.0
-1.257424e-01 0.000000e+00 0.0
-1.221341e-01 0.000000e+00 0.0
-1.188293e-01 0.000000e+00 0.0
-1.158067e-01 0.000000e+00 0.0
-1.130446e-01 0.000000e+00 0.0
-1.105225e-01 0.000000e+00 0.0
-1.082216e-01 0.000000e+00 0.0
-1.061240e-01 0.000000e+00 0.0
-1.042129e-01 0.000000e+00 0.0
-1.024719e-01 0.000000e+00 0.0
-1.008857e-01 0.000000e+00 0.0
-9.943992e-02 0.000000e+00 0.0
-9.812182e-02 0.000000e+00 0.0
-9.691960e-02 0.000000e+00 0.0
-9.582242e-02 0.000000e+00 0.0
-9.482021e-02 0.000000e+00 0.0
-9.390376e-02 0.000000e+00 0.0
-9.306470e-02 0.000000e+00 0.0
-9.229550e-02 0.000000e+00 0.0
-9.158943e-02 0.000000e+00 0.0
-9.094045e-02 0.000000e+00 0.0
-9.034313e-02 0.000000e+00 0.0
-8.979267e-02 0.000000e+00 0.0
-8.928483e-02 0.000000e+00 0.0
-8.881590e-02 0.000000e+00 0.0
-8.838272e-02 0.000000e+00 0.0
-8.798261e-02 0.000000e+00 0.0
-8.761335e-02 0.000000e+00 0.0
-8.727315e-02 0.000000e+00 0.0
-8.696067e-02 0.000000e+00 0.0
-8.667497e-02 0.000000e+00 0.0
-8.641554e-02 0.000000e+00 0.0
-8.618229e-02 0.000000e+00 0.0
-8.597558e-02 0.000000e+00 0.0
-8.579618e-02 0.000000e+00 0.0
-8.564534e-02 0.000000e+00 0.0
-8.552476e-02 0.000000e+00 0.0
-8.543666e-02 0.000000e+00 0.0
-8.538382e-02 0.000000e+00 0.0
-8.536977e-02 0.000000e+00 0.0
-8.539853e-02 0.000000e+00 0.0
-8.546864e-02 0.000000e+00 0.0
-8.557427e-02 0.000000e+00 0.0
-8.570800e-02 0.000000e+00 0.0
-8.585899e-02 0.000000e+00 0.0
-8.600493e-02 0.000000e+00 0.0
-8.610109e-02 0.000000e+00 0.0
-8.610109e-02 0.000000e+00 0.0
0.000000e+00 0.000000e+00 0.0
0.000000e+00 0.000000e+00 0.0
0.000000e+00 0.000000e+00 0.0
0.000000e+00 0.000000e+00 0.0
0.000000e+00 0.000000e+00 0.0
0.000000e+00 0.000000e+00 0.0
0.000000e+00 0.000000e+00 0.0
0.000000e+00 0.000000e+00 0.0
0.000000e+00 0.000000e+00 0.0
0.000000e+00 0.000000e+00 0.0
0.000000e+00 0.000000e+00 0.0
0.000000e+00 -5.225831e-04 0.0
-5.146398e-04 5.271332e-04 0.0
-4.882466e-03 4.376698e-03 0.0
-1.163678e-02 6.760027e-03 0.0
-1.958635e-02 7.952733e-03 0.0
-2.833965e-02 8.756357e-03 0.0
-3.798400e-02 9.649619e-03 0.0
-4.880303e-02 1.082747e-02 0.0
-6.114549e-02 1.235282e-02 0.0
-7.535962e-02 1.422336e-02 0.0
-9.171887e-02 1.636421e-02 0.0
-1.103136e-01 1.859385e-02 0.0
-1.308826e-01 2.056468e-02 0.0
-1.526313e-01 2.174678e-02 0.0
-1.740019e-01 2.137744e-02 0.0
-1.923378e-01 1.835338e-02 0.0
-2.042034e-01 1.188822e-02 0.0
-2.056828e-01 1.495936e-03 0.0
-1.936278e-01 -1.205371e-02 0.0
-1.670447e-01 -2.659729e-02 0.0
-1.274168e-01 -3.964652e-02 0.0
-7.870095e-02 -4.872391e-02 0.0
-2.370194e-02 -5.498780e-02 0.0
3.109095e-02 -5.476715e-02 0.0
7.822520e-02 -4.710871e-02 0.0
1.156052e-01 -3.736789e-02 0.0
1.433817e-01 -2.778002e-02 0.0
1.626514e-01 -1.928002e-02 0.0
1.748557e-01 -1.220975e-02 0.0
1.814864e-01 -6.624845e-03 0.0
1.839518e-01 -2.450783e-03 0.0
1.835192e-01 4.487580e-04 0.0
1.809653e-01 2.565292e-03 0.0
1.768406e-01 4.129544e-03 0.0
1.717112e-01 5.130915e-03 0.0
1.660478e-01 5.665669e-03 0.0
1.602044e-01 5.849218e-03 0.0
1.544197e-01 5.793268e-03 0.0
1.488320e-01 5.596447e-03 0.0
1.435305e-01 5.308294e-03 0.0
1.385607e-01 4.974963e-03 0.0
1.339413e-01 4.624419e-03 0.0
1.296727e-01 4.274883e-03 0.0
1.257436e-01 3.936587e-03 0.0
1.221363e-01 3.614734e-03 0.0
1.188309e-01 3.311920e-03 0.0
1.158067e-01 3.029533e-03 0.0
1.130438e-01 2.768145e-03 0.0
1.105223e-01 2.527453e-03 0.0
1.082225e-01 2.306392e-03 0.0
1.061259e-01 2.103560e-03 0.0
1.042148e-01 1.917655e-03 0.0
1.024733e-01 1.747649e-03 0.0
1.008866e-01 1.592669e-03 0.0
9.944085e-02 1.451804e-03 0.0
9.812308e-02 1.324019e-03 0.0
9.692122e-02 1.208217e-03 0.0
9.582421e-02 1.103338e-03 0.0
9.482200e-02 1.008432e-03 0.0
9.390552e-02 9.226468e-04 0.0
9.306651e-02 8.451874e-04 0.0
9.229745e-02 7.752811e-04 0.0
9.159155e-02 7.121719e-04 0.0
9.094272e-02 6.551395e-04 0.0
9.034552e-02 6.035141e-04 0.0
8.979514e-02 5.566789e-04 0.0
8.928736e-02 5.140611e-04 0.0
8.881850e-02 4.751219e-04 0.0
8.838540e-02 4.393518e-04 0.0
8.798539e-02 4.062702e-04 0.0
8.761624e-02 3.754212e-04 0.0
8.727617e-02 3.463641e-04 0.0
8.696382e-02 3.186670e-04 0.0
8.667823e-02 2.919017e-04 0.0
8.641892e-02 2.656417e-04 0.0
8.618578e-02 2.394621e-04 0.0
8.597918e-02 2.129340e-04 0.0
8.579988e-02 1.856189e-04 0.0
8.564915e-02 1.570649e-04 0.0
8.552868e-02 1.268017e-04 0.0
8.544069e-02 9.432671e-05 0.0
8.538796e-02 5.906440e-05 0.0
8.537401e-02 2.027498e-05 0.0
8.540287e-02 -2.252999e-05 0.0
8.547305e-02 -6.387203e-05 0.0
8.557872e-02 -9.936179e-05 0.0
8.571247e-02 -1.274673e-04 0.0
8.586347e-02 -1.447324e-04 0.0
8.600940e-02 -1.396928e-04 0.0
8.610557e-02 -8.993073e-05 0.0
8.610109e-02 1.070599e-05 0.0
0.000000e+00 1.078936e-05 0.0
0.000000e+00 0.000000e+00 0.0
0.000000e+00 0.000000e+00 0.0
0.000000e+00 0.000000e+00 0.0
0.000000e+00 0.000000e+00 0.0
0.000000e+00 0.000000e+00 0.0
0.000000e+00 0.000000e+00 0.0
0.000000e+00 0.000000e+00 0.0
0.000000e+00 0.000000e+00 0.0
0.000000e+00 0.000000e+00 0.0
0.000000e+00 0.000000e+00 0.0
0.000000e+00 -6.319914e-03 0.0
-5.788689e-03 6.325340e-03 0.0
-1.936579e-02 1.795442e-02 0.0
-3.719704e-02 2.459002e-02 0.0
-5.713853e-02 2.789353e-02 0.0
-7.837172e-02 2.999093e-02 0.0
-1.008059e-01 3.208735e-02 0.0
-1.245774e-01 3.460329e-02 0.0
-1.497715e-01 3.754969e-02 0.0
-1.762499e-01 4.070145e-02 0.0
-2.034998e-01 4.361033e-02 0.0
-2.305172e-01 4.560670e-02 0.0
-2.556397e-01 4.568592e-02 0.0
-2.764523e-01 4.256449e-02 0.0
-2.898442e-01 3.478042e-02 0.0
-2.920564e-01 2.057757e-02 0.0
-2.784965e-01 -1.667431e-03 0.0
-2.462548e-01 -3.075240e-02 0.0
-1.964109e-01 -6.191270e-02 0.0
-1.318315e-01 -9.118956e-02 0.0
-5.504503e-02 -1.164336e-01 0.0
2.893147e-02 -1.326862e-01 0.0
1.095237e-01 -1.355597e-01 0.0
1.810934e-01 -1.263238e-01 0.0
2.436545e-01 -1.096715e-01 0.0
2.963932e-01 -9.011931e-02 0.0
3.391992e-01 -7.059857e-02 0.0
3.725992e-01 -5.268303e-02 0.0
3.974866e-01 -3.708940e-02 0.0
4.149237e-01 -2.404981e-02 0.0
4.260147e-01 -1.353268e-02 0.0
4.318184e-01 -5.352901e-03 0.0
4.336008e-01 7.795553e-04 0.0
4.322507e-01 5.475589e-03 0.0
4.284448e-01 8.935789e-03 0.0
4.227744e-01 1.133914e-02 0.0
4.157280e-01 1.290046e-02 0.0
4.077161e-01 1.380899e-02 0.0
3.991133e-01 1.420060e-02 0.0
3.902293e-01 1.419209e-02 0.0
3.812832e-01 1.392147e-02 0.0
3.724408e-01 1.346879e-02 0.0
3.638196e-01 1.289901e-02 0.0
3.555007e-01 1.225801e-02 0.0
3.475380e-01 1.157886e-02 0.0
3.399649e-01 1.088557e-02 0.0
3.327998e-01 1.019544e-02 0.0
3.260491e-01 9.520469e-03 0.0
3.197104e-01 8.868543e-03 0.0
3.137744e-01 8.244587e-03 0.0
3.082280e-01 7.651698e-03 0.0
3.030551e-01 7.091859e-03 0.0
2.982378e-01 6.566203e-03 0.0
2.937570e-01 6.075060e-03 0.0
2.895925e-01 5.618036e-03 0.0
2.857241e-01 5.194189e-03 0.0
2.821318e-01 4.802219e-03 0.0
2.787961e-01 4.440619e-03 0.0
2.756983e-01 4.107748e-03 0.0
2.728207e-01 3.801890e-03 0.0
2.701462e-01 3.521268e-03 0.0
2.676591e-01 3.264063e-03 0.0
2.653445e-01 3.028444e-03 0.0
2.631887e-01 2.812602e-03 0.0
2.611791e-01 2.614784e-03 0.0
2.593041e-01 2.433299e-03 0.0
2.575533e-01 2.266511e-03 0.0
2.559172e-01 2.112835e-03 0.0
2.543874e-01 1.970743e-03 0.0
2.529566e-01 1.838770e-03 0.0
2.516182e-01 1.715502e-03 0.0
2.503666e-01 1.599565e-03 0.0
2.491974e-01 1.489600e-03 0.0
2.481067e-01 1.384256e-03 0.0
2.470918e-01 1.282189e-03 0.0
2.461508e-01 1.182048e-03 0.0
2.452830e-01 1.082459e-03 0.0
2.444882e-01 9.820178e-04 0.0
2.437677e-01 8.792735e-04 0.0
2.431234e-01 7.727395e-04 0.0
2.425585e-01 6.609144e-04 0.0
2.420768e-01 5.423327e-04 0.0
2.416831e-01 4.157203e-04 0.0
2.413815e-01 2.807035e-04 0.0
2.411789e-01 1.403720e-04 0.0
2.410818e-01 -6.787457e-07 0.0
2.410848e-01 -1.288242e-04 0.0
2.411622e-01 -2.204596e-04 0.0
2.412717e-01 -2.475554e-04 0.0
2.413571e-01 -1.737719e-04 0.0
2.413433e-01 2.613998e-05 0.0
0.000000e+00 2.641686e-05 0.0
0.000000e+00 0.000000e+00 0.0
0.000000e+00 0.000000e+00 0.0
0.000000e+00 0.000000e+00 0.0
0.000000e+00 0.000000e+00 0.0
0.000000e+00 0.000000e+00 0.0
0.000000e+00 0.000000e+00 0.0
0.000000e+00 0.000000e+00 0.0
0.000000e+00 0.000000e+00 0.0
0.000000e+00 0.000000e+00 0.0
0.000000e+00 0.000000e+00 0.0
0.000000e+00 -1.690670e-02 0.0
-1.057754e-02 1.691149e-02 0.0
-3.125647e-02 3.863245e-02 0.0
-5.588647e-02 4.921911e-02 0.0
-8.152827e-02 5.353638e-02 0.0
-1.070803e-01 5.554637e-02 0.0
-1.321821e-01 5.719393e-02 0.0
-1.566074e-01 5.903270e-02 0.0
-1.800133e-01 6.095712e-02 0.0
-2.018095e-01 6.249592e-02 0.0
-2.210178e-01 6.281480e-02 0.0
-2.363058e-01 6.089206e-02 0.0
-2.458687e-01 5.525109e-02 0.0
-2.472776e-01 4.398201e-02 0.0
-2.367718e-01 2.428648e-02 0.0
-2.079872e-01 -8.199306e-03 0.0
-1.605411e-01 -4.911530e-02 0.0
-9.573459e-02 -9.557082e-02 0.0
-1.670574e-02 -1.409555e-01 0.0
6.991233e-02 -1.778132e-01 0.0
1.545631e-01 -2.010753e-01 0.0
2.325033e-01 -2.106075e-01 0.0
3.014162e-01 -2.044564e-01 0.0
3.616456e-01 -1.865502e-01 0.0
4.141253e-01 -1.621614e-01 0.0
4.593030e-01 -1.353107e-01 0.0
4.974265e-01 -1.087283e-01 0.0
5.287961e-01 -8.404751e-02 0.0
5.538308e-01 -6.211227e-02 0.0
5.730486e-01 -4.325706e-02 0.0
5.870279e-01 -2.750791e-02 0.0
5.963804e-01 -1.470780e-02 0.0
6.017493e-01 -4.593928e-03 0.0
6.040387e-01 3.184013e-03 0.0
6.037761e-01 9.200401e-03 0.0
6.014167e-01 1.370347e-02 0.0
5.973551e-01 1.696667e-02 0.0
5.919329e-01 1.923319e-02 0.0
5.854273e-01 2.070609e-02 0.0
5.780517e-01 2.156755e-02 0.0
5.700528e-01 2.192181e-02 0.0
5.616511e-01 2.187336e-02 0.0
5.530191e-01 2.153387e-02 0.0
5.442973e-01 2.098156e-02 0.0
5.355985e-01 2.027831e-02 0.0
5.270124e-01 1.947226e-02 0.0
5.186087e-01 1.860048e-02 0.0
5.104403e-01 1.769109e-02 0.0
5.025459e-01 1.676538e-02 0.0
4.949528e-01 1.583962e-02 0.0
4.876793e-01 1.492654e-02 0.0
4.807363e-01 1.403605e-02 0.0
4.741283e-01 1.317562e-02 0.0
4.678545e-01 1.235056e-02 0.0
4.619099e-01 1.156444e-02 0.0
4.562864e-01 1.081943e-02 0.0
4.509736e-01 1.011663e-02 0.0
4.459595e-01 9.456268e-03 0.0
4.412309e-01 8.837891e-03 0.0
4.367740e-01 8.260490e-03 0.0
4.325743e-01 7.722627e-03 0.0
4.286175e-01 7.222527e-03 0.0
4.248895e-01 6.758165e-03 0.0
4.213763e-01 6.327358e-03 0.0
4.180649e-01 5.927832e-03 0.0
4.149426e-01 5.557252e-03 0.0
4.119975e-01 5.213243e-03 0.0
4.092185e-01 4.893409e-03 0.0
4.065956e-01 4.595369e-03 0.0
4.041192e-01 4.316770e-03 0.0
4.017811e-01 4.055288e-03 0.0
3.995737e-01 3.808604e-03 0.0
3.974906e-01 3.574392e-03 0.0
3.955262e-01 3.350314e-03 0.0
3.936760e-01 3.134012e-03 0.0
3.919366e-01 2.923092e-03 0.0
3.903056e-01 2.715095e-03 0.0
3.887818e-01 2.507471e-03 0.0
3.873652e-01 2.297575e-03 0.0
3.860569e-01 2.082672e-03 0.0
3.848595e-01 1.859976e-03 0.0
3.837768e-01 1.626767e-03 0.0
3.828135e-01 1.380675e-03 0.0
3.819754e-01 1.120416e-03 0.0
3.812700e-01 8.474167e-04 0.0
3.807041e-01 5.668909e-04 0.0
3.802838e-01 2.931544e-04 0.0
3.800110e-01 5.394662e-05 0.0
3.798693e-01 -1.042502e-04 0.0
3.798199e-01 -1.226864e-04 0.0
3.797994e-01 4.827106e-05 0.0
0.000000e+00 4.883463e-05 0.0
0.000000e+00 0.000000e+00 0.0
0.000000e+00 0.000000e+00 0.0
0.000000e+00 0.000000e+00 0.0
0.000000e+00 0.000000e+00 0.0
0.000000e+00 0.000000e+00 0.0
0.000000e+00 0.000000e+00 0.0
0.000000e+00 0.000000e+00 0.0
0.000000e+00 0.000000e+00 0.0
0.000000e+00 0.000000e+00 0.0
0.000000e+00 0.000000e+00 0.0
0.000000e+00 -3.001670e-02 0.0
-1.310144e-02 3.002047e-02 0.0
-3.658615e-02 6.211654e-02 0.0
-6.222242e-02 7.485576e-02 0.0
-8.665285e-02 7.796908e-02 0.0
-1.087939e-01 7.769129e-02 0.0
-1.282297e-01 7.663388e-02 0.0
-1.446225e-01 7.542812e-02 0.0
-1.575434e-01 7.387776e-02 0.0
-1.664378e-01 7.138739e-02 0.0
-1.703505e-01 6.672391e-02 0.0
-1.679042e-01 5.844550e-02 0.0
-1.566690e-01 4.402127e-02 0.0
-1.332414e-01 2.056481e-02 0.0
-8.969986e-02 -1.924482e-02 0.0
-2.698139e-02 -7.091464e-02 0.0
5.141366e-02 -1.275177e-01 0.0
1.362064e-01 -1.803774e-01 0.0
2.205011e-01 -2.252600e-01 0.0
2.997827e-01 -2.570920e-01 0.0
3.715773e-01 -2.728540e-01 0.0
4.332572e-01 -2.722688e-01 0.0
4.852339e-01 -2.564245e-01 0.0
5.296991e-01 -2.310215e-01 0.0
5.681054e-01 -2.005817e-01 0.0
6.012912e-01 -1.685064e-01 0.0
6.297231e-01 -1.371588e-01 0.0
6.537037e-01 -1.080175e-01 0.0
6.734940e-01 -8.189043e-02 0.0
6.893660e-01 -5.912256e-02 0.0
7.016194e-01 -3.976213e-02 0.0
7.105833e-01 -2.367648e-02 0.0
7.166165e-01 -1.063077e-02 0.0
7.201367e-01 -3.355891e-04 0.0
7.216200e-01 7.721619e-03 0.0
7.213917e-01 1.393708e-02 0.0
7.197113e-01 1.865026e-02 0.0
7.168009e-01 2.214396e-02 0.0
7.128536e-01 2.465275e-02 0.0
7.080492e-01 2.637255e-02 0.0
7.025207e-01 2.745279e-02 0.0
6.963752e-01 2.802203e-02 0.0
6.897527e-01 2.815875e-02 0.0
6.827801e-01 2.795512e-02 0.0
6.755666e-01 2.749216e-02 0.0
6.682059e-01 2.683399e-02 0.0
6.607773e-01 2.603110e-02 0.0
6.533475e-01 2.512333e-02 0.0
6.459724e-01 2.414266e-02 0.0
6.386983e-01 2.311523e-02 0.0
6.315633e-01 2.206269e-02 0.0
6.245979e-01 2.100273e-02 0.0
6.178257e-01 1.994952e-02 0.0
6.112639e-01 1.891421e-02 0.0
6.049247e-01 1.790539e-02 0.0
5.988162e-01 1.692963e-02 0.0
5.929426e-01 1.599174e-02 0.0
5.873053e-01 1.509504e-02 0.0
5.819033e-01 1.424158e-02 0.0
5.767330e-01 1.343238e-02 0.0
5.717898e-01 1.266760e-02 0.0
5.670673e-01 1.194668e-02 0.0
5.625586e-01 1.126850e-02 0.0
5.582561e-01 1.063151e-02 0.0
5.541517e-01 1.003382e-02 0.0
5.502373e-01 9.473273e-03 0.0
5.465047e-01 8.947485e-03 0.0
5.429458e-01 8.453906e-03 0.0
5.395530e-01 7.989883e-03 0.0
5.363187e-01 7.552691e-03 0.0
5.332361e-01 7.139530e-03 0.0
5.302989e-01 6.747521e-03 0.0
5.275012e-01 6.373701e-03 0.0
5.248382e-01 6.015034e-03 0.0
5.223054e-01 5.668401e-03 0.0
5.198996e-01 5.330581e-03 0.0
5.176182e-01 4.998204e-03 0.0
5.154596e-01 4.667722e-03 0.0
5.134234e-01 4.335394e-03 0.0
5.115105e-01 3.997284e-03 0.0
5.097228e-01 3.649296e-03 0.0
5.080640e-01 3.287277e-03 0.0
5.065390e-01 2.907296e-03 0.0
5.051548e-01 2.506243e-03 0.0
5.039209e-01 2.083028e-03 0.0
5.028492e-01 1.640244e-03 0.0
5.019559e-01 1.188075e-03 0.0
5.012618e-01 7.497084e-04 0.0
5.007893e-01 3.698871e-04 0.0
5.005459e-01 1.223483e-04 0.0
5.005229e-01 7.292769e-05 0.0
0.000000e+00 7.381082e-05 0.0
0.000000e+00 0.000000e+00 0.0
0.000000e+00 0.000000e+00 0.0
0.000000e+00 0.000000e+00 0.0
0.000000e+00 0.000000e+00 0.0
0.000000e+00 0.000000e+00 0.0
0.000000e+00 0.000000e+00 0.0
0.000000e+00 0.000000e+00 0.0
0.000000e+00 0.000000e+00 0.0
0.000000e+00 0.000000e+00 0.0
0.000000e+00 0.000000e+00 0.0
0.000000e+00 -4.350995e-02 0.0
-1.348572e-02 4.351323e-02 0.0
-3.550692e-02 8.413708e-02 0.0
-5.690970e-02 9.625950e-02 0.0
-7.475559e-02 9.581815e-02 0.0
-8.837136e-02 9.131155e-02 0.0
-9.751912e-02 8.578566e-02 0.0
-1.019416e-01 7.985241e-02 0.0
-1.011497e-01 7.308470e-02 0.0
-9.465854e-02 6.489313e-02 0.0
-8.079155e-02 5.285453e-02 0.0
-5.739682e-02 3.505277e-02 0.0
-1.751804e-02 4.150274e-03 0.0
4.367859e-02 -4.062118e-02 0.0
1.189456e-01 -9.450439e-02 0.0
2.018721e-01 -1.538431e-01 0.0
2.863471e-01 -2.120039e-01 0.0
3.678842e-01 -2.619271e-01 0.0
4.419596e-01 -2.993391e-01 0.0
5.061520e-01 -3.212740e-01 0.0
5.597338e-01 -3.264171e-01 0.0
6.022662e-01 -3.147873e-01 0.0
6.370695e-01 -2.912279e-01 0.0
6.663212e-01 -2.602853e-01 0.0
6.914081e-01 -2.256816e-01 0.0
7.131474e-01 -1.902493e-01 0.0
7.319909e-01 -1.559944e-01 0.0
7.481796e-01 -1.241934e-01 0.0
7.618590e-01 -9.556039e-02 0.0
7.731476e-01 -7.040929e-02 0.0
7.821733e-01 -4.879191e-02 0.0
7.890863e-01 -3.059438e-02 0.0
7.940517e-01 -1.559744e-02 0.0
7.972513e-01 -3.531798e-03 0.0
7.989979e-01 5.980582e-03 0.0
7.995016e-01 1.343781e-02 0.0
7.989272e-01 1.922607e-02 0.0
7.974157e-01 2.365477e-02 0.0
7.950930e-01 2.697522e-02 0.0
7.920743e-01 2.939292e-02 0.0
7.884569e-01 3.107344e-02 0.0
7.843276e-01 3.215418e-02 0.0
7.797438e-01 3.274411e-02 0.0
7.747747e-01 3.292462e-02 0.0
7.694969e-01 3.277059e-02 0.0
7.639785e-01 3.235400e-02 0.0
7.582803e-01 3.173166e-02 0.0
7.524566e-01 3.094949e-02 0.0
7.465554e-01 3.004561e-02 0.0
7.406195e-01 2.905235e-02 0.0
7.346862e-01 2.799715e-02 0.0
7.287875e-01 2.690290e-02 0.0
7.229503e-01 2.578849e-02 0.0
7.171970e-01 2.466937e-02 0.0
7.115460e-01 2.355814e-02 0.0
7.060123e-01 2.246493e-02 0.0
7.006078e-01 2.139772e-02 0.0
6.953418e-01 2.036259e-02 0.0
6.902210e-01 1.936402e-02 0.0
6.852500e-01 1.840512e-02 0.0
6.804315e-01 1.748781e-02 0.0
6.757668e-01 1.661306e-02 0.0
6.712559e-01 1.578100e-02 0.0
6.668979e-01 1.499113e-02 0.0
6.626909e-01 1.424239e-02 0.0
6.586326e-01 1.353326e-02 0.0
6.547199e-01 1.286181e-02 0.0
6.509496e-01 1.222582e-02 0.0
6.473183e-01 1.162283e-02 0.0
6.438225e-01 1.105020e-02 0.0
6.404586e-01 1.050507e-02 0.0
6.372234e-01 9.984417e-03 0.0
6.341137e-01 9.485027e-03 0.0
6.311269e-01 9.003536e-03 0.0
6.282605e-01 8.536418e-03 0.0
6.255128e-01 8.079968e-03 0.0
6.228824e-01 7.630214e-03 0.0
6.203689e-01 7.182891e-03 0.0
6.179726e-01 6.733419e-03 0.0
6.156947e-01 6.276884e-03 0.0
6.135376e-01 5.808034e-03 0.0
6.115052e-01 5.321328e-03 0.0
6.096031e-01 4.811096e-03 0.0
6.078391e-01 4.271914e-03 0.0
6.062244e-01 3.699334e-03 0.0
6.047752e-01 3.091103e-03 0.0
6.035153e-01 2.449611e-03 0.0
6.024808e-01 1.785899e-03 0.0
6.017255e-01 1.126835e-03 0.0
6.013218e-01 5.276942e-04 0.0
6.012998e-01 9.660539e-05 0.0
0.000000e+00 9.779558e-05 0.0
0.000000e+00 0.000000e+00 0.0
0.000000e+00 0.000000e+00 0.0
0.000000e+00 0.000000e+00 0.0
0.000000e+00 0.000000e+00 0.0
0.000000e+00 0.000000e+00 0.0
0.000000e+00 0.000000e+00 0.0
0.000000e+00 0.000000e+00 0.0
0.000000e+00 0.000000e+00 0.0
0.000000e+00 0.000000e+00 0.0
0.000000e+00 0.000000e+00 0.0
0.000000e+00 -5.666235e-02 0.0
-1.314567e-02 5.666532e-02 0.0
-3.056070e-02 1.015522e-01 0.0
-4.354817e-02 1.092490e-01 0.0
-5.079256e-02 1.030664e-01 0.0
-5.229376e-02 9.281701e-02 0.0
-4.811984e-02 8.161483e-02 0.0
-3.805670e-02 6.978999e-02 0.0
-2.071549e-02 5.574160e-02 0.0
5.332215e-03 3.884250e-02 0.0
4.458616e-02 1.359990e-02 0.0
1.023794e-01 -2.273606e-02 0.0
1.752251e-01 -6.868612e-02 0.0
2.575813e-01 -1.229676e-01 0.0
3.443082e-01 -1.812276e-01 0.0
4.292320e-01 -2.387734e-01 0.0
5.073219e-01 -2.901062e-01 0.0
5.755588e-01 -3.301730e-01 0.0
6.321140e-01 -3.558911e-01 0.0
6.766187e-01 -3.657633e-01 0.0
7.095189e-01 -3.593000e-01 0.0
7.340395e-01 -3.393008e-01 0.0
7.529722e-01 -3.101677e-01 0.0
7.682979e-01 -2.756248e-01 0.0
7.812791e-01 -2.386714e-01 0.0
7.926407e-01 -2.016077e-01 0.0
8.027568e-01 -1.660989e-01 0.0
8.117694e-01 -1.331944e-01 0.0
8.196995e-01 -1.034853e-01 0.0
8.265222e-01 -7.723399e-02 0.0
8.322156e-01 -5.449058e-02 0.0
8.367836e-01 -3.516560e-02 0.0
8.402397e-01 -1.905210e-02 0.0
8.426179e-01 -5.904913e-03 0.0
8.440386e-01 4.565335e-03 0.0
8.446142e-01 1.286501e-02 0.0
8.444365e-01 1.940367e-02 0.0
8.435896e-01 2.450090e-02 0.0
8.421522e-01 2.841333e-02 0.0
8.401976e-01 3.135014e-02 0.0
8.377917e-01 3.348256e-02 0.0
8.349953e-01 3.495280e-02 0.0
8.318615e-01 3.587874e-02 0.0
8.284288e-01 3.635770e-02 0.0
8.247341e-01 3.646637e-02 0.0
8.208190e-01 3.627131e-02 0.0
8.167222e-01 3.583090e-02 0.0
8.124803e-01 3.519348e-02 0.0
8.081270e-01 3.440033e-02 0.0
8.036931e-01 3.348729e-02 0.0
7.992064e-01 3.248523e-02 0.0
7.946909e-01 3.142004e-02 0.0
7.901679e-01 3.031345e-02 0.0
7.856554e-01 2.918361e-02 0.0
7.811695e-01 2.804567e-02 0.0
7.767239e-01 2.691202e-02 0.0
7.723305e-01 2.579267e-02 0.0
7.679992e-01 2.469555e-02 0.0
7.637381e-01 2.362679e-02 0.0
7.595540e-01 2.259095e-02 0.0
7.554522e-01 2.159126e-02 0.0
7.514371e-01 2.062981e-02 0.0
7.475119e-01 1.970776e-02 0.0
7.436792e-01 1.882547e-02 0.0
7.399406e-01 1.798262e-02 0.0
7.362973e-01 1.717827e-02 0.0
7.327497e-01 1.641102e-02 0.0
7.292981e-01 1.567905e-02 0.0
7.259424e-01 1.498023e-02 0.0
7.226821e-01 1.431214e-02 0.0
7.195168e-01 1.367204e-02 0.0
7.164459e-01 1.305696e-02 0.0
7.134690e-01 1.246363e-02 0.0
7.105856e-01 1.188861e-02 0.0
7.077955e-01 1.132817e-02 0.0
7.050987e-01 1.077841e-02 0.0
7.024956e-01 1.023499e-02 0.0
6.999870e-01 9.693174e-03 0.0
6.975743e-01 9.147782e-03 0.0
6.952597e-01 8.593158e-03 0.0
6.930463e-01 8.023105e-03 0.0
6.909384e-01 7.430848e-03 0.0
6.889422e-01 6.809032e-03 0.0
6.870659e-01 6.149801e-03 0.0
6.853220e-01 5.444999e-03 0.0
6.837282e-01 4.686547e-03 0.0
6.823123e-01 3.867205e-03 0.0
6.811178e-01 2.982004e-03 0.0
6.802146e-01 2.031743e-03 0.0
6.797075e-01 1.036394e-03 0.0
6.796893e-01 1.164924e-04 0.0
0.000000e+00 1.179415e-04 0.0
0.000000e+00 0.000000e+00 0.0
0.000000e+00 0.000000e+00 0.0
0.000000e+00 0.000000e+00 0.0
0.000000e+00 0.000000e+00 0.0
0.000000e+00 0.000000e+00 0.0
0.000000e+00 0.000000e+00 0.0
0.000000e+00 0.000000e+00 0.0
0.000000e+00 0.000000e+00 0.0
0.000000e+00 0.000000e+00 0.0
0.000000e+00 0.000000e+00 0.0
0.000000e+00 -7.032349e-02 0.0
-1.365488e-02 7.032598e-02 0.0
-2.296717e-02 1.108643e-01 0.0
-2.242668e-02 1.087104e-01 0.0
-1.405151e-02 9.469469e-02 0.0
1.527990e-03 7.724118e-02 0.0
2.444119e-02 5.870377e-02 0.0
5.494217e-02 3.928874e-02 0.0
9.658751e-02 1.409383e-02 0.0
1.542617e-01 -1.883423e-02 0.0
2.261415e-01 -5.827898e-02 0.0
3.079342e-01 -1.045225e-01 0.0
3.953555e-01 -1.560976e-01 0.0
4.829554e-01 -2.105598e-01 0.0
5.658016e-01 -2.640741e-01 0.0
6.395005e-01 -3.124818e-01 0.0
7.010820e-01 -3.516992e-01 0.0
7.493698e-01 -3.784646e-01 0.0
7.845193e-01 -3.910315e-01 0.0
8.075945e-01 -3.888214e-01 0.0
8.213131e-01 -3.730057e-01 0.0
8.291520e-01 -3.471399e-01 0.0
8.336297e-01 -3.146567e-01 0.0
8.364583e-01 -2.784651e-01 0.0
8.386831e-01 -2.408989e-01 0.0
8.408643e-01 -2.037810e-01 0.0
8.432675e-01 -1.684898e-01 0.0
8.459167e-01 -1.358352e-01 0.0
8.487111e-01 -1.062785e-01 0.0
8.514968e-01 -8.002390e-02 0.0
8.541228e-01 -5.712110e-02 0.0
8.564732e-01 -3.751681e-02 0.0
8.584301e-01 -2.100544e-02 0.0
8.599056e-01 -7.374804e-03 0.0
8.608609e-01 3.614187e-03 0.0
8.613051e-01 1.242209e-02 0.0
8.612613e-01 1.944679e-02 0.0
8.607645e-01 2.499748e-02 0.0
8.598559e-01 2.932364e-02 0.0
8.585786e-01 3.263057e-02 0.0
8.569750e-01 3.508895e-02 0.0
8.550869e-01 3.684241e-02 0.0
8.529537e-01 3.801243e-02 0.0
8.506102e-01 3.870188e-02 0.0
8.480812e-01 3.899696e-02 0.0
8.453882e-01 3.896672e-02 0.0
8.425543e-01 3.866717e-02 0.0
8.396025e-01 3.814695e-02 0.0
8.365551e-01 3.744891e-02 0.0
8.334325e-01 3.661106e-02 0.0
8.302527e-01 3.566657e-02 0.0
8.270315e-01 3.464308e-02 0.0
8.237827e-01 3.356412e-02 0.0
8.205184e-01 3.244957e-02 0.0
8.172496e-01 3.131609e-02 0.0
8.139857e-01 3.017741e-02 0.0
8.107352e-01 2.904474e-02 0.0
8.075054e-01 2.792706e-02 0.0
8.043024e-01 2.683146e-02 0.0
8.011317e-01 2.576335e-02 0.0
7.979979e-01 2.472669e-02 0.0
7.949051e-01 2.372424e-02 0.0
7.918567e-01 2.275778e-02 0.0
7.888556e-01 2.182818e-02 0.0
7.859043e-01 2.093556e-02 0.0
7.830049e-01 2.007936e-02 0.0
7.801590e-01 1.925851e-02 0.0
7.773682e-01 1.847151e-02 0.0
7.746337e-01 1.771643e-02 0.0
7.719565e-01 1.699102e-02 0.0
7.693375e-01 1.629266e-02 0.0
7.667777e-01 1.561840e-02 0.0
7.642780e-01 1.496502e-02 0.0
7.618393e-01 1.432900e-02 0.0
7.594626e-01 1.370653e-02 0.0
7.571490e-01 1.309367e-02 0.0
7.548998e-01 1.248583e-02 0.0
7.527168e-01 1.187791e-02 0.0
7.506019e-01 1.126432e-02 0.0
7.485579e-01 1.063884e-02 0.0
7.465882e-01 9.994501e-03 0.0
7.446972e-01 9.323501e-03 0.0
7.428909e-01 8.616977e-03 0.0
7.411776e-01 7.864807e-03 0.0
7.395690e-01 7.055280e-03 0.0
7.380827e-01 6.174545e-03 0.0
7.367459e-01 5.205703e-03 0.0
7.356022e-01 4.127361e-03 0.0
7.347230e-01 2.912623e-03 0.0
7.342203e-01 1.540790e-03 0.0
7.342077e-01 1.308170e-04 0.0
0.000000e+00 1.324565e-04 0.0
0.000000e+00 0.000000e+00 0.0
0.000000e+00 0.000000e+00 0.0
0.000000e+00 0.000000e+00 0.0
0.000000e+00 0.000000e+00 0.0
0.000000e+00 0.000000e+00 0.0
0.000000e+00 0.000000e+00 0.0
0.000000e+00 0.000000e+00 0.0
0.000000e+00 0.000000e+00 0.0
0.000000e+00 0.000000e+00 0.0
0.000000e+00 0.000000e+00 0.0
0.000000e+00 -8.406152e-02 0.0
-1.373228e-02 8.406301e-02 0.0
-5.746845e-03 1.028796e-01 0.0
1.868217e-02 8.428434e-02 0.0
5.180297e-02 6.157802e-02 0.0
9.248696e-02 3.656081e-02 0.0
1.434064e-01 7.785994e-03 0.0
2.076029e-01 -2.490885e-02 0.0
2.826135e-01 -6.091946e-02 0.0
3.650135e-01 -1.012360e-01 0.0
4.520635e-01 -1.453264e-01 0.0
5.398674e-01 -1.923188e-01 0.0
6.242617e-01 -2.404826e-01 0.0
7.010857e-01 -2.873789e-01 0.0
7.669543e-01 -3.299468e-01 0.0
8.195456e-01 -3.650836e-01 0.0
8.579380e-01 -3.901001e-01 0.0
8.826376e-01 -4.031623e-01 0.0
8.951541e-01 -4.035350e-01 0.0
8.978452e-01 -3.914971e-01 0.0
8.944294e-01 -3.695830e-01 0.0
8.877359e-01 -3.404519e-01 0.0
8.798396e-01 -3.067721e-01 0.0
8.720995e-01 -2.707326e-01 0.0
8.652901e-01 -2.340869e-01 0.0
8.597728e-01 -1.982532e-01 0.0
8.556964e-01 -1.644028e-01 0.0
8.529581e-01 -1.330922e-01 0.0
8.513568e-01 -1.046789e-01 0.0
8.506587e-01 -7.933034e-02 0.0
8.506155e-01 -5.708057e-02 0.0
8.509701e-01 -3.786982e-02 0.0
8.515166e-01 -2.154726e-02 0.0
8.520811e-01 -7.934337e-03 0.0
8.525237e-01 3.174251e-03 0.0
8.527544e-01 1.219155e-02 0.0
8.527333e-01 1.946739e-02 0.0
8.524499e-01 2.528151e-02 0.0
8.519111e-01 2.986495e-02 0.0
8.511328e-01 3.341190e-02 0.0
8.501366e-01 3.608732e-02 0.0
8.489474e-01 3.803258e-02 0.0
8.475911e-01 3.936928e-02 0.0
8.460923e-01 4.020185e-02 0.0
8.444718e-01 4.061946e-02 0.0
8.427437e-01 4.069722e-02 0.0
8.409208e-01 4.049209e-02 0.0
8.390173e-01 4.005187e-02 0.0
8.370470e-01 3.942034e-02 0.0
8.350228e-01 3.863667e-02 0.0
8.329560e-01 3.773510e-02 0.0
8.308561e-01 3.674479e-02 0.0
8.287313e-01 3.569062e-02 0.0
8.265889e-01 3.459362e-02 0.0
8.244352e-01 3.347136e-02 0.0
8.222758e-01 3.233839e-02 0.0
8.201155e-01 3.120659e-02 0.0
8.179587e-01 3.008557e-02 0.0
8.158090e-01 2.898289e-02 0.0
8.136696e-01 2.790439e-02 0.0
8.115435e-01 2.685440e-02 0.0
8.094333e-01 2.583604e-02 0.0
8.073414e-01 2.485137e-02 0.0
8.052697e-01 2.390149e-02 0.0
8.032202e-01 2.298672e-02 0.0
8.011945e-01 2.210670e-02 0.0
7.991942e-01 2.126051e-02 0.0
7.972205e-01 2.044680e-02 0.0
7.952749e-01 1.966375e-02 0.0
7.933584e-01 1.890915e-02 0.0
7.914723e-01 1.818042e-02 0.0
7.896177e-01 1.747465e-02 0.0
7.877958e-01 1.678861e-02 0.0
7.860078e-01 1.611871e-02 0.0
7.842550e-01 1.546097e-02 0.0
7.825387e-01 1.481168e-02 0.0
7.808603e-01 1.416592e-02 0.0
7.792215e-01 1.351833e-02 0.0
7.776245e-01 1.286299e-02 0.0
7.760718e-01 1.219327e-02 0.0
7.745663e-01 1.150164e-02 0.0
7.731121e-01 1.077946e-02 0.0
7.717141e-01 1.001664e-02 0.0
7.703794e-01 9.201199e-03 0.0
7.691179e-01 8.318423e-03 0.0
7.679446e-01 7.349586e-03 0.0
7.668823e-01 6.269633e-03 0.0
7.659681e-01 5.043326e-03 0.0
7.652619e-01 3.620440e-03 0.0
7.648583e-01 1.946110e-03 0.0
7.648521e-01 1.387661e-04 0.0
0.000000e+00 1.405192e-04 0.0
0.000000e+00 0.000000e+00 0.0
0.000000e+00 0.000000e+00 0.0
0.000000e+00 0.000000e+00 0.0
0.000000e+00 0.000000e+00 0.0
0.000000e+00 0.000000e+00 0.0
0.000000e+00 0.000000e+00 0.0
0.000000e+00 0.000000e+00 0.0
0.000000e+00 0.000000e+00 0.0
0.000000e+00 0.000000e+00 0.0
0.000000e+00 0.000000e+00 0.0
0.000000e+00 -7.892972e-02 0.0
5.137123e-03 7.893003e-02 0.0
5.411642e-02 5.390071e-02 0.0
1.179864e-01 2.041721e-02 0.0
1.916503e-01 -1.208207e-02 0.0
2.721998e-01 -4.398567e-02 0.0
3.564829e-01 -7.649629e-02 0.0
4.428076e-01 -1.112351e-01 0.0
5.299725e-01 -1.480868e-01 0.0
6.156607e-01 -1.869246e-01 0.0
6.973414e-01 -2.270027e-01 0.0
7.721888e-01 -2.671579e-01 0.0
8.374468e-01 -3.057328e-01 0.0
8.907643e-01 -3.406951e-01 0.0
9.306251e-01 -3.698142e-01 0.0