# vtk DataFile Version 3.0
Vector Field
ASCII
DATASET RECTILINEAR_GRID
DIMENSIONS 102 22 1
X_COORDINATES 102 double
0.000000 0.100000 0.200000 0.300000 0.400000 0.500000 0.600000 0.700000 0.800000 0.900000 1.000000 1.100000 1.200000 1.300000 1.400000 1.500000 1.600000 1.700000 1.800000 1.900000 2.000000 2.100000 2.200000 2.300000 2.400000 2.500000 2.600000 2.700000 2.800000 2.900000 3.000000 3.100000 3.200000 3.300000 3.400000 3.500000 3.600000 3.700000 3.800000 3.900000 4.000000 4.100000 4.200000 4.300000 4.400000 4.500000 4.600000 4.700000 4.800000 4.900000 5.000000 5.100000 5.200000 5.300000 5.400000 5.500000 5.600000 5.700000 5.800000 5.900000 6.000000 6.100000 6.200000 6.300000 6.400000 6.500000 6.600000 6.700000 6.800000 6.900000 7.000000 7.100000 7.200000 7.300000 7.400000 7.500000 7.600000 7.700000 7.800000 7.900000 8.000000 8.100000 8.200000 8.300000 8.400000 8.500000 8.600000 8.700000 8.800000 8.900000 9.000000 9.100000 9.200000 9.300000 9.400000 9.500000 9.600000 9.700000 9.800000 9.900000 10.000000 10.100000 
Y_COORDINATES 22 double
0.000000 0.100000 0.200000 0.300000 0.400000 0.500000 0.600000 0.700000 0.800000 0.900000 1.000000 1.100000 1.200000 1.300000 1.400000 1.500000 1.600000 1.700000 1.800000 1.900000 2.000000 2.100000 
Z_COORDINATES 1 double
0.0
POINT_DATA 2244
VECTORS Velocity double
0.000000e+00 0.000000e+00 0.0
-0.000000e+00 0.000000e+00 0.0
-0.000000e+00 0.000000e+00 0.0
-0.000000e+00 0.000000e+00 0.0
-0.000000e+00 0.000000e+00 0.0
-0.000000e+00 0.000000e+00 0.0
-0.000000e+00 0.000000e+00 0.0
-0.000000e+00 0.000000e+00 0.0
-0.000000e+00 0.000000e+00 0.0
-0.000000e+00 0.000000e+00 0.0
-0.000000e+00 0.000000e+00 0.0
5.126466e-04 0.000000e+00 0.0
4.892777e-03 0.000000e+00 0.0
1.167550e-02 0.000000e+00 0.0
1.966701e-02 0.000000e+00 0.0
2.847742e-02 0.000000e+00 0.0
3.819955e-02 0.000000e+00 0.0
4.912391e-02 0.000000e+00 0.0
6.160459e-02 0.000000e+00 0.0
7.599090e-02 0.000000e+00 0.0
9.255208e-02 0.000000e+00 0.0
1.113671e-01 0.000000e+00 0.0
1.321537e-01 0.000000e+00 0.0
1.540845e-01 0.000000e+00 0.0
1.755480e-01 0.000000e+00 0.0
1.938202e-01 0.000000e+00 0.0
2.053749e-01 0.000000e+00 0.0
2.062366e-01 0.000000e+00 0.0
1.933183e-01 0.000000e+00 0.0
1.657096e-01 0.000000e+00 0.0
1.251556e-01 0.000000e+00 0.0
7.573820e-02 0.000000e+00 0.0
2.016169e-02 0.000000e+00 0.0
-3.458571e-02 0.000000e+00 0.0
-8.137441e-02 0.000000e+00 0.0
-1.182948e-01 0.000000e+00 0.0
-1.455946e-01 0.000000e+00 0.0
-1.644151e-01 0.000000e+00 0.0
-1.762178e-01 0.000000e+00 0.0
-1.825055e-01 0.000000e+00 0.0
-1.846962e-01 0.000000e+00 0.0
-1.840630e-01 0.000000e+00 0.0
-1.813423e-01 0.000000e+00 0.0
-1.770893e-01 0.000000e+00 0.0
-1.718673e-01 0.000000e+00 0.0
-1.661396e-01 0.000000e+00 0.0
-1.602544e-01 0.000000e+00 0.0
-1.544432e-01 0.000000e+00 0.0
-1.488422e-01 0.000000e+00 0.0
-1.435374e-01 0.000000e+00 0.0
-1.385702e-01 0.000000e+00 0.0
-1.339565e-01 0.000000e+00 0.0
-1.296947e-01 0.000000e+00 0.0
-1.257734e-01 0.000000e+00 0.0
-1.221753e-01 0.000000e+00 0.0
-1.188802e-01 0.000000e+00 0.0
-1.158673e-01 0.000000e+00 0.0
-1.131155e-01 0.000000e+00 0.0
-1.106045e-01 0.000000e+00 0.0
-1.083150e-01 0.000000e+00 0.0
-1.062285e-01 0.000000e+00 0.0
-1.043278e-01 0.000000e+00 0.0
-1.025969e-01 0.000000e+00 0.0
-1.010207e-01 0.000000e+00 0.0
-9.958507e-02 0.000000e+00 0.0
-9.827720e-02 0.000000e+00 0.0
-9.708511e-02 0.000000e+00 0.0
-9.599785e-02 0.000000e+00 0.0
-9.500540e-02 0.000000e+00 0.0
-9.409862e-02 0.000000e+00 0.0
-9.326923e-02 0.000000e+00 0.0
-9.250971e-02 0.000000e+00 0.0
-9.181331e-02 0.000000e+00 0.0
-9.117396e-02 0.000000e+00 0.0
-9.058628e-02 0.000000e+00 0.0
-9.004546e-02 0.000000e+00 0.0
-8.954730e-02 0.000000e+00 0.0
-8.908812e-02 0.000000e+00 0.0
-8.866475e-02 0.000000e+00 0.0
-8.827449e-02 0.000000e+00 0.0
-8.791513e-02 0.000000e+00 0.0
-8.758486e-02 0.000000e+00 0.0
-8.728232e-02 0.000000e+00 0.0
-8.700656e-02 0.000000e+00 0.0
-8.675704e-02 0.000000e+00 0.0
-8.653365e-02 0.000000e+00 0.0
-8.633667e-02 0.000000e+00 0.0
-8.616686e-02 0.000000e+00 0.0
-8.602538e-02 0.000000e+00 0.0
-8.591392e-02 0.000000e+00 0.0
-8.583470e-02 0.000000e+00 0.0
-8.579063e-02 0.000000e+00 0.0
-8.578549e-02 0.000000e+00 0.0
-8.582170e-02 0.000000e+00 0.0
-8.589726e-02 0.000000e+00 0.0
-8.600565e-02 0.000000e+00 0.0
-8.614115e-02 0.000000e+00 0.0
-8.629240e-02 0.000000e+00 0.0
-8.643808e-02 0.000000e+00 0.0
-8.653479e-02 0.000000e+00 0.0
-8.653479e-02 0.000000e+00 0.0
0.000000e+00 0.000000e+00 0.0
0.000000e+00 0.000000e+00 0.0
0.000000e+00 0.000000e+00 0.0
0.000000e+00 0.000000e+00 0.0
0.000000e+00 0.000000e+00 0.0
0.000000e+00 0.000000e+00 0.0
0.000000e+00 0.000000e+00 0.0
0.000000e+00 0.000000e+00 0.0
0.000000e+00 0.000000e+00 0.0
0.000000e+00 0.000000e+00 0.0
0.000000e+00 0.000000e+00 0.0
0.000000e+00 -5.225863e-04 0.0
-5.206982e-04 5.199628e-04 0.0
-4.904467e-03 4.377922e-03 0.0
-1.168116e-02 6.776413e-03 0.0
-1.966412e-02 7.987922e-03 0.0
-2.847026e-02 8.812195e-03 0.0
-3.819418e-02 9.727020e-03 0.0
-4.912354e-02 1.092839e-02 0.0
-6.160835e-02 1.248129e-02 0.0
-7.599554e-02 1.438386e-02 0.0
-9.255420e-02 1.655786e-02 0.0
-1.113654e-01 1.881327e-02 0.0
-1.321496e-01 2.078751e-02 0.0
-1.540815e-01 2.193345e-02 0.0
-1.755486e-01 2.146567e-02 0.0
-1.938238e-01 1.827209e-02 0.0
-2.053787e-01 1.155243e-02 0.0
-2.062378e-01 8.590002e-04 0.0
-1.933163e-01 -1.291952e-02 0.0
-1.657063e-01 -2.760786e-02 0.0
-1.251537e-01 -4.055214e-02 0.0
-7.573847e-02 -4.941634e-02 0.0
-2.016295e-02 -5.557706e-02 0.0
3.458517e-02 -5.474878e-02 0.0
8.137534e-02 -4.678965e-02 0.0
1.182965e-01 -3.692022e-02 0.0
1.455958e-01 -2.729878e-02 0.0
1.644153e-01 -1.881973e-02 0.0
1.762172e-01 -1.180261e-02 0.0
1.825051e-01 -6.288247e-03 0.0
1.846965e-01 -2.191143e-03 0.0
1.840637e-01 6.333703e-04 0.0
1.813429e-01 2.721239e-03 0.0
1.770894e-01 4.253452e-03 0.0
1.718668e-01 5.222145e-03 0.0
1.661392e-01 5.727338e-03 0.0
1.602543e-01 5.884946e-03 0.0
1.544434e-01 5.811136e-03 0.0
1.488425e-01 5.601106e-03 0.0
1.435374e-01 5.305093e-03 0.0
1.385702e-01 4.967234e-03 0.0
1.339564e-01 4.613761e-03 0.0
1.296946e-01 4.261707e-03 0.0
1.257733e-01 3.921260e-03 0.0
1.221752e-01 3.598109e-03 0.0
1.188803e-01 3.295031e-03 0.0
1.158673e-01 3.012980e-03 0.0
1.131155e-01 2.751856e-03 0.0
1.106045e-01 2.511017e-03 0.0
1.083149e-01 2.289560e-03 0.0
1.062284e-01 2.086456e-03 0.0
1.043278e-01 1.900614e-03 0.0
1.025969e-01 1.730922e-03 0.0
1.010207e-01 1.576282e-03 0.0
9.958509e-02 1.435619e-03 0.0
9.827720e-02 1.307892e-03 0.0
9.708511e-02 1.192097e-03 0.0
9.599785e-02 1.087262e-03 0.0
9.500541e-02 9.924557e-04 0.0
9.409864e-02 9.067855e-04 0.0
9.326925e-02 8.294088e-04 0.0
9.250972e-02 7.595332e-04 0.0
9.181332e-02 6.964145e-04 0.0
9.117398e-02 6.393539e-04 0.0
9.058630e-02 5.876960e-04 0.0
9.004548e-02 5.408273e-04 0.0
8.954732e-02 4.981733e-04 0.0
8.908814e-02 4.591954e-04 0.0
8.866477e-02 4.233862e-04 0.0
8.827451e-02 3.902658e-04 0.0
8.791515e-02 3.593768e-04 0.0
8.758488e-02 3.302804e-04 0.0
8.728234e-02 3.025512e-04 0.0
8.700659e-02 2.757722e-04 0.0
8.675707e-02 2.495301e-04 0.0
8.653367e-02 2.234095e-04 0.0
8.633670e-02 1.969880e-04 0.0
8.616688e-02 1.698313e-04 0.0
8.602541e-02 1.414871e-04 0.0
8.591395e-02 1.114725e-04 0.0
8.583473e-02 7.923745e-05 0.0
8.579066e-02 4.407880e-05 0.0
8.578552e-02 5.156862e-06 0.0
8.582173e-02 -3.620208e-05 0.0
8.589729e-02 -7.554428e-05 0.0
8.600568e-02 -1.083779e-04 0.0
8.614118e-02 -1.354811e-04 0.0
8.629243e-02 -1.512413e-04 0.0
8.643811e-02 -1.456620e-04 0.0
8.653482e-02 -9.669966e-05 0.0
8.653479e-02 4.446269e-08 0.0
0.000000e+00 4.499663e-08 0.0
0.000000e+00 0.000000e+00 0.0
0.000000e+00 0.000000e+00 0.0
0.000000e+00 0.000000e+00 0.0
0.000000e+00 0.000000e+00 0.0
0.000000e+00 0.000000e+00 0.0
0.000000e+00 0.000000e+00 0.0
0.000000e+00 0.000000e+00 0.0
0.000000e+00 0.000000e+00 0.0
0.000000e+00 0.000000e+00 0.0
0.000000e+00 0.000000e+00 0.0
0.000000e+00 -6.343386e-03 0.0
-5.824516e-03 6.337681e-03 0.0
-1.945633e-02 1.801009e-02 0.0
-3.736545e-02 2.468980e-02 0.0
-5.741349e-02 2.803962e-02 0.0
-7.878706e-02 3.018622e-02 0.0
-1.013960e-01 3.233356e-02 0.0
-1.253709e-01 3.489993e-02 0.0
-1.507852e-01 3.789336e-02 0.0
-1.774814e-01 4.108039e-02 0.0
-2.049204e-01 4.399937e-02 0.0
-2.320669e-01 4.596236e-02 0.0
-2.572161e-01 4.593739e-02 0.0
-2.779023e-01 4.261805e-02 0.0
-2.909798e-01 3.454054e-02 0.0
-2.926225e-01 1.991347e-02 0.0
-2.781054e-01 -2.963848e-03 0.0
-2.447630e-01 -3.248137e-02 0.0
-1.938261e-01 -6.385487e-02 0.0
-1.281928e-01 -9.324149e-02 0.0
-5.051475e-02 -1.182317e-01 0.0
3.407124e-02 -1.340038e-01 0.0
1.145207e-01 -1.360267e-01 0.0
1.858566e-01 -1.260838e-01 0.0
2.480657e-01 -1.089977e-01 0.0
3.003776e-01 -8.923190e-02 0.0
3.427221e-01 -6.964382e-02 0.0
3.756540e-01 -5.175241e-02 0.0
4.000887e-01 -3.623751e-02 0.0
4.171063e-01 -2.330546e-02 0.0
4.278222e-01 -1.290647e-02 0.0
4.332985e-01 -4.842624e-03 0.0
4.348355e-01 1.183958e-03 0.0
4.332685e-01 5.819943e-03 0.0
4.292792e-01 9.211289e-03 0.0
4.234550e-01 1.155169e-02 0.0
4.162795e-01 1.306077e-02 0.0
4.081671e-01 1.392360e-02 0.0
3.994909e-01 1.427723e-02 0.0
3.905536e-01 1.424233e-02 0.0
3.815695e-01 1.395125e-02 0.0
3.727006e-01 1.348268e-02 0.0
3.640623e-01 1.290002e-02 0.0
3.557346e-01 1.224898e-02 0.0
3.477702e-01 1.156257e-02 0.0
3.402010e-01 1.086423e-02 0.0
3.330437e-01 1.017029e-02 0.0
3.263035e-01 9.492030e-03 0.0
3.199774e-01 8.837124e-03 0.0
3.140562e-01 8.210706e-03 0.0
3.085266e-01 7.616051e-03 0.0
3.033722e-01 7.055058e-03 0.0
2.985746e-01 6.528598e-03 0.0
2.941141e-01 6.036772e-03 0.0
2.899706e-01 5.579094e-03 0.0
2.861238e-01 5.154641e-03 0.0
2.825538e-01 4.762159e-03 0.0
2.792409e-01 4.400149e-03 0.0
2.761664e-01 4.066948e-03 0.0
2.733124e-01 3.760790e-03 0.0
2.706620e-01 3.479853e-03 0.0
2.681992e-01 3.222302e-03 0.0
2.659093e-01 2.986309e-03 0.0
2.637786e-01 2.770079e-03 0.0
2.617944e-01 2.571859e-03 0.0
2.599453e-01 2.389953e-03 0.0
2.582208e-01 2.222725e-03 0.0
2.566114e-01 2.068600e-03 0.0
2.551087e-01 1.926062e-03 0.0
2.537053e-01 1.793652e-03 0.0
2.523947e-01 1.669957e-03 0.0
2.511714e-01 1.553602e-03 0.0
2.500307e-01 1.443247e-03 0.0
2.489689e-01 1.337566e-03 0.0
2.479832e-01 1.235240e-03 0.0
2.470717e-01 1.134944e-03 0.0
2.462333e-01 1.035329e-03 0.0
2.454682e-01 9.350143e-04 0.0
2.447771e-01 8.325759e-04 0.0
2.441620e-01 7.265474e-04 0.0
2.436258e-01 6.154259e-04 0.0
2.431722e-01 4.977175e-04 0.0
2.428051e-01 3.722209e-04 0.0
2.425296e-01 2.393235e-04 0.0
2.423524e-01 1.016470e-04 0.0
2.422807e-01 -3.666001e-05 0.0
2.423046e-01 -1.594005e-04 0.0
2.423977e-01 -2.443367e-04 0.0
2.425207e-01 -2.686692e-04 0.0
2.426184e-01 -1.944049e-04 0.0
2.426184e-01 1.332919e-07 0.0
0.000000e+00 1.347756e-07 0.0
0.000000e+00 0.000000e+00 0.0
0.000000e+00 0.000000e+00 0.0
0.000000e+00 0.000000e+00 0.0
0.000000e+00 0.000000e+00 0.0
0.000000e+00 0.000000e+00 0.0
0.000000e+00 0.000000e+00 0.0
0.000000e+00 0.000000e+00 0.0
0.000000e+00 0.000000e+00 0.0
0.000000e+00 0.000000e+00 0.0
0.000000e+00 0.000000e+00 0.0
0.000000e+00 -1.696891e-02 0.0
-1.063122e-02 1.696236e-02 0.0
-3.138232e-02 3.876440e-02 0.0
-5.610459e-02 4.941632e-02 0.0
-8.185865e-02 5.379526e-02 0.0
-1.075399e-01 5.586555e-02 0.0
-1.327790e-01 5.756928e-02 0.0
-1.573353e-01 5.945372e-02 0.0
-1.808496e-01 6.140715e-02 0.0
-2.027114e-01 6.294406e-02 0.0
-2.219207e-01 6.321120e-02 0.0
-2.371276e-01 6.117081e-02 0.0
-2.465073e-01 5.531628e-02 0.0
-2.475568e-01 4.366524e-02 0.0
-2.364419e-01 2.342375e-02 0.0
-2.066704e-01 -9.858037e-03 0.0
-1.581956e-01 -5.143675e-02 0.0
-9.233138e-02 -9.834359e-02 0.0
-1.237933e-02 -1.438063e-01 0.0
7.462230e-02 -1.802443e-01 0.0
1.593433e-01 -2.029544e-01 0.0
2.370624e-01 -2.117235e-01 0.0
3.056213e-01 -2.045850e-01 0.0
3.655544e-01 -1.860157e-01 0.0
4.177701e-01 -1.612128e-01 0.0
4.626805e-01 -1.341427e-01 0.0
5.005202e-01 -1.074843e-01 0.0
5.315933e-01 -8.282599e-02 0.0
5.563306e-01 -6.097461e-02 0.0
5.752622e-01 -4.223651e-02 0.0
5.889745e-01 -2.661826e-02 0.0
5.980819e-01 -1.395015e-02 0.0
6.032270e-01 -3.961673e-03 0.0
6.053405e-01 3.706095e-03 0.0
6.049253e-01 9.626569e-03 0.0
6.024311e-01 1.404619e-02 0.0
5.982534e-01 1.723874e-02 0.0
5.927308e-01 1.944615e-02 0.0
5.861358e-01 2.087215e-02 0.0
5.786858e-01 2.169224e-02 0.0
5.706266e-01 2.201045e-02 0.0
5.621759e-01 2.193331e-02 0.0
5.535063e-01 2.156972e-02 0.0
5.447572e-01 2.099809e-02 0.0
5.360401e-01 2.027966e-02 0.0
5.274429e-01 1.946148e-02 0.0
5.190337e-01 1.857945e-02 0.0
5.108646e-01 1.766112e-02 0.0
5.029740e-01 1.672770e-02 0.0
4.953892e-01 1.579558e-02 0.0
4.881278e-01 1.487740e-02 0.0
4.812002e-01 1.398274e-02 0.0
4.746100e-01 1.311874e-02 0.0
4.683563e-01 1.229054e-02 0.0
4.624337e-01 1.150164e-02 0.0
4.568342e-01 1.075420e-02 0.0
4.515471e-01 1.004928e-02 0.0
4.465602e-01 9.387054e-03 0.0
4.418601e-01 8.767006e-03 0.0
4.374328e-01 8.188058e-03 0.0
4.332640e-01 7.648722e-03 0.0
4.293391e-01 7.147192e-03 0.0
4.256440e-01 6.681436e-03 0.0
4.221648e-01 6.249260e-03 0.0
4.188883e-01 5.848373e-03 0.0
4.158018e-01 5.476425e-03 0.0
4.128935e-01 5.131037e-03 0.0
4.101523e-01 4.809831e-03 0.0
4.075679e-01 4.510440e-03 0.0
4.051310e-01 4.230513e-03 0.0
4.028333e-01 3.967725e-03 0.0
4.006671e-01 3.719764e-03 0.0
3.986260e-01 3.484329e-03 0.0
3.967045e-01 3.259119e-03 0.0
3.948979e-01 3.041812e-03 0.0
3.932028e-01 2.830055e-03 0.0
3.916167e-01 2.621431e-03 0.0
3.901383e-01 2.413448e-03 0.0
3.887673e-01 2.203520e-03 0.0
3.875049e-01 1.988977e-03 0.0
3.863532e-01 1.767105e-03 0.0
3.853157e-01 1.535260e-03 0.0
3.843967e-01 1.291222e-03 0.0
3.836020e-01 1.034069e-03 0.0
3.829385e-01 7.651546e-04 0.0
3.824122e-01 4.895721e-04 0.0
3.820305e-01 2.223763e-04 0.0
3.817962e-01 -1.009792e-05 0.0
3.816870e-01 -1.594826e-04 0.0
3.816639e-01 -1.712760e-04 0.0
3.816638e-01 2.559720e-07 0.0
0.000000e+00 2.587837e-07 0.0
0.000000e+00 0.000000e+00 0.0
0.000000e+00 0.000000e+00 0.0
0.000000e+00 0.000000e+00 0.0
0.000000e+00 0.000000e+00 0.0
0.000000e+00 0.000000e+00 0.0
0.000000e+00 0.000000e+00 0.0
0.000000e+00 0.000000e+00 0.0
0.000000e+00 0.000000e+00 0.0
0.000000e+00 0.000000e+00 0.0
0.000000e+00 0.000000e+00 0.0
0.000000e+00 -3.010978e-02 0.0
-1.314632e-02 3.010425e-02 0.0
-3.668215e-02 6.230469e-02 0.0
-6.237611e-02 7.511374e-02 0.0
-8.686688e-02 7.828659e-02 0.0
-1.090625e-01 7.805943e-02 0.0
-1.285356e-01 7.704002e-02 0.0
-1.449365e-01 7.585356e-02 0.0
-1.578254e-01 7.429722e-02 0.0
-1.666384e-01 7.175976e-02 0.0
-1.704068e-01 6.698222e-02 0.0
-1.677233e-01 5.848799e-02 0.0
-1.561442e-01 4.373566e-02 0.0
-1.320820e-01 1.960064e-02 0.0
-8.755839e-02 -2.110102e-02 0.0
-2.389970e-02 -7.351576e-02 0.0
5.516863e-02 -1.305029e-01 0.0
1.403333e-01 -1.835067e-01 0.0
2.246971e-01 -2.281706e-01 0.0
3.038668e-01 -2.594157e-01 0.0
3.753342e-01 -2.744232e-01 0.0
4.364720e-01 -2.728612e-01 0.0
4.881138e-01 -2.562255e-01 0.0
5.323505e-01 -2.302514e-01 0.0
5.705804e-01 -1.994428e-01 0.0
6.036056e-01 -1.671687e-01 0.0
6.318747e-01 -1.357541e-01 0.0
6.556879e-01 -1.066393e-01 0.0
6.753118e-01 -8.059795e-02 0.0
6.910246e-01 -5.794864e-02 0.0
7.031288e-01 -3.872227e-02 0.0
7.119533e-01 -2.277513e-02 0.0
7.178579e-01 -9.866834e-03 0.0
7.212676e-01 2.963355e-04 0.0
7.226526e-01 8.241861e-03 0.0
7.223368e-01 1.436228e-02 0.0
7.205802e-01 1.899544e-02 0.0
7.176036e-01 2.242259e-02 0.0
7.135991e-01 2.487651e-02 0.0
7.087420e-01 2.654933e-02 0.0
7.031626e-01 2.758989e-02 0.0
6.969732e-01 2.812270e-02 0.0
6.903156e-01 2.822734e-02 0.0
6.833160e-01 2.799777e-02 0.0
6.760821e-01 2.751353e-02 0.0
6.687063e-01 2.683730e-02 0.0
6.612672e-01 2.601856e-02 0.0
6.538314e-01 2.509683e-02 0.0
6.464550e-01 2.410409e-02 0.0
6.391842e-01 2.306643e-02 0.0
6.320565e-01 2.200515e-02 0.0
6.251017e-01 2.093756e-02 0.0
6.183429e-01 1.987754e-02 0.0
6.117973e-01 1.883612e-02 0.0
6.054770e-01 1.782187e-02 0.0
5.993900e-01 1.684127e-02 0.0
5.935402e-01 1.589905e-02 0.0
5.879289e-01 1.499841e-02 0.0
5.825545e-01 1.414132e-02 0.0
5.774139e-01 1.332874e-02 0.0
5.725018e-01 1.256074e-02 0.0
5.678123e-01 1.183675e-02 0.0
5.633381e-01 1.115560e-02 0.0
5.590717e-01 1.051573e-02 0.0
5.550048e-01 9.915203e-03 0.0
5.511294e-01 9.351841e-03 0.0
5.474372e-01 8.823260e-03 0.0
5.439201e-01 8.326926e-03 0.0
5.405704e-01 7.860196e-03 0.0
5.373805e-01 7.420337e-03 0.0
5.343437e-01 7.004549e-03 0.0
5.314535e-01 6.609966e-03 0.0
5.287042e-01 6.233661e-03 0.0
5.260907e-01 5.872638e-03 0.0
5.236087e-01 5.523822e-03 0.0
5.212547e-01 5.184039e-03 0.0
5.190261e-01 4.849986e-03 0.0
5.169214e-01 4.518197e-03 0.0
5.149399e-01 4.185027e-03 0.0
5.130822e-01 3.846653e-03 0.0
5.113502e-01 3.499111e-03 0.0
5.097471e-01 3.138413e-03 0.0
5.082775e-01 2.760845e-03 0.0
5.069479e-01 2.363607e-03 0.0
5.057673e-01 1.945787e-03 0.0
5.047467e-01 1.510137e-03 0.0
5.039019e-01 1.067231e-03 0.0
5.032518e-01 6.400082e-04 0.0
5.028184e-01 2.739172e-04 0.0
5.026067e-01 4.040194e-05 0.0
5.026066e-01 3.850673e-07 0.0
0.000000e+00 3.893447e-07 0.0
0.000000e+00 0.000000e+00 0.0
0.000000e+00 0.000000e+00 0.0
0.000000e+00 0.000000e+00 0.0
0.000000e+00 0.000000e+00 0.0
0.000000e+00 0.000000e+00 0.0
0.000000e+00 0.000000e+00 0.0
0.000000e+00 0.000000e+00 0.0
0.000000e+00 0.000000e+00 0.0
0.000000e+00 0.000000e+00 0.0
0.000000e+00 0.000000e+00 0.0
0.000000e+00 -4.361053e-02 0.0
-1.350535e-02 4.360797e-02 0.0
-3.553454e-02 8.433868e-02 0.0
-5.694245e-02 9.652346e-02 0.0
-7.478308e-02 9.612552e-02 0.0
-8.837646e-02 9.164936e-02 0.0
-9.747405e-02 8.613467e-02 0.0
-1.018082e-01 8.018678e-02 0.0
-1.008843e-01 7.337462e-02 0.0
-9.420875e-02 6.508661e-02 0.0
-8.007634e-02 5.285150e-02 0.0
-5.624251e-02 3.465387e-02 0.0
-1.558521e-02 3.076363e-03 0.0
4.636293e-02 -4.234961e-02 0.0
1.222138e-01 -9.695223e-02 0.0
2.055160e-01 -1.568162e-01 0.0
2.901739e-01 -2.151585e-01 0.0
3.716243e-01 -2.649563e-01 0.0
4.453881e-01 -3.019357e-01 0.0
5.091370e-01 -3.231664e-01 0.0
5.621455e-01 -3.274324e-01 0.0
6.042649e-01 -3.149797e-01 0.0
6.387951e-01 -2.907544e-01 0.0
6.678708e-01 -2.593266e-01 0.0
6.928359e-01 -2.244085e-01 0.0
7.144768e-01 -1.888105e-01 0.0
7.332290e-01 -1.545067e-01 0.0
7.493297e-01 -1.227397e-01 0.0
7.629259e-01 -9.419341e-02 0.0
7.741372e-01 -6.915949e-02 0.0
7.830913e-01 -4.767666e-02 0.0
7.899361e-01 -2.962051e-02 0.0
7.948361e-01 -1.476714e-02 0.0
7.979774e-01 -2.844778e-03 0.0
7.996700e-01 6.549587e-03 0.0
8.001267e-01 1.390577e-02 0.0
7.995127e-01 1.960941e-02 0.0
7.979676e-01 2.396755e-02 0.0
7.956153e-01 2.722869e-02 0.0
7.925692e-01 2.959542e-02 0.0
7.889272e-01 3.123189e-02 0.0
7.847761e-01 3.227390e-02 0.0
7.801725e-01 3.283097e-02 0.0
7.751883e-01 3.298200e-02 0.0
7.698989e-01 3.280297e-02 0.0
7.643716e-01 3.236450e-02 0.0
7.586674e-01 3.172269e-02 0.0
7.528409e-01 3.092332e-02 0.0
7.469406e-01 3.000447e-02 0.0
7.410089e-01 2.899816e-02 0.0
7.350826e-01 2.793140e-02 0.0
7.291935e-01 2.682673e-02 0.0
7.233681e-01 2.570286e-02 0.0
7.176291e-01 2.457519e-02 0.0
7.119947e-01 2.345624e-02 0.0
7.064799e-01 2.235603e-02 0.0
7.010966e-01 2.128241e-02 0.0
6.958537e-01 2.024134e-02 0.0
6.907578e-01 1.923721e-02 0.0
6.858135e-01 1.827305e-02 0.0
6.810235e-01 1.735072e-02 0.0
6.763891e-01 1.647114e-02 0.0
6.719103e-01 1.563442e-02 0.0
6.675860e-01 1.484000e-02 0.0
6.634144e-01 1.408677e-02 0.0
6.593931e-01 1.337319e-02 0.0
6.555190e-01 1.269734e-02 0.0
6.517889e-01 1.205702e-02 0.0
6.481994e-01 1.144976e-02 0.0
6.447468e-01 1.087290e-02 0.0
6.414278e-01 1.032359e-02 0.0
6.382389e-01 9.798839e-03 0.0
6.351771e-01 9.295470e-03 0.0
6.322396e-01 8.810165e-03 0.0
6.294240e-01 8.339439e-03 0.0
6.267284e-01 7.879635e-03 0.0
6.241515e-01 7.426874e-03 0.0
6.216927e-01 6.977000e-03 0.0
6.193522e-01 6.525561e-03 0.0
6.171310e-01 6.067795e-03 0.0
6.150315e-01 5.598634e-03 0.0
6.130571e-01 5.112769e-03 0.0
6.112132e-01 4.604823e-03 0.0
6.095070e-01 4.069736e-03 0.0
6.079494e-01 3.503427e-03 0.0
6.065555e-01 2.904052e-03 0.0
6.053482e-01 2.274531e-03 0.0
6.043619e-01 1.626294e-03 0.0
6.036491e-01 9.867257e-04 0.0
6.032794e-01 4.101290e-04 0.0
6.032793e-01 4.964658e-07 0.0
0.000000e+00 5.020747e-07 0.0
0.000000e+00 0.000000e+00 0.0
0.000000e+00 0.000000e+00 0.0
0.000000e+00 0.000000e+00 0.0
0.000000e+00 0.000000e+00 0.0
0.000000e+00 0.000000e+00 0.0
0.000000e+00 0.000000e+00 0.0
0.000000e+00 0.000000e+00 0.0
0.000000e+00 0.000000e+00 0.0
0.000000e+00 0.000000e+00 0.0
0.000000e+00 0.000000e+00 0.0
0.000000e+00 -5.675049e-02 0.0
-1.314242e-02 5.675026e-02 0.0
-3.053035e-02 1.017302e-01 0.0
-4.347855e-02 1.094729e-01 0.0
-5.066834e-02 1.033142e-01 0.0
-5.209176e-02 9.307085e-02 0.0
-4.780771e-02 8.184956e-02 0.0
-3.758324e-02 6.996300e-02 0.0
-2.001373e-02 5.580721e-02 0.0
6.388172e-03 3.868694e-02 0.0
4.617021e-02 1.307031e-02 0.0
1.045958e-01 -2.377293e-02 0.0
1.779844e-01 -7.031462e-02 0.0
2.607984e-01 -1.251654e-01 0.0
3.477611e-01 -1.839145e-01 0.0
4.326821e-01 -2.417349e-01 0.0
5.105703e-01 -2.930448e-01 0.0
5.784238e-01 -3.328100e-01 0.0
6.344763e-01 -3.579901e-01 0.0
6.784442e-01 -3.671360e-01 0.0
7.108346e-01 -3.598226e-01 0.0
7.349913e-01 -3.391350e-01 0.0
7.536994e-01 -3.094613e-01 0.0
7.688982e-01 -2.745254e-01 0.0
7.818077e-01 -2.373189e-01 0.0
7.931250e-01 -2.001287e-01 0.0
8.032091e-01 -1.645908e-01 0.0
8.121965e-01 -1.317264e-01 0.0
8.201056e-01 -1.021019e-01 0.0
8.269085e-01 -7.596229e-02 0.0
8.325828e-01 -5.335140e-02 0.0
8.371280e-01 -3.416624e-02 0.0
8.405560e-01 -1.819522e-02 0.0
8.429000e-01 -5.188442e-03 0.0
8.442952e-01 5.154717e-03 0.0
8.448504e-01 1.335056e-02 0.0
8.446567e-01 1.980299e-02 0.0
8.437963e-01 2.482778e-02 0.0
8.423466e-01 2.867837e-02 0.0
8.403805e-01 3.156151e-02 0.0
8.379652e-01 3.364726e-02 0.0
8.351620e-01 3.507710e-02 0.0
8.320244e-01 3.596866e-02 0.0
8.285885e-01 3.641788e-02 0.0
8.248920e-01 3.649953e-02 0.0
8.209759e-01 3.628049e-02 0.0
8.168799e-01 3.581866e-02 0.0
8.126410e-01 3.516231e-02 0.0
8.082929e-01 3.435252e-02 0.0
8.038665e-01 3.342460e-02 0.0
7.993889e-01 3.240908e-02 0.0
7.948840e-01 3.133161e-02 0.0
7.903730e-01 3.021381e-02 0.0
7.858744e-01 2.907380e-02 0.0
7.814041e-01 2.792657e-02 0.0
7.769758e-01 2.678436e-02 0.0
7.726011e-01 2.565706e-02 0.0
7.682900e-01 2.455249e-02 0.0
7.640505e-01 2.347666e-02 0.0
7.598895e-01 2.243406e-02 0.0
7.558124e-01 2.142787e-02 0.0
7.518234e-01 2.046014e-02 0.0
7.479258e-01 1.953196e-02 0.0
7.441222e-01 1.864364e-02 0.0
7.404141e-01 1.779481e-02 0.0
7.368028e-01 1.698454e-02 0.0
7.332887e-01 1.621142e-02 0.0
7.298721e-01 1.547365e-02 0.0
7.265528e-01 1.476907e-02 0.0
7.233304e-01 1.409525e-02 0.0
7.202045e-01 1.344948e-02 0.0
7.171746e-01 1.282881e-02 0.0
7.142400e-01 1.223004e-02 0.0
7.114004e-01 1.164976e-02 0.0
7.086556e-01 1.108429e-02 0.0
7.060055e-01 1.052975e-02 0.0
7.034504e-01 9.981943e-03 0.0
7.009911e-01 9.436265e-03 0.0
6.986290e-01 8.887691e-03 0.0
6.963661e-01 8.330747e-03 0.0
6.942052e-01 7.759463e-03 0.0
6.921507e-01 7.167351e-03 0.0
6.902081e-01 6.547414e-03 0.0
6.883856e-01 5.892244e-03 0.0
6.866948e-01 5.194209e-03 0.0
6.851530e-01 4.445858e-03 0.0
6.837868e-01 3.640744e-03 0.0
6.826383e-01 2.774775e-03 0.0
6.817753e-01 1.849694e-03 0.0
6.812998e-01 8.857163e-04 0.0
6.812997e-01 5.713912e-07 0.0
0.000000e+00 5.779990e-07 0.0
0.000000e+00 0.000000e+00 0.0
0.000000e+00 0.000000e+00 0.0
0.000000e+00 0.000000e+00 0.0
0.000000e+00 0.000000e+00 0.0
0.000000e+00 0.000000e+00 0.0
0.000000e+00 0.000000e+00 0.0
0.000000e+00 0.000000e+00 0.0
0.000000e+00 0.000000e+00 0.0
0.000000e+00 0.000000e+00 0.0
0.000000e+00 0.000000e+00 0.0
0.000000e+00 -7.039549e-02 0.0
-1.364520e-02 7.039657e-02 0.0
-2.291007e-02 1.109977e-01 0.0
-2.230107e-02 1.088635e-01 0.0
-1.383363e-02 9.484411e-02 0.0
1.882713e-03 7.735162e-02 0.0
2.497365e-02 5.875728e-02 0.0
5.572977e-02 3.920770e-02 0.0
9.776863e-02 1.377057e-02 0.0
1.559334e-01 -1.947566e-02 0.0
2.283111e-01 -5.930695e-02 0.0
3.105452e-01 -1.060085e-01 0.0
3.982795e-01 -1.580514e-01 0.0
4.860264e-01 -2.129135e-01 0.0
5.688078e-01 -2.666947e-01 0.0
6.422377e-01 -3.151623e-01 0.0
7.033912e-01 -3.541970e-01 0.0
7.511410e-01 -3.805609e-01 0.0
7.857051e-01 -3.925563e-01 0.0
8.081947e-01 -3.896267e-01 0.0
8.215211e-01 -3.731480e-01 0.0
8.291139e-01 -3.467263e-01 0.0
8.334612e-01 -3.138080e-01 0.0
8.362362e-01 -2.773010e-01 0.0
8.384494e-01 -2.395331e-01 0.0
8.406435e-01 -2.023232e-01 0.0
8.430712e-01 -1.670181e-01 0.0
8.457505e-01 -1.344050e-01 0.0
8.485755e-01 -1.049265e-01 0.0
8.513861e-01 -7.877319e-02 0.0
8.540333e-01 -5.599909e-02 0.0
8.563945e-01 -3.652777e-02 0.0
8.583517e-01 -2.015231e-02 0.0
8.598194e-01 -6.655718e-03 0.0
8.607660e-01 4.208350e-03 0.0
8.612026e-01 1.291389e-02 0.0
8.611525e-01 1.985286e-02 0.0
8.606498e-01 2.533041e-02 0.0
8.597350e-01 2.959316e-02 0.0
8.584520e-01 3.284460e-02 0.0
8.568446e-01 3.525464e-02 0.0
8.549554e-01 3.696636e-02 0.0
8.528236e-01 3.810050e-02 0.0
8.504828e-01 3.875870e-02 0.0
8.479563e-01 3.902598e-02 0.0
8.452661e-01 3.897065e-02 0.0
8.424361e-01 3.864859e-02 0.0
8.394901e-01 3.810841e-02 0.0
8.364500e-01 3.739264e-02 0.0
8.333360e-01 3.653855e-02 0.0
8.301658e-01 3.557932e-02 0.0
8.269550e-01 3.454238e-02 0.0
8.237177e-01 3.345116e-02 0.0
8.204660e-01 3.232542e-02 0.0
8.172110e-01 3.118164e-02 0.0
8.139619e-01 3.003341e-02 0.0
8.107272e-01 2.889179e-02 0.0
8.075140e-01 2.776566e-02 0.0
8.043287e-01 2.666198e-02 0.0
8.011767e-01 2.558608e-02 0.0
7.980627e-01 2.454188e-02 0.0
7.949907e-01 2.353211e-02 0.0
7.919643e-01 2.255845e-02 0.0
7.889862e-01 2.162172e-02 0.0
7.860590e-01 2.072200e-02 0.0
7.831848e-01 1.985875e-02 0.0
7.803653e-01 1.903090e-02 0.0
7.776021e-01 1.823691e-02 0.0
7.748963e-01 1.747487e-02 0.0
7.722490e-01 1.674250e-02 0.0
7.696613e-01 1.603722e-02 0.0
7.671340e-01 1.535614e-02 0.0
7.646679e-01 1.469609e-02 0.0
7.622641e-01 1.405360e-02 0.0
7.599235e-01 1.342490e-02 0.0
7.576473e-01 1.280599e-02 0.0
7.554367e-01 1.219254e-02 0.0
7.532933e-01 1.157960e-02 0.0
7.512193e-01 1.096173e-02 0.0
7.492171e-01 1.033293e-02 0.0
7.472901e-01 9.686490e-03 0.0
7.454425e-01 9.014929e-03 0.0
7.436801e-01 8.309807e-03 0.0
7.420108e-01 7.561527e-03 0.0
7.404460e-01 6.759025e-03 0.0
7.390026e-01 5.889271e-03 0.0
7.377070e-01 4.936423e-03 0.0
7.366013e-01 3.880397e-03 0.0
7.357552e-01 2.695856e-03 0.0
7.352774e-01 1.363493e-03 0.0
7.352774e-01 5.991983e-07 0.0
0.000000e+00 6.063644e-07 0.0
0.000000e+00 0.000000e+00 0.0
0.000000e+00 0.000000e+00 0.0
0.000000e+00 0.000000e+00 0.0
0.000000e+00 0.000000e+00 0.0
0.000000e+00 0.000000e+00 0.0
0.000000e+00 0.000000e+00 0.0
0.000000e+00 0.000000e+00 0.0
0.000000e+00 0.000000e+00 0.0
0.000000e+00 0.000000e+00 0.0
0.000000e+00 0.000000e+00 0.0
0.000000e+00 -8.412365e-02 0.0
-1.372778e-02 8.412571e-02 0.0
-5.676030e-03 1.029490e-01 0.0
1.885836e-02 8.432984e-02 0.0
5.210952e-02 6.159148e-02 0.0
9.299210e-02 3.646714e-02 0.0
1.442143e-01 7.534414e-03 0.0
2.087890e-01 -2.536596e-02 0.0
2.841932e-01 -6.163168e-02 0.0
3.669760e-01 -1.022569e-01 0.0
4.543554e-01 -1.466866e-01 0.0
5.423742e-01 -1.940293e-01 0.0
6.268287e-01 -2.425082e-01 0.0
7.035428e-01 -2.896280e-01 0.0
7.691296e-01 -3.322795e-01 0.0
8.212922e-01 -3.673226e-01 0.0
8.591560e-01 -3.920604e-01 0.0
8.832795e-01 -4.046861e-01 0.0
8.952186e-01 -4.044974e-01 0.0
8.974819e-01 -3.918901e-01 0.0
8.937874e-01 -3.694522e-01 0.0
8.869381e-01 -3.398757e-01 0.0
8.789823e-01 -3.058522e-01 0.0
8.712441e-01 -2.695638e-01 0.0
8.644688e-01 -2.327585e-01 0.0
8.590097e-01 -1.968641e-01 0.0
8.550013e-01 -1.630091e-01 0.0
8.523347e-01 -1.317379e-01 0.0
8.508035e-01 -1.033952e-01 0.0
8.501697e-01 -7.813979e-02 0.0
8.501736e-01 -5.600346e-02 0.0
8.505610e-01 -3.691521e-02 0.0
8.511281e-01 -2.071917e-02 0.0
8.517039e-01 -7.231239e-03 0.0
8.521508e-01 3.761579e-03 0.0
8.523825e-01 1.268205e-02 0.0
8.523603e-01 1.987494e-02 0.0
8.520739e-01 2.561675e-02 0.0
8.515305e-01 3.013649e-02 0.0
8.507479e-01 3.362728e-02 0.0
8.497490e-01 3.625357e-02 0.0
8.485593e-01 3.815614e-02 0.0
8.472041e-01 3.945568e-02 0.0
8.457072e-01 4.025554e-02 0.0
8.440891e-01 4.064413e-02 0.0
8.423633e-01 4.069635e-02 0.0
8.405439e-01 4.046801e-02 0.0
8.386454e-01 4.000699e-02 0.0
8.366813e-01 3.935674e-02 0.0
8.346639e-01 3.855595e-02 0.0
8.326044e-01 3.763877e-02 0.0
8.305125e-01 3.663427e-02 0.0
8.283965e-01 3.556718e-02 0.0
8.262636e-01 3.445834e-02 0.0
8.241201e-01 3.332516e-02 0.0
8.219715e-01 3.218203e-02 0.0
8.198226e-01 3.104069e-02 0.0
8.176776e-01 2.991060e-02 0.0
8.155404e-01 2.879922e-02 0.0
8.134142e-01 2.771231e-02 0.0
8.113019e-01 2.665416e-02 0.0
8.092062e-01 2.562782e-02 0.0
8.071294e-01 2.463525e-02 0.0
8.050736e-01 2.367753e-02 0.0
8.030406e-01 2.275495e-02 0.0
8.010322e-01 2.186714e-02 0.0
7.990500e-01 2.101319e-02 0.0
7.970952e-01 2.019169e-02 0.0
7.951692e-01 1.940083e-02 0.0
7.932733e-01 1.863841e-02 0.0
7.914086e-01 1.790190e-02 0.0
7.895763e-01 1.718845e-02 0.0
7.877776e-01 1.649486e-02 0.0
7.860135e-01 1.581761e-02 0.0
7.842856e-01 1.515282e-02 0.0
7.825951e-01 1.449646e-02 0.0
7.809435e-01 1.384419e-02 0.0
7.793324e-01 1.319072e-02 0.0
7.777638e-01 1.253029e-02 0.0
7.762403e-01 1.185649e-02 0.0
7.747647e-01 1.116209e-02 0.0
7.733408e-01 1.043880e-02 0.0
7.719736e-01 9.676998e-03 0.0
7.706699e-01 8.865274e-03 0.0
7.694392e-01 7.989675e-03 0.0
7.682961e-01 7.032438e-03 0.0
7.672627e-01 5.969787e-03 0.0
7.663750e-01 4.768148e-03 0.0
7.656914e-01 3.379444e-03 0.0
7.653037e-01 1.751151e-03 0.0
7.653038e-01 5.780132e-07 0.0
0.000000e+00 5.852696e-07 0.0
0.000000e+00 0.000000e+00 0.0
0.000000e+00 0.000000e+00 0.0
0.000000e+00 0.000000e+00 0.0
0.000000e+00 0.000000e+00 0.0
0.000000e+00 0.000000e+00 0.0
0.000000e+00 0.000000e+00 0.0
0.000000e+00 0.000000e+00 0.0
0.000000e+00 0.000000e+00 0.0
0.000000e+00 0.000000e+00 0.0
0.000000e+00 0.000000e+00 0.0
0.000000e+00 -7.896890e-02 0.0
5.156528e-03 7.896920e-02 0.0
5.424073e-02 5.386576e-02 0.0
1.182740e-01 2.029572e-02 0.0
1.921854e-01 -1.232249e-02 0.0
2.730103e-01 -4.436021e-02 0.0
3.575861e-01 -7.704186e-02 0.0
4.442060e-01 -1.119844e-01 0.0
5.316428e-01 -1.490664e-01 0.0
6.175420e-01 -1.881547e-01 0.0
6.993395e-01 -2.284848e-01 0.0
7.741783e-01 -2.688704e-01 0.0
8.392875e-01 -3.076193e-01 0.0
8.923214e-01 -3.426615e-01 0.0
9.317813e-01 -3.717371e-01 0.0