# vtk DataFile Version 3.0
Vector Field
ASCII
DATASET RECTILINEAR_GRID
DIMENSIONS 102 22 1
X_COORDINATES 102 double
0.000000 0.100000 0.200000 0.300000 0.400000 0.500000 0.600000 0.700000 0.800000 0.900000 1.000000 1.100000 1.200000 1.300000 1.400000 1.500000 1.600000 1.700000 1.800000 1.900000 2.000000 2.100000 2.200000 2.300000 2.400000 2.500000 2.600000 2.700000 2.800000 2.900000 3.000000 3.100000 3.200000 3.300000 3.400000 3.500000 3.600000 3.700000 3.800000 3.900000 4.000000 4.100000 4.200000 4.300000 4.400000 4.500000 4.600000 4.700000 4.800000 4.900000 5.000000 5.100000 5.200000 5.300000 5.400000 5.500000 5.600000 5.700000 5.800000 5.900000 6.000000 6.100000 6.200000 6.300000 6.400000 6.500000 6.600000 6.700000 6.800000 6.900000 7.000000 7.100000 7.200000 7.300000 7.400000 7.500000 7.600000 7.700000 7.800000 7.900000 8.000000 8.100000 8.200000 8.300000 8.400000 8.500000 8.600000 8.700000 8.800000 8.900000 9.000000 9.100000 9.200000 9.300000 9.400000 9.500000 9.600000 9.700000 9.800000 9.900000 10.000000 10.100000 
Y_COORDINATES 22 double
0.000000 0.100000 0.200000 0.300000 0.400000 0.500000 0.600000 0.700000 0.800000 0.900000 1.000000 1.100000 1.200000 1.300000 1.400000 1.500000 1.600000 1.700000 1.800000 1.900000 2.000000 2.100000 
Z_COORDINATES 1 double
0.0
POINT_DATA 2244
VECTORS Velocity double
0.000000e+00 0.000000e+00 0.0
-0.000000e+00 0.000000e+00 0.0
-0.000000e+00 0.000000e+00 0.0
-0.000000e+00 0.000000e+00 0.0
-0.000000e+00 0.000000e+00 0.0
-0.000000e+00 0.000000e+00 0.0
-0.000000e+00 0.000000e+00 0.0
-0.000000e+00 0.000000e+00 0.0
-0.000000e+00 0.000000e+00 0.0
-0.000000e+00 0.000000e+00 0.0
-0.000000e+00 0.000000e+00 0.0
4.944590e-02 0.000000e+00 0.0
3.889565e-02 0.000000e+00 0.0
4.765330e-03 0.000000e+00 0.0
-3.635404e-02 0.000000e+00 0.0
-7.822629e-02 0.000000e+00 0.0
-1.182574e-01 0.000000e+00 0.0
-1.553574e-01 0.000000e+00 0.0
-1.891485e-01 0.000000e+00 0.0
-2.196174e-01 0.000000e+00 0.0
-2.469394e-01 0.000000e+00 0.0
-2.713803e-01 0.000000e+00 0.0
-2.932403e-01 0.000000e+00 0.0
-3.128212e-01 0.000000e+00 0.0
-3.304096e-01 0.000000e+00 0.0
-3.462676e-01 0.000000e+00 0.0
-3.606297e-01 0.000000e+00 0.0
-3.737026e-01 0.000000e+00 0.0
-3.856668e-01 0.000000e+00 0.0
-3.966784e-01 0.000000e+00 0.0
-4.068721e-01 0.000000e+00 0.0
-4.163636e-01 0.000000e+00 0.0
-4.252520e-01 0.000000e+00 0.0
-4.336221e-01 0.000000e+00 0.0
-4.415466e-01 0.000000e+00 0.0
-4.490874e-01 0.000000e+00 0.0
-4.562974e-01 0.000000e+00 0.0
-4.632219e-01 0.000000e+00 0.0
-4.698994e-01 0.000000e+00 0.0
-4.763628e-01 0.000000e+00 0.0
-4.826402e-01 0.000000e+00 0.0
-4.887557e-01 0.000000e+00 0.0
-4.947298e-01 0.000000e+00 0.0
-5.005800e-01 0.000000e+00 0.0
-5.063213e-01 0.000000e+00 0.0
-5.119664e-01 0.000000e+00 0.0
-5.175263e-01 0.000000e+00 0.0
-5.230103e-01 0.000000e+00 0.0
-5.284266e-01 0.000000e+00 0.0
-5.337819e-01 0.000000e+00 0.0
-5.390822e-01 0.000000e+00 0.0
-5.443325e-01 0.000000e+00 0.0
-5.495371e-01 0.000000e+00 0.0
-5.546999e-01 0.000000e+00 0.0
-5.598240e-01 0.000000e+00 0.0
-5.649124e-01 0.000000e+00 0.0
-5.699673e-01 0.000000e+00 0.0
-5.749910e-01 0.000000e+00 0.0
-5.799854e-01 0.000000e+00 0.0
-5.849519e-01 0.000000e+00 0.0
-5.898923e-01 0.000000e+00 0.0
-5.948076e-01 0.000000e+00 0.0
-5.996991e-01 0.000000e+00 0.0
-6.045679e-01 0.000000e+00 0.0
-6.094149e-01 0.000000e+00 0.0
-6.142410e-01 0.000000e+00 0.0
-6.190471e-01 0.000000e+00 0.0
-6.238340e-01 0.000000e+00 0.0
-6.286023e-01 0.000000e+00 0.0
-6.333530e-01 0.000000e+00 0.0
-6.380866e-01 0.000000e+00 0.0
-6.428040e-01 0.000000e+00 0.0
-6.475060e-01 0.000000e+00 0.0
-6.521933e-01 0.000000e+00 0.0
-6.568668e-01 0.000000e+00 0.0
-6.615275e-01 0.000000e+00 0.0
-6.661766e-01 0.000000e+00 0.0
-6.708153e-01 0.000000e+00 0.0
-6.754452e-01 0.000000e+00 0.0
-6.800682e-01 0.000000e+00 0.0
-6.846869e-01 0.000000e+00 0.0
-6.893044e-01 0.000000e+00 0.0
-6.939246e-01 0.000000e+00 0.0
-6.985532e-01 0.000000e+00 0.0
-7.031972e-01 0.000000e+00 0.0
-7.078666e-01 0.000000e+00 0.0
-7.125748e-01 0.000000e+00 0.0
-7.173403e-01 0.000000e+00 0.0
-7.221891e-01 0.000000e+00 0.0
-7.271580e-01 0.000000e+00 0.0
-7.323003e-01 0.000000e+00 0.0
-7.376946e-01 0.000000e+00 0.0
-7.434605e-01 0.000000e+00 0.0
-7.497869e-01 0.000000e+00 0.0
-7.569881e-01 0.000000e+00 0.0
-7.656223e-01 0.000000e+00 0.0
-7.767692e-01 0.000000e+00 0.0
-7.927497e-01 0.000000e+00 0.0
-8.192093e-01 0.000000e+00 0.0
-8.718173e-01 0.000000e+00 0.0
-8.718173e-01 0.000000e+00 0.0
0.000000e+00 0.000000e+00 0.0
0.000000e+00 0.000000e+00 0.0
0.000000e+00 0.000000e+00 0.0
0.000000e+00 0.000000e+00 0.0
0.000000e+00 0.000000e+00 0.0
0.000000e+00 0.000000e+00 0.0
0.000000e+00 0.000000e+00 0.0
0.000000e+00 0.000000e+00 0.0
0.000000e+00 0.000000e+00 0.0
0.000000e+00 0.000000e+00 0.0
0.000000e+00 0.000000e+00 0.0
0.000000e+00 -8.287356e-02 0.0
-3.864148e-02 6.728002e-02 0.0
-3.524033e-02 1.306968e-02 0.0
-5.684323e-03 -1.308160e-02 0.0
3.146027e-02 -2.066580e-02 0.0
6.948875e-02 -2.154455e-02 0.0
1.058206e-01 -1.984204e-02 0.0
1.394382e-01 -1.712128e-02 0.0
1.700091e-01 -1.406736e-02 0.0
1.975286e-01 -1.100808e-02 0.0
2.221595e-01 -8.111221e-03 0.0
2.441475e-01 -5.459347e-03 0.0
2.637728e-01 -3.087175e-03 0.0
2.813275e-01 -1.006663e-03 0.0
2.970987e-01 7.872727e-04 0.0
3.112889e-01 2.379163e-03 0.0
3.241025e-01 3.766975e-03 0.0
3.357296e-01 4.965227e-03 0.0
3.463362e-01 5.997726e-03 0.0
3.560679e-01 6.885007e-03 0.0
3.650514e-01 7.646033e-03 0.0
3.733957e-01 8.298311e-03 0.0
3.811944e-01 8.857376e-03 0.0
3.885277e-01 9.336470e-03 0.0
3.954643e-01 9.747148e-03 0.0
4.020629e-01 1.009933e-02 0.0
4.083738e-01 1.040153e-02 0.0
4.144399e-01 1.066104e-02 0.0
4.202978e-01 1.088410e-02 0.0
4.259789e-01 1.107605e-02 0.0
4.315099e-01 1.124143e-02 0.0
4.369136e-01 1.138412e-02 0.0
4.422095e-01 1.150745e-02 0.0
4.474143e-01 1.161425e-02 0.0
4.525423e-01 1.170693e-02 0.0
4.576055e-01 1.178755e-02 0.0
4.626143e-01 1.185786e-02 0.0
4.675776e-01 1.191931e-02 0.0
4.725033e-01 1.197309e-02 0.0
4.773974e-01 1.202066e-02 0.0
4.822655e-01 1.206275e-02 0.0
4.871123e-01 1.210013e-02 0.0
4.919418e-01 1.213346e-02 0.0
4.967574e-01 1.216333e-02 0.0
5.015620e-01 1.219024e-02 0.0
5.063581e-01 1.221459e-02 0.0
5.111478e-01 1.223675e-02 0.0
5.159329e-01 1.225702e-02 0.0
5.207149e-01 1.227566e-02 0.0
5.254950e-01 1.229288e-02 0.0
5.302743e-01 1.230888e-02 0.0
5.350538e-01 1.232381e-02 0.0
5.398341e-01 1.233779e-02 0.0
5.446159e-01 1.235095e-02 0.0
5.493998e-01 1.236338e-02 0.0
5.541861e-01 1.237514e-02 0.0
5.589753e-01 1.238631e-02 0.0
5.637675e-01 1.239693e-02 0.0
5.685631e-01 1.240705e-02 0.0
5.733623e-01 1.241667e-02 0.0
5.781651e-01 1.242583e-02 0.0
5.829719e-01 1.243453e-02 0.0
5.877827e-01 1.244274e-02 0.0
5.925977e-01 1.245044e-02 0.0
5.974171e-01 1.245759e-02 0.0
6.022412e-01 1.246410e-02 0.0
6.070705e-01 1.246987e-02 0.0
6.119053e-01 1.247473e-02 0.0
6.167466e-01 1.247846e-02 0.0
6.215952e-01 1.248074e-02 0.0
6.264528e-01 1.248115e-02 0.0
6.313214e-01 1.247907e-02 0.0
6.362038e-01 1.247368e-02 0.0
6.411041e-01 1.246382e-02 0.0
6.460281e-01 1.244786e-02 0.0
6.509835e-01 1.242356e-02 0.0
6.559815e-01 1.238771e-02 0.0
6.610377e-01 1.233580e-02 0.0
6.661742e-01 1.226134e-02 0.0
6.714225e-01 1.215485e-02 0.0
6.768285e-01 1.200219e-02 0.0
6.824593e-01 1.178171e-02 0.0
6.884169e-01 1.145894e-02 0.0
6.948607e-01 1.097618e-02 0.0
7.020534e-01 1.023041e-02 0.0
7.104574e-01 9.021562e-03 0.0
7.209665e-01 6.918461e-03 0.0
7.355269e-01 2.868751e-03 0.0
7.584897e-01 -5.532504e-03 0.0
8.015697e-01 -2.564916e-02 0.0
8.718173e-01 -5.281661e-02 0.0
0.000000e+00 -1.130930e-01 0.0
0.000000e+00 0.000000e+00 0.0
0.000000e+00 0.000000e+00 0.0
0.000000e+00 0.000000e+00 0.0
0.000000e+00 0.000000e+00 0.0
0.000000e+00 0.000000e+00 0.0
0.000000e+00 0.000000e+00 0.0
0.000000e+00 0.000000e+00 0.0
0.000000e+00 0.000000e+00 0.0
0.000000e+00 0.000000e+00 0.0
0.000000e+00 0.000000e+00 0.0
0.000000e+00 2.424712e-02 0.0
1.002554e-01 -1.650684e-02 0.0
1.621948e-01 -4.457093e-02 0.0
2.121672e-01 -5.875385e-02 0.0
2.587152e-01 -6.291206e-02 0.0
3.026094e-01 -6.113520e-02 0.0
3.434620e-01 -5.638920e-02 0.0
3.808878e-01 -5.023939e-02 0.0
4.147459e-01 -4.361559e-02 0.0
4.451231e-01 -3.707307e-02 0.0
4.722475e-01 -3.092080e-02 0.0
4.964173e-01 -2.531179e-02 0.0
5.179536e-01 -2.030330e-02 0.0
5.371661e-01 -1.589611e-02 0.0
5.543344e-01 -1.205510e-02 0.0
5.697577e-01 -8.715096e-03 0.0
5.836826e-01 -5.825702e-03 0.0
5.963172e-01 -3.333908e-03 0.0
6.078470e-01 -1.193231e-03 0.0
6.184314e-01 6.428316e-04 0.0
6.282073e-01 2.215849e-03 0.0
6.372929e-01 3.562111e-03 0.0
6.457886e-01 4.714576e-03 0.0
6.537813e-01 5.700479e-03 0.0
6.613448e-01 6.544071e-03 0.0
6.685424e-01 7.265965e-03 0.0
6.754282e-01 7.883896e-03 0.0
6.820483e-01 8.413032e-03 0.0
6.884421e-01 8.866343e-03 0.0
6.946433e-01 9.254911e-03 0.0
7.006807e-01 9.588197e-03 0.0
7.065787e-01 9.874283e-03 0.0
7.123584e-01 1.012006e-02 0.0
7.180377e-01 1.033143e-02 0.0
7.236318e-01 1.051340e-02 0.0
7.291538e-01 1.067027e-02 0.0
7.346148e-01 1.080572e-02 0.0
7.400243e-01 1.092292e-02 0.0
7.453900e-01 1.102462e-02 0.0
7.507194e-01 1.111267e-02 0.0
7.560185e-01 1.118921e-02 0.0
7.612925e-01 1.125594e-02 0.0
7.665455e-01 1.131430e-02 0.0
7.717813e-01 1.136550e-02 0.0
7.770030e-01 1.141057e-02 0.0
7.822134e-01 1.145039e-02 0.0
7.874146e-01 1.148571e-02 0.0
7.926086e-01 1.151716e-02 0.0
7.977970e-01 1.154531e-02 0.0
8.029813e-01 1.157060e-02 0.0
8.081626e-01 1.159343e-02 0.0
8.133419e-01 1.161414e-02 0.0
8.185201e-01 1.163300e-02 0.0
8.236979e-01 1.165027e-02 0.0
8.288759e-01 1.166614e-02 0.0
8.340545e-01 1.168078e-02 0.0
8.392343e-01 1.169432e-02 0.0
8.444155e-01 1.170689e-02 0.0
8.495985e-01 1.171857e-02 0.0
8.547835e-01 1.172942e-02 0.0
8.599708e-01 1.173948e-02 0.0
8.651606e-01 1.174877e-02 0.0
8.703531e-01 1.175728e-02 0.0
8.755485e-01 1.176495e-02 0.0
8.807472e-01 1.177171e-02 0.0
8.859493e-01 1.177740e-02 0.0
8.911554e-01 1.178181e-02 0.0
8.963661e-01 1.178464e-02 0.0
9.015821e-01 1.178545e-02 0.0
9.068045e-01 1.178363e-02 0.0
9.120348e-01 1.177834e-02 0.0
9.172750e-01 1.176840e-02 0.0
9.225281e-01 1.175218e-02 0.0
9.277979e-01 1.172741e-02 0.0
9.330899e-01 1.169094e-02 0.0
9.384118e-01 1.163837e-02 0.0
9.437743e-01 1.156352e-02 0.0
9.491920e-01 1.145768e-02 0.0
9.546858e-01 1.130840e-02 0.0
9.602849e-01 1.109776e-02 0.0
9.660308e-01 1.079938e-02 0.0
9.719826e-01 1.037378e-02 0.0
9.782263e-01 9.759984e-03 0.0
9.848871e-01 8.860714e-03 0.0
9.921492e-01 7.514132e-03 0.0
1.000278e+00 5.438603e-03 0.0
1.009621e+00 2.122804e-03 0.0
1.020411e+00 -3.375415e-03 0.0
1.032143e+00 -1.271770e-02 0.0
1.039530e+00 -2.848935e-02 0.0
1.046242e+00 -5.498232e-02 0.0
0.000000e+00 -6.291071e-02 0.0
0.000000e+00 0.000000e+00 0.0
0.000000e+00 0.000000e+00 0.0
0.000000e+00 0.000000e+00 0.0
0.000000e+00 0.000000e+00 0.0
0.000000e+00 0.000000e+00 0.0
0.000000e+00 0.000000e+00 0.0
0.000000e+00 0.000000e+00 0.0
0.000000e+00 0.000000e+00 0.0
0.000000e+00 0.000000e+00 0.0
0.000000e+00 0.000000e+00 0.0
0.000000e+00 1.080982e-01 0.0
9.163816e-02 -9.167635e-02 0.0
1.594925e-01 -1.081267e-01 0.0
2.172200e-01 -1.121813e-01 0.0
2.689811e-01 -1.103715e-01 0.0
3.160391e-01 -1.038897e-01 0.0
3.585705e-01 -9.461511e-02 0.0
3.967009e-01 -8.406221e-02 0.0
4.306723e-01 -7.327713e-02 0.0
4.608224e-01 -6.291090e-02 0.0
4.875393e-01 -5.332280e-02 0.0
5.112210e-01 -4.467596e-02 0.0
5.322487e-01 -3.701079e-02 0.0
5.509715e-01 -3.029581e-02 0.0
5.677022e-01 -2.445962e-02 0.0
5.827272e-01 -1.941101e-02 0.0
5.962935e-01 -1.505963e-02 0.0
6.086143e-01 -1.131910e-02 0.0
6.198705e-01 -8.110538e-03 0.0
6.302180e-01 -5.362227e-03 0.0
6.397895e-01 -3.009873e-03 0.0
6.486982e-01 -9.971443e-04 0.0
6.570420e-01 7.239135e-04 0.0
6.649042e-01 2.194987e-03 0.0
6.723558e-01 3.453063e-03 0.0
6.794573e-01 4.528778e-03 0.0
6.862607e-01 5.448820e-03 0.0
6.928100e-01 6.235918e-03 0.0
6.991429e-01 6.909502e-03 0.0
7.052918e-01 7.486166e-03 0.0
7.112841e-01 7.980077e-03 0.0
7.171433e-01 8.403329e-03 0.0
7.228895e-01 8.766244e-03 0.0
7.285398e-01 9.077631e-03 0.0
7.341088e-01 9.345013e-03 0.0
7.396090e-01 9.574813e-03 0.0
7.450511e-01 9.772518e-03 0.0
7.504443e-01 9.942818e-03 0.0
7.557965e-01 1.008970e-02 0.0
7.611141e-01 1.021647e-02 0.0
7.664028e-01 1.032606e-02 0.0
7.716675e-01 1.042098e-02 0.0
7.769123e-01 1.050336e-02 0.0
7.821407e-01 1.057503e-02 0.0
7.873558e-01 1.063753e-02 0.0
7.925601e-01 1.069219e-02 0.0
7.977557e-01 1.074013e-02 0.0
8.029447e-01 1.078231e-02 0.0
8.081284e-01 1.081956e-02 0.0
8.133084e-01 1.085257e-02 0.0
8.184856e-01 1.088194e-02 0.0
8.236612e-01 1.090817e-02 0.0
8.288358e-01 1.093170e-02 0.0
8.340102e-01 1.095287e-02 0.0
8.391849e-01 1.097202e-02 0.0
8.443605e-01 1.098938e-02 0.0
8.495372e-01 1.100518e-02 0.0
8.547156e-01 1.101959e-02 0.0
8.598958e-01 1.103274e-02 0.0
8.650781e-01 1.104474e-02 0.0
8.702627e-01 1.105566e-02 0.0
8.754498e-01 1.106553e-02 0.0
8.806396e-01 1.107433e-02 0.0
8.858323e-01 1.108202e-02 0.0
8.910281e-01 1.108848e-02 0.0
8.962273e-01 1.109351e-02 0.0
9.014302e-01 1.109682e-02 0.0
9.066372e-01 1.109800e-02 0.0
9.118490e-01 1.109644e-02 0.0
9.170664e-01 1.109131e-02 0.0
9.222906e-01 1.108143e-02 0.0
9.275232e-01 1.106517e-02 0.0
9.327664e-01 1.104029e-02 0.0
9.380233e-01 1.100366e-02 0.0
9.432982e-01 1.095094e-02 0.0
9.485970e-01 1.087611e-02 0.0
9.539278e-01 1.077073e-02 0.0
9.593018e-01 1.062301e-02 0.0
9.647346e-01 1.041628e-02 0.0
9.702473e-01 1.012683e-02 0.0
9.758691e-01 9.720485e-03 0.0
9.816391e-01 9.147407e-03 0.0
9.876100e-01 8.333576e-03 0.0
9.938488e-01 7.167000e-03 0.0
1.000434e+00 5.475040e-03 0.0
1.007430e+00 2.988115e-03 0.0
1.014810e+00 -7.109621e-04 0.0
1.022220e+00 -6.238997e-03 0.0
1.028423e+00 -1.437369e-02 0.0
1.030113e+00 -2.563361e-02 0.0
1.020094e+00 -4.041698e-02 0.0
0.000000e+00 -3.887562e-02 0.0
0.000000e+00 0.000000e+00 0.0
0.000000e+00 0.000000e+00 0.0
0.000000e+00 0.000000e+00 0.0
0.000000e+00 0.000000e+00 0.0
0.000000e+00 0.000000e+00 0.0
0.000000e+00 0.000000e+00 0.0
0.000000e+00 0.000000e+00 0.0
0.000000e+00 0.000000e+00 0.0
0.000000e+00 0.000000e+00 0.0
0.000000e+00 0.000000e+00 0.0
0.000000e+00 1.862338e-01 0.0
8.416553e-02 -1.593737e-01 0.0
1.554345e-01 -1.750974e-01 0.0
2.189301e-01 -1.713772e-01 0.0
2.753333e-01 -1.624734e-01 0.0
3.252139e-01 -1.494669e-01 0.0
3.690713e-01 -1.341671e-01 0.0
4.074796e-01 -1.181630e-01 0.0
4.410684e-01 -1.025560e-01 0.0
4.704653e-01 -8.799553e-02 0.0
4.962558e-01 -7.479836e-02 0.0
5.189627e-01 -6.306532e-02 0.0
5.390415e-01 -5.276927e-02 0.0
5.568831e-01 -4.381416e-02 0.0
5.728214e-01 -3.607173e-02 0.0
5.871433e-01 -2.940371e-02 0.0
6.000924e-01 -2.367629e-02 0.0
6.118749e-01 -1.876589e-02 0.0
6.226649e-01 -1.456148e-02 0.0
6.326099e-01 -1.096471e-02 0.0
6.418353e-01 -7.889337e-03 0.0
6.504482e-01 -5.260565e-03 0.0
6.585395e-01 -3.014205e-03 0.0
6.661852e-01 -1.093838e-03 0.0
6.734516e-01 5.473309e-04 0.0
6.803950e-01 1.949884e-03 0.0
6.870631e-01 3.149023e-03 0.0
6.934969e-01 4.174387e-03 0.0
6.997312e-01 5.051406e-03 0.0
7.057958e-01 5.801778e-03 0.0
7.117161e-01 6.444023e-03 0.0
7.175138e-01 6.993941e-03 0.0
7.232074e-01 7.465020e-03 0.0
7.288128e-01 7.868770e-03 0.0
7.343434e-01 8.215016e-03 0.0
7.398109e-01 8.512145e-03 0.0
7.452250e-01 8.767319e-03 0.0
7.505943e-01 8.986650e-03 0.0
7.559259e-01 9.175344e-03 0.0
7.612260e-01 9.337825e-03 0.0
7.664997e-01 9.477895e-03 0.0
7.717515e-01 9.598814e-03 0.0
7.769854e-01 9.703361e-03 0.0
7.822044e-01 9.793912e-03 0.0
7.874114e-01 9.872492e-03 0.0
7.926088e-01 9.940831e-03 0.0
7.977986e-01 1.000040e-02 0.0
8.029825e-01 1.005247e-02 0.0
8.081619e-01 1.009810e-02 0.0
8.133381e-01 1.013822e-02 0.0
8.185121e-01 1.017360e-02 0.0
8.236849e-01 1.020491e-02 0.0
8.288571e-01 1.023271e-02 0.0
8.340294e-01 1.025748e-02 0.0
8.392023e-01 1.027962e-02 0.0
8.443762e-01 1.029949e-02 0.0
8.495515e-01 1.031735e-02 0.0
8.547286e-01 1.033345e-02 0.0
8.599076e-01 1.034796e-02 0.0
8.650888e-01 1.036104e-02 0.0
8.702724e-01 1.037277e-02 0.0
8.754584e-01 1.038321e-02 0.0
8.806471e-01 1.039236e-02 0.0
8.858386e-01 1.040016e-02 0.0
8.910330e-01 1.040649e-02 0.0
8.962304e-01 1.041113e-02 0.0
9.014312e-01 1.041374e-02 0.0
9.066356e-01 1.041383e-02 0.0
9.118440e-01 1.041069e-02 0.0
9.170569e-01 1.040334e-02 0.0
9.222750e-01 1.039041e-02 0.0
9.274993e-01 1.036998e-02 0.0
9.327313e-01 1.033941e-02 0.0
9.379730e-01 1.029503e-02 0.0
9.432268e-01 1.023178e-02 0.0
9.484966e-01 1.014265e-02 0.0
9.537872e-01 1.001793e-02 0.0
9.591053e-01 9.844088e-03 0.0
9.644598e-01 9.602299e-03 0.0
9.698620e-01 9.266203e-03 0.0
9.753263e-01 8.798741e-03 0.0
9.808696e-01 8.147557e-03 0.0
9.865091e-01 7.238352e-03 0.0
9.922555e-01 5.965507e-03 0.0
9.980962e-01 4.179709e-03 0.0
1.003956e+00 1.674487e-03 0.0
1.009609e+00 -1.818520e-03 0.0
1.014519e+00 -6.602073e-03 0.0
1.017570e+00 -1.287932e-02 0.0
1.016884e+00 -2.040057e-02 0.0
1.009618e+00 -2.860592e-02 0.0
0.000000e+00 -2.531518e-02 0.0
0.000000e+00 0.000000e+00 0.0
0.000000e+00 0.000000e+00 0.0
0.000000e+00 0.000000e+00 0.0
0.000000e+00 0.000000e+00 0.0
0.000000e+00 0.000000e+00 0.0
0.000000e+00 0.000000e+00 0.0
0.000000e+00 0.000000e+00 0.0
0.000000e+00 0.000000e+00 0.0
0.000000e+00 0.000000e+00 0.0
0.000000e+00 0.000000e+00 0.0
0.000000e+00 2.668495e-01 0.0
8.410543e-02 -2.270118e-01 0.0
1.592414e-01 -2.459356e-01 0.0
2.278196e-01 -2.356560e-01 0.0
2.882862e-01 -2.186388e-01 0.0
3.404759e-01 -1.973534e-01 0.0
3.850783e-01 -1.744642e-01 0.0
4.231322e-01 -1.519094e-01 0.0
4.557084e-01 -1.308223e-01 0.0
4.837640e-01 -1.117388e-01 0.0
5.081013e-01 -9.482083e-02 0.0
5.293739e-01 -8.002031e-02 0.0
5.481087e-01 -6.718368e-02 0.0
5.647310e-01 -5.611317e-02 0.0
5.795864e-01 -4.660082e-02 0.0
5.929584e-01 -3.844641e-02 0.0
6.050812e-01 -3.146651e-02 0.0
6.161487e-01 -2.549762e-02 0.0
6.263227e-01 -2.039634e-02 0.0
6.357387e-01 -1.603810e-02 0.0
6.445107e-01 -1.231529e-02 0.0
6.527352e-01 -9.135421e-03 0.0
6.604935e-01 -6.419277e-03 0.0
6.678555e-01 -4.098886e-03 0.0
6.748801e-01 -2.116497e-03 0.0
6.816166e-01 -4.220581e-04 0.0
6.881080e-01 1.025968e-03 0.0
6.943909e-01 2.263827e-03 0.0
7.004963e-01 3.322266e-03 0.0
7.064508e-01 4.227546e-03 0.0
7.122771e-01 5.002067e-03 0.0
7.179944e-01 5.664940e-03 0.0
7.236194e-01 6.232474e-03 0.0
7.291662e-01 6.718584e-03 0.0
7.346467e-01 7.135150e-03 0.0
7.400714e-01 7.492311e-03 0.0
7.454489e-01 7.798723e-03 0.0
7.507869e-01 8.061773e-03 0.0
7.560918e-01 8.287765e-03 0.0
7.613689e-01 8.482074e-03 0.0
7.666231e-01 8.649298e-03 0.0
7.718582e-01 8.793371e-03 0.0
7.770777e-01 8.917652e-03 0.0
7.822845e-01 9.025011e-03 0.0
7.874810e-01 9.117898e-03 0.0
7.926695e-01 9.198405e-03 0.0
7.978516e-01 9.268318e-03 0.0
8.030288e-01 9.329163e-03 0.0
8.082026e-01 9.382239e-03 0.0
8.133739e-01 9.428656e-03 0.0
8.185438e-01 9.469362e-03 0.0
8.237129e-01 9.505161e-03 0.0
8.288820e-01 9.536741e-03 0.0
8.340516e-01 9.564682e-03 0.0
8.392222e-01 9.589479e-03 0.0
8.443941e-01 9.611545e-03 0.0
8.495676e-01 9.631229e-03 0.0
8.547430e-01 9.648817e-03 0.0
8.599206e-01 9.664540e-03 0.0
8.651004e-01 9.678576e-03 0.0
8.702826e-01 9.691055e-03 0.0
8.754674e-01 9.702053e-03 0.0
8.806547e-01 9.711589e-03 0.0
8.858447e-01 9.719620e-03 0.0
8.910375e-01 9.726023e-03 0.0
8.962330e-01 9.730578e-03 0.0
9.014313e-01 9.732940e-03 0.0
9.066326e-01 9.732597e-03 0.0
9.118369e-01 9.728815e-03 0.0
9.170445e-01 9.720559e-03 0.0
9.222554e-01 9.706385e-03 0.0
9.274701e-01 9.684286e-03 0.0
9.326890e-01 9.651490e-03 0.0
9.379126e-01 9.604171e-03 0.0
9.431418e-01 9.537054e-03 0.0
9.483777e-01 9.442872e-03 0.0
9.536217e-01 9.311622e-03 0.0
9.588752e-01 9.129538e-03 0.0
9.641401e-01 8.877694e-03 0.0
9.694176e-01 8.530096e-03 0.0
9.747076e-01 8.051139e-03 0.0
9.800061e-01 7.392284e-03 0.0
9.853006e-01 6.487952e-03 0.0
9.905597e-01 5.251046e-03 0.0
9.957150e-01 3.569632e-03 0.0
1.000626e+00 1.308982e-03 0.0
1.005025e+00 -1.672032e-03 0.0
1.008440e+00 -5.470900e-03 0.0
1.010135e+00 -1.002828e-02 0.0
1.009215e+00 -1.493437e-02 0.0
1.004795e+00 -1.964024e-02 0.0
0.000000e+00 -1.657718e-02 0.0
0.000000e+00 0.000000e+00 0.0
0.000000e+00 0.000000e+00 0.0
0.000000e+00 0.000000e+00 0.0
0.000000e+00 0.000000e+00 0.0
0.000000e+00 0.000000e+00 0.0
0.000000e+00 0.000000e+00 0.0
0.000000e+00 0.000000e+00 0.0
0.000000e+00 0.000000e+00 0.0
0.000000e+00 0.000000e+00 0.0
0.000000e+00 0.000000e+00 0.0
0.000000e+00 3.559767e-01 0.0
8.757382e-02 -2.981198e-01 0.0
1.696228e-01 -3.236873e-01 0.0
2.448631e-01 -3.065973e-01 0.0
3.095766e-01 -2.790514e-01 0.0
3.633978e-01 -2.468717e-01 0.0
4.077118e-01 -2.144731e-01 0.0
4.443396e-01 -1.842298e-01 0.0
4.749401e-01 -1.571129e-01 0.0
5.008440e-01 -1.333303e-01 0.0
5.230664e-01 -1.127283e-01 0.0
5.423697e-01 -9.500606e-02 0.0
5.593284e-01 -7.982188e-02 0.0
5.743800e-01 -6.684151e-02 0.0
5.878641e-01 -5.575854e-02 0.0
6.000483e-01 -4.630122e-02 0.0
6.111474e-01 -3.823296e-02 0.0
6.213356e-01 -3.134989e-02 0.0
6.307559e-01 -2.547742e-02 0.0
6.395268e-01 -2.046642e-02 0.0
6.477474e-01 -1.618972e-02 0.0
6.555007e-01 -1.253898e-02 0.0
6.628567e-01 -9.421948e-03 0.0
6.698748e-01 -6.759999e-03 0.0
6.766054e-01 -4.486240e-03 0.0
6.830916e-01 -2.543612e-03 0.0
6.893693e-01 -8.833291e-04 0.0
6.954697e-01 5.358228e-04 0.0
7.014193e-01 1.749042e-03 0.0
7.072407e-01 2.786485e-03 0.0
7.129532e-01 3.673866e-03 0.0
7.185734e-01 4.433116e-03 0.0
7.241154e-01 5.082948e-03 0.0
7.295913e-01 5.639331e-03 0.0
7.350112e-01 6.115892e-03 0.0
7.403841e-01 6.524267e-03 0.0
7.457174e-01 6.874387e-03 0.0
7.510176e-01 7.174730e-03 0.0
7.562901e-01 7.432534e-03 0.0
7.615396e-01 7.653979e-03 0.0
7.667701e-01 7.844343e-03 0.0
7.719850e-01 8.008138e-03 0.0
7.771872e-01 8.149219e-03 0.0
7.823792e-01 8.270879e-03 0.0
7.875631e-01 8.375931e-03 0.0
7.927407e-01 8.466777e-03 0.0
7.979135e-01 8.545468e-03 0.0
8.030828e-01 8.613756e-03 0.0
8.082498e-01 8.673135e-03 0.0
8.134153e-01 8.724882e-03 0.0
8.185801e-01 8.770084e-03 0.0
8.237449e-01 8.809669e-03 0.0
8.289103e-01 8.844426e-03 0.0
8.340767e-01 8.875028e-03 0.0
8.392444e-01 8.902042e-03 0.0
8.444138e-01 8.925950e-03 0.0
8.495852e-01 8.947155e-03 0.0
8.547588e-01 8.965990e-03 0.0
8.599346e-01 8.982729e-03 0.0
8.651128e-01 8.997587e-03 0.0
8.702935e-01 9.010724e-03 0.0
8.754768e-01 9.022245e-03 0.0
8.806627e-01 9.032196e-03 0.0
8.858510e-01 9.040557e-03 0.0
8.910420e-01 9.047230e-03 0.0
8.962353e-01 9.052022e-03 0.0
9.014311e-01 9.054615e-03 0.0
9.066290e-01 9.054533e-03 0.0
9.118291e-01 9.051082e-03 0.0
9.170309e-01 9.043285e-03 0.0
9.222343e-01 9.029770e-03 0.0
9.274388e-01 9.008636e-03 0.0
9.326438e-01 8.977256e-03 0.0
9.378485e-01 8.932012e-03 0.0
9.430520e-01 8.867936e-03 0.0
9.482526e-01 8.778217e-03 0.0
9.534481e-01 8.653550e-03 0.0
9.586352e-01 8.481256e-03 0.0
9.638089e-01 8.244136e-03 0.0
9.689611e-01 7.919021e-03 0.0
9.740795e-01 7.474983e-03 0.0
9.791435e-01 6.871346e-03 0.0
9.841195e-01 6.055827e-03 0.0
9.889514e-01 4.963692e-03 0.0
9.935462e-01 3.519870e-03 0.0
9.977528e-01 1.647755e-03 0.0
1.001336e+00 -7.100097e-04 0.0
1.003959e+00 -3.548083e-03 0.0
1.005205e+00 -6.728352e-03 0.0
1.004713e+00 -9.896571e-03 0.0
1.002305e+00 -1.268647e-02 0.0
0.000000e+00 -1.032838e-02 0.0
0.000000e+00 0.000000e+00 0.0
0.000000e+00 0.000000e+00 0.0
0.000000e+00 0.000000e+00 0.0
0.000000e+00 0.000000e+00 0.0
0.000000e+00 0.000000e+00 0.0
0.000000e+00 0.000000e+00 0.0
0.000000e+00 0.000000e+00 0.0
0.000000e+00 0.000000e+00 0.0
0.000000e+00 0.000000e+00 0.0
0.000000e+00 0.000000e+00 0.0
0.000000e+00 4.603990e-01 0.0
9.191272e-02 -3.735690e-01 0.0
1.868930e-01 -4.143710e-01 0.0
2.724902e-01 -3.878960e-01 0.0
3.418304e-01 -3.440911e-01 0.0
3.959233e-01 -2.966619e-01 0.0
4.381399e-01 -2.523847e-01 0.0
4.716791e-01 -2.134617e-01 0.0
4.989604e-01 -1.800845e-01 0.0
5.216822e-01 -1.517398e-01 0.0
5.410128e-01 -1.277440e-01 0.0
5.577608e-01 -1.074364e-01 0.0
5.724961e-01 -9.023673e-02 0.0
5.856306e-01 -7.565254e-02 0.0
5.974699e-01 -6.327147e-02 0.0
6.082473e-01 -5.274918e-02 0.0
6.181450e-01 -4.379797e-02 0.0
6.273081e-01 -3.617699e-02 0.0
6.358540e-01 -2.968405e-02 0.0
6.438792e-01 -2.414895e-02 0.0
6.514638e-01 -1.942809e-02 0.0
6.586746e-01 -1.540001e-02 0.0
6.655679e-01 -1.196181e-02 0.0
6.721912e-01 -9.026196e-03 0.0
6.785849e-01 -6.519002e-03 0.0
6.847831e-01 -4.377156e-03 0.0
6.908153e-01 -2.546980e-03 0.0
6.967062e-01 -9.826595e-04 0.0
7.024769e-01 3.547413e-04 0.0
7.081455e-01 1.498239e-03 0.0
7.137276e-01 2.476195e-03 0.0
7.192363e-01 3.312798e-03 0.0
7.246831e-01 4.028687e-03 0.0
7.300776e-01 4.641472e-03 0.0
7.354280e-01 5.166185e-03 0.0
7.407415e-01 5.615657e-03 0.0
7.460240e-01 6.000846e-03 0.0
7.512808e-01 6.331104e-03 0.0
7.565162e-01 6.614420e-03 0.0
7.617339e-01 6.857613e-03 0.0
7.669373e-01 7.066511e-03 0.0
7.721290e-01 7.246092e-03 0.0
7.773114e-01 7.400610e-03 0.0
7.824864e-01 7.533697e-03 0.0
7.876558e-01 7.648458e-03 0.0
7.928209e-01 7.747544e-03 0.0
7.979831e-01 7.833219e-03 0.0
8.031433e-01 7.907418e-03 0.0
8.083024e-01 7.971793e-03 0.0
8.134612e-01 8.027751e-03 0.0
8.186203e-01 8.076496e-03 0.0
8.237802e-01 8.119054e-03 0.0
8.289413e-01 8.156298e-03 0.0
8.341040e-01 8.188972e-03 0.0
8.392685e-01 8.217708e-03 0.0
8.444352e-01 8.243038e-03 0.0
8.496042e-01 8.265414e-03 0.0
8.547755e-01 8.285211e-03 0.0
8.599494e-01 8.302738e-03 0.0
8.651259e-01 8.318244e-03 0.0
8.703050e-01 8.331921e-03 0.0
8.754867e-01 8.343906e-03 0.0
8.806709e-01 8.354276e-03 0.0
8.858577e-01 8.363048e-03 0.0
8.910467e-01 8.370166e-03 0.0
8.962379e-01 8.375485e-03 0.0
9.014311e-01 8.378755e-03 0.0
9.066258e-01 8.379582e-03 0.0
9.118216e-01 8.377388e-03 0.0
9.170180e-01 8.371346e-03 0.0
9.222141e-01 8.360296e-03 0.0
9.274088e-01 8.342623e-03 0.0
9.326006e-01 8.316099e-03 0.0
9.377874e-01 8.277660e-03 0.0
9.429664e-01 8.223112e-03 0.0
9.481337e-01 8.146734e-03 0.0
9.532837e-01 8.040756e-03 0.0
9.584089e-01 7.894692e-03 0.0
9.634985e-01 7.694496e-03 0.0
9.685370e-01 7.421565e-03 0.0
9.735024e-01 7.051656e-03 0.0
9.783627e-01 6.553921e-03 0.0
9.830717e-01 5.890514e-03 0.0
9.875621e-01 5.017663e-03 0.0
9.917370e-01 3.889772e-03 0.0
9.954610e-01 2.468970e-03 0.0
9.985539e-01 7.426623e-04 0.0
1.000799e+00 -1.248055e-03 0.0
1.001987e+00 -3.370684e-03 0.0
1.002011e+00 -5.374283e-03 0.0
1.000914e+00 -7.044132e-03 0.0
0.000000e+00 -5.470109e-03 0.0
0.000000e+00 0.000000e+00 0.0
0.000000e+00 0.000000e+00 0.0
0.000000e+00 0.000000e+00 0.0
0.000000e+00 0.000000e+00 0.0
0.000000e+00 0.000000e+00 0.0
0.000000e+00 0.000000e+00 0.0
0.000000e+00 0.000000e+00 0.0
0.000000e+00 0.000000e+00 0.0
0.000000e+00 0.000000e+00 0.0
0.000000e+00 0.000000e+00 0.0
0.000000e+00 5.896753e-01 0.0
8.995240e-02 -4.470612e-01 0.0
2.137497e-01 -5.338726e-01 0.0
3.164628e-01 -4.863111e-01 0.0
3.894364e-01 -4.127644e-01 0.0
4.404737e-01 -3.433966e-01 0.0
4.774035e-01 -2.850098e-01 0.0
5.054163e-01 -2.371673e-01 0.0
5.276531e-01 -1.980117e-01 0.0
5.459986e-01 -1.657730e-01 0.0
5.616083e-01 -1.390388e-01 0.0
5.752156e-01 -1.167261e-01 0.0
5.873045e-01 -9.800515e-02 0.0
5.982078e-01 -8.223235e-02 0.0
6.081632e-01 -6.890051e-02 0.0
6.173474e-01 -5.760380e-02 0.0
6.258953e-01 -4.801318e-02 0.0
6.339132e-01 -3.985888e-02 0.0
6.414864e-01 -3.291782e-02 0.0
6.486844e-01 -2.700418e-02 0.0
6.555649e-01 -2.196229e-02 0.0
6.621759e-01 -1.766124e-02 0.0
6.685581e-01 -1.399049e-02 0.0
6.747456e-01 -1.085650e-02 0.0
6.807674e-01 -8.179934e-03 0.0
6.866484e-01 -5.893412e-03 0.0
6.924097e-01 -3.939615e-03 0.0
6.980692e-01 -2.269754e-03 0.0
7.036426e-01 -8.421688e-04 0.0
7.091427e-01 3.785703e-04 0.0
7.145808e-01 1.422518e-03 0.0
7.199666e-01 2.315491e-03 0.0
7.253083e-01 3.079521e-03 0.0
7.306130e-01 3.733411e-03 0.0
7.358867e-01 4.293211e-03 0.0
7.411346e-01 4.772624e-03 0.0
7.463611e-01 5.183350e-03 0.0
7.515700e-01 5.535383e-03 0.0
7.567644e-01 5.837254e-03 0.0
7.619472e-01 6.096254e-03 0.0
7.671206e-01 6.318607e-03 0.0
7.722867e-01 6.509632e-03 0.0
7.774472e-01 6.673875e-03 0.0
7.826035e-01 6.815217e-03 0.0
7.877568e-01 6.936977e-03 0.0
7.929083e-01 7.041987e-03 0.0
7.980587e-01 7.132668e-03 0.0
8.032089e-01 7.211088e-03 0.0
8.083594e-01 7.279013e-03 0.0
8.135108e-01 7.337950e-03 0.0
8.186635e-01 7.389186e-03 0.0
8.238180e-01 7.433819e-03 0.0
8.289744e-01 7.472785e-03 0.0
8.341331e-01 7.506881e-03 0.0
8.392941e-01 7.536786e-03 0.0
8.444578e-01 7.563073e-03 0.0
8.496241e-01 7.586231e-03 0.0
8.547931e-01 7.606666e-03 0.0
8.599650e-01 7.624719e-03 0.0
8.651396e-01 7.640670e-03 0.0
8.703170e-01 7.654739e-03 0.0
8.754970e-01 7.667095e-03 0.0
8.806797e-01 7.677855e-03 0.0
8.858647e-01 7.687078e-03 0.0
8.910520e-01 7.694764e-03 0.0
8.962412e-01 7.700842e-03 0.0
9.014320e-01 7.705153e-03 0.0
9.066237e-01 7.707432e-03 0.0
9.118159e-01 7.707274e-03 0.0
9.170075e-01 7.704087e-03 0.0
9.221972e-01 7.697032e-03 0.0
9.273834e-01 7.684938e-03 0.0
9.325638e-01 7.666186e-03 0.0
9.377352e-01 7.638549e-03 0.0
9.428934e-01 7.598989e-03 0.0
9.480324e-01 7.543373e-03 0.0
9.531442e-01 7.466122e-03 0.0
9.582176e-01 7.359761e-03 0.0
9.632375e-01 7.214380e-03 0.0
9.681829e-01 7.017042e-03 0.0
9.730252e-01 6.751210e-03 0.0
9.777255e-01 6.396409e-03 0.0
9.822311e-01 5.928488e-03 0.0
9.864718e-01 5.321137e-03 0.0
9.903566e-01 4.549649e-03 0.0
9.937725e-01 3.598185e-03 0.0
9.965889e-01 2.471565e-03 0.0
9.986751e-01 1.211212e-03 0.0
9.999383e-01 -8.837912e-05 0.0
1.000382e+00 -1.272427e-03 0.0
1.000109e+00 -2.225782e-03 0.0
0.000000e+00 -1.416214e-03 0.0
0.000000e+00 0.000000e+00 0.0
0.000000e+00 0.000000e+00 0.0
0.000000e+00 0.000000e+00 0.0
0.000000e+00 0.000000e+00 0.0
0.000000e+00 0.000000e+00 0.0
0.000000e+00 0.000000e+00 0.0
0.000000e+00 0.000000e+00 0.0
0.000000e+00 0.000000e+00 0.0
0.000000e+00 0.000000e+00 0.0
0.000000e+00 0.000000e+00 0.0
0.000000e+00 7.576503e-01 0.0
5.321865e-02 -4.838243e-01 0.0
2.621282e-01 -7.384870e-01 0.0
3.902254e-01 -6.101107e-01 0.0
4.591413e-01 -4.773803e-01 0.0
4.993834e-01 -3.793364e-01 0.0
5.258171e-01 -3.071387e-01 0.0
5.451074e-01 -2.521504e-01 0.0
5.603640e-01 -2.089586e-01 0.0
5.731398e-01 -1.742367e-01 0.0
5.842695e-01 -1.458536e-01 0.0
5.942348e-01 -1.223738e-01 0.0
6.033330e-01 -1.027829e-01 0.0
6.117593e-01 -8.633519e-02 0.0
6.196491e-01 -7.246383e-02 0.0
6.271011e-01 -6.072624e-02 0.0