# vtk DataFile Version 3.0
Vector Field
ASCII
DATASET RECTILINEAR_GRID
DIMENSIONS 102 22 1
X_COORDINATES 102 double
0.000000 0.100000 0.200000 0.300000 0.400000 0.500000 0.600000 0.700000 0.800000 0.900000 1.000000 1.100000 1.200000 1.300000 1.400000 1.500000 1.600000 1.700000 1.800000 1.900000 2.000000 2.100000 2.200000 2.300000 2.400000 2.500000 2.600000 2.700000 2.800000 2.900000 3.000000 3.100000 3.200000 3.300000 3.400000 3.500000 3.600000 3.700000 3.800000 3.900000 4.000000 4.100000 4.200000 4.300000 4.400000 4.500000 4.600000 4.700000 4.800000 4.900000 5.000000 5.100000 5.200000 5.300000 5.400000 5.500000 5.600000 5.700000 5.800000 5.900000 6.000000 6.100000 6.200000 6.300000 6.400000 6.500000 6.600000 6.700000 6.800000 6.900000 7.000000 7.100000 7.200000 7.300000 7.400000 7.500000 7.600000 7.700000 7.800000 7.900000 8.000000 8.100000 8.200000 8.300000 8.400000 8.500000 8.600000 8.700000 8.800000 8.900000 9.000000 9.100000 9.200000 9.300000 9.400000 9.500000 9.600000 9.700000 9.800000 9.900000 10.000000 10.100000 
Y_COORDINATES 22 double
0.000000 0.100000 0.200000 0.300000 0.400000 0.500000 0.600000 0.700000 0.800000 0.900000 1.000000 1.100000 1.200000 1.300000 1.400000 1.500000 1.600000 1.700000 1.800000 1.900000 2.000000 2.100000 
Z_COORDINATES 1 double
0.0
POINT_DATA 2244
VECTORS Velocity double
0.000000e+00 0.000000e+00 0.0
-0.000000e+00 0.000000e+00 0.0
-0.000000e+00 0.000000e+00 0.0
-0.000000e+00 0.000000e+00 0.0
-0.000000e+00 0.000000e+00 0.0
-0.000000e+00 0.000000e+00 0.0
-0.000000e+00 0.000000e+00 0.0
-0.000000e+00 0.000000e+00 0.0
-0.000000e+00 0.000000e+00 0.0
-0.000000e+00 0.000000e+00 0.0
-0.000000e+00 0.000000e+00 0.0
-3.968148e-04 0.000000e+00 0.0
4.115341e-03 0.000000e+00 0.0
1.079111e-02 0.000000e+00 0.0
1.837211e-02 0.000000e+00 0.0
2.643179e-02 0.000000e+00 0.0
3.501100e-02 0.000000e+00 0.0
4.433321e-02 0.000000e+00 0.0
5.467845e-02 0.000000e+00 0.0
6.633820e-02 0.000000e+00 0.0
7.957825e-02 0.000000e+00 0.0
9.457916e-02 0.000000e+00 0.0
1.113307e-01 0.000000e+00 0.0
1.294830e-01 0.000000e+00 0.0
1.481833e-01 0.000000e+00 0.0
1.659327e-01 0.000000e+00 0.0
1.804864e-01 0.000000e+00 0.0
1.888005e-01 0.000000e+00 0.0
1.876908e-01 0.000000e+00 0.0
1.749380e-01 0.000000e+00 0.0
1.497922e-01 0.000000e+00 0.0
1.137952e-01 0.000000e+00 0.0
7.033693e-02 0.000000e+00 0.0
2.163570e-02 0.000000e+00 0.0
-2.664291e-02 0.000000e+00 0.0
-6.825619e-02 0.000000e+00 0.0
-1.013456e-01 0.000000e+00 0.0
-1.259352e-01 0.000000e+00 0.0
-1.428899e-01 0.000000e+00 0.0
-1.534226e-01 0.000000e+00 0.0
-1.588423e-01 0.000000e+00 0.0
-1.603996e-01 0.000000e+00 0.0
-1.589169e-01 0.000000e+00 0.0
-1.550024e-01 0.000000e+00 0.0
-1.494123e-01 0.000000e+00 0.0
-1.428061e-01 0.000000e+00 0.0
-1.356943e-01 0.000000e+00 0.0
-1.284619e-01 0.000000e+00 0.0
-1.213704e-01 0.000000e+00 0.0
-1.146079e-01 0.000000e+00 0.0
-1.082973e-01 0.000000e+00 0.0
-1.025116e-01 0.000000e+00 0.0
-9.728694e-02 0.000000e+00 0.0
-9.263368e-02 0.000000e+00 0.0
-8.854555e-02 0.000000e+00 0.0
-8.500574e-02 0.000000e+00 0.0
-8.199074e-02 0.000000e+00 0.0
-7.947259e-02 0.000000e+00 0.0
-7.742020e-02 0.000000e+00 0.0
-7.579999e-02 0.000000e+00 0.0
-7.457631e-02 0.000000e+00 0.0
-7.371164e-02 0.000000e+00 0.0
-7.316666e-02 0.000000e+00 0.0
-7.290047e-02 0.000000e+00 0.0
-7.287058e-02 0.000000e+00 0.0
-7.303285e-02 0.000000e+00 0.0
-7.334154e-02 0.000000e+00 0.0
-7.375068e-02 0.000000e+00 0.0
-7.422015e-02 0.000000e+00 0.0
-7.472750e-02 0.000000e+00 0.0
-7.526476e-02 0.000000e+00 0.0
-7.582546e-02 0.000000e+00 0.0
-7.640055e-02 0.000000e+00 0.0
-7.697861e-02 0.000000e+00 0.0
-7.754534e-02 0.000000e+00 0.0
-7.808800e-02 0.000000e+00 0.0
-7.859649e-02 0.000000e+00 0.0
-7.906383e-02 0.000000e+00 0.0
-7.948849e-02 0.000000e+00 0.0
-7.986958e-02 0.000000e+00 0.0
-8.020670e-02 0.000000e+00 0.0
-8.050017e-02 0.000000e+00 0.0
-8.075188e-02 0.000000e+00 0.0
-8.096554e-02 0.000000e+00 0.0
-8.114438e-02 0.000000e+00 0.0
-8.129140e-02 0.000000e+00 0.0
-8.140992e-02 0.000000e+00 0.0
-8.150314e-02 0.000000e+00 0.0
-8.157407e-02 0.000000e+00 0.0
-8.162555e-02 0.000000e+00 0.0
-8.166026e-02 0.000000e+00 0.0
-8.168081e-02 0.000000e+00 0.0
-8.168994e-02 0.000000e+00 0.0
-8.169084e-02 0.000000e+00 0.0
-8.168781e-02 0.000000e+00 0.0
-8.168622e-02 0.000000e+00 0.0
-8.169145e-02 0.000000e+00 0.0
-8.170871e-02 0.000000e+00 0.0
-8.174231e-02 0.000000e+00 0.0
-8.179556e-02 0.000000e+00 0.0
-8.179556e-02 0.000000e+00 0.0
0.000000e+00 0.000000e+00 0.0
0.000000e+00 0.000000e+00 0.0
0.000000e+00 0.000000e+00 0.0
0.000000e+00 0.000000e+00 0.0
0.000000e+00 0.000000e+00 0.0
0.000000e+00 0.000000e+00 0.0
0.000000e+00 0.000000e+00 0.0
0.000000e+00 0.000000e+00 0.0
0.000000e+00 0.000000e+00 0.0
0.000000e+00 0.000000e+00 0.0
0.000000e+00 0.000000e+00 0.0
0.000000e+00 -1.701087e-03 0.0
3.869144e-04 1.689602e-03 0.0
-4.122146e-03 5.703058e-03 0.0
-1.079492e-02 7.866770e-03 0.0
-1.837376e-02 8.772841e-03 0.0
-2.643221e-02 9.252442e-03 0.0
-3.501107e-02 9.772864e-03 0.0
-4.433379e-02 1.051672e-02 0.0
-5.468037e-02 1.154057e-02 0.0
-6.634222e-02 1.285585e-02 0.0
-7.958503e-02 1.443681e-02 0.0
-9.458912e-02 1.619809e-02 0.0
-1.113440e-01 1.794883e-02 0.0
-1.294994e-01 1.934940e-02 0.0
-1.482019e-01 1.989659e-02 0.0
-1.659522e-01 1.894423e-02 0.0
-1.805052e-01 1.574706e-02 0.0
-1.888186e-01 9.507382e-03 0.0
-1.877083e-01 8.363068e-05 0.0
-1.749563e-01 -1.155791e-02 0.0
-1.498133e-01 -2.394907e-02 0.0
-1.138212e-01 -3.479812e-02 0.0
-7.036896e-02 -4.225820e-02 0.0
-2.167138e-02 -4.750358e-02 0.0
2.661565e-02 -4.709303e-02 0.0
6.824769e-02 -4.043804e-02 0.0
1.013637e-01 -3.192203e-02 0.0
1.259857e-01 -2.342801e-02 0.0
1.429765e-01 -1.579673e-02 0.0
1.535469e-01 -9.376439e-03 0.0
1.590040e-01 -4.263074e-03 0.0
1.605971e-01 -3.991183e-04 0.0
1.591596e-01 2.631498e-03 0.0
1.552880e-01 5.065627e-03 0.0
1.497345e-01 6.747491e-03 0.0
1.431575e-01 7.770972e-03 0.0
1.360671e-01 8.284452e-03 0.0
1.288469e-01 8.414143e-03 0.0
1.217588e-01 8.282123e-03 0.0
1.149904e-01 7.962423e-03 0.0
1.086654e-01 7.518951e-03 0.0
1.028584e-01 7.001043e-03 0.0
9.760680e-02 6.445608e-03 0.0
9.292233e-02 5.878469e-03 0.0
8.879981e-02 5.316524e-03 0.0
8.522333e-02 4.770484e-03 0.0
8.217017e-02 4.247168e-03 0.0
7.961308e-02 3.751088e-03 0.0
7.752166e-02 3.285431e-03 0.0
7.586300e-02 2.852660e-03 0.0
7.460214e-02 2.454864e-03 0.0
7.370221e-02 2.093933e-03 0.0
7.312459e-02 1.771624e-03 0.0
7.282901e-02 1.489585e-03 0.0
7.277359e-02 1.249420e-03 0.0
7.291479e-02 1.052808e-03 0.0
7.320733e-02 9.014640e-04 0.0
7.360531e-02 7.960249e-04 0.0
7.406734e-02 7.319745e-04 0.0
7.456900e-02 6.923444e-04 0.0
7.510158e-02 6.614194e-04 0.0
7.565889e-02 6.367017e-04 0.0
7.623203e-02 6.208563e-04 0.0
7.681001e-02 6.160240e-04 0.0
7.737863e-02 6.253854e-04 0.0
7.792487e-02 6.477670e-04 0.0
7.843836e-02 6.805202e-04 0.0
7.891142e-02 7.209435e-04 0.0
7.934176e-02 7.636636e-04 0.0
7.972873e-02 8.070307e-04 0.0
8.007193e-02 8.508007e-04 0.0
8.037157e-02 8.943682e-04 0.0
8.062909e-02 9.364824e-04 0.0
8.084806e-02 9.750395e-04 0.0
8.103183e-02 1.010235e-03 0.0
8.118337e-02 1.042461e-03 0.0
8.130595e-02 1.071424e-03 0.0
8.140279e-02 1.097165e-03 0.0
8.147691e-02 1.119884e-03 0.0
8.153118e-02 1.139735e-03 0.0
8.156831e-02 1.156878e-03 0.0
8.159092e-02 1.171387e-03 0.0
8.160177e-02 1.183162e-03 0.0
8.160403e-02 1.191745e-03 0.0
8.160195e-02 1.196086e-03 0.0
8.160093e-02 1.195017e-03 0.0
8.160639e-02 1.188545e-03 0.0
8.162357e-02 1.176829e-03 0.0
8.165681e-02 1.160764e-03 0.0
8.170951e-02 1.141301e-03 0.0
8.179556e-02 1.107955e-03 0.0
0.000000e+00 1.119474e-03 0.0
0.000000e+00 0.000000e+00 0.0
0.000000e+00 0.000000e+00 0.0
0.000000e+00 0.000000e+00 0.0
0.000000e+00 0.000000e+00 0.0
0.000000e+00 0.000000e+00 0.0
0.000000e+00 0.000000e+00 0.0
0.000000e+00 0.000000e+00 0.0
0.000000e+00 0.000000e+00 0.0
0.000000e+00 0.000000e+00 0.0
0.000000e+00 0.000000e+00 0.0
0.000000e+00 -7.130131e-03 0.0
-4.235556e-03 7.119155e-03 0.0
-1.706423e-02 1.884321e-02 0.0
-3.393040e-02 2.504442e-02 0.0
-5.250675e-02 2.766066e-02 0.0
-7.185306e-02 2.891024e-02 0.0
-9.182603e-02 3.005730e-02 0.0
-1.125776e-01 3.157974e-02 0.0
-1.342818e-01 3.355626e-02 0.0
-1.569930e-01 3.587855e-02 0.0
-1.805304e-01 3.828571e-02 0.0
-2.043789e-01 4.035799e-02 0.0
-2.275647e-01 4.144612e-02 0.0
-2.485100e-01 4.060624e-02 0.0
-2.648540e-01 3.655204e-02 0.0
-2.738590e-01 2.826070e-02 0.0
-2.723960e-01 1.459557e-02 0.0
-2.560959e-01 -6.481235e-03 0.0
-2.235936e-01 -3.210719e-02 0.0
-1.762081e-01 -5.863194e-02 0.0
-1.162721e-01 -8.357356e-02 0.0
-4.618544e-02 -1.045733e-01 0.0
2.977321e-02 -1.179054e-01 0.0
1.023830e-01 -1.198019e-01 0.0
1.670162e-01 -1.114148e-01 0.0
2.234137e-01 -9.652407e-02 0.0
2.707201e-01 -7.891693e-02 0.0
3.087328e-01 -6.112930e-02 0.0
3.378353e-01 -4.458770e-02 0.0
3.587659e-01 -2.999562e-02 0.0
3.724392e-01 -1.762482e-02 0.0
3.798306e-01 -7.479020e-03 0.0
3.821380e-01 6.355144e-04 0.0
3.802418e-01 7.273305e-03 0.0
3.749193e-01 1.238145e-02 0.0
3.668783e-01 1.612347e-02 0.0
3.567554e-01 1.871880e-02 0.0
3.450985e-01 2.038257e-02 0.0
3.324449e-01 2.124716e-02 0.0
3.193239e-01 2.139490e-02 0.0
3.061707e-01 2.098372e-02 0.0
2.933398e-01 2.014342e-02 0.0
2.811081e-01 1.898874e-02 0.0
2.696832e-01 1.761488e-02 0.0
2.592130e-01 1.609817e-02 0.0
2.497952e-01 1.449980e-02 0.0
2.414843e-01 1.286949e-02 0.0
2.342989e-01 1.124802e-02 0.0
2.282267e-01 9.669063e-03 0.0
2.232305e-01 8.160371e-03 0.0
2.192522e-01 6.744636e-03 0.0
2.162175e-01 5.440081e-03 0.0
2.140398e-01 4.260865e-03 0.0
2.126234e-01 3.217450e-03 0.0
2.118672e-01 2.317056e-03 0.0
2.116672e-01 1.564295e-03 0.0
2.119183e-01 9.618572e-04 0.0
2.125157e-01 5.101298e-04 0.0
2.133572e-01 2.019293e-04 0.0
2.143755e-01 -1.450942e-05 0.0
2.155159e-01 -1.674632e-04 0.0
2.167289e-01 -2.648132e-04 0.0
2.179749e-01 -3.136918e-04 0.0
2.192220e-01 -3.196135e-04 0.0
2.204436e-01 -2.847117e-04 0.0
2.216197e-01 -2.168148e-04 0.0
2.227372e-01 -1.255030e-04 0.0
2.237888e-01 -1.920400e-05 0.0
2.247650e-01 9.889568e-05 0.0
2.256600e-01 2.235646e-04 0.0
2.264725e-01 3.497293e-04 0.0
2.272036e-01 4.748346e-04 0.0
2.278539e-01 5.975998e-04 0.0
2.284282e-01 7.122307e-04 0.0
2.289310e-01 8.189161e-04 0.0
2.293663e-01 9.186635e-04 0.0
2.297395e-01 1.009697e-03 0.0
2.300564e-01 1.091765e-03 0.0
2.303225e-01 1.165248e-03 0.0
2.305434e-01 1.230272e-03 0.0
2.307247e-01 1.287133e-03 0.0
2.308716e-01 1.335946e-03 0.0
2.309897e-01 1.376500e-03 0.0
2.310850e-01 1.407980e-03 0.0
2.311640e-01 1.428553e-03 0.0
2.312359e-01 1.434548e-03 0.0
2.313125e-01 1.423448e-03 0.0
2.314068e-01 1.393985e-03 0.0
2.315340e-01 1.345034e-03 0.0
2.317123e-01 1.274507e-03 0.0
2.319770e-01 1.154684e-03 0.0
0.000000e+00 1.166934e-03 0.0
0.000000e+00 0.000000e+00 0.0
0.000000e+00 0.000000e+00 0.0
0.000000e+00 0.000000e+00 0.0
0.000000e+00 0.000000e+00 0.0
0.000000e+00 0.000000e+00 0.0
0.000000e+00 0.000000e+00 0.0
0.000000e+00 0.000000e+00 0.0
0.000000e+00 0.000000e+00 0.0
0.000000e+00 0.000000e+00 0.0
0.000000e+00 0.000000e+00 0.0
0.000000e+00 -1.694013e-02 0.0
-8.617848e-03 1.693100e-02 0.0
-2.784508e-02 3.838192e-02 0.0
-5.090556e-02 4.841637e-02 0.0
-7.479356e-02 5.186015e-02 0.0
-9.834623e-02 5.277438e-02 0.0
-1.212305e-01 5.325307e-02 0.0
-1.433438e-01 5.400449e-02 0.0
-1.645379e-01 5.506185e-02 0.0
-1.844976e-01 5.614975e-02 0.0
-2.026196e-01 5.671911e-02 0.0
-2.179863e-01 5.603626e-02 0.0
-2.293324e-01 5.310367e-02 0.0
-2.351271e-01 4.671237e-02 0.0
-2.325540e-01 3.429042e-02 0.0
-2.177725e-01 1.379068e-02 0.0
-1.859003e-01 -1.696510e-02 0.0
-1.381604e-01 -5.390969e-02 0.0
-7.571113e-02 -9.424497e-02 0.0
-1.595988e-03 -1.324356e-01 0.0
7.769301e-02 -1.625511e-01 0.0
1.549209e-01 -1.814897e-01 0.0
2.260890e-01 -1.887620e-01 0.0
2.890578e-01 -1.824592e-01 0.0
3.439685e-01 -1.660140e-01 0.0
3.915070e-01 -1.437511e-01 0.0
4.319780e-01 -1.190764e-01 0.0
4.655321e-01 -9.437198e-02 0.0
4.923796e-01 -7.112372e-02 0.0
5.128503e-01 -5.015479e-02 0.0
5.273844e-01 -3.184752e-02 0.0
5.365230e-01 -1.630605e-02 0.0
5.409226e-01 -3.452615e-03 0.0
5.413788e-01 7.128562e-03 0.0
5.384491e-01 1.562263e-02 0.0
5.326047e-01 2.227930e-02 0.0
5.242857e-01 2.734934e-02 0.0
5.139233e-01 3.105644e-02 0.0
5.019036e-01 3.357829e-02 0.0
4.885422e-01 3.506779e-02 0.0
4.742797e-01 3.555774e-02 0.0
4.595715e-01 3.516312e-02 0.0
4.448187e-01 3.405302e-02 0.0
4.303702e-01 3.237484e-02 0.0
4.165249e-01 3.025490e-02 0.0
4.035311e-01 2.780513e-02 0.0
3.915846e-01 2.512748e-02 0.0
3.808287e-01 2.231541e-02 0.0
3.713550e-01 1.945419e-02 0.0
3.632066e-01 1.662028e-02 0.0
3.563821e-01 1.388062e-02 0.0
3.508418e-01 1.129188e-02 0.0
3.465142e-01 8.899864e-03 0.0
3.433037e-01 6.739423e-03 0.0
3.410976e-01 4.834690e-03 0.0
3.397737e-01 3.199682e-03 0.0
3.392081e-01 1.838941e-03 0.0
3.392816e-01 7.480711e-04 0.0
3.398808e-01 -8.575790e-05 0.0
3.408505e-01 -6.727665e-04 0.0
3.420680e-01 -1.073470e-03 0.0
3.434416e-01 -1.326919e-03 0.0
3.449000e-01 -1.460623e-03 0.0
3.463896e-01 -1.497711e-03 0.0
3.478728e-01 -1.456478e-03 0.0
3.493193e-01 -1.351845e-03 0.0
3.507061e-01 -1.200756e-03 0.0
3.520169e-01 -1.018517e-03 0.0
3.532446e-01 -8.174184e-04 0.0
3.543881e-01 -6.084361e-04 0.0
3.554500e-01 -4.006381e-04 0.0
3.564368e-01 -2.004900e-04 0.0
3.573569e-01 -1.101049e-05 0.0
3.582075e-01 1.731115e-04 0.0
3.589852e-01 3.526359e-04 0.0
3.596892e-01 5.261768e-04 0.0
3.603223e-01 6.881017e-04 0.0
3.608884e-01 8.370784e-04 0.0
3.613916e-01 9.735368e-04 0.0
3.618369e-01 1.096446e-03 0.0
3.622296e-01 1.205898e-03 0.0
3.625754e-01 1.301694e-03 0.0
3.628800e-01 1.383358e-03 0.0
3.631497e-01 1.449763e-03 0.0
3.633911e-01 1.498650e-03 0.0
3.636113e-01 1.525830e-03 0.0
3.638229e-01 1.523275e-03 0.0
3.640427e-01 1.485669e-03 0.0
3.642934e-01 1.405875e-03 0.0
3.646065e-01 1.272803e-03 0.0
3.650222e-01 1.050469e-03 0.0
0.000000e+00 1.062107e-03 0.0
0.000000e+00 0.000000e+00 0.0
0.000000e+00 0.000000e+00 0.0
0.000000e+00 0.000000e+00 0.0
0.000000e+00 0.000000e+00 0.0
0.000000e+00 0.000000e+00 0.0
0.000000e+00 0.000000e+00 0.0
0.000000e+00 0.000000e+00 0.0
0.000000e+00 0.000000e+00 0.0
0.000000e+00 0.000000e+00 0.0
0.000000e+00 0.000000e+00 0.0
0.000000e+00 -2.915102e-02 0.0
-1.102121e-02 2.914621e-02 0.0
-3.289521e-02 6.056740e-02 0.0
-5.698720e-02 7.281984e-02 0.0
-7.999818e-02 7.518260e-02 0.0
-1.008715e-01 7.395914e-02 0.0
-1.192668e-01 7.195986e-02 0.0
-1.349702e-01 7.001942e-02 0.0
-1.476950e-01 6.809808e-02 0.0
-1.570501e-01 6.581639e-02 0.0
-1.623412e-01 6.232170e-02 0.0
-1.625647e-01 5.657114e-02 0.0
-1.559097e-01 4.676023e-02 0.0
-1.406758e-01 3.178988e-02 0.0
-1.117452e-01 5.671301e-03 0.0
-6.458079e-02 -3.306221e-02 0.0
-1.384429e-03 -7.984999e-02 0.0
7.329911e-02 -1.282818e-01 0.0
1.522584e-01 -1.728928e-01 0.0
2.300983e-01 -2.099641e-01 0.0
3.033717e-01 -2.355130e-01 0.0
3.696988e-01 -2.475054e-01 0.0
4.265919e-01 -2.453435e-01 0.0
4.745430e-01 -2.300989e-01 0.0
5.153016e-01 -2.064611e-01 0.0
5.500754e-01 -1.782135e-01 0.0
5.795654e-01 -1.482549e-01 0.0
6.041516e-01 -1.186467e-01 0.0
6.240739e-01 -9.073457e-02 0.0
6.395411e-01 -6.531052e-02 0.0
6.507864e-01 -4.278138e-02 0.0
6.580977e-01 -2.330579e-02 0.0
6.618342e-01 -6.877712e-03 0.0
6.625646e-01 6.709703e-03 0.0
6.606317e-01 1.786695e-02 0.0
6.563118e-01 2.691074e-02 0.0
6.498596e-01 3.411296e-02 0.0
6.415301e-01 3.969745e-02 0.0
6.315737e-01 4.384616e-02 0.0
6.202426e-01 4.671032e-02 0.0
6.077144e-01 4.839743e-02 0.0
5.942536e-01 4.893541e-02 0.0
5.802070e-01 4.841111e-02 0.0
5.659055e-01 4.698783e-02 0.0
5.516642e-01 4.480768e-02 0.0
5.377766e-01 4.200423e-02 0.0
5.245067e-01 3.870883e-02 0.0
5.120815e-01 3.505208e-02 0.0
5.006845e-01 3.116274e-02 0.0
4.904512e-01 2.716499e-02 0.0
4.814682e-01 2.317510e-02 0.0
4.737738e-01 1.929780e-02 0.0
4.673620e-01 1.562310e-02 0.0
4.621890e-01 1.222388e-02 0.0
4.581805e-01 9.154659e-03 0.0
4.552406e-01 6.451107e-03 0.0
4.532611e-01 4.129971e-03 0.0
4.521308e-01 2.189826e-03 0.0
4.517403e-01 6.162265e-04 0.0
4.519701e-01 -5.911199e-04 0.0
4.526442e-01 -1.436105e-03 0.0
4.536257e-01 -1.996927e-03 0.0
4.548074e-01 -2.330826e-03 0.0
4.561055e-01 -2.484339e-03 0.0
4.574644e-01 -2.503916e-03 0.0
4.588427e-01 -2.418663e-03 0.0
4.602086e-01 -2.255163e-03 0.0
4.615392e-01 -2.037664e-03 0.0
4.628201e-01 -1.786788e-03 0.0
4.640425e-01 -1.519346e-03 0.0
4.652015e-01 -1.248149e-03 0.0
4.662943e-01 -9.818404e-04 0.0
4.673196e-01 -7.248991e-04 0.0
4.682827e-01 -4.784799e-04 0.0
4.691919e-01 -2.450553e-04 0.0
4.700565e-01 -2.699315e-05 0.0
4.708754e-01 1.807212e-04 0.0
4.716433e-01 3.806789e-04 0.0
4.723572e-01 5.711351e-04 0.0
4.730183e-01 7.468170e-04 0.0
4.736283e-01 9.073722e-04 0.0
4.741901e-01 1.051389e-03 0.0
4.747073e-01 1.177612e-03 0.0
4.751842e-01 1.284332e-03 0.0
4.756256e-01 1.368772e-03 0.0
4.760366e-01 1.426271e-03 0.0
4.764240e-01 1.447318e-03 0.0
4.768025e-01 1.418684e-03 0.0
4.771940e-01 1.325842e-03 0.0
4.776319e-01 1.146384e-03 0.0
4.781448e-01 8.490713e-04 0.0
0.000000e+00 8.593308e-04 0.0
0.000000e+00 0.000000e+00 0.0
0.000000e+00 0.000000e+00 0.0
0.000000e+00 0.000000e+00 0.0
0.000000e+00 0.000000e+00 0.0
0.000000e+00 0.000000e+00 0.0
0.000000e+00 0.000000e+00 0.0
0.000000e+00 0.000000e+00 0.0
0.000000e+00 0.000000e+00 0.0
0.000000e+00 0.000000e+00 0.0
0.000000e+00 0.000000e+00 0.0
0.000000e+00 -4.193519e-02 0.0
-1.159652e-02 4.193673e-02 0.0
-3.234702e-02 8.162937e-02 0.0
-5.267508e-02 9.345937e-02 0.0
-6.978289e-02 9.260189e-02 0.0
-8.305577e-02 8.754349e-02 0.0
-9.233095e-02 8.154652e-02 0.0
-9.747321e-02 7.547316e-02 0.0
-9.809425e-02 6.903060e-02 0.0
-9.381774e-02 6.185135e-02 0.0
-8.354884e-02 5.236427e-02 0.0
-6.590296e-02 3.923674e-02 0.0
-3.685070e-02 1.801945e-02 0.0
1.059017e-02 -1.533951e-02 0.0
7.404217e-02 -5.746922e-02 0.0
1.477162e-01 -1.064248e-01 0.0
2.263997e-01 -1.582220e-01 0.0
3.055852e-01 -2.071558e-01 0.0
3.812701e-01 -2.482662e-01 0.0
4.498885e-01 -2.782710e-01 0.0
5.095567e-01 -2.948697e-01 0.0
5.594191e-01 -2.970563e-01 0.0
5.992394e-01 -2.848524e-01 0.0
6.317749e-01 -2.623229e-01 0.0
6.588709e-01 -2.332456e-01 0.0
6.817131e-01 -2.007442e-01 0.0
7.009950e-01 -1.672253e-01 0.0
7.170840e-01 -1.344242e-01 0.0
7.301691e-01 -1.035082e-01 0.0
7.403576e-01 -7.518753e-02 0.0
7.477423e-01 -4.985458e-02 0.0
7.524482e-01 -2.770026e-02 0.0
7.546676e-01 -8.785653e-03 0.0
7.547190e-01 6.969830e-03 0.0
7.528174e-01 2.007999e-02 0.0
7.491192e-01 3.092046e-02 0.0
7.437701e-01 3.977353e-02 0.0
7.369198e-01 4.685919e-02 0.0
7.287248e-01 5.235270e-02 0.0
7.193487e-01 5.639783e-02 0.0
7.089457e-01 5.911195e-02 0.0
6.976116e-01 6.058093e-02 0.0
6.855189e-01 6.081533e-02 0.0
6.728988e-01 5.991943e-02 0.0
6.599939e-01 5.802402e-02 0.0
6.470515e-01 5.525817e-02 0.0
6.343139e-01 5.175789e-02 0.0
6.220097e-01 4.766777e-02 0.0
6.103444e-01 4.313954e-02 0.0
5.994925e-01 3.832832e-02 0.0
5.895918e-01 3.338733e-02 0.0
5.807392e-01 2.846187e-02 0.0
5.729906e-01 2.368318e-02 0.0
5.663628e-01 1.916311e-02 0.0
5.608382e-01 1.499077e-02 0.0
5.563702e-01 1.123061e-02 0.0
5.528901e-01 7.921512e-03 0.0
5.503138e-01 5.077633e-03 0.0
5.485474e-01 2.694034e-03 0.0
5.475060e-01 7.617795e-04 0.0
5.471042e-01 -7.228163e-04 0.0
5.471843e-01 -1.765509e-03 0.0
5.476172e-01 -2.452289e-03 0.0
5.482985e-01 -2.854134e-03 0.0
5.491433e-01 -3.037294e-03 0.0
5.500988e-01 -3.062598e-03 0.0
5.511236e-01 -2.968483e-03 0.0
5.521861e-01 -2.788770e-03 0.0
5.532628e-01 -2.552009e-03 0.0
5.543361e-01 -2.281075e-03 0.0
5.553927e-01 -1.993337e-03 0.0
5.564234e-01 -1.701051e-03 0.0
5.574223e-01 -1.412265e-03 0.0
5.583874e-01 -1.132140e-03 0.0
5.593182e-01 -8.643530e-04 0.0
5.602133e-01 -6.106053e-04 0.0
5.610755e-01 -3.700424e-04 0.0
5.619110e-01 -1.433477e-04 0.0
5.627244e-01 6.919815e-05 0.0
5.635107e-01 2.720504e-04 0.0
5.642647e-01 4.648288e-04 0.0
5.649843e-01 6.432327e-04 0.0
5.656689e-01 8.045122e-04 0.0
5.663187e-01 9.460223e-04 0.0
5.669349e-01 1.064045e-03 0.0
5.675194e-01 1.153299e-03 0.0
5.680733e-01 1.204828e-03 0.0
5.686029e-01 1.200594e-03 0.0
5.691214e-01 1.118833e-03 0.0
5.696503e-01 9.289880e-04 0.0
5.701952e-01 6.155852e-04 0.0
0.000000e+00 6.242264e-04 0.0
0.000000e+00 0.000000e+00 0.0
0.000000e+00 0.000000e+00 0.0
0.000000e+00 0.000000e+00 0.0
0.000000e+00 0.000000e+00 0.0
0.000000e+00 0.000000e+00 0.0
0.000000e+00 0.000000e+00 0.0
0.000000e+00 0.000000e+00 0.0
0.000000e+00 0.000000e+00 0.0
0.000000e+00 0.000000e+00 0.0
0.000000e+00 0.000000e+00 0.0
0.000000e+00 -5.475909e-02 0.0
-1.163577e-02 5.476650e-02 0.0
-2.834735e-02 9.865243e-02 0.0
-4.088892e-02 1.063124e-01 0.0
-4.804562e-02 1.000701e-01 0.0
-4.995490e-02 8.976424e-02 0.0
-4.675370e-02 7.865680e-02 0.0
-3.847817e-02 6.750911e-02 0.0
-2.402688e-02 5.489078e-02 0.0
-2.339629e-03 4.047558e-02 0.0
2.961463e-02 2.072149e-02 0.0
7.661095e-02 -7.448101e-03 0.0
1.388187e-01 -4.387680e-02 0.0
2.117202e-01 -8.792954e-02 0.0
2.915877e-01 -1.370252e-01 0.0
3.734301e-01 -1.879557e-01 0.0
4.522678e-01 -2.367483e-01 0.0
5.243919e-01 -2.789683e-01 0.0
5.873820e-01 -3.109448e-01 0.0
6.398329e-01 -3.304104e-01 0.0
6.814807e-01 -3.362060e-01 0.0
7.125332e-01 -3.277974e-01 0.0
7.359493e-01 -3.079570e-01 0.0
7.541220e-01 -2.801841e-01 0.0
7.687383e-01 -2.475504e-01 0.0
7.808765e-01 -2.125709e-01 0.0
7.911453e-01 -1.771827e-01 0.0
7.998281e-01 -1.427954e-01 0.0
8.070222e-01 -1.103908e-01 0.0
8.127134e-01 -8.056723e-02 0.0
8.168475e-01 -5.367725e-02 0.0
8.193881e-01 -2.992939e-02 0.0
8.203583e-01 -9.444390e-03 0.0
8.198569e-01 7.782716e-03 0.0
8.179571e-01 2.229131e-02 0.0
8.147271e-01 3.446192e-02 0.0
8.102430e-01 4.456914e-02 0.0
8.045930e-01 5.282068e-02 0.0
7.978775e-01 5.937960e-02 0.0
7.902071e-01 6.437976e-02 0.0
7.816950e-01 6.793556e-02 0.0
7.724432e-01 7.014422e-02 0.0
7.624992e-01 7.107075e-02 0.0
7.519933e-01 7.073685e-02 0.0
7.410828e-01 6.924596e-02 0.0
7.299423e-01 6.671014e-02 0.0
7.187559e-01 6.325583e-02 0.0
7.077087e-01 5.902641e-02 0.0
6.969789e-01 5.418078e-02 0.0
6.867297e-01 4.888906e-02 0.0
6.771021e-01 4.332638e-02 0.0
6.682100e-01 3.766544e-02 0.0
6.601365e-01 3.206816e-02 0.0
6.529339e-01 2.667718e-02 0.0
6.466254e-01 2.161082e-02 0.0
6.412071e-01 1.696033e-02 0.0
6.366520e-01 1.278816e-02 0.0
6.329125e-01 9.128536e-03 0.0
6.299259e-01 5.992100e-03 0.0
6.276243e-01 3.374948e-03 0.0
6.259474e-01 1.265511e-03 0.0
6.248546e-01 -3.611751e-04 0.0
6.242388e-01 -1.525013e-03 0.0
6.239924e-01 -2.296328e-03 0.0
6.240283e-01 -2.761709e-03 0.0
6.242709e-01 -2.993658e-03 0.0
6.246726e-01 -3.058755e-03 0.0
6.251966e-01 -3.001267e-03 0.0
6.258131e-01 -2.857020e-03 0.0
6.264982e-01 -2.654688e-03 0.0
6.272328e-01 -2.416445e-03 0.0
6.280016e-01 -2.158439e-03 0.0
6.287929e-01 -1.892028e-03 0.0
6.295973e-01 -1.625041e-03 0.0
6.304071e-01 -1.362742e-03 0.0
6.312164e-01 -1.108354e-03 0.0
6.320215e-01 -8.637245e-04 0.0
6.328200e-01 -6.303648e-04 0.0
6.336093e-01 -4.086091e-04 0.0
6.343908e-01 -1.979858e-04 0.0
6.351670e-01 7.216689e-08 0.0
6.359347e-01 1.870293e-04 0.0
6.366882e-01 3.625123e-04 0.0
6.374230e-01 5.227406e-04 0.0
6.381358e-01 6.626999e-04 0.0
6.388238e-01 7.767792e-04 0.0
6.394841e-01 8.560264e-04 0.0
6.401121e-01 8.840769e-04 0.0
6.407081e-01 8.342885e-04 0.0
6.412736e-01 6.749313e-04 0.0
6.417899e-01 4.107673e-04 0.0
0.000000e+00 4.178853e-04 0.0
0.000000e+00 0.000000e+00 0.0
0.000000e+00 0.000000e+00 0.0
0.000000e+00 0.000000e+00 0.0
0.000000e+00 0.000000e+00 0.0
0.000000e+00 0.000000e+00 0.0
0.000000e+00 0.000000e+00 0.0
0.000000e+00 0.000000e+00 0.0
0.000000e+00 0.000000e+00 0.0
0.000000e+00 0.000000e+00 0.0
0.000000e+00 0.000000e+00 0.0
0.000000e+00 -6.844826e-02 0.0
-1.249787e-02 6.845837e-02 0.0
-2.175919e-02 1.082252e-01 0.0
-2.141529e-02 1.062800e-01 0.0
-1.358730e-02 9.255356e-02 0.0
7.578911e-04 7.573053e-02 0.0
2.168636e-02 5.803980e-02 0.0
4.898371e-02 4.052324e-02 0.0
8.533768e-02 1.884829e-02 0.0
1.350225e-01 -8.897741e-03 0.0
1.981324e-01 -4.207693e-02 0.0
2.715323e-01 -8.053657e-02 0.0
3.518758e-01 -1.239088e-01 0.0
4.349393e-01 -1.706815e-01 0.0
5.165197e-01 -2.182941e-01 0.0
5.925471e-01 -2.636717e-01 0.0
6.596250e-01 -3.035146e-01 0.0
7.156453e-01 -3.346771e-01 0.0
7.598124e-01 -3.548005e-01 0.0
7.923287e-01 -3.626152e-01 0.0
8.140028e-01 -3.575686e-01 0.0
8.275588e-01 -3.410419e-01 0.0
8.358458e-01 -3.159325e-01 0.0
8.409853e-01 -2.850121e-01 0.0
8.444482e-01 -2.507018e-01 0.0
8.471485e-01 -2.149597e-01 0.0
8.495664e-01 -1.792891e-01 0.0
8.518721e-01 -1.447896e-01 0.0
8.540753e-01 -1.122825e-01 0.0
8.560454e-01 -8.222591e-02 0.0
8.575916e-01 -5.491196e-02 0.0
8.585239e-01 -3.055022e-02 0.0
8.586974e-01 -9.306380e-03 0.0
8.580064e-01 8.785175e-03 0.0
8.563905e-01 2.421874e-02 0.0
8.538298e-01 3.733402e-02 0.0
8.503360e-01 4.837448e-02 0.0
8.459463e-01 5.752183e-02 0.0
8.407189e-01 6.491854e-02 0.0
8.347267e-01 7.068342e-02 0.0
8.280515e-01 7.492218e-02 0.0
8.207746e-01 7.773260e-02 0.0
8.129571e-01 7.919981e-02 0.0
8.046450e-01 7.936035e-02 0.0
7.959285e-01 7.827397e-02 0.0
7.869215e-01 7.602862e-02 0.0
7.777524e-01 7.273638e-02 0.0
7.685563e-01 6.853396e-02 0.0
7.594687e-01 6.357994e-02 0.0
7.506192e-01 5.804996e-02 0.0
7.421267e-01 5.213039e-02 0.0
7.340930e-01 4.601065e-02 0.0
7.265989e-01 3.987375e-02 0.0
7.197038e-01 3.388376e-02 0.0
7.134467e-01 2.817931e-02 0.0
7.078470e-01 2.287157e-02 0.0
7.029046e-01 1.804205e-02 0.0
6.986022e-01 1.374243e-02 0.0
6.949079e-01 9.997855e-03 0.0
6.917815e-01 6.812853e-03 0.0
6.891823e-01 4.176129e-03 0.0
6.870707e-01 2.061925e-03 0.0
6.854246e-01 4.326078e-04 0.0
6.842029e-01 -7.632267e-04 0.0
6.833350e-01 -1.582323e-03 0.0
6.827554e-01 -2.102492e-03 0.0
6.824067e-01 -2.398590e-03 0.0
6.822481e-01 -2.531255e-03 0.0
6.822503e-01 -2.547754e-03 0.0
6.823880e-01 -2.480858e-03 0.0
6.826399e-01 -2.356849e-03 0.0
6.829879e-01 -2.194973e-03 0.0
6.834164e-01 -2.009059e-03 0.0
6.839117e-01 -1.808889e-03 0.0
6.844617e-01 -1.601245e-03 0.0
6.850557e-01 -1.390871e-03 0.0
6.856847e-01 -1.181231e-03 0.0
6.863407e-01 -9.749100e-04 0.0
6.870172e-01 -7.736037e-04 0.0
6.877093e-01 -5.786172e-04 0.0
6.884121e-01 -3.912331e-04 0.0
6.891225e-01 -2.118862e-04 0.0
6.898389e-01 -4.237377e-05 0.0
6.905573e-01 1.157760e-04 0.0
6.912710e-01 2.604860e-04 0.0
6.919725e-01 3.867045e-04 0.0
6.926542e-01 4.858230e-04 0.0
6.933048e-01 5.450119e-04 0.0
6.939103e-01 5.402635e-04 0.0
6.944523e-01 4.443799e-04 0.0
6.948965e-01 2.780360e-04 0.0
0.000000e+00 2.839012e-04 0.0
0.000000e+00 0.000000e+00 0.0
0.000000e+00 0.000000e+00 0.0
0.000000e+00 0.000000e+00 0.0
0.000000e+00 0.000000e+00 0.0
0.000000e+00 0.000000e+00 0.0
0.000000e+00 0.000000e+00 0.0
0.000000e+00 0.000000e+00 0.0
0.000000e+00 0.000000e+00 0.0
0.000000e+00 0.000000e+00 0.0
0.000000e+00 0.000000e+00 0.0
0.000000e+00 -8.244862e-02 0.0
-1.280512e-02 8.245749e-02 0.0
-5.445804e-03 1.011774e-01 0.0
1.793206e-02 8.321362e-02 0.0
4.960977e-02 6.118733e-02 0.0
8.776366e-02 3.788812e-02 0.0
1.344485e-01 1.166642e-02 0.0
1.929840e-01 -1.770081e-02 0.0
2.616602e-01 -4.951639e-02 0.0
3.375867e-01 -8.451278e-02 0.0
4.184856e-01 -1.226644e-01 0.0
5.015739e-01 -1.633134e-01 0.0
5.834419e-01 -2.054653e-01 0.0
6.605616e-01 -2.474898e-01 0.0
7.297657e-01 -2.871868e-01 0.0
7.885162e-01 -3.221107e-01 0.0
8.351937e-01 -3.498806e-01 0.0
8.693258e-01 -3.684978e-01 0.0
8.914918e-01 -3.766550e-01 0.0
9.029364e-01 -3.737483e-01 0.0
9.060562e-01 -3.603770e-01 0.0
9.039388e-01 -3.386130e-01 0.0
8.989540e-01 -3.106362e-01 0.0
8.928513e-01 -2.785979e-01 0.0
8.868229e-01 -2.443620e-01 0.0
8.815732e-01 -2.093985e-01 0.0
8.774304e-01 -1.748349e-01 0.0
8.744417e-01 -1.414895e-01 0.0
8.725480e-01 -1.100773e-01 0.0
8.715136e-01 -8.088008e-02 0.0
8.710367e-01 -5.412361e-02 0.0
8.708025e-01 -3.000450e-02 0.0
8.705207e-01 -8.713144e-03 0.0
8.699168e-01 9.700606e-03 0.0
8.688180e-01 2.562897e-02 0.0
8.671228e-01 3.934075e-02 0.0
8.647813e-01 5.102739e-02 0.0
8.617832e-01 6.083142e-02 0.0
8.581473e-01 6.886599e-02 0.0
8.539135e-01 7.522865e-02 0.0
8.491361e-01 8.001112e-02 0.0
8.438756e-01 8.330452e-02 0.0
8.381896e-01 8.519726e-02 0.0
8.321040e-01 8.575751e-02 0.0
8.256651e-01 8.502433e-02 0.0
8.189419e-01 8.306325e-02 0.0
8.120177e-01 7.997212e-02 0.0
8.049837e-01 7.587946e-02 0.0
7.979346e-01 7.094048e-02 0.0
7.909643e-01 6.533173e-02 0.0
7.841617e-01 5.924451e-02 0.0
7.776061e-01 5.287768e-02 0.0
7.713617e-01 4.642968e-02 0.0
7.654775e-01 4.007937e-02 0.0
7.599917e-01 3.397669e-02 0.0
7.549293e-01 2.824540e-02 0.0
7.503029e-01 2.297990e-02 0.0
7.461127e-01 1.824417e-02 0.0
7.423482e-01 1.407378e-02 0.0
7.389925e-01 1.048009e-02 0.0
7.360258e-01 7.454238e-03 0.0
7.334290e-01 4.970226e-03 0.0
7.311857e-01 2.987358e-03 0.0
7.292798e-01 1.454177e-03 0.0
7.277004e-01 3.086174e-04 0.0
7.264238e-01 -5.145057e-04 0.0
7.254132e-01 -1.076450e-03 0.0
7.246316e-01 -1.438218e-03 0.0
7.240477e-01 -1.652309e-03 0.0
7.236394e-01 -1.761158e-03 0.0
7.233885e-01 -1.794453e-03 0.0
7.232781e-01 -1.773101e-03 0.0
7.232928e-01 -1.712243e-03 0.0
7.234181e-01 -1.622760e-03 0.0
7.236406e-01 -1.512204e-03 0.0
7.239473e-01 -1.386091e-03 0.0
7.243264e-01 -1.248842e-03 0.0
7.247670e-01 -1.104012e-03 0.0
7.252592e-01 -9.543954e-04 0.0
7.257944e-01 -8.022877e-04 0.0
7.263642e-01 -6.496232e-04 0.0
7.269619e-01 -4.980582e-04 0.0
7.275805e-01 -3.495426e-04 0.0
7.282136e-01 -2.058092e-04 0.0
7.288549e-01 -6.931069e-05 0.0
7.294969e-01 5.618734e-05 0.0
7.301283e-01 1.658938e-04 0.0
7.307337e-01 2.510563e-04 0.0
7.312892e-01 2.962611e-04 0.0
7.317625e-01 2.825821e-04 0.0
7.321166e-01 2.354386e-04 0.0
0.000000e+00 2.403821e-04 0.0
0.000000e+00 0.000000e+00 0.0
0.000000e+00 0.000000e+00 0.0
0.000000e+00 0.000000e+00 0.0
0.000000e+00 0.000000e+00 0.0
0.000000e+00 0.000000e+00 0.0
0.000000e+00 0.000000e+00 0.0
0.000000e+00 0.000000e+00 0.0
0.000000e+00 0.000000e+00 0.0
0.000000e+00 0.000000e+00 0.0
0.000000e+00 0.000000e+00 0.0
0.000000e+00 -7.797830e-02 0.0
5.668208e-03 7.798328e-02 0.0
5.313665e-02 5.402041e-02 0.0
1.147521e-01 2.190968e-02 0.0
1.849080e-01 -8.657163e-03 0.0
2.614007e-01 -3.829309e-02 0.0
3.412509e-01 -6.787224e-02 0.0
4.229321e-01 -9.907056e-02 0.0
5.055761e-01 -1.318489e-01 0.0
5.874969e-01 -1.661221e-01 0.0
6.666270e-01 -2.014830e-01 0.0
7.407486e-01 -2.371235e-01 0.0