# vtk DataFile Version 3.0
Vector Field
ASCII
DATASET RECTILINEAR_GRID
DIMENSIONS 102 22 1
X_COORDINATES 102 double
0.000000 0.100000 0.200000 0.300000 0.400000 0.500000 0.600000 0.700000 0.800000 0.900000 1.000000 1.100000 1.200000 1.300000 1.400000 1.500000 1.600000 1.700000 1.800000 1.900000 2.000000 2.100000 2.200000 2.300000 2.400000 2.500000 2.600000 2.700000 2.800000 2.900000 3.000000 3.100000 3.200000 3.300000 3.400000 3.500000 3.600000 3.700000 3.800000 3.900000 4.000000 4.100000 4.200000 4.300000 4.400000 4.500000 4.600000 4.700000 4.800000 4.900000 5.000000 5.100000 5.200000 5.300000 5.400000 5.500000 5.600000 5.700000 5.800000 5.900000 6.000000 6.100000 6.200000 6.300000 6.400000 6.500000 6.600000 6.700000 6.800000 6.900000 7.000000 7.100000 7.200000 7.300000 7.400000 7.500000 7.600000 7.700000 7.800000 7.900000 8.000000 8.100000 8.200000 8.300000 8.400000 8.500000 8.600000 8.700000 8.800000 8.900000 9.000000 9.100000 9.200000 9.300000 9.400000 9.500000 9.600000 9.700000 9.800000 9.900000 10.000000 10.100000 
Y_COORDINATES 22 double
0.000000 0.100000 0.200000 0.300000 0.400000 0.500000 0.600000 0.700000 0.800000 0.900000 1.000000 1.100000 1.200000 1.300000 1.400000 1.500000 1.600000 1.700000 1.800000 1.900000 2.000000 2.100000 
Z_COORDINATES 1 double
0.0
POINT_DATA 2244
VECTORS Velocity double
0.000000e+00 0.000000e+00 0.0
-0.000000e+00 0.000000e+00 0.0
-0.000000e+00 0.000000e+00 0.0
-0.000000e+00 0.000000e+00 0.0
-0.000000e+00 0.000000e+00 0.0
-0.000000e+00 0.000000e+00 0.0
-0.000000e+00 0.000000e+00 0.0
-0.000000e+00 0.000000e+00 0.0
-0.000000e+00 0.000000e+00 0.0
-0.000000e+00 0.000000e+00 0.0
-0.000000e+00 0.000000e+00 0.0
-1.117192e-03 0.000000e+00 0.0
3.616919e-03 0.000000e+00 0.0
1.056568e-02 0.000000e+00 0.0
1.841870e-02 0.000000e+00 0.0
2.675100e-02 0.000000e+00 0.0
3.561886e-02 0.000000e+00 0.0
4.526480e-02 0.000000e+00 0.0
5.599093e-02 0.000000e+00 0.0
6.811326e-02 0.000000e+00 0.0
8.192174e-02 0.000000e+00 0.0
9.761187e-02 0.000000e+00 0.0
1.151569e-01 0.000000e+00 0.0
1.341355e-01 0.000000e+00 0.0
1.535471e-01 0.000000e+00 0.0
1.716191e-01 0.000000e+00 0.0
1.857997e-01 0.000000e+00 0.0
1.927953e-01 0.000000e+00 0.0
1.890933e-01 0.000000e+00 0.0
1.726717e-01 0.000000e+00 0.0
1.432083e-01 0.000000e+00 0.0
1.029432e-01 0.000000e+00 0.0
5.582436e-02 0.000000e+00 0.0
5.370435e-03 0.000000e+00 0.0
-4.103647e-02 0.000000e+00 0.0
-7.876115e-02 0.000000e+00 0.0
-1.069739e-01 0.000000e+00 0.0
-1.263753e-01 0.000000e+00 0.0
-1.382979e-01 0.000000e+00 0.0
-1.442817e-01 0.000000e+00 0.0
-1.458030e-01 0.000000e+00 0.0
-1.436593e-01 0.000000e+00 0.0
-1.389291e-01 0.000000e+00 0.0
-1.326506e-01 0.000000e+00 0.0
-1.256705e-01 0.000000e+00 0.0
-1.186390e-01 0.000000e+00 0.0
-1.119660e-01 0.000000e+00 0.0
-1.058837e-01 0.000000e+00 0.0
-1.005013e-01 0.000000e+00 0.0
-9.585280e-02 0.000000e+00 0.0
-9.192879e-02 0.000000e+00 0.0
-8.869550e-02 0.000000e+00 0.0
-8.610490e-02 0.000000e+00 0.0
-8.410037e-02 0.000000e+00 0.0
-8.261983e-02 0.000000e+00 0.0
-8.159806e-02 0.000000e+00 0.0
-8.096867e-02 0.000000e+00 0.0
-8.066588e-02 0.000000e+00 0.0
-8.062636e-02 0.000000e+00 0.0
-8.079071e-02 0.000000e+00 0.0
-8.110473e-02 0.000000e+00 0.0
-8.152048e-02 0.000000e+00 0.0
-8.199762e-02 0.000000e+00 0.0
-8.250591e-02 0.000000e+00 0.0
-8.302627e-02 0.000000e+00 0.0
-8.354580e-02 0.000000e+00 0.0
-8.405279e-02 0.000000e+00 0.0
-8.453721e-02 0.000000e+00 0.0
-8.499126e-02 0.000000e+00 0.0
-8.540942e-02 0.000000e+00 0.0
-8.578824e-02 0.000000e+00 0.0
-8.612604e-02 0.000000e+00 0.0
-8.642291e-02 0.000000e+00 0.0
-8.668046e-02 0.000000e+00 0.0
-8.690110e-02 0.000000e+00 0.0
-8.708757e-02 0.000000e+00 0.0
-8.724289e-02 0.000000e+00 0.0
-8.737023e-02 0.000000e+00 0.0
-8.747266e-02 0.000000e+00 0.0
-8.755312e-02 0.000000e+00 0.0
-8.761434e-02 0.000000e+00 0.0
-8.765879e-02 0.000000e+00 0.0
-8.768869e-02 0.000000e+00 0.0
-8.770603e-02 0.000000e+00 0.0
-8.771255e-02 0.000000e+00 0.0
-8.770977e-02 0.000000e+00 0.0
-8.769909e-02 0.000000e+00 0.0
-8.768175e-02 0.000000e+00 0.0
-8.765896e-02 0.000000e+00 0.0
-8.763204e-02 0.000000e+00 0.0
-8.760262e-02 0.000000e+00 0.0
-8.757301e-02 0.000000e+00 0.0
-8.754588e-02 0.000000e+00 0.0
-8.752443e-02 0.000000e+00 0.0
-8.751265e-02 0.000000e+00 0.0
-8.751544e-02 0.000000e+00 0.0
-8.753830e-02 0.000000e+00 0.0
-8.758621e-02 0.000000e+00 0.0
-8.766145e-02 0.000000e+00 0.0
-8.776370e-02 0.000000e+00 0.0
-8.776370e-02 0.000000e+00 0.0
0.000000e+00 0.000000e+00 0.0
0.000000e+00 0.000000e+00 0.0
0.000000e+00 0.000000e+00 0.0
0.000000e+00 0.000000e+00 0.0
0.000000e+00 0.000000e+00 0.0
0.000000e+00 0.000000e+00 0.0
0.000000e+00 0.000000e+00 0.0
0.000000e+00 0.000000e+00 0.0
0.000000e+00 0.000000e+00 0.0
0.000000e+00 0.000000e+00 0.0
0.000000e+00 0.000000e+00 0.0
0.000000e+00 -2.456976e-03 0.0
1.098398e-03 2.439338e-03 0.0
-3.630162e-03 6.762759e-03 0.0
-1.057071e-02 8.974748e-03 0.0
-1.841419e-02 9.877671e-03 0.0
-2.673535e-02 1.035536e-02 0.0
-3.558971e-02 1.088856e-02 0.0
-4.521883e-02 1.166332e-02 0.0
-5.592380e-02 1.273916e-02 0.0
-6.801958e-02 1.412998e-02 0.0
-8.179533e-02 1.580995e-02 0.0
-9.744659e-02 1.768546e-02 0.0
-1.149485e-01 1.953606e-02 0.0
-1.338842e-01 2.096998e-02 0.0
-1.532622e-01 2.141209e-02 0.0
-1.713250e-01 2.009701e-02 0.0
-1.855356e-01 1.624483e-02 0.0
-1.926083e-01 9.106872e-03 0.0
-1.890416e-01 -1.532532e-03 0.0
-1.727987e-01 -1.420869e-02 0.0
-1.435314e-01 -2.723309e-02 0.0
-1.034452e-01 -3.805197e-02 0.0
-5.647614e-02 -4.493491e-02 0.0
-6.057772e-03 -4.838418e-02 0.0
4.045636e-02 -4.447995e-02 0.0
7.835242e-02 -3.586187e-02 0.0
1.067573e-01 -2.637067e-02 0.0
1.263455e-01 -1.755405e-02 0.0
1.384342e-01 -1.005454e-02 0.0
1.445556e-01 -4.087150e-03 0.0
1.461849e-01 4.048423e-04 0.0
1.441342e-01 4.084913e-03 0.0
1.394629e-01 6.705418e-03 0.0
1.332086e-01 8.288493e-03 0.0
1.262201e-01 9.022631e-03 0.0
1.191533e-01 9.101013e-03 0.0
1.124261e-01 8.761418e-03 0.0
1.062785e-01 8.181701e-03 0.0
1.008253e-01 7.487374e-03 0.0
9.610415e-02 6.755361e-03 0.0
9.210815e-02 6.030165e-03 0.0
8.880532e-02 5.337002e-03 0.0
8.614902e-02 4.690464e-03 0.0
8.408376e-02 4.099431e-03 0.0
8.254842e-02 3.569500e-03 0.0
8.147857e-02 3.104020e-03 0.0
8.080829e-02 2.704434e-03 0.0
8.047209e-02 2.370371e-03 0.0
8.040653e-02 2.099719e-03 0.0
8.055187e-02 1.888817e-03 0.0
8.085330e-02 1.732731e-03 0.0
8.126199e-02 1.625463e-03 0.0
8.173648e-02 1.559665e-03 0.0
8.224509e-02 1.525549e-03 0.0
8.276768e-02 1.511565e-03 0.0
8.329108e-02 1.510752e-03 0.0
8.380362e-02 1.521612e-03 0.0
8.429489e-02 1.542878e-03 0.0
8.475671e-02 1.572334e-03 0.0
8.518322e-02 1.607638e-03 0.0
8.557065e-02 1.646717e-03 0.0
8.591705e-02 1.687750e-03 0.0
8.622216e-02 1.729039e-03 0.0
8.648732e-02 1.768979e-03 0.0
8.671491e-02 1.806558e-03 0.0
8.690766e-02 1.841396e-03 0.0
8.706857e-02 1.873234e-03 0.0
8.720081e-02 1.901903e-03 0.0
8.730751e-02 1.927444e-03 0.0
8.739164e-02 1.950007e-03 0.0
8.745599e-02 1.969792e-03 0.0
8.750309e-02 1.987040e-03 0.0
8.753522e-02 2.002009e-03 0.0
8.755440e-02 2.014951e-03 0.0
8.756244e-02 2.026101e-03 0.0
8.756091e-02 2.035669e-03 0.0
8.755122e-02 2.043827e-03 0.0
8.753465e-02 2.050698e-03 0.0
8.751246e-02 2.056333e-03 0.0
8.748594e-02 2.060651e-03 0.0
8.745675e-02 2.063328e-03 0.0
8.742718e-02 2.063702e-03 0.0
8.739993e-02 2.061388e-03 0.0
8.737819e-02 2.055866e-03 0.0
8.736596e-02 2.046367e-03 0.0
8.736809e-02 2.032000e-03 0.0
8.739008e-02 2.012150e-03 0.0
8.743689e-02 1.987318e-03 0.0
8.751084e-02 1.960180e-03 0.0
8.761170e-02 1.933282e-03 0.0
8.776370e-02 1.882124e-03 0.0
0.000000e+00 1.901147e-03 0.0
0.000000e+00 0.000000e+00 0.0
0.000000e+00 0.000000e+00 0.0
0.000000e+00 0.000000e+00 0.0
0.000000e+00 0.000000e+00 0.0
0.000000e+00 0.000000e+00 0.0
0.000000e+00 0.000000e+00 0.0
0.000000e+00 0.000000e+00 0.0
0.000000e+00 0.000000e+00 0.0
0.000000e+00 0.000000e+00 0.0
0.000000e+00 0.000000e+00 0.0
0.000000e+00 -7.913316e-03 0.0
-3.420006e-03 7.893542e-03 0.0
-1.649713e-02 2.037054e-02 0.0
-3.389073e-02 2.689901e-02 0.0
-5.312202e-02 2.963962e-02 0.0
-7.316430e-02 3.092830e-02 0.0
-9.383211e-02 3.208703e-02 0.0
-1.152545e-01 3.361638e-02 0.0
-1.375886e-01 3.560395e-02 0.0
-1.608678e-01 3.793981e-02 0.0
-1.848844e-01 4.035722e-02 0.0
-2.090925e-01 4.242415e-02 0.0
-2.324594e-01 4.343365e-02 0.0
-2.533006e-01 4.234180e-02 0.0
-2.691173e-01 3.775950e-02 0.0
-2.770517e-01 2.856206e-02 0.0
-2.737064e-01 1.343020e-02 0.0
-2.544564e-01 -9.612496e-03 0.0
-2.185671e-01 -3.689113e-02 0.0
-1.677253e-01 -6.451982e-02 0.0
-1.043705e-01 -9.005727e-02 0.0
-3.161927e-02 -1.102726e-01 0.0
4.494927e-02 -1.209728e-01 0.0
1.152994e-01 -1.182037e-01 0.0
1.767392e-01 -1.053890e-01 0.0
2.286415e-01 -8.723355e-02 0.0
2.703348e-01 -6.753331e-02 0.0
3.019242e-01 -4.861283e-02 0.0
3.241087e-01 -3.170835e-02 0.0
3.379180e-01 -1.736580e-02 0.0
3.445187e-01 -5.665183e-03 0.0
3.454793e-01 3.654913e-03 0.0
3.418507e-01 1.086472e-02 0.0
3.347148e-01 1.595504e-02 0.0
3.250900e-01 1.917805e-02 0.0
3.138778e-01 2.084387e-02 0.0
3.020322e-01 2.113766e-02 0.0
2.902981e-01 2.044648e-02 0.0
2.791934e-01 1.912275e-02 0.0
2.690624e-01 1.741700e-02 0.0
2.601129e-01 1.551030e-02 0.0
2.524468e-01 1.353379e-02 0.0
2.460850e-01 1.158287e-02 0.0
2.409883e-01 9.726757e-03 0.0
2.370739e-01 8.014603e-03 0.0
2.342291e-01 6.479433e-03 0.0
2.323234e-01 5.140787e-03 0.0
2.312177e-01 4.006751e-03 0.0
2.307722e-01 3.075840e-03 0.0
2.308527e-01 2.338942e-03 0.0
2.313347e-01 1.781383e-03 0.0
2.321061e-01 1.384763e-03 0.0
2.330690e-01 1.127371e-03 0.0
2.341445e-01 9.807211e-04 0.0
2.352792e-01 9.075622e-04 0.0
2.364363e-01 8.842805e-04 0.0
2.375894e-01 8.991405e-04 0.0
2.387144e-01 9.485041e-04 0.0
2.397923e-01 1.025094e-03 0.0
2.408091e-01 1.121529e-03 0.0
2.417550e-01 1.231383e-03 0.0
2.426243e-01 1.349142e-03 0.0
2.434141e-01 1.469875e-03 0.0
2.441253e-01 1.588459e-03 0.0
2.447611e-01 1.701395e-03 0.0
2.453256e-01 1.807538e-03 0.0
2.458236e-01 1.905826e-03 0.0
2.462608e-01 1.995348e-03 0.0
2.466429e-01 2.076014e-03 0.0
2.469755e-01 2.148091e-03 0.0
2.472639e-01 2.211991e-03 0.0
2.475133e-01 2.268308e-03 0.0
2.477282e-01 2.317713e-03 0.0
2.479130e-01 2.360884e-03 0.0
2.480712e-01 2.398480e-03 0.0
2.482064e-01 2.431097e-03 0.0
2.483217e-01 2.459238e-03 0.0
2.484197e-01 2.483274e-03 0.0
2.485033e-01 2.503403e-03 0.0
2.485750e-01 2.519569e-03 0.0
2.486377e-01 2.531319e-03 0.0
2.486945e-01 2.537518e-03 0.0
2.487504e-01 2.536105e-03 0.0
2.488113e-01 2.525629e-03 0.0
2.488845e-01 2.503842e-03 0.0
2.489794e-01 2.467712e-03 0.0
2.491083e-01 2.413940e-03 0.0
2.492860e-01 2.340280e-03 0.0
2.495294e-01 2.247428e-03 0.0
2.498579e-01 2.135423e-03 0.0
2.503214e-01 1.949234e-03 0.0
0.000000e+00 1.968133e-03 0.0
0.000000e+00 0.000000e+00 0.0
0.000000e+00 0.000000e+00 0.0
0.000000e+00 0.000000e+00 0.0
0.000000e+00 0.000000e+00 0.0
0.000000e+00 0.000000e+00 0.0
0.000000e+00 0.000000e+00 0.0
0.000000e+00 0.000000e+00 0.0
0.000000e+00 0.000000e+00 0.0
0.000000e+00 0.000000e+00 0.0
0.000000e+00 0.000000e+00 0.0
0.000000e+00 -1.775119e-02 0.0
-7.799239e-03 1.772698e-02 0.0
-2.713026e-02 4.023222e-02 0.0
-5.055749e-02 5.085690e-02 0.0
-7.493518e-02 5.454797e-02 0.0
-9.896811e-02 5.549189e-02 0.0
-1.222361e-01 5.588567e-02 0.0
-1.445873e-01 5.649821e-02 0.0
-1.658513e-01 5.739863e-02 0.0
-1.856966e-01 5.831578e-02 0.0
-2.035086e-01 5.869989e-02 0.0
-2.184028e-01 5.784898e-02 0.0
-2.291693e-01 5.473082e-02 0.0
-2.342771e-01 4.798026e-02 0.0
-2.307511e-01 3.476422e-02 0.0
-2.145613e-01 1.290289e-02 0.0
-1.810217e-01 -1.957870e-02 0.0
-1.314757e-01 -5.862791e-02 0.0
-6.730212e-02 -1.005340e-01 0.0
7.991828e-03 -1.392831e-01 0.0
8.681679e-02 -1.683516e-01 0.0
1.622006e-01 -1.851257e-01 0.0
2.301516e-01 -1.883931e-01 0.0
2.894116e-01 -1.769331e-01 0.0
3.405427e-01 -1.559894e-01 0.0
3.839275e-01 -1.300877e-01 0.0
4.196131e-01 -1.026883e-01 0.0
4.476744e-01 -7.614345e-02 0.0
4.683876e-01 -5.189087e-02 0.0
4.822478e-01 -3.069539e-02 0.0
4.899546e-01 -1.284130e-02 0.0
4.924266e-01 1.713511e-03 0.0
4.906209e-01 1.320115e-02 0.0
4.853026e-01 2.180398e-02 0.0
4.771871e-01 2.782422e-02 0.0
4.669664e-01 3.159518e-02 0.0
4.552165e-01 3.341820e-02 0.0
4.427179e-01 3.347574e-02 0.0
4.301474e-01 3.222391e-02 0.0
4.180444e-01 3.005066e-02 0.0
4.068183e-01 2.726700e-02 0.0
3.967578e-01 2.412497e-02 0.0
3.880409e-01 2.083042e-02 0.0
3.807487e-01 1.754965e-02 0.0
3.748809e-01 1.441303e-02 0.0
3.703733e-01 1.151769e-02 0.0
3.671147e-01 8.930054e-03 0.0
3.649631e-01 6.688935e-03 0.0
3.637604e-01 4.809189e-03 0.0
3.633439e-01 3.286119e-03 0.0
3.635555e-01 2.100428e-03 0.0
3.642475e-01 1.223394e-03 0.0
3.652848e-01 6.207903e-04 0.0
3.665469e-01 2.492826e-04 0.0
3.679523e-01 3.277893e-05 0.0
3.694374e-01 -7.021146e-05 0.0
3.709558e-01 -8.857861e-05 0.0
3.724730e-01 -3.809268e-05 0.0
3.739610e-01 6.774946e-05 0.0
3.753984e-01 2.147650e-04 0.0
3.767703e-01 3.901352e-04 0.0
3.780666e-01 5.835738e-04 0.0
3.792797e-01 7.873409e-04 0.0
3.804062e-01 9.926575e-04 0.0
3.814471e-01 1.191169e-03 0.0
3.824038e-01 1.381399e-03 0.0
3.832793e-01 1.560979e-03 0.0
3.840785e-01 1.726807e-03 0.0
3.848069e-01 1.878285e-03 0.0
3.854701e-01 2.015526e-03 0.0
3.860740e-01 2.138728e-03 0.0
3.866243e-01 2.248629e-03 0.0
3.871265e-01 2.346190e-03 0.0
3.875856e-01 2.432419e-03 0.0
3.880064e-01 2.508363e-03 0.0
3.883931e-01 2.575015e-03 0.0
3.887498e-01 2.633229e-03 0.0
3.890800e-01 2.683683e-03 0.0
3.893872e-01 2.726799e-03 0.0
3.896748e-01 2.762659e-03 0.0
3.899459e-01 2.790893e-03 0.0
3.902036e-01 2.810454e-03 0.0
3.904517e-01 2.818609e-03 0.0
3.906964e-01 2.811538e-03 0.0
3.909454e-01 2.785560e-03 0.0
3.912086e-01 2.735100e-03 0.0
3.915005e-01 2.652739e-03 0.0
3.918415e-01 2.529862e-03 0.0
3.922618e-01 2.357752e-03 0.0
3.928035e-01 2.124396e-03 0.0
3.935143e-01 1.769082e-03 0.0
0.000000e+00 1.785383e-03 0.0
0.000000e+00 0.000000e+00 0.0
0.000000e+00 0.000000e+00 0.0
0.000000e+00 0.000000e+00 0.0
0.000000e+00 0.000000e+00 0.0
0.000000e+00 0.000000e+00 0.0
0.000000e+00 0.000000e+00 0.0
0.000000e+00 0.000000e+00 0.0
0.000000e+00 0.000000e+00 0.0
0.000000e+00 0.000000e+00 0.0
0.000000e+00 0.000000e+00 0.0
0.000000e+00 -2.978754e-02 0.0
-1.000352e-02 2.976470e-02 0.0
-3.153996e-02 6.229932e-02 0.0
-5.543485e-02 7.528245e-02 0.0
-7.832419e-02 7.796796e-02 0.0
-9.904003e-02 7.673839e-02 0.0
-1.171600e-01 7.453626e-02 0.0
-1.324430e-01 7.231190e-02 0.0
-1.446168e-01 7.010314e-02 0.0
-1.533164e-01 6.754604e-02 0.0
-1.578461e-01 6.376025e-02 0.0
-1.572522e-01 5.778569e-02 0.0
-1.498731e-01 4.788243e-02 0.0
-1.340916e-01 3.272942e-02 0.0
-1.045113e-01 5.714496e-03 0.0
-5.653145e-02 -3.454627e-02 0.0
7.369705e-03 -8.294920e-02 0.0
8.178718e-02 -1.325147e-01 0.0
1.597129e-01 -1.779291e-01 0.0
2.357480e-01 -2.147876e-01 0.0
3.066574e-01 -2.387303e-01 0.0
3.698207e-01 -2.477585e-01 0.0
4.225881e-01 -2.406298e-01 0.0
4.668086e-01 -2.206230e-01 0.0
5.039586e-01 -1.926088e-01 0.0
5.349347e-01 -1.605331e-01 0.0
5.601860e-01 -1.274089e-01 0.0
5.799563e-01 -9.538313e-02 0.0
5.944739e-01 -6.587784e-02 0.0
6.040567e-01 -3.974754e-02 0.0
6.091603e-01 -1.741418e-02 0.0
6.103728e-01 1.031604e-03 0.0
6.083499e-01 1.575471e-02 0.0
6.035749e-01 2.710969e-02 0.0
5.964853e-01 3.544448e-02 0.0
5.875138e-01 4.109731e-02 0.0
5.770789e-01 4.438376e-02 0.0
5.655396e-01 4.554570e-02 0.0
5.534594e-01 4.483476e-02 0.0
5.413441e-01 4.269657e-02 0.0
5.296376e-01 3.950415e-02 0.0
5.187062e-01 3.558707e-02 0.0
5.088284e-01 3.123883e-02 0.0
5.001925e-01 2.671626e-02 0.0
4.928997e-01 2.223650e-02 0.0
4.869736e-01 1.797441e-02 0.0
4.823729e-01 1.406145e-02 0.0
4.790059e-01 1.058654e-02 0.0
4.767466e-01 7.599139e-03 0.0
4.754489e-01 5.114419e-03 0.0
4.749601e-01 3.119880e-03 0.0
4.751314e-01 1.582765e-03 0.0
4.758259e-01 4.569432e-04 0.0
4.769175e-01 -3.116942e-04 0.0
4.782734e-01 -7.924077e-04 0.0
4.797912e-01 -1.057430e-03 0.0
4.813941e-01 -1.160815e-03 0.0
4.830333e-01 -1.146648e-03 0.0
4.846737e-01 -1.041946e-03 0.0
4.862905e-01 -8.714178e-04 0.0
4.878680e-01 -6.566655e-04 0.0
4.893976e-01 -4.154526e-04 0.0
4.908772e-01 -1.615397e-04 0.0
4.923020e-01 9.848821e-05 0.0
4.936614e-01 3.623786e-04 0.0
4.949497e-01 6.237279e-04 0.0
4.961637e-01 8.776018e-04 0.0
4.973050e-01 1.116168e-03 0.0
4.983760e-01 1.337981e-03 0.0
4.993794e-01 1.542780e-03 0.0
5.003193e-01 1.729408e-03 0.0
5.012004e-01 1.898255e-03 0.0
5.020270e-01 2.050239e-03 0.0
5.028037e-01 2.186306e-03 0.0
5.035351e-01 2.307653e-03 0.0
5.042252e-01 2.415500e-03 0.0
5.048782e-01 2.510934e-03 0.0
5.054976e-01 2.594872e-03 0.0
5.060871e-01 2.667959e-03 0.0
5.066500e-01 2.730448e-03 0.0
5.071894e-01 2.782088e-03 0.0
5.077086e-01 2.821942e-03 0.0
5.082099e-01 2.847925e-03 0.0
5.086972e-01 2.854847e-03 0.0
5.091767e-01 2.836697e-03 0.0
5.096567e-01 2.785809e-03 0.0
5.101494e-01 2.690689e-03 0.0
5.106746e-01 2.535266e-03 0.0
5.112652e-01 2.297791e-03 0.0
5.119713e-01 1.948891e-03 0.0
5.128236e-01 1.447472e-03 0.0
0.000000e+00 1.460248e-03 0.0
0.000000e+00 0.000000e+00 0.0
0.000000e+00 0.000000e+00 0.0
0.000000e+00 0.000000e+00 0.0
0.000000e+00 0.000000e+00 0.0
0.000000e+00 0.000000e+00 0.0
0.000000e+00 0.000000e+00 0.0
0.000000e+00 0.000000e+00 0.0
0.000000e+00 0.000000e+00 0.0
0.000000e+00 0.000000e+00 0.0
0.000000e+00 0.000000e+00 0.0
0.000000e+00 -4.213540e-02 0.0
-1.032448e-02 4.212338e-02 0.0
-3.024625e-02 8.275174e-02 0.0
-4.980790e-02 9.537477e-02 0.0
-6.619186e-02 9.488258e-02 0.0
-7.874381e-02 8.982100e-02 0.0
-8.723671e-02 8.355981e-02 0.0
-9.152894e-02 7.713478e-02 0.0
-9.129178e-02 7.039664e-02 0.0
-8.622813e-02 6.301305e-02 0.0
-7.520989e-02 5.327268e-02 0.0
-5.686075e-02 3.996721e-02 0.0
-2.732444e-02 1.887678e-02 0.0
2.051388e-02 -1.457824e-02 0.0
8.377371e-02 -5.701468e-02 0.0
1.567809e-01 -1.070228e-01 0.0
2.343636e-01 -1.600012e-01 0.0
3.121121e-01 -2.097326e-01 0.0
3.858022e-01 -2.510885e-01 0.0
4.519243e-01 -2.803790e-01 0.0
5.087079e-01 -2.949833e-01 0.0
5.550301e-01 -2.935500e-01 0.0
5.919497e-01 -2.770187e-01 0.0
6.218595e-01 -2.500021e-01 0.0
6.463200e-01 -2.165386e-01 0.0
6.662531e-01 -1.799355e-01 0.0
6.821371e-01 -1.427622e-01 0.0
6.942068e-01 -1.069222e-01 0.0
7.026212e-01 -7.376157e-02 0.0
7.075815e-01 -4.417720e-02 0.0
7.093989e-01 -1.870092e-02 0.0
7.085008e-01 2.460385e-03 0.0
7.052850e-01 1.950113e-02 0.0
7.000507e-01 3.287462e-02 0.0
6.930710e-01 4.295484e-02 0.0
6.846222e-01 5.007676e-02 0.0
6.749832e-01 5.455340e-02 0.0
6.643901e-01 5.666944e-02 0.0
6.531400e-01 5.661560e-02 0.0
6.416061e-01 5.476108e-02 0.0
6.301626e-01 5.147831e-02 0.0
6.191518e-01 4.712851e-02 0.0
6.088648e-01 4.205652e-02 0.0
5.995293e-01 3.658235e-02 0.0
5.913047e-01 3.099176e-02 0.0
5.842816e-01 2.552822e-02 0.0
5.784867e-01 2.038695e-02 0.0
5.738920e-01 1.571189e-02 0.0
5.704257e-01 1.159611e-02 0.0
5.679852e-01 8.085581e-03 0.0
5.664500e-01 5.185690e-03 0.0
5.656943e-01 2.869130e-03 0.0
5.655974e-01 1.084504e-03 0.0
5.660479e-01 -2.315949e-04 0.0
5.669059e-01 -1.119713e-03 0.0
5.680501e-01 -1.670973e-03 0.0
5.693838e-01 -1.963929e-03 0.0
5.708354e-01 -2.067555e-03 0.0
5.723585e-01 -2.034438e-03 0.0
5.739184e-01 -1.900627e-03 0.0
5.754888e-01 -1.696401e-03 0.0
5.770499e-01 -1.445939e-03 0.0
5.785864e-01 -1.167335e-03 0.0
5.800884e-01 -8.729364e-04 0.0
5.815539e-01 -5.724427e-04 0.0
5.829834e-01 -2.751040e-04 0.0
5.843787e-01 1.291438e-05 0.0
5.857326e-01 2.929169e-04 0.0
5.870386e-01 5.626276e-04 0.0
5.882928e-01 8.192106e-04 0.0
5.894952e-01 1.057665e-03 0.0
5.906468e-01 1.277288e-03 0.0
5.917491e-01 1.478567e-03 0.0
5.928046e-01 1.661520e-03 0.0
5.938158e-01 1.827035e-03 0.0
5.947857e-01 1.976247e-03 0.0
5.957171e-01 2.110158e-03 0.0
5.966129e-01 2.229718e-03 0.0
5.974759e-01 2.335676e-03 0.0
5.983086e-01 2.428393e-03 0.0
5.991136e-01 2.507712e-03 0.0
5.998934e-01 2.572781e-03 0.0
6.006503e-01 2.621697e-03 0.0
6.013851e-01 2.650665e-03 0.0
6.021010e-01 2.651409e-03 0.0
6.028030e-01 2.614516e-03 0.0
6.034986e-01 2.525681e-03 0.0
6.042014e-01 2.363082e-03 0.0
6.049359e-01 2.093965e-03 0.0
6.057411e-01 1.674362e-03 0.0
6.066233e-01 1.095853e-03 0.0
0.000000e+00 1.105491e-03 0.0
0.000000e+00 0.000000e+00 0.0
0.000000e+00 0.000000e+00 0.0
0.000000e+00 0.000000e+00 0.0
0.000000e+00 0.000000e+00 0.0
0.000000e+00 0.000000e+00 0.0
0.000000e+00 0.000000e+00 0.0
0.000000e+00 0.000000e+00 0.0
0.000000e+00 0.000000e+00 0.0
0.000000e+00 0.000000e+00 0.0
0.000000e+00 0.000000e+00 0.0
0.000000e+00 -5.445360e-02 0.0
-1.029920e-02 5.445678e-02 0.0
-2.599190e-02 9.897511e-02 0.0
-3.747838e-02 1.073919e-01 0.0
-4.358668e-02 1.015215e-01 0.0
-4.449827e-02 9.126325e-02 0.0
-4.031575e-02 7.990796e-02 0.0
-3.106774e-02 6.841743e-02 0.0
-1.570233e-02 5.556188e-02 0.0
6.868288e-03 4.097310e-02 0.0
3.916749e-02 2.150413e-02 0.0
8.597434e-02 -6.308971e-03 0.0
1.478359e-01 -4.245417e-02 0.0
2.202283e-01 -8.643997e-02 0.0
2.994969e-01 -1.357525e-01 0.0
3.803653e-01 -1.873605e-01 0.0
4.578608e-01 -2.369661e-01 0.0
5.283798e-01 -2.797210e-01 0.0
5.894805e-01 -3.116585e-01 0.0
6.398061e-01 -3.301740e-01 0.0
6.791382e-01 -3.337847e-01 0.0
7.080345e-01 -3.219156e-01 0.0
7.297011e-01 -2.981547e-01 0.0
7.463733e-01 -2.661437e-01 0.0
7.595014e-01 -2.291360e-01 0.0
7.699135e-01 -1.898170e-01 0.0
7.779921e-01 -1.503101e-01 0.0
7.838527e-01 -1.122521e-01 0.0
7.875037e-01 -7.688191e-02 0.0
7.889722e-01 -4.511509e-02 0.0
7.883856e-01 -1.758363e-02 0.0
7.859849e-01 5.391695e-03 0.0
7.819225e-01 2.409420e-02 0.0
7.763507e-01 3.897711e-02 0.0
7.694378e-01 5.039838e-02 0.0
7.613718e-01 5.867335e-02 0.0
7.523509e-01 6.410496e-02 0.0
7.425624e-01 6.698861e-02 0.0
7.321578e-01 6.755090e-02 0.0
7.213927e-01 6.605682e-02 0.0
7.105454e-01 6.285621e-02 0.0
6.998947e-01 5.830989e-02 0.0
6.896970e-01 5.278485e-02 0.0
6.801710e-01 4.663902e-02 0.0
6.714884e-01 4.020506e-02 0.0
6.637695e-01 3.377773e-02 0.0
6.570833e-01 2.760387e-02 0.0
6.514502e-01 2.187561e-02 0.0
6.468492e-01 1.672777e-02 0.0
6.432259e-01 1.223952e-02 0.0
6.405024e-01 8.439857e-03 0.0
6.385867e-01 5.315488e-03 0.0
6.373811e-01 2.820756e-03 0.0
6.367882e-01 8.919125e-04 0.0
6.367293e-01 -5.301880e-04 0.0
6.370854e-01 -1.496373e-03 0.0
6.377558e-01 -2.103722e-03 0.0
6.386555e-01 -2.436560e-03 0.0
6.397206e-01 -2.568919e-03 0.0
6.409075e-01 -2.556887e-03 0.0
6.421811e-01 -2.439333e-03 0.0
6.435131e-01 -2.247289e-03 0.0
6.448811e-01 -2.004703e-03 0.0
6.462685e-01 -1.729709e-03 0.0
6.476632e-01 -1.436488e-03 0.0
6.490549e-01 -1.136123e-03 0.0
6.504345e-01 -8.360611e-04 0.0
6.517988e-01 -5.407391e-04 0.0
6.531473e-01 -2.552332e-04 0.0
6.544807e-01 1.648705e-05 0.0
6.557933e-01 2.757043e-04 0.0
6.570795e-01 5.216674e-04 0.0
6.583356e-01 7.531718e-04 0.0
6.595601e-01 9.676841e-04 0.0
6.607526e-01 1.165181e-03 0.0
6.619131e-01 1.346375e-03 0.0
6.630422e-01 1.511629e-03 0.0
6.641410e-01 1.661568e-03 0.0
6.652105e-01 1.796834e-03 0.0
6.662518e-01 1.917734e-03 0.0
6.672661e-01 2.024105e-03 0.0
6.682543e-01 2.115168e-03 0.0
6.692175e-01 2.189185e-03 0.0
6.701560e-01 2.242839e-03 0.0
6.710683e-01 2.269710e-03 0.0
6.719553e-01 2.258168e-03 0.0
6.728185e-01 2.193084e-03 0.0
6.736620e-01 2.050296e-03 0.0
6.744945e-01 1.792043e-03 0.0
6.753309e-01 1.368657e-03 0.0
6.761541e-01 8.032330e-04 0.0
0.000000e+00 8.108707e-04 0.0
0.000000e+00 0.000000e+00 0.0
0.000000e+00 0.000000e+00 0.0
0.000000e+00 0.000000e+00 0.0
0.000000e+00 0.000000e+00 0.0
0.000000e+00 0.000000e+00 0.0
0.000000e+00 0.000000e+00 0.0
0.000000e+00 0.000000e+00 0.0
0.000000e+00 0.000000e+00 0.0
0.000000e+00 0.000000e+00 0.0
0.000000e+00 0.000000e+00 0.0
0.000000e+00 -6.785073e-02 0.0
-1.137300e-02 6.786398e-02 0.0
-1.983299e-02 1.079658e-01 0.0
-1.849611e-02 1.065857e-01 0.0
-9.573924e-03 9.313002e-02 0.0
5.886685e-03 7.633330e-02 0.0
2.774035e-02 5.858496e-02 0.0
5.573985e-02 4.094858e-02 0.0
9.250372e-02 1.932867e-02 0.0
1.421499e-01 -8.142456e-03 0.0
2.050461e-01 -4.086135e-02 0.0
2.780817e-01 -7.881398e-02 0.0
3.579693e-01 -1.218110e-01 0.0
4.405244e-01 -1.684644e-01 0.0
5.215686e-01 -2.162661e-01 0.0
5.968880e-01 -2.621493e-01 0.0
6.630380e-01 -3.025854e-01 0.0
7.179461e-01 -3.340984e-01 0.0
7.608467e-01 -3.540284e-01 0.0
7.920017e-01 -3.607984e-01 0.0
8.122496e-01 -3.535020e-01 0.0
8.248688e-01 -3.340041e-01 0.0
8.326140e-01 -3.053693e-01 0.0
8.374609e-01 -2.704599e-01 0.0
8.406939e-01 -2.318384e-01 0.0
8.430079e-01 -1.916003e-01 0.0
8.446593e-01 -1.514309e-01 0.0
8.456254e-01 -1.126875e-01 0.0
8.457520e-01 -7.647787e-02 0.0
8.448802e-01 -4.371262e-02 0.0
8.429327e-01 -1.510557e-02 0.0
8.399075e-01 8.947602e-03 0.0
8.357325e-01 2.879986e-02 0.0
8.304270e-01 4.481326e-02 0.0
8.240717e-01 5.728430e-02 0.0
8.167855e-01 6.649028e-02 0.0
8.087069e-01 7.271413e-02 0.0
7.999785e-01 7.624775e-02 0.0
7.907009e-01 7.735914e-02 0.0
7.810324e-01 7.625598e-02 0.0
7.711773e-01 7.324193e-02 0.0
7.613526e-01 6.866519e-02 0.0
7.517681e-01 6.290007e-02 0.0
7.426110e-01 5.632675e-02 0.0
7.340386e-01 4.930806e-02 0.0
7.261731e-01 4.217390e-02 0.0
7.190990e-01 3.520866e-02 0.0
7.128638e-01 2.864146e-02 0.0
7.074812e-01 2.264096e-02 0.0
7.029362e-01 1.731522e-02 0.0
6.991906e-01 1.271611e-02 0.0
6.961896e-01 8.847137e-03 0.0
6.938667e-01 5.674233e-03 0.0
6.921496e-01 3.139667e-03 0.0
6.909722e-01 1.177879e-03 0.0
6.902878e-01 -2.813147e-04 0.0
6.900174e-01 -1.302621e-03 0.0
6.900816e-01 -1.970114e-03 0.0
6.904125e-01 -2.369160e-03 0.0
6.909542e-01 -2.568008e-03 0.0
6.916674e-01 -2.621913e-03 0.0
6.925192e-01 -2.568348e-03 0.0
6.934815e-01 -2.436364e-03 0.0
6.945308e-01 -2.248387e-03 0.0
6.956469e-01 -2.022006e-03 0.0
6.968126e-01 -1.771117e-03 0.0
6.980136e-01 -1.506395e-03 0.0
6.992396e-01 -1.236147e-03 0.0
7.004822e-01 -9.671522e-04 0.0
7.017332e-01 -7.039262e-04 0.0
7.029883e-01 -4.487019e-04 0.0
7.042448e-01 -2.041568e-04 0.0
7.055011e-01 2.751159e-05 0.0
7.067522e-01 2.471697e-04 0.0
7.079935e-01 4.545470e-04 0.0
7.092212e-01 6.493323e-04 0.0
7.104330e-01 8.304958e-04 0.0
7.116273e-01 9.979143e-04 0.0
7.128028e-01 1.151944e-03 0.0
7.139585e-01 1.292640e-03 0.0
7.150936e-01 1.419651e-03 0.0
7.162072e-01 1.532235e-03 0.0
7.172982e-01 1.628872e-03 0.0
7.183649e-01 1.706724e-03 0.0
7.194046e-01 1.760714e-03 0.0
7.204122e-01 1.781178e-03 0.0
7.213830e-01 1.752943e-03 0.0
7.223105e-01 1.653433e-03 0.0
7.231861e-01 1.447103e-03 0.0
7.239964e-01 1.089002e-03 0.0
7.247084e-01 6.218737e-04 0.0
0.000000e+00 6.288078e-04 0.0
0.000000e+00 0.000000e+00 0.0
0.000000e+00 0.000000e+00 0.0
0.000000e+00 0.000000e+00 0.0
0.000000e+00 0.000000e+00 0.0
0.000000e+00 0.000000e+00 0.0
0.000000e+00 0.000000e+00 0.0
0.000000e+00 0.000000e+00 0.0
0.000000e+00 0.000000e+00 0.0
0.000000e+00 0.000000e+00 0.0
0.000000e+00 0.000000e+00 0.0
0.000000e+00 -8.189350e-02 0.0
-1.200875e-02 8.190693e-02 0.0
-4.214124e-03 1.007018e-01 0.0
1.988088e-02 8.302135e-02 0.0
5.234915e-02 6.119241e-02 0.0
9.123299e-02 3.798013e-02 0.0
1.384577e-01 1.189093e-02 0.0
1.972261e-01 -1.728916e-02 0.0
2.658970e-01 -4.881157e-02 0.0
3.416559e-01 -8.337069e-02 0.0
4.223277e-01 -1.210026e-01 0.0
5.052028e-01 -1.611584e-01 0.0
5.868978e-01 -2.029754e-01 0.0
6.638818e-01 -2.449177e-01 0.0
7.329553e-01 -2.848090e-01 0.0
7.914852e-01 -3.201485e-01 0.0
8.377933e-01 -3.483629e-01 0.0
8.714103e-01 -3.671847e-01 0.0
8.929456e-01 -3.750330e-01 0.0
9.036670e-01 -3.709891e-01 0.0
9.064194e-01 -3.557238e-01 0.0
9.043564e-01 -3.314104e-01 0.0
8.998362e-01 -3.003184e-01 0.0
8.944926e-01 -2.645856e-01 0.0
8.893866e-01 -2.262017e-01 0.0
8.850342e-01 -1.867173e-01 0.0
8.815449e-01 -1.474110e-01 0.0
8.787584e-01 -1.093703e-01 0.0
8.763728e-01 -7.356158e-02 0.0
8.740604e-01 -4.086960e-02 0.0
8.715547e-01 -1.206921e-02 0.0
8.685699e-01 1.246308e-02 0.0
8.648918e-01 3.300856e-02 0.0
8.604300e-01 4.980573e-02 0.0
8.551765e-01 6.306843e-02 0.0
8.491786e-01 7.301884e-02 0.0
8.425174e-01 7.990602e-02 0.0
8.352887e-01 8.400705e-02 0.0
8.275766e-01 8.560194e-02 0.0
8.194695e-01 8.489377e-02 0.0
8.111084e-01 8.213360e-02 0.0
8.026572e-01 7.764712e-02 0.0
7.942801e-01 7.180780e-02 0.0
7.861259e-01 6.501159e-02 0.0
7.783242e-01 5.764041e-02 0.0
7.709825e-01 5.004627e-02 0.0
7.641828e-01 4.253900e-02 0.0
7.579812e-01 3.537366e-02 0.0
7.524095e-01 2.874332e-02 0.0
7.474777e-01 2.277769e-02 0.0
7.431777e-01 1.754673e-02 0.0
7.394869e-01 1.306860e-02 0.0
7.363712e-01 9.320586e-03 0.0
7.337891e-01 6.252428e-03 0.0
7.316987e-01 3.798942e-03 0.0
7.300609e-01 1.887176e-03 0.0
7.288472e-01 4.417269e-04 0.0
7.280214e-01 -6.136645e-04 0.0
7.275310e-01 -1.348206e-03 0.0
7.273264e-01 -1.832735e-03 0.0
7.273628e-01 -2.127595e-03 0.0
7.276050e-01 -2.279991e-03 0.0
7.280245e-01 -2.325134e-03 0.0
7.285946e-01 -2.287889e-03 0.0
7.292913e-01 -2.188099e-03 0.0
7.300931e-01 -2.042272e-03 0.0
7.309813e-01 -1.863883e-03 0.0
7.319398e-01 -1.663986e-03 0.0
7.329546e-01 -1.451392e-03 0.0
7.340141e-01 -1.232720e-03 0.0
7.351090e-01 -1.012931e-03 0.0
7.362316e-01 -7.961092e-04 0.0
7.373747e-01 -5.849913e-04 0.0
7.385334e-01 -3.808383e-04 0.0
7.397036e-01 -1.850638e-04 0.0
7.408825e-01 1.055149e-06 0.0
7.420659e-01 1.777913e-04 0.0
7.432494e-01 3.450885e-04 0.0
7.444292e-01 5.027024e-04 0.0
7.456023e-01 6.502611e-04 0.0
7.467655e-01 7.870093e-04 0.0
7.479162e-01 9.122605e-04 0.0
7.490509e-01 1.024818e-03 0.0
7.501657e-01 1.122488e-03 0.0
7.512557e-01 1.201419e-03 0.0
7.523126e-01 1.254932e-03 0.0
7.533251e-01 1.271048e-03 0.0
7.542776e-01 1.231599e-03 0.0
7.551460e-01 1.109371e-03 0.0
7.558934e-01 8.721856e-04 0.0
7.564803e-01 5.656474e-04 0.0
0.000000e+00 5.729325e-04 0.0
0.000000e+00 0.000000e+00 0.0
0.000000e+00 0.000000e+00 0.0
0.000000e+00 0.000000e+00 0.0
0.000000e+00 0.000000e+00 0.0
0.000000e+00 0.000000e+00 0.0
0.000000e+00 0.000000e+00 0.0
0.000000e+00 0.000000e+00 0.0
0.000000e+00 0.000000e+00 0.0
0.000000e+00 0.000000e+00 0.0
0.000000e+00 0.000000e+00 0.0
0.000000e+00 -7.767389e-02 0.0
6.259964e-03 7.768116e-02 0.0
5.384907e-02 5.364334e-02 0.0
1.158331e-01 2.156801e-02 0.0
1.864559e-01 -8.899790e-03 0.0
2.633248e-01 -3.835809e-02 0.0
3.434275e-01 -6.768114e-02 0.0
4.252173e-01 -9.854826e-02 0.0
5.078574e-01 -1.309211e-01 0.0
5.897399e-01 -1.647225e-01 0.0
6.688676e-01 -1.995996e-01 0.0
7.430695e-01 -2.348296e-01 0.0
8.100221e-01 -2.693973e-01 0.0