# vtk DataFile Version 3.0
Vector Field
ASCII
DATASET RECTILINEAR_GRID
DIMENSIONS 102 22 1
X_COORDINATES 102 double
0.000000 0.100000 0.200000 0.300000 0.400000 0.500000 0.600000 0.700000 0.800000 0.900000 1.000000 1.100000 1.200000 1.300000 1.400000 1.500000 1.600000 1.700000 1.800000 1.900000 2.000000 2.100000 2.200000 2.300000 2.400000 2.500000 2.600000 2.700000 2.800000 2.900000 3.000000 3.100000 3.200000 3.300000 3.400000 3.500000 3.600000 3.700000 3.800000 3.900000 4.000000 4.100000 4.200000 4.300000 4.400000 4.500000 4.600000 4.700000 4.800000 4.900000 5.000000 5.100000 5.200000 5.300000 5.400000 5.500000 5.600000 5.700000 5.800000 5.900000 6.000000 6.100000 6.200000 6.300000 6.400000 6.500000 6.600000 6.700000 6.800000 6.900000 7.000000 7.100000 7.200000 7.300000 7.400000 7.500000 7.600000 7.700000 7.800000 7.900000 8.000000 8.100000 8.200000 8.300000 8.400000 8.500000 8.600000 8.700000 8.800000 8.900000 9.000000 9.100000 9.200000 9.300000 9.400000 9.500000 9.600000 9.700000 9.800000 9.900000 10.000000 10.100000 
Y_COORDINATES 22 double
0.000000 0.100000 0.200000 0.300000 0.400000 0.500000 0.600000 0.700000 0.800000 0.900000 1.000000 1.100000 1.200000 1.300000 1.400000 1.500000 1.600000 1.700000 1.800000 1.900000 2.000000 2.100000 
Z_COORDINATES 1 double
0.0
POINT_DATA 2244
VECTORS Velocity double
0.000000e+00 0.000000e+00 0.0
-0.000000e+00 0.000000e+00 0.0
-0.000000e+00 0.000000e+00 0.0
-0.000000e+00 0.000000e+00 0.0
-0.000000e+00 0.000000e+00 0.0
-0.000000e+00 0.000000e+00 0.0
-0.000000e+00 0.000000e+00 0.0
-0.000000e+00 0.000000e+00 0.0
-0.000000e+00 0.000000e+00 0.0
-0.000000e+00 0.000000e+00 0.0
-0.000000e+00 0.000000e+00 0.0
5.217384e-04 0.000000e+00 0.0
4.887121e-03 0.000000e+00 0.0
1.165765e-02 0.000000e+00 0.0
1.964589e-02 0.000000e+00 0.0
2.845752e-02 0.000000e+00 0.0
3.817568e-02 0.000000e+00 0.0
4.908448e-02 0.000000e+00 0.0
6.153870e-02 0.000000e+00 0.0
7.589321e-02 0.000000e+00 0.0
9.242199e-02 0.000000e+00 0.0
1.112058e-01 0.000000e+00 0.0
1.319632e-01 0.000000e+00 0.0
1.538702e-01 0.000000e+00 0.0
1.753235e-01 0.000000e+00 0.0
1.936083e-01 0.000000e+00 0.0
2.052122e-01 0.000000e+00 0.0
2.061672e-01 0.000000e+00 0.0
1.933753e-01 0.000000e+00 0.0
1.659141e-01 0.000000e+00 0.0
1.254917e-01 0.000000e+00 0.0
7.617360e-02 0.000000e+00 0.0
2.067940e-02 0.000000e+00 0.0
-3.407598e-02 0.000000e+00 0.0
-8.091698e-02 0.000000e+00 0.0
-1.179075e-01 0.000000e+00 0.0
-1.452804e-01 0.000000e+00 0.0
-1.641692e-01 0.000000e+00 0.0
-1.760313e-01 0.000000e+00 0.0
-1.823682e-01 0.000000e+00 0.0
-1.845976e-01 0.000000e+00 0.0
-1.839927e-01 0.000000e+00 0.0
-1.812963e-01 0.000000e+00 0.0
-1.770626e-01 0.000000e+00 0.0
-1.718545e-01 0.000000e+00 0.0
-1.661362e-01 0.000000e+00 0.0
-1.602566e-01 0.000000e+00 0.0
-1.544487e-01 0.000000e+00 0.0
-1.488494e-01 0.000000e+00 0.0
-1.435451e-01 0.000000e+00 0.0
-1.385777e-01 0.000000e+00 0.0
-1.339632e-01 0.000000e+00 0.0
-1.297003e-01 0.000000e+00 0.0
-1.257777e-01 0.000000e+00 0.0
-1.221782e-01 0.000000e+00 0.0
-1.188818e-01 0.000000e+00 0.0
-1.158675e-01 0.000000e+00 0.0
-1.131143e-01 0.000000e+00 0.0
-1.106018e-01 0.000000e+00 0.0
-1.083108e-01 0.000000e+00 0.0
-1.062230e-01 0.000000e+00 0.0
-1.043211e-01 0.000000e+00 0.0
-1.025890e-01 0.000000e+00 0.0
-1.010115e-01 0.000000e+00 0.0
-9.957470e-02 0.000000e+00 0.0
-9.826566e-02 0.000000e+00 0.0
-9.707245e-02 0.000000e+00 0.0
-9.598411e-02 0.000000e+00 0.0
-9.499063e-02 0.000000e+00 0.0
-9.408286e-02 0.000000e+00 0.0
-9.325252e-02 0.000000e+00 0.0
-9.249209e-02 0.000000e+00 0.0
-9.179480e-02 0.000000e+00 0.0
-9.115458e-02 0.000000e+00 0.0
-9.056604e-02 0.000000e+00 0.0
-9.002440e-02 0.000000e+00 0.0
-8.952544e-02 0.000000e+00 0.0
-8.906549e-02 0.000000e+00 0.0
-8.864137e-02 0.000000e+00 0.0
-8.825039e-02 0.000000e+00 0.0
-8.789031e-02 0.000000e+00 0.0
-8.755935e-02 0.000000e+00 0.0
-8.725614e-02 0.000000e+00 0.0
-8.697973e-02 0.000000e+00 0.0
-8.672958e-02 0.000000e+00 0.0
-8.650558e-02 0.000000e+00 0.0
-8.630802e-02 0.000000e+00 0.0
-8.613763e-02 0.000000e+00 0.0
-8.599562e-02 0.000000e+00 0.0
-8.588364e-02 0.000000e+00 0.0
-8.580393e-02 0.000000e+00 0.0
-8.575938e-02 0.000000e+00 0.0
-8.575376e-02 0.000000e+00 0.0
-8.578957e-02 0.000000e+00 0.0
-8.586484e-02 0.000000e+00 0.0
-8.597307e-02 0.000000e+00 0.0
-8.610845e-02 0.000000e+00 0.0
-8.625966e-02 0.000000e+00 0.0
-8.640530e-02 0.000000e+00 0.0
-8.650193e-02 0.000000e+00 0.0
-8.650193e-02 0.000000e+00 0.0
0.000000e+00 0.000000e+00 0.0
0.000000e+00 0.000000e+00 0.0
0.000000e+00 0.000000e+00 0.0
0.000000e+00 0.000000e+00 0.0
0.000000e+00 0.000000e+00 0.0
0.000000e+00 0.000000e+00 0.0
0.000000e+00 0.000000e+00 0.0
0.000000e+00 0.000000e+00 0.0
0.000000e+00 0.000000e+00 0.0
0.000000e+00 0.000000e+00 0.0
0.000000e+00 0.000000e+00 0.0
0.000000e+00 -5.137836e-04 0.0
-5.068364e-04 5.307096e-04 0.0
-4.895798e-03 4.380530e-03 0.0
-1.167908e-02 6.768995e-03 0.0
-1.966107e-02 7.974433e-03 0.0
-2.845589e-02 8.798197e-03 0.0
-3.816155e-02 9.714918e-03 0.0
-4.907078e-02 1.091578e-02 0.0
-6.153530e-02 1.246385e-02 0.0
-7.589994e-02 1.435893e-02 0.0
-9.243109e-02 1.652627e-02 0.0
-1.112101e-01 1.877841e-02 0.0
-1.319618e-01 2.075439e-02 0.0
-1.538674e-01 2.190810e-02 0.0
-1.753238e-01 2.145618e-02 0.0
-1.936123e-01 1.828641e-02 0.0
-2.052166e-01 1.160255e-02 0.0
-2.061685e-01 9.521749e-04 0.0
-1.933731e-01 -1.279394e-02 0.0
-1.659103e-01 -2.746188e-02 0.0
-1.254886e-01 -4.042216e-02 0.0
-7.617159e-02 -4.931856e-02 0.0
-2.067696e-02 -5.549582e-02 0.0
3.407980e-02 -5.475663e-02 0.0
8.092203e-02 -4.684094e-02 0.0
1.179124e-01 -3.698896e-02 0.0
1.452836e-01 -2.737066e-02 0.0
1.641703e-01 -1.888712e-02 0.0
1.760314e-01 -1.186163e-02 0.0
1.823687e-01 -6.337132e-03 0.0
1.845989e-01 -2.229282e-03 0.0
1.839944e-01 6.058215e-04 0.0
1.812975e-01 2.697849e-03 0.0
1.770628e-01 4.234989e-03 0.0
1.718540e-01 5.208746e-03 0.0
1.661357e-01 5.718356e-03 0.0
1.602565e-01 5.879602e-03 0.0
1.544490e-01 5.808153e-03 0.0
1.488497e-01 5.599889e-03 0.0
1.435451e-01 5.305005e-03 0.0
1.385775e-01 4.967861e-03 0.0
1.339630e-01 4.614832e-03 0.0
1.297002e-01 4.263093e-03 0.0
1.257778e-01 3.922880e-03 0.0
1.221784e-01 3.599864e-03 0.0
1.188819e-01 3.296810e-03 0.0
1.158675e-01 3.014714e-03 0.0
1.131142e-01 2.753547e-03 0.0
1.106018e-01 2.512709e-03 0.0
1.083109e-01 2.291277e-03 0.0
1.062232e-01 2.088177e-03 0.0
1.043213e-01 1.902295e-03 0.0
1.025891e-01 1.732537e-03 0.0
1.010116e-01 1.577832e-03 0.0
9.957479e-02 1.437119e-03 0.0
9.826576e-02 1.309351e-03 0.0
9.707257e-02 1.193517e-03 0.0
9.598426e-02 1.088647e-03 0.0
9.499081e-02 9.938135e-04 0.0
9.408307e-02 9.081207e-04 0.0
9.325273e-02 8.307154e-04 0.0
9.249228e-02 7.608017e-04 0.0
9.179497e-02 6.976418e-04 0.0
9.115476e-02 6.405452e-04 0.0
9.056624e-02 5.888602e-04 0.0
9.002462e-02 5.419719e-04 0.0
8.952568e-02 4.993022e-04 0.0
8.906573e-02 4.603073e-04 0.0
8.864161e-02 4.244767e-04 0.0
8.825063e-02 3.913312e-04 0.0
8.789055e-02 3.604182e-04 0.0
8.755960e-02 3.313026e-04 0.0
8.725640e-02 3.035581e-04 0.0
8.698000e-02 2.767634e-04 0.0
8.672986e-02 2.505016e-04 0.0
8.650585e-02 2.243573e-04 0.0
8.630829e-02 1.979108e-04 0.0
8.613792e-02 1.707293e-04 0.0
8.599591e-02 1.423609e-04 0.0
8.588394e-02 1.123226e-04 0.0
8.580423e-02 8.006600e-05 0.0
8.575970e-02 4.489520e-05 0.0
8.575408e-02 5.976685e-06 0.0
8.578990e-02 -3.546180e-05 0.0
8.586516e-02 -7.490944e-05 0.0
8.597340e-02 -1.078794e-04 0.0
8.610878e-02 -1.350266e-04 0.0
8.625999e-02 -1.508553e-04 0.0
8.640563e-02 -1.452914e-04 0.0
8.650226e-02 -9.627644e-05 0.0
8.650193e-02 6.824416e-07 0.0
0.000000e+00 6.905856e-07 0.0
0.000000e+00 0.000000e+00 0.0
0.000000e+00 0.000000e+00 0.0
0.000000e+00 0.000000e+00 0.0
0.000000e+00 0.000000e+00 0.0
0.000000e+00 0.000000e+00 0.0
0.000000e+00 0.000000e+00 0.0
0.000000e+00 0.000000e+00 0.0
0.000000e+00 0.000000e+00 0.0
0.000000e+00 0.000000e+00 0.0
0.000000e+00 0.000000e+00 0.0
0.000000e+00 -6.337338e-03 0.0
-5.813302e-03 6.342420e-03 0.0
-1.944579e-02 1.800110e-02 0.0
-3.734838e-02 2.466941e-02 0.0
-5.737909e-02 2.801234e-02 0.0
-7.872649e-02 3.015499e-02 0.0
-1.013054e-01 3.229795e-02 0.0
-1.252500e-01 3.485750e-02 0.0
-1.506343e-01 3.784221e-02 0.0
-1.773007e-01 4.102204e-02 0.0
-2.047123e-01 4.393911e-02 0.0
-2.318389e-01 4.590845e-02 0.0
-2.569836e-01 4.590142e-02 0.0
-2.776904e-01 4.261393e-02 0.0
-2.908191e-01 3.458264e-02 0.0
-2.925494e-01 2.001525e-02 0.0
-2.781746e-01 -2.771619e-03 0.0
-2.449920e-01 -3.222884e-02 0.0
-1.942115e-01 -6.357391e-02 0.0
-1.287274e-01 -9.294663e-02 0.0
-5.117474e-02 -1.179763e-01 0.0
3.332629e-02 -1.338204e-01 0.0
1.137991e-01 -1.359682e-01 0.0
1.851714e-01 -1.261276e-01 0.0
2.474345e-01 -1.091031e-01 0.0
2.998116e-01 -8.936619e-02 0.0
3.422260e-01 -6.978585e-02 0.0
3.752277e-01 -5.188959e-02 0.0
3.997289e-01 -3.636273e-02 0.0
4.168077e-01 -2.341507e-02 0.0
4.275783e-01 -1.299896e-02 0.0
4.331025e-01 -4.918102e-03 0.0
4.346757e-01 1.124261e-03 0.0
4.331409e-01 5.769322e-03 0.0
4.291786e-01 9.170888e-03 0.0
4.233769e-01 1.152042e-02 0.0
4.162200e-01 1.303691e-02 0.0
4.081222e-01 1.390622e-02 0.0
3.994568e-01 1.426530e-02 0.0
3.905275e-01 1.423426e-02 0.0
3.815492e-01 1.394617e-02 0.0
3.726843e-01 1.347985e-02 0.0
3.640486e-01 1.289895e-02 0.0
3.557224e-01 1.224928e-02 0.0
3.477585e-01 1.156387e-02 0.0
3.401891e-01 1.086622e-02 0.0
3.330310e-01 1.017279e-02 0.0
3.262897e-01 9.494938e-03 0.0
3.199622e-01 8.840382e-03 0.0
3.140394e-01 8.214237e-03 0.0
3.085079e-01 7.619759e-03 0.0
3.033514e-01 7.058856e-03 0.0
2.985515e-01 6.532438e-03 0.0
2.940888e-01 6.040632e-03 0.0
2.899431e-01 5.582961e-03 0.0
2.860940e-01 5.158498e-03 0.0
2.825216e-01 4.765991e-03 0.0
2.792064e-01 4.403954e-03 0.0
2.761296e-01 4.070723e-03 0.0
2.732733e-01 3.764526e-03 0.0
2.706206e-01 3.483536e-03 0.0
2.681555e-01 3.225922e-03 0.0
2.658634e-01 2.989867e-03 0.0
2.637304e-01 2.773580e-03 0.0
2.617441e-01 2.575309e-03 0.0
2.598928e-01 2.393357e-03 0.0
2.581661e-01 2.226084e-03 0.0
2.565546e-01 2.071910e-03 0.0
2.550499e-01 1.929319e-03 0.0
2.536444e-01 1.796852e-03 0.0
2.523318e-01 1.673104e-03 0.0
2.511065e-01 1.556702e-03 0.0
2.499639e-01 1.446300e-03 0.0
2.489002e-01 1.340568e-03 0.0
2.479126e-01 1.238186e-03 0.0
2.469992e-01 1.137830e-03 0.0
2.461590e-01 1.038152e-03 0.0
2.453921e-01 9.377714e-04 0.0
2.446993e-01 8.352623e-04 0.0
2.440826e-01 7.291565e-04 0.0
2.435448e-01 6.179516e-04 0.0
2.430896e-01 5.001567e-04 0.0
2.427211e-01 3.745678e-04 0.0
2.424442e-01 2.415328e-04 0.0
2.422657e-01 1.037008e-04 0.0
2.421926e-01 -3.475102e-05 0.0
2.422155e-01 -1.577594e-04 0.0
2.423077e-01 -2.430151e-04 0.0
2.424300e-01 -2.674500e-04 0.0
2.425269e-01 -1.931598e-04 0.0
2.425260e-01 1.712626e-06 0.0
0.000000e+00 1.731118e-06 0.0
0.000000e+00 0.000000e+00 0.0
0.000000e+00 0.000000e+00 0.0
0.000000e+00 0.000000e+00 0.0
0.000000e+00 0.000000e+00 0.0
0.000000e+00 0.000000e+00 0.0
0.000000e+00 0.000000e+00 0.0
0.000000e+00 0.000000e+00 0.0
0.000000e+00 0.000000e+00 0.0
0.000000e+00 0.000000e+00 0.0
0.000000e+00 0.000000e+00 0.0
0.000000e+00 -1.696152e-02 0.0
-1.062396e-02 1.695801e-02 0.0
-3.137202e-02 3.874224e-02 0.0
-5.608152e-02 4.938255e-02 0.0
-8.181422e-02 5.375434e-02 0.0
-1.074709e-01 5.581894e-02 0.0
-1.326882e-01 5.751591e-02 0.0
-1.572279e-01 5.939275e-02 0.0
-1.807301e-01 6.133987e-02 0.0
-2.025843e-01 6.287588e-02 0.0
-2.217930e-01 6.315109e-02 0.0
-2.370103e-01 6.112948e-02 0.0
-2.464159e-01 5.530772e-02 0.0
-2.475182e-01 4.371452e-02 0.0
-2.364980e-01 2.356051e-02 0.0
-2.068733e-01 -9.609591e-03 0.0
-1.585471e-01 -5.109633e-02 0.0
-9.283323e-02 -9.794141e-02 0.0
-1.301084e-02 -1.433963e-01 0.0
7.393970e-02 -1.798986e-01 0.0
1.586536e-01 -2.026915e-01 0.0
2.364064e-01 -2.115733e-01 0.0
3.050177e-01 -2.045783e-01 0.0
3.649956e-01 -1.861043e-01 0.0
4.172521e-01 -1.613594e-01 0.0
4.622039e-01 -1.343187e-01 0.0
5.000867e-01 -1.076696e-01 0.0
5.312039e-01 -8.300698e-02 0.0
5.559849e-01 -6.114306e-02 0.0
5.749586e-01 -4.238780e-02 0.0
5.887105e-01 -2.675025e-02 0.0
5.978546e-01 -1.406247e-02 0.0
6.030336e-01 -4.055212e-03 0.0
6.051736e-01 3.628970e-03 0.0
6.047812e-01 9.563504e-03 0.0
6.023069e-01 1.399515e-02 0.0
5.981464e-01 1.719781e-02 0.0
5.926389e-01 1.941374e-02 0.0
5.860576e-01 2.084658e-02 0.0
5.786190e-01 2.167272e-02 0.0
5.705691e-01 2.199614e-02 0.0
5.621261e-01 2.192307e-02 0.0
5.534624e-01 2.156286e-02 0.0
5.447178e-01 2.099395e-02 0.0
5.360041e-01 2.027766e-02 0.0
5.274091e-01 1.946117e-02 0.0
5.190014e-01 1.858053e-02 0.0
5.108331e-01 1.766338e-02 0.0
5.029427e-01 1.673094e-02 0.0
4.953575e-01 1.579962e-02 0.0
4.880952e-01 1.488205e-02 0.0
4.811663e-01 1.398786e-02 0.0
4.745746e-01 1.312423e-02 0.0
4.683190e-01 1.229633e-02 0.0
4.623944e-01 1.150766e-02 0.0
4.567925e-01 1.076039e-02 0.0
4.515030e-01 1.005560e-02 0.0
4.465136e-01 9.393486e-03 0.0
4.418110e-01 8.773508e-03 0.0
4.373810e-01 8.194597e-03 0.0
4.332093e-01 7.655267e-03 0.0
4.292816e-01 7.153726e-03 0.0
4.255836e-01 6.687951e-03 0.0
4.221015e-01 6.255753e-03 0.0
4.188221e-01 5.854841e-03 0.0
4.157327e-01 5.482863e-03 0.0
4.128214e-01 5.137438e-03 0.0
4.100772e-01 4.816183e-03 0.0
4.074899e-01 4.516732e-03 0.0
4.050501e-01 4.236745e-03 0.0
4.027494e-01 3.973898e-03 0.0
4.005803e-01 3.725879e-03 0.0
3.985363e-01 3.490381e-03 0.0
3.966119e-01 3.265098e-03 0.0
3.948025e-01 3.047710e-03 0.0
3.931045e-01 2.835866e-03 0.0
3.915156e-01 2.627151e-03 0.0
3.900344e-01 2.419066e-03 0.0
3.886607e-01 2.209025e-03 0.0
3.873956e-01 1.994353e-03 0.0
3.862413e-01 1.772333e-03 0.0
3.852013e-01 1.540320e-03 0.0
3.842799e-01 1.296088e-03 0.0
3.834828e-01 1.038698e-03 0.0
3.828171e-01 7.695137e-04 0.0
3.822888e-01 4.936410e-04 0.0
3.819050e-01 2.261038e-04 0.0
3.816687e-01 -6.679121e-06 0.0
3.815578e-01 -1.564401e-04 0.0
3.815332e-01 -1.684718e-04 0.0
3.815319e-01 3.154078e-06 0.0
0.000000e+00 3.186985e-06 0.0
0.000000e+00 0.000000e+00 0.0
0.000000e+00 0.000000e+00 0.0
0.000000e+00 0.000000e+00 0.0
0.000000e+00 0.000000e+00 0.0
0.000000e+00 0.000000e+00 0.0
0.000000e+00 0.000000e+00 0.0
0.000000e+00 0.000000e+00 0.0
0.000000e+00 0.000000e+00 0.0
0.000000e+00 0.000000e+00 0.0
0.000000e+00 0.000000e+00 0.0
0.000000e+00 -3.010004e-02 0.0
-1.314577e-02 3.009243e-02 0.0
-3.667867e-02 6.227437e-02 0.0
-6.236155e-02 7.507313e-02 0.0
-8.683728e-02 7.823943e-02 0.0
-1.090210e-01 7.800689e-02 0.0
-1.284897e-01 7.698221e-02 0.0
-1.448941e-01 7.579157e-02 0.0
-1.577917e-01 7.423469e-02 0.0
-1.666179e-01 7.170401e-02 0.0
-1.704070e-01 6.694454e-02 0.0
-1.677591e-01 5.848424e-02 0.0
-1.562346e-01 4.378271e-02 0.0
-1.322731e-01 1.975088e-02 0.0
-8.788637e-02 -2.082753e-02 0.0
-2.435879e-02 -7.313632e-02 0.0
5.461764e-02 -1.300709e-01 0.0
1.397337e-01 -1.830567e-01 0.0
2.240919e-01 -2.277552e-01 0.0
3.032801e-01 -2.590884e-01 0.0
3.747957e-01 -2.742078e-01 0.0
4.360119e-01 -2.727887e-01 0.0
4.877028e-01 -2.562676e-01 0.0
5.319741e-01 -2.303748e-01 0.0
5.702317e-01 -1.996173e-01 0.0
6.032817e-01 -1.673699e-01 0.0
6.315752e-01 -1.359637e-01 0.0
6.554130e-01 -1.068444e-01 0.0
6.750613e-01 -8.079030e-02 0.0
6.907978e-01 -5.812345e-02 0.0
7.029247e-01 -3.887709e-02 0.0
7.117708e-01 -2.290918e-02 0.0
7.176955e-01 -9.980371e-03 0.0
7.211222e-01 2.023023e-04 0.0
7.225221e-01 8.164080e-03 0.0
7.222195e-01 1.429819e-02 0.0
7.204746e-01 1.894290e-02 0.0
7.175085e-01 2.237973e-02 0.0
7.135133e-01 2.484169e-02 0.0
7.086647e-01 2.652134e-02 0.0
7.030934e-01 2.756760e-02 0.0
6.969111e-01 2.810559e-02 0.0
6.902594e-01 2.821477e-02 0.0
6.832645e-01 2.798889e-02 0.0
6.760345e-01 2.750764e-02 0.0
6.686618e-01 2.683393e-02 0.0
6.612251e-01 2.601734e-02 0.0
6.537911e-01 2.509748e-02 0.0
6.464159e-01 2.410633e-02 0.0
6.391456e-01 2.306998e-02 0.0
6.320179e-01 2.200979e-02 0.0
6.250627e-01 2.094311e-02 0.0
6.183032e-01 1.988386e-02 0.0
6.117565e-01 1.884309e-02 0.0
6.054349e-01 1.782937e-02 0.0
5.993461e-01 1.684923e-02 0.0
5.934945e-01 1.590738e-02 0.0
5.878810e-01 1.500705e-02 0.0
5.825044e-01 1.415022e-02 0.0
5.773613e-01 1.333782e-02 0.0
5.724466e-01 1.256997e-02 0.0
5.677543e-01 1.184609e-02 0.0
5.632773e-01 1.116504e-02 0.0
5.590080e-01 1.052525e-02 0.0
5.549381e-01 9.924780e-03 0.0
5.510596e-01 9.361461e-03 0.0
5.473642e-01 8.832900e-03 0.0
5.438439e-01 8.336565e-03 0.0
5.404909e-01 7.869819e-03 0.0
5.372978e-01 7.429940e-03 0.0
5.342577e-01 7.014127e-03 0.0
5.313642e-01 6.619510e-03 0.0
5.286115e-01 6.243155e-03 0.0
5.259946e-01 5.882068e-03 0.0
5.235092e-01 5.533176e-03 0.0
5.211519e-01 5.193308e-03 0.0
5.189200e-01 4.859159e-03 0.0
5.168119e-01 4.527257e-03 0.0
5.148271e-01 4.193953e-03 0.0
5.129661e-01 3.855418e-03 0.0
5.112308e-01 3.507684e-03 0.0
5.096245e-01 3.146755e-03 0.0
5.081518e-01 2.768911e-03 0.0
5.068192e-01 2.371338e-03 0.0
5.056357e-01 1.953124e-03 0.0
5.046124e-01 1.517019e-03 0.0
5.037650e-01 1.073589e-03 0.0
5.031126e-01 6.458069e-04 0.0
5.026772e-01 2.790960e-04 0.0
5.024638e-01 4.502834e-05 0.0
5.024623e-01 4.734297e-06 0.0
0.000000e+00 4.783121e-06 0.0
0.000000e+00 0.000000e+00 0.0
0.000000e+00 0.000000e+00 0.0
0.000000e+00 0.000000e+00 0.0
0.000000e+00 0.000000e+00 0.0
0.000000e+00 0.000000e+00 0.0
0.000000e+00 0.000000e+00 0.0
0.000000e+00 0.000000e+00 0.0
0.000000e+00 0.000000e+00 0.0
0.000000e+00 0.000000e+00 0.0
0.000000e+00 0.000000e+00 0.0
0.000000e+00 -4.360052e-02 0.0
-1.351159e-02 4.359338e-02 0.0
-3.554135e-02 8.430752e-02 0.0
-5.694365e-02 9.648448e-02 0.0
-7.477870e-02 9.608239e-02 0.0
-8.837311e-02 9.160295e-02 0.0
-9.748111e-02 8.608610e-02 0.0
-1.018333e-01 8.013876e-02 0.0
-1.009316e-01 7.333194e-02 0.0
-9.428245e-02 6.505804e-02 0.0
-8.018678e-02 5.285297e-02 0.0
-5.641637e-02 3.471533e-02 0.0
-1.587384e-02 3.238539e-03 0.0
4.596675e-02 -4.209205e-02 0.0
1.217334e-01 -9.659477e-02 0.0
2.049846e-01 -1.563858e-01 0.0
2.896203e-01 -2.147046e-01 0.0
3.710869e-01 -2.645230e-01 0.0
4.448979e-01 -3.015677e-01 0.0
5.087111e-01 -3.229032e-01 0.0
5.618018e-01 -3.272985e-01 0.0
6.039803e-01 -3.149658e-01 0.0
6.385503e-01 -2.908363e-01 0.0
6.676526e-01 -2.594769e-01 0.0
6.926365e-01 -2.246022e-01 0.0
7.142922e-01 -1.890266e-01 0.0
7.330575e-01 -1.547290e-01 0.0
7.491707e-01 -1.229568e-01 0.0
7.627790e-01 -9.439756e-02 0.0
7.740021e-01 -6.934614e-02 0.0
7.829678e-01 -4.784313e-02 0.0
7.898238e-01 -2.976583e-02 0.0
7.947343e-01 -1.489118e-02 0.0
7.978848e-01 -2.947822e-03 0.0
7.995857e-01 6.463649e-03 0.0
8.000498e-01 1.383444e-02 0.0
7.994424e-01 1.955036e-02 0.0
7.979032e-01 2.391882e-02 0.0
7.955562e-01 2.718863e-02 0.0
7.925149e-01 2.956273e-02 0.0
7.888772e-01 3.120549e-02 0.0
7.847300e-01 3.225301e-02 0.0
7.801301e-01 3.281475e-02 0.0
7.751490e-01 3.296996e-02 0.0
7.698622e-01 3.279444e-02 0.0
7.643372e-01 3.235900e-02 0.0
7.586349e-01 3.171983e-02 0.0
7.528098e-01 3.092277e-02 0.0
7.469103e-01 3.000590e-02 0.0
7.409790e-01 2.900127e-02 0.0
7.350529e-01 2.793596e-02 0.0
7.291636e-01 2.683254e-02 0.0
7.233378e-01 2.570976e-02 0.0
7.175979e-01 2.458302e-02 0.0
7.119625e-01 2.346487e-02 0.0
7.064465e-01 2.236536e-02 0.0
7.010617e-01 2.129233e-02 0.0
6.958171e-01 2.025178e-02 0.0
6.907193e-01 1.924808e-02 0.0
6.857729e-01 1.828427e-02 0.0
6.809807e-01 1.736225e-02 0.0
6.763439e-01 1.648294e-02 0.0
6.718626e-01 1.564644e-02 0.0
6.675358e-01 1.485222e-02 0.0
6.633615e-01 1.409917e-02 0.0
6.593373e-01 1.338573e-02 0.0
6.554603e-01 1.270999e-02 0.0
6.517272e-01 1.206974e-02 0.0
6.481345e-01 1.146255e-02 0.0
6.446788e-01 1.088574e-02 0.0
6.413566e-01 1.033648e-02 0.0
6.381645e-01 9.811742e-03 0.0
6.350993e-01 9.308367e-03 0.0
6.321584e-01 8.823036e-03 0.0
6.293394e-01 8.352270e-03 0.0
6.266404e-01 7.892411e-03 0.0
6.240601e-01 7.439577e-03 0.0
6.215979e-01 6.989605e-03 0.0
6.192539e-01 6.538037e-03 0.0
6.170293e-01 6.080103e-03 0.0
6.149263e-01 5.610732e-03 0.0
6.129486e-01 5.124602e-03 0.0
6.111013e-01 4.616325e-03 0.0
6.093919e-01 4.080828e-03 0.0
6.078311e-01 3.514019e-03 0.0
6.064341e-01 2.914041e-03 0.0
6.052240e-01 2.283802e-03 0.0
6.042352e-01 1.634738e-03 0.0
6.035201e-01 9.942334e-04 0.0
6.031486e-01 4.166693e-04 0.0
6.031472e-01 6.209841e-06 0.0
0.000000e+00 6.273784e-06 0.0
0.000000e+00 0.000000e+00 0.0
0.000000e+00 0.000000e+00 0.0
0.000000e+00 0.000000e+00 0.0
0.000000e+00 0.000000e+00 0.0
0.000000e+00 0.000000e+00 0.0
0.000000e+00 0.000000e+00 0.0
0.000000e+00 0.000000e+00 0.0
0.000000e+00 0.000000e+00 0.0
0.000000e+00 0.000000e+00 0.0
0.000000e+00 0.000000e+00 0.0
0.000000e+00 -5.674149e-02 0.0
-1.315316e-02 5.673714e-02 0.0
-3.054419e-02 1.017033e-01 0.0
-4.349189e-02 1.094403e-01 0.0
-5.068396e-02 1.032792e-01 0.0
-5.211830e-02 9.303543e-02 0.0
-4.785482e-02 8.181643e-02 0.0
-3.765881e-02 6.993790e-02 0.0
-2.012408e-02 5.579730e-02 0.0
6.228025e-03 3.870986e-02 0.0
4.593567e-02 1.314895e-02 0.0
1.042704e-01 -2.361917e-02 0.0
1.775806e-01 -7.007424e-02 0.0
2.603296e-01 -1.248434e-01 0.0
3.472599e-01 -1.835247e-01 0.0
4.321845e-01 -2.413083e-01 0.0
5.101050e-01 -2.926236e-01 0.0
5.780157e-01 -3.324343e-01 0.0
6.341411e-01 -3.576949e-01 0.0
6.781855e-01 -3.669486e-01 0.0
7.106481e-01 -3.597602e-01 0.0
7.348565e-01 -3.391725e-01 0.0
7.535971e-01 -3.095760e-01 0.0
7.688148e-01 -2.746951e-01 0.0
7.817349e-01 -2.375235e-01 0.0
7.930582e-01 -2.003505e-01 0.0
8.031462e-01 -1.648165e-01 0.0
8.121366e-01 -1.319461e-01 0.0
8.200486e-01 -1.023089e-01 0.0
8.268549e-01 -7.615247e-02 0.0
8.325330e-01 -5.352175e-02 0.0
8.370825e-01 -3.431585e-02 0.0
8.405153e-01 -1.832392e-02 0.0
8.428647e-01 -5.296721e-03 0.0
8.442639e-01 5.064879e-03 0.0
8.448228e-01 1.327579e-02 0.0
8.446322e-01 1.974081e-02 0.0
8.437747e-01 2.477619e-02 0.0
8.423276e-01 2.863577e-02 0.0
8.403638e-01 3.152663e-02 0.0
8.379505e-01 3.361904e-02 0.0
8.351491e-01 3.505462e-02 0.0
8.320128e-01 3.595107e-02 0.0
8.285782e-01 3.640450e-02 0.0
8.248828e-01 3.648991e-02 0.0
8.209677e-01 3.627416e-02 0.0
8.168725e-01 3.581523e-02 0.0
8.126340e-01 3.516142e-02 0.0
8.082861e-01 3.435383e-02 0.0
8.038596e-01 3.342782e-02 0.0
7.993817e-01 3.241397e-02 0.0
7.948764e-01 3.133797e-02 0.0
7.903647e-01 3.022146e-02 0.0
7.858653e-01 2.908256e-02 0.0
7.813939e-01 2.793630e-02 0.0
7.769645e-01 2.679495e-02 0.0
7.725885e-01 2.566841e-02 0.0
7.682759e-01 2.456448e-02 0.0
7.640348e-01 2.348921e-02 0.0
7.598721e-01 2.244710e-02 0.0
7.557931e-01 2.144134e-02 0.0
7.518021e-01 2.047400e-02 0.0
7.479025e-01 1.954616e-02 0.0
7.440966e-01 1.865816e-02 0.0
7.403863e-01 1.780961e-02 0.0
7.367726e-01 1.699957e-02 0.0
7.332560e-01 1.622664e-02 0.0
7.298368e-01 1.548903e-02 0.0
7.265148e-01 1.478461e-02 0.0
7.232897e-01 1.411092e-02 0.0
7.201610e-01 1.346526e-02 0.0
7.171282e-01 1.284467e-02 0.0
7.141907e-01 1.224595e-02 0.0
7.113481e-01 1.166570e-02 0.0
7.086003e-01 1.110024e-02 0.0
7.059471e-01 1.054570e-02 0.0
7.033889e-01 9.997857e-03 0.0
7.009265e-01 9.452113e-03 0.0
6.985612e-01 8.903433e-03 0.0
6.962950e-01 8.346337e-03 0.0
6.941310e-01 7.774845e-03 0.0
6.920732e-01 7.182456e-03 0.0
6.901275e-01 6.562160e-03 0.0
6.883019e-01 5.906530e-03 0.0
6.866081e-01 5.207913e-03 0.0
6.850634e-01 4.458838e-03 0.0
6.836945e-01 3.652833e-03 0.0
6.825435e-01 2.785790e-03 0.0
6.816784e-01 1.859438e-03 0.0
6.812011e-01 8.940246e-04 0.0
6.812001e-01 7.379319e-06 0.0
0.000000e+00 7.455344e-06 0.0
0.000000e+00 0.000000e+00 0.0
0.000000e+00 0.000000e+00 0.0
0.000000e+00 0.000000e+00 0.0
0.000000e+00 0.000000e+00 0.0
0.000000e+00 0.000000e+00 0.0
0.000000e+00 0.000000e+00 0.0
0.000000e+00 0.000000e+00 0.0
0.000000e+00 0.000000e+00 0.0
0.000000e+00 0.000000e+00 0.0
0.000000e+00 0.000000e+00 0.0
0.000000e+00 -7.038801e-02 0.0
-1.365745e-02 7.038502e-02 0.0
-2.292656e-02 1.109781e-01 0.0
-2.232037e-02 1.088423e-01 0.0
-1.386114e-02 9.482438e-02 0.0
1.834432e-03 7.733767e-02 0.0
2.489421e-02 5.875078e-02 0.0
5.560864e-02 3.921968e-02 0.0
9.758987e-02 1.381722e-02 0.0
1.556864e-01 -1.938236e-02 0.0
2.279948e-01 -5.915652e-02 0.0
3.101655e-01 -1.057908e-01 0.0
3.978540e-01 -1.577660e-01 0.0
4.855805e-01 -2.125717e-01 0.0
5.683737e-01 -2.663166e-01 0.0
6.418456e-01 -3.147778e-01 0.0
7.030631e-01 -3.538403e-01 0.0
7.508909e-01 -3.802635e-01 0.0
7.855387e-01 -3.923446e-01 0.0
8.081114e-01 -3.895215e-01 0.0
8.214927e-01 -3.731400e-01 0.0
8.291201e-01 -3.467984e-01 0.0
8.334859e-01 -3.139417e-01 0.0
8.362685e-01 -2.774786e-01 0.0
8.384827e-01 -2.397386e-01 0.0
8.406739e-01 -2.025416e-01 0.0
8.430967e-01 -1.672385e-01 0.0
8.457708e-01 -1.346192e-01 0.0
8.485912e-01 -1.051289e-01 0.0
8.513987e-01 -7.896031e-02 0.0
8.540435e-01 -5.616715e-02 0.0
8.564038e-01 -3.667630e-02 0.0
8.583612e-01 -2.028109e-02 0.0
8.598301e-01 -6.765107e-03 0.0
8.607782e-01 4.117104e-03 0.0
8.612165e-01 1.283755e-02 0.0
8.611681e-01 1.978904e-02 0.0
8.606670e-01 2.527726e-02 0.0
8.597536e-01 2.954918e-02 0.0
8.584719e-01 3.280857e-02 0.0
8.568656e-01 3.522552e-02 0.0
8.549772e-01 3.694318e-02 0.0
8.528458e-01 3.808241e-02 0.0
8.505053e-01 3.874500e-02 0.0
8.479792e-01 3.901613e-02 0.0
8.452893e-01 3.896424e-02 0.0
8.424594e-01 3.864523e-02 0.0
8.395132e-01 3.810772e-02 0.0
8.364728e-01 3.739428e-02 0.0
8.333584e-01 3.654226e-02 0.0
8.301877e-01 3.558485e-02 0.0
8.269762e-01 3.454950e-02 0.0
8.237381e-01 3.345968e-02 0.0
8.204856e-01 3.233516e-02 0.0
8.172295e-01 3.119246e-02 0.0
8.139794e-01 3.004519e-02 0.0
8.107435e-01 2.890440e-02 0.0
8.075291e-01 2.777900e-02 0.0
8.043424e-01 2.667596e-02 0.0
8.011889e-01 2.560063e-02 0.0
7.980734e-01 2.455695e-02 0.0
7.949999e-01 2.354765e-02 0.0
7.919717e-01 2.257441e-02 0.0
7.889919e-01 2.163807e-02 0.0
7.860629e-01 2.073870e-02 0.0
7.831868e-01 1.987575e-02 0.0
7.803654e-01 1.904816e-02 0.0
7.776001e-01 1.825441e-02 0.0
7.748922e-01 1.749260e-02 0.0
7.722428e-01 1.676043e-02 0.0
7.696529e-01 1.605531e-02 0.0
7.671232e-01 1.537437e-02 0.0
7.646548e-01 1.471443e-02 0.0
7.622486e-01 1.407202e-02 0.0
7.599056e-01 1.344338e-02 0.0
7.576268e-01 1.282452e-02 0.0
7.554137e-01 1.221108e-02 0.0
7.532678e-01 1.159811e-02 0.0
7.511912e-01 1.098017e-02 0.0
7.491864e-01 1.035123e-02 0.0
7.472567e-01 9.704603e-03 0.0
7.454065e-01 9.032770e-03 0.0
7.436415e-01 8.327276e-03 0.0
7.419696e-01 7.578503e-03 0.0
7.404022e-01 6.775362e-03 0.0
7.389564e-01 5.904789e-03 0.0
7.376584e-01 4.950906e-03 0.0
7.365507e-01 3.893590e-03 0.0
7.357028e-01 2.707461e-03 0.0
7.352237e-01 1.373191e-03 0.0
7.352231e-01 8.111583e-06 0.0
0.000000e+00 8.195982e-06 0.0
0.000000e+00 0.000000e+00 0.0
0.000000e+00 0.000000e+00 0.0
0.000000e+00 0.000000e+00 0.0
0.000000e+00 0.000000e+00 0.0
0.000000e+00 0.000000e+00 0.0
0.000000e+00 0.000000e+00 0.0
0.000000e+00 0.000000e+00 0.0
0.000000e+00 0.000000e+00 0.0
0.000000e+00 0.000000e+00 0.0
0.000000e+00 0.000000e+00 0.0
0.000000e+00 -8.411784e-02 0.0
-1.373876e-02 8.411536e-02 0.0
-5.692913e-03 1.029379e-01 0.0
1.883345e-02 8.432242e-02 0.0
5.207041e-02 6.158956e-02 0.0
9.292219e-02 3.648189e-02 0.0
1.440943e-01 7.572251e-03 0.0
2.086100e-01 -2.529905e-02 0.0
2.839583e-01 -6.152851e-02 0.0
3.666897e-01 -1.021088e-01 0.0
4.540240e-01 -1.464885e-01 0.0
5.420110e-01 -1.937801e-01 0.0
6.264556e-01 -2.422140e-01 0.0
7.031864e-01 -2.893034e-01 0.0
7.688167e-01 -3.319448e-01 0.0
8.210439e-01 -3.670027e-01 0.0
8.589853e-01 -3.917818e-01 0.0
8.831913e-01 -4.044715e-01 0.0
8.952127e-01 -4.043673e-01 0.0
8.975358e-01 -3.918439e-01 0.0
8.938796e-01 -3.694822e-01 0.0
8.870515e-01 -3.399694e-01 0.0
8.791035e-01 -3.059942e-01 0.0
8.713643e-01 -2.697405e-01 0.0
8.645828e-01 -2.329577e-01 0.0
8.591137e-01 -1.970721e-01 0.0
8.550939e-01 -1.632178e-01 0.0
8.524161e-01 -1.319407e-01 0.0
8.508746e-01 -1.035874e-01 0.0
8.502317e-01 -7.831799e-02 0.0
8.502292e-01 -5.616496e-02 0.0
8.506118e-01 -3.705893e-02 0.0
8.511758e-01 -2.084467e-02 0.0
8.517498e-01 -7.338712e-03 0.0
8.521962e-01 3.670905e-03 0.0
8.524282e-01 1.260547e-02 0.0
8.524067e-01 1.981045e-02 0.0
8.521212e-01 2.556275e-02 0.0
8.515788e-01 3.009166e-02 0.0
8.507971e-01 3.359049e-02 0.0
8.497990e-01 3.622379e-02 0.0
8.486098e-01 3.813244e-02 0.0
8.472550e-01 3.943724e-02 0.0
8.457583e-01 4.024168e-02 0.0
8.441403e-01 4.063427e-02 0.0
8.424147e-01 4.069000e-02 0.0
8.405952e-01 4.046481e-02 0.0
8.386965e-01 4.000657e-02 0.0
8.367320e-01 3.935877e-02 0.0
8.347142e-01 3.856015e-02 0.0
8.326543e-01 3.764489e-02 0.0
8.305618e-01 3.664207e-02 0.0
8.284451e-01 3.557644e-02 0.0
8.263115e-01 3.446890e-02 0.0
8.241672e-01 3.333686e-02 0.0
8.220177e-01 3.219474e-02 0.0
8.198679e-01 3.105428e-02 0.0
8.177220e-01 2.992496e-02 0.0
8.155838e-01 2.881427e-02 0.0
8.134565e-01 2.772799e-02 0.0
8.113432e-01 2.667040e-02 0.0
8.092464e-01 2.564458e-02 0.0
8.071684e-01 2.465249e-02 0.0
8.051114e-01 2.369520e-02 0.0
8.030771e-01 2.277300e-02 0.0
8.010674e-01 2.188553e-02 0.0
7.990837e-01 2.103190e-02 0.0
7.971276e-01 2.021070e-02 0.0
7.952002e-01 1.942012e-02 0.0
7.933028e-01 1.865794e-02 0.0
7.914365e-01 1.792164e-02 0.0
7.896026e-01 1.720836e-02 0.0
7.878022e-01 1.651492e-02 0.0
7.860365e-01 1.583780e-02 0.0
7.843069e-01 1.517311e-02 0.0
7.826147e-01 1.451684e-02 0.0
7.809612e-01 1.386462e-02 0.0
7.793483e-01 1.321114e-02 0.0
7.777779e-01 1.255067e-02 0.0
7.762524e-01 1.187677e-02 0.0
7.747749e-01 1.118219e-02 0.0
7.733492e-01 1.045863e-02 0.0
7.719801e-01 9.696459e-03 0.0
7.706745e-01 8.884223e-03 0.0
7.694420e-01 8.007942e-03 0.0
7.682970e-01 7.049816e-03 0.0
7.672620e-01 5.986015e-03 0.0
7.663728e-01 4.782906e-03 0.0
7.656880e-01 3.392338e-03 0.0
7.652996e-01 1.761712e-03 0.0
7.652994e-01 8.353444e-06 0.0
0.000000e+00 8.441379e-06 0.0
0.000000e+00 0.000000e+00 0.0
0.000000e+00 0.000000e+00 0.0
0.000000e+00 0.000000e+00 0.0
0.000000e+00 0.000000e+00 0.0
0.000000e+00 0.000000e+00 0.0
0.000000e+00 0.000000e+00 0.0
0.000000e+00 0.000000e+00 0.0
0.000000e+00 0.000000e+00 0.0
0.000000e+00 0.000000e+00 0.0
0.000000e+00 0.000000e+00 0.0
0.000000e+00 -7.896302e-02 0.0
5.142713e-03 7.896335e-02 0.0
5.421616e-02 5.387015e-02 0.0
1.182344e-01 2.031188e-02 0.0
1.921144e-01 -1.228776e-02 0.0
2.728959e-01 -4.430430e-02 0.0
3.574220e-01 -7.696104e-02 0.0
4.439960e-01 -1.118754e-01 0.0
5.313965e-01 -1.489251e-01 0.0
6.172696e-01 -1.879769e-01 0.0
6.990516e-01 -2.282695e-01 0.0
7.738898e-01 -2.686217e-01 0.0
8.390193e-01 -3.073467e-01 0.0
8.920955e-01 -3.423791e-01 0.0
9.316158e-01 -3.714624e-01 0.0