# vtk DataFile Version 3.0
Vector Field
ASCII
DATASET RECTILINEAR_GRID
DIMENSIONS 102 22 1
X_COORDINATES 102 double
0.000000 0.100000 0.200000 0.300000 0.400000 0.500000 0.600000 0.700000 0.800000 0.900000 1.000000 1.100000 1.200000 1.300000 1.400000 1.500000 1.600000 1.700000 1.800000 1.900000 2.000000 2.100000 2.200000 2.300000 2.400000 2.500000 2.600000 2.700000 2.800000 2.900000 3.000000 3.100000 3.200000 3.300000 3.400000 3.500000 3.600000 3.700000 3.800000 3.900000 4.000000 4.100000 4.200000 4.300000 4.400000 4.500000 4.600000 4.700000 4.800000 4.900000 5.000000 5.100000 5.200000 5.300000 5.400000 5.500000 5.600000 5.700000 5.800000 5.900000 6.000000 6.100000 6.200000 6.300000 6.400000 6.500000 6.600000 6.700000 6.800000 6.900000 7.000000 7.100000 7.200000 7.300000 7.400000 7.500000 7.600000 7.700000 7.800000 7.900000 8.000000 8.100000 8.200000 8.300000 8.400000 8.500000 8.600000 8.700000 8.800000 8.900000 9.000000 9.100000 9.200000 9.300000 9.400000 9.500000 9.600000 9.700000 9.800000 9.900000 10.000000 10.100000 
Y_COORDINATES 22 double
0.000000 0.100000 0.200000 0.300000 0.400000 0.500000 0.600000 0.700000 0.800000 0.900000 1.000000 1.100000 1.200000 1.300000 1.400000 1.500000 1.600000 1.700000 1.800000 1.900000 2.000000 2.100000 
Z_COORDINATES 1 double
0.0
POINT_DATA 2244
VECTORS Velocity double
0.000000e+00 0.000000e+00 0.0
-0.000000e+00 0.000000e+00 0.0
-0.000000e+00 0.000000e+00 0.0
-0.000000e+00 0.000000e+00 0.0
-0.000000e+00 0.000000e+00 0.0
-0.000000e+00 0.000000e+00 0.0
-0.000000e+00 0.000000e+00 0.0
-0.000000e+00 0.000000e+00 0.0
-0.000000e+00 0.000000e+00 0.0
-0.000000e+00 0.000000e+00 0.0
-0.000000e+00 0.000000e+00 0.0
5.111526e-04 0.000000e+00 0.0
4.893712e-03 0.000000e+00 0.0
1.167525e-02 0.000000e+00 0.0
1.966290e-02 0.000000e+00 0.0
2.846869e-02 0.000000e+00 0.0
3.818639e-02 0.000000e+00 0.0
4.910580e-02 0.000000e+00 0.0
6.157933e-02 0.000000e+00 0.0
7.595511e-02 0.000000e+00 0.0
9.250278e-02 0.000000e+00 0.0
1.113035e-01 0.000000e+00 0.0
1.320779e-01 0.000000e+00 0.0
1.540013e-01 0.000000e+00 0.0
1.754637e-01 0.000000e+00 0.0
1.937421e-01 0.000000e+00 0.0
2.053143e-01 0.000000e+00 0.0
2.062091e-01 0.000000e+00 0.0
1.933377e-01 0.000000e+00 0.0
1.657864e-01 0.000000e+00 0.0
1.252854e-01 0.000000e+00 0.0
7.590806e-02 0.000000e+00 0.0
2.036337e-02 0.000000e+00 0.0
-3.438852e-02 0.000000e+00 0.0
-8.119893e-02 0.000000e+00 0.0
-1.181469e-01 0.000000e+00 0.0
-1.454742e-01 0.000000e+00 0.0
-1.643202e-01 0.000000e+00 0.0
-1.761455e-01 0.000000e+00 0.0
-1.824527e-01 0.000000e+00 0.0
-1.846589e-01 0.000000e+00 0.0
-1.840369e-01 0.000000e+00 0.0
-1.813253e-01 0.000000e+00 0.0
-1.770794e-01 0.000000e+00 0.0
-1.718625e-01 0.000000e+00 0.0
-1.661386e-01 0.000000e+00 0.0
-1.602559e-01 0.000000e+00 0.0
-1.544462e-01 0.000000e+00 0.0
-1.488460e-01 0.000000e+00 0.0
-1.435412e-01 0.000000e+00 0.0
-1.385739e-01 0.000000e+00 0.0
-1.339599e-01 0.000000e+00 0.0
-1.296977e-01 0.000000e+00 0.0
-1.257760e-01 0.000000e+00 0.0
-1.221775e-01 0.000000e+00 0.0
-1.188820e-01 0.000000e+00 0.0
-1.158685e-01 0.000000e+00 0.0
-1.131162e-01 0.000000e+00 0.0
-1.106046e-01 0.000000e+00 0.0
-1.083146e-01 0.000000e+00 0.0
-1.062276e-01 0.000000e+00 0.0
-1.043265e-01 0.000000e+00 0.0
-1.025952e-01 0.000000e+00 0.0
-1.010184e-01 0.000000e+00 0.0
-9.958239e-02 0.000000e+00 0.0
-9.827409e-02 0.000000e+00 0.0
-9.708161e-02 0.000000e+00 0.0
-9.599397e-02 0.000000e+00 0.0
-9.500115e-02 0.000000e+00 0.0
-9.409400e-02 0.000000e+00 0.0
-9.326425e-02 0.000000e+00 0.0
-9.250438e-02 0.000000e+00 0.0
-9.180766e-02 0.000000e+00 0.0
-9.116800e-02 0.000000e+00 0.0
-9.058002e-02 0.000000e+00 0.0
-9.003891e-02 0.000000e+00 0.0
-8.954045e-02 0.000000e+00 0.0
-8.908098e-02 0.000000e+00 0.0
-8.865733e-02 0.000000e+00 0.0
-8.826681e-02 0.000000e+00 0.0
-8.790719e-02 0.000000e+00 0.0
-8.757667e-02 0.000000e+00 0.0
-8.727389e-02 0.000000e+00 0.0
-8.699789e-02 0.000000e+00 0.0
-8.674814e-02 0.000000e+00 0.0
-8.652451e-02 0.000000e+00 0.0
-8.632732e-02 0.000000e+00 0.0
-8.615729e-02 0.000000e+00 0.0
-8.601562e-02 0.000000e+00 0.0
-8.590397e-02 0.000000e+00 0.0
-8.582457e-02 0.000000e+00 0.0
-8.578033e-02 0.000000e+00 0.0
-8.577502e-02 0.000000e+00 0.0
-8.581110e-02 0.000000e+00 0.0
-8.588655e-02 0.000000e+00 0.0
-8.599489e-02 0.000000e+00 0.0
-8.613034e-02 0.000000e+00 0.0
-8.628158e-02 0.000000e+00 0.0
-8.642725e-02 0.000000e+00 0.0
-8.652393e-02 0.000000e+00 0.0
-8.652393e-02 0.000000e+00 0.0
0.000000e+00 0.000000e+00 0.0
0.000000e+00 0.000000e+00 0.0
0.000000e+00 0.000000e+00 0.0
0.000000e+00 0.000000e+00 0.0
0.000000e+00 0.000000e+00 0.0
0.000000e+00 0.000000e+00 0.0
0.000000e+00 0.000000e+00 0.0
0.000000e+00 0.000000e+00 0.0
0.000000e+00 0.000000e+00 0.0
0.000000e+00 0.000000e+00 0.0
0.000000e+00 0.000000e+00 0.0
0.000000e+00 -5.251350e-04 0.0
-5.231774e-04 5.176974e-04 0.0
-4.903984e-03 4.376906e-03 0.0
-1.167834e-02 6.775540e-03 0.0
-1.965991e-02 7.985749e-03 0.0
-2.846407e-02 8.808143e-03 0.0
-3.818348e-02 9.721625e-03 0.0
-4.910503e-02 1.092248e-02 0.0
-6.157971e-02 1.247500e-02 0.0
-7.595628e-02 1.437614e-02 0.0
-9.250506e-02 1.654724e-02 0.0
-1.113067e-01 1.879941e-02 0.0
-1.320808e-01 2.077255e-02 0.0
-1.540021e-01 2.192177e-02 0.0
-1.754620e-01 2.146223e-02 0.0
-1.937394e-01 1.827991e-02 0.0
-2.053129e-01 1.157439e-02 0.0
-2.062100e-01 8.958602e-04 0.0
-1.933401e-01 -1.287238e-02 0.0
-1.657882e-01 -2.755394e-02 0.0
-1.252850e-01 -4.050375e-02 0.0
-7.590529e-02 -4.937877e-02 0.0
-2.035938e-02 -5.554454e-02 0.0
3.439194e-02 -5.475051e-02 0.0
8.120088e-02 -4.680904e-02 0.0
1.181476e-01 -3.694737e-02 0.0
1.454746e-01 -2.732748e-02 0.0
1.643209e-01 -1.884627e-02 0.0
1.761465e-01 -1.182525e-02 0.0
1.824537e-01 -6.306652e-03 0.0
1.846596e-01 -2.205617e-03 0.0
1.840371e-01 6.225352e-04 0.0
1.813253e-01 2.711773e-03 0.0
1.770793e-01 4.246016e-03 0.0
1.718626e-01 5.216966e-03 0.0
1.661388e-01 5.724031e-03 0.0
1.602560e-01 5.882988e-03 0.0
1.544462e-01 5.809904e-03 0.0
1.488459e-01 5.600441e-03 0.0
1.435411e-01 5.304859e-03 0.0
1.385738e-01 4.967333e-03 0.0
1.339598e-01 4.614091e-03 0.0
1.296978e-01 4.262196e-03 0.0
1.257761e-01 3.921844e-03 0.0
1.221775e-01 3.598720e-03 0.0
1.188819e-01 3.295618e-03 0.0
1.158685e-01 3.013538e-03 0.0
1.131161e-01 2.752418e-03 0.0
1.106047e-01 2.511607e-03 0.0
1.083146e-01 2.290169e-03 0.0
1.062276e-01 2.087052e-03 0.0
1.043265e-01 1.901175e-03 0.0
1.025952e-01 1.731452e-03 0.0
1.010185e-01 1.576800e-03 0.0
9.958246e-02 1.436139e-03 0.0
9.827417e-02 1.308411e-03 0.0
9.708167e-02 1.192598e-03 0.0
9.599401e-02 1.087738e-03 0.0
9.500118e-02 9.929065e-04 0.0
9.409405e-02 9.072203e-04 0.0
9.326431e-02 8.298352e-04 0.0
9.250446e-02 7.599549e-04 0.0
9.180774e-02 6.968315e-04 0.0
9.116809e-02 6.397624e-04 0.0
9.058010e-02 5.880908e-04 0.0
9.003898e-02 5.412060e-04 0.0
8.954053e-02 4.985391e-04 0.0
8.908107e-02 4.595540e-04 0.0
8.865743e-02 4.237417e-04 0.0
8.826691e-02 3.906182e-04 0.0
8.790729e-02 3.597241e-04 0.0
8.757677e-02 3.306205e-04 0.0
8.727399e-02 3.028834e-04 0.0
8.699799e-02 2.760967e-04 0.0
8.674824e-02 2.498475e-04 0.0
8.652462e-02 2.237199e-04 0.0
8.632743e-02 1.972909e-04 0.0
8.615741e-02 1.701256e-04 0.0
8.601574e-02 1.417716e-04 0.0
8.590409e-02 1.117467e-04 0.0
8.582469e-02 7.950178e-05 0.0
8.578046e-02 4.433594e-05 0.0
8.577515e-02 5.411197e-06 0.0
8.581123e-02 -3.597627e-05 0.0
8.588669e-02 -7.535492e-05 0.0
8.599502e-02 -1.082342e-04 0.0
8.613048e-02 -1.353532e-04 0.0
8.628172e-02 -1.511363e-04 0.0
8.642738e-02 -1.455619e-04 0.0
8.652406e-02 -9.658135e-05 0.0
8.652393e-02 2.355330e-07 0.0
0.000000e+00 2.377252e-07 0.0
0.000000e+00 0.000000e+00 0.0
0.000000e+00 0.000000e+00 0.0
0.000000e+00 0.000000e+00 0.0
0.000000e+00 0.000000e+00 0.0
0.000000e+00 0.000000e+00 0.0
0.000000e+00 0.000000e+00 0.0
0.000000e+00 0.000000e+00 0.0
0.000000e+00 0.000000e+00 0.0
0.000000e+00 0.000000e+00 0.0
0.000000e+00 0.000000e+00 0.0
0.000000e+00 -6.342706e-03 0.0
-5.823637e-03 6.335389e-03 0.0
-1.945120e-02 1.800649e-02 0.0
-3.735606e-02 2.468394e-02 0.0
-5.739898e-02 2.803063e-02 0.0
-7.876506e-02 3.017396e-02 0.0
-1.013632e-01 3.231868e-02 0.0
-1.253248e-01 3.488314e-02 0.0
-1.507252e-01 3.787462e-02 0.0
-1.774097e-01 4.105935e-02 0.0
-2.048404e-01 4.397651e-02 0.0
-2.319819e-01 4.594036e-02 0.0
-2.571301e-01 4.592174e-02 0.0
-2.778219e-01 4.261582e-02 0.0
-2.909160e-01 3.455812e-02 0.0
-2.925912e-01 1.995513e-02 0.0
-2.781305e-01 -2.887935e-03 0.0
-2.448526e-01 -3.238405e-02 0.0
-1.939777e-01 -6.374823e-02 0.0
-1.284013e-01 -9.312984e-02 0.0
-5.076950e-02 -1.181342e-01 0.0
3.378554e-02 -1.339326e-01 0.0
1.142442e-01 -1.360030e-01 0.0
1.855930e-01 -1.261000e-01 0.0
2.478217e-01 -1.090386e-01 0.0
3.001587e-01 -8.928466e-02 0.0
3.425309e-01 -6.969947e-02 0.0
3.754906e-01 -5.180557e-02 0.0
3.999513e-01 -3.628555e-02 0.0
4.169921e-01 -2.334747e-02 0.0
4.277286e-01 -1.294225e-02 0.0
4.332232e-01 -4.872193e-03 0.0
4.347745e-01 1.160466e-03 0.0
4.332204e-01 5.800193e-03 0.0
4.292418e-01 9.195714e-03 0.0
4.234263e-01 1.153965e-02 0.0
4.162578e-01 1.305142e-02 0.0
4.081511e-01 1.391661e-02 0.0
3.994792e-01 1.427228e-02 0.0
3.905452e-01 1.423890e-02 0.0
3.815636e-01 1.394903e-02 0.0
3.726964e-01 1.348137e-02 0.0
3.640592e-01 1.289941e-02 0.0
3.557322e-01 1.224889e-02 0.0
3.477680e-01 1.156284e-02 0.0
3.401989e-01 1.086475e-02 0.0
3.330415e-01 1.017102e-02 0.0
3.263010e-01 9.492946e-03 0.0
3.199744e-01 8.838201e-03 0.0
3.140527e-01 8.211890e-03 0.0
3.085225e-01 7.617289e-03 0.0
3.033674e-01 7.056324e-03 0.0
2.985690e-01 6.529892e-03 0.0
2.941077e-01 6.038098e-03 0.0
2.899634e-01 5.580446e-03 0.0
2.861159e-01 5.155998e-03 0.0
2.825450e-01 4.763501e-03 0.0
2.792313e-01 4.401469e-03 0.0
2.761559e-01 4.068249e-03 0.0
2.733011e-01 3.762076e-03 0.0
2.706499e-01 3.481126e-03 0.0
2.681863e-01 3.223563e-03 0.0
2.658956e-01 2.987556e-03 0.0
2.637641e-01 2.771305e-03 0.0
2.617791e-01 2.573059e-03 0.0
2.599292e-01 2.391128e-03 0.0
2.582039e-01 2.223881e-03 0.0
2.565937e-01 2.069742e-03 0.0
2.550903e-01 1.927193e-03 0.0
2.536862e-01 1.794768e-03 0.0
2.523749e-01 1.671057e-03 0.0
2.511508e-01 1.554685e-03 0.0
2.500094e-01 1.444313e-03 0.0
2.489470e-01 1.338614e-03 0.0
2.479606e-01 1.236270e-03 0.0
2.470484e-01 1.135954e-03 0.0
2.462094e-01 1.036318e-03 0.0
2.454435e-01 9.359779e-04 0.0
2.447518e-01 8.335109e-04 0.0
2.441361e-01 7.274502e-04 0.0
2.435994e-01 6.162931e-04 0.0
2.431452e-01 4.985468e-04 0.0
2.427776e-01 3.730091e-04 0.0
2.425016e-01 2.400556e-04 0.0
2.423240e-01 1.023174e-04 0.0
2.422518e-01 -3.604728e-05 0.0
2.422754e-01 -1.588830e-04 0.0
2.423682e-01 -2.439275e-04 0.0
2.424909e-01 -2.682949e-04 0.0
2.425884e-01 -1.940196e-04 0.0
2.425880e-01 6.349137e-07 0.0
0.000000e+00 6.407773e-07 0.0
0.000000e+00 0.000000e+00 0.0
0.000000e+00 0.000000e+00 0.0
0.000000e+00 0.000000e+00 0.0
0.000000e+00 0.000000e+00 0.0
0.000000e+00 0.000000e+00 0.0
0.000000e+00 0.000000e+00 0.0
0.000000e+00 0.000000e+00 0.0
0.000000e+00 0.000000e+00 0.0
0.000000e+00 0.000000e+00 0.0
0.000000e+00 0.000000e+00 0.0
0.000000e+00 -1.696473e-02 0.0
-1.062809e-02 1.695897e-02 0.0
-3.137509e-02 3.875670e-02 0.0
-5.609322e-02 4.940475e-02 0.0
-8.184199e-02 5.377994e-02 0.0
-1.075157e-01 5.584686e-02 0.0
-1.327457e-01 5.754788e-02 0.0
-1.572932e-01 5.943043e-02 0.0
-1.808013e-01 6.138251e-02 0.0
-2.026615e-01 6.291899e-02 0.0
-2.218734e-01 6.318804e-02 0.0
-2.370862e-01 6.115368e-02 0.0
-2.464746e-01 5.531182e-02 0.0
-2.475413e-01 4.368438e-02 0.0
-2.364605e-01 2.347797e-02 0.0
-2.067461e-01 -9.760355e-03 0.0
-1.583314e-01 -5.130458e-02 0.0
-9.252761e-02 -9.818928e-02 0.0
-1.262568e-02 -1.436501e-01 0.0
7.435824e-02 -1.801126e-01 0.0
1.590789e-01 -2.028534e-01 0.0
2.368117e-01 -2.116648e-01 0.0
3.053896e-01 -2.045814e-01 0.0
3.653385e-01 -1.860498e-01 0.0
4.175695e-01 -1.612701e-01 0.0
4.624965e-01 -1.342116e-01 0.0
5.003539e-01 -1.075563e-01 0.0
5.314445e-01 -8.289576e-02 0.0
5.561984e-01 -6.103933e-02 0.0
5.751457e-01 -4.229489e-02 0.0
5.888728e-01 -2.666961e-02 0.0
5.979947e-01 -1.399408e-02 0.0
6.031534e-01 -3.998183e-03 0.0
6.052776e-01 3.676185e-03 0.0
6.048712e-01 9.602178e-03 0.0
6.023846e-01 1.402631e-02 0.0
5.982134e-01 1.722256e-02 0.0
5.926968e-01 1.943315e-02 0.0
5.861073e-01 2.086178e-02 0.0
5.786620e-01 2.168424e-02 0.0
5.706066e-01 2.200450e-02 0.0
5.621591e-01 2.192896e-02 0.0
5.534919e-01 2.156667e-02 0.0
5.447447e-01 2.099606e-02 0.0
5.360291e-01 2.027843e-02 0.0
5.274330e-01 1.946089e-02 0.0
5.190246e-01 1.857944e-02 0.0
5.108560e-01 1.766160e-02 0.0
5.029657e-01 1.672857e-02 0.0
4.953808e-01 1.579676e-02 0.0
4.881193e-01 1.487881e-02 0.0
4.811913e-01 1.398434e-02 0.0
4.746007e-01 1.312051e-02 0.0
4.683464e-01 1.229246e-02 0.0
4.624232e-01 1.150367e-02 0.0
4.568229e-01 1.075631e-02 0.0
4.515350e-01 1.005143e-02 0.0
4.465472e-01 9.389247e-03 0.0
4.418463e-01 8.769228e-03 0.0
4.374181e-01 8.190303e-03 0.0
4.332483e-01 7.650983e-03 0.0
4.293224e-01 7.149463e-03 0.0
4.256263e-01 6.683706e-03 0.0
4.221461e-01 6.251520e-03 0.0
4.188685e-01 5.850617e-03 0.0
4.157810e-01 5.478654e-03 0.0
4.128717e-01 5.133257e-03 0.0
4.101294e-01 4.812043e-03 0.0
4.075440e-01 4.512640e-03 0.0
4.051061e-01 4.232699e-03 0.0
4.028073e-01 3.969893e-03 0.0
4.006401e-01 3.721914e-03 0.0
3.985979e-01 3.486460e-03 0.0
3.966754e-01 3.261229e-03 0.0
3.948678e-01 3.043899e-03 0.0
3.931716e-01 2.832114e-03 0.0
3.915845e-01 2.623459e-03 0.0
3.901051e-01 2.415437e-03 0.0
3.887332e-01 2.205463e-03 0.0
3.874698e-01 1.990868e-03 0.0
3.863171e-01 1.768933e-03 0.0
3.852787e-01 1.537017e-03 0.0
3.843588e-01 1.292896e-03 0.0
3.835633e-01 1.035644e-03 0.0
3.828990e-01 7.666194e-04 0.0
3.823721e-01 4.909204e-04 0.0
3.819896e-01 2.235940e-04 0.0
3.817547e-01 -8.995930e-06 0.0
3.816450e-01 -1.585107e-04 0.0
3.816213e-01 -1.703806e-04 0.0
3.816208e-01 1.192286e-06 0.0
0.000000e+00 1.203255e-06 0.0
0.000000e+00 0.000000e+00 0.0
0.000000e+00 0.000000e+00 0.0
0.000000e+00 0.000000e+00 0.0
0.000000e+00 0.000000e+00 0.0
0.000000e+00 0.000000e+00 0.0
0.000000e+00 0.000000e+00 0.0
0.000000e+00 0.000000e+00 0.0
0.000000e+00 0.000000e+00 0.0
0.000000e+00 0.000000e+00 0.0
0.000000e+00 0.000000e+00 0.0
0.000000e+00 -3.010346e-02 0.0
-1.314326e-02 3.009972e-02 0.0
-3.667690e-02 6.229433e-02 0.0
-6.236894e-02 7.509910e-02 0.0
-8.685716e-02 7.826822e-02 0.0
-1.090492e-01 7.803825e-02 0.0
-1.285187e-01 7.701721e-02 0.0
-1.449183e-01 7.583017e-02 0.0
-1.578102e-01 7.427419e-02 0.0
-1.666308e-01 7.173883e-02 0.0
-1.704102e-01 6.696718e-02 0.0
-1.677410e-01 5.848546e-02 0.0
-1.561803e-01 4.375321e-02 0.0
-1.321534e-01 1.965915e-02 0.0
-8.768145e-02 -2.099402e-02 0.0
-2.407536e-02 -7.336806e-02 0.0
5.495437e-02 -1.303362e-01 0.0
1.400988e-01 -1.833345e-01 0.0
2.244619e-01 -2.280123e-01 0.0
3.036415e-01 -2.592906e-01 0.0
3.751291e-01 -2.743399e-01 0.0
4.362964e-01 -2.728323e-01 0.0
4.879554e-01 -2.562413e-01 0.0
5.322043e-01 -2.302995e-01 0.0
5.704452e-01 -1.995112e-01 0.0
6.034812e-01 -1.672471e-01 0.0
6.317605e-01 -1.358352e-01 0.0
6.555833e-01 -1.067182e-01 0.0
6.752159e-01 -8.067206e-02 0.0
6.909372e-01 -5.801642e-02 0.0
7.030501e-01 -3.878265e-02 0.0
7.118835e-01 -2.282744e-02 0.0
7.177964e-01 -9.910971e-03 0.0
7.212129e-01 2.599058e-04 0.0
7.226035e-01 8.211640e-03 0.0
7.222926e-01 1.433714e-02 0.0
7.205405e-01 1.897458e-02 0.0
7.175683e-01 2.240540e-02 0.0
7.135676e-01 2.486244e-02 0.0
7.087140e-01 2.653792e-02 0.0
7.031379e-01 2.758070e-02 0.0
6.969514e-01 2.811550e-02 0.0
6.902962e-01 2.822185e-02 0.0
6.832986e-01 2.799367e-02 0.0
6.760665e-01 2.751056e-02 0.0
6.686921e-01 2.683532e-02 0.0
6.612541e-01 2.601744e-02 0.0
6.538193e-01 2.509646e-02 0.0
6.464436e-01 2.410434e-02 0.0
6.391731e-01 2.306718e-02 0.0
6.320456e-01 2.200634e-02 0.0
6.250909e-01 2.093912e-02 0.0
6.183320e-01 1.987944e-02 0.0
6.117862e-01 1.883830e-02 0.0
6.054656e-01 1.782428e-02 0.0
5.993781e-01 1.684386e-02 0.0
5.935277e-01 1.590179e-02 0.0
5.879157e-01 1.500127e-02 0.0
5.825407e-01 1.414429e-02 0.0
5.773992e-01 1.333180e-02 0.0
5.724864e-01 1.256388e-02 0.0
5.677959e-01 1.183994e-02 0.0
5.633208e-01 1.115884e-02 0.0
5.590534e-01 1.051899e-02 0.0
5.549855e-01 9.918487e-03 0.0
5.511090e-01 9.355146e-03 0.0
5.474158e-01 8.826584e-03 0.0
5.438976e-01 8.330264e-03 0.0
5.405467e-01 7.863541e-03 0.0
5.373557e-01 7.423684e-03 0.0
5.343177e-01 7.007894e-03 0.0
5.314264e-01 6.613306e-03 0.0
5.286759e-01 6.236994e-03 0.0
5.260612e-01 5.875959e-03 0.0
5.235780e-01 5.527126e-03 0.0
5.212228e-01 5.187320e-03 0.0
5.189930e-01 4.853235e-03 0.0
5.168871e-01 4.521405e-03 0.0
5.149044e-01 4.188183e-03 0.0
5.130456e-01 3.849744e-03 0.0
5.113124e-01 3.502122e-03 0.0
5.097081e-01 3.141326e-03 0.0
5.082374e-01 2.763641e-03 0.0
5.069068e-01 2.366264e-03 0.0
5.057252e-01 1.948283e-03 0.0
5.047037e-01 1.512452e-03 0.0
5.038579e-01 1.069343e-03 0.0
5.032071e-01 6.419120e-04 0.0
5.027730e-01 2.756015e-04 0.0
5.025607e-01 4.190087e-05 0.0
5.025601e-01 1.799383e-06 0.0
0.000000e+00 1.815971e-06 0.0
0.000000e+00 0.000000e+00 0.0
0.000000e+00 0.000000e+00 0.0
0.000000e+00 0.000000e+00 0.0
0.000000e+00 0.000000e+00 0.0
0.000000e+00 0.000000e+00 0.0
0.000000e+00 0.000000e+00 0.0
0.000000e+00 0.000000e+00 0.0
0.000000e+00 0.000000e+00 0.0
0.000000e+00 0.000000e+00 0.0
0.000000e+00 0.000000e+00 0.0
0.000000e+00 -4.360432e-02 0.0
-1.350351e-02 4.360337e-02 0.0
-3.553351e-02 8.432789e-02 0.0
-5.694255e-02 9.650900e-02 0.0
-7.478389e-02 9.610850e-02 0.0
-8.837760e-02 9.163068e-02 0.0
-9.747661e-02 8.611560e-02 0.0
-1.018155e-01 8.016873e-02 0.0
-1.009009e-01 7.335890e-02 0.0
-9.423861e-02 6.507582e-02 0.0
-8.012281e-02 5.285146e-02 0.0
-5.631269e-02 3.467667e-02 0.0
-1.569617e-02 3.138565e-03 0.0
4.621349e-02 -4.224965e-02 0.0
1.220317e-01 -9.681315e-02 0.0
2.053111e-01 -1.566495e-01 0.0
2.899574e-01 -2.149840e-01 0.0
3.714140e-01 -2.647909e-01 0.0
4.451987e-01 -3.017955e-01 0.0
5.089750e-01 -3.230654e-01 0.0
5.620156e-01 -3.273800e-01 0.0
6.041560e-01 -3.149735e-01 0.0
6.386998e-01 -2.907861e-01 0.0
6.677854e-01 -2.593855e-01 0.0
6.927587e-01 -2.244842e-01 0.0
7.144066e-01 -1.888944e-01 0.0
7.331642e-01 -1.545923e-01 0.0
7.492692e-01 -1.228233e-01 0.0
7.628693e-01 -9.427236e-02 0.0
7.740847e-01 -6.923210e-02 0.0
7.830436e-01 -4.774159e-02 0.0
7.898934e-01 -2.967707e-02 0.0
7.947979e-01 -1.481526e-02 0.0
7.979426e-01 -2.884758e-03 0.0
7.996382e-01 6.516026e-03 0.0
8.000977e-01 1.387763e-02 0.0
7.994864e-01 1.958589e-02 0.0
7.979438e-01 2.394799e-02 0.0
7.955937e-01 2.721250e-02 0.0
7.925497e-01 2.958208e-02 0.0
7.889095e-01 3.122096e-02 0.0
7.847600e-01 3.226506e-02 0.0
7.801579e-01 3.282387e-02 0.0
7.751751e-01 3.297647e-02 0.0
7.698869e-01 3.279878e-02 0.0
7.643608e-01 3.236151e-02 0.0
7.586575e-01 3.172074e-02 0.0
7.528317e-01 3.092227e-02 0.0
7.469319e-01 3.000418e-02 0.0
7.410005e-01 2.899852e-02 0.0
7.350746e-01 2.793233e-02 0.0
7.291856e-01 2.682818e-02 0.0
7.233603e-01 2.570477e-02 0.0
7.176211e-01 2.457749e-02 0.0
7.119865e-01 2.345887e-02 0.0
7.064715e-01 2.235894e-02 0.0
7.010877e-01 2.128556e-02 0.0
6.958443e-01 2.024470e-02 0.0
6.907479e-01 1.924076e-02 0.0
6.858030e-01 1.827675e-02 0.0
6.810123e-01 1.735457e-02 0.0
6.763772e-01 1.647510e-02 0.0
6.718976e-01 1.563847e-02 0.0
6.675725e-01 1.484412e-02 0.0
6.634000e-01 1.409096e-02 0.0
6.593777e-01 1.337745e-02 0.0
6.555027e-01 1.270166e-02 0.0
6.517716e-01 1.206138e-02 0.0
6.481810e-01 1.145416e-02 0.0
6.447274e-01 1.087733e-02 0.0
6.414073e-01 1.032805e-02 0.0
6.382173e-01 9.803318e-03 0.0
6.351543e-01 9.299965e-03 0.0
6.322157e-01 8.814668e-03 0.0
6.293989e-01 8.343943e-03 0.0
6.267021e-01 7.884130e-03 0.0
6.241240e-01 7.431350e-03 0.0
6.216640e-01 6.981443e-03 0.0
6.193222e-01 6.529957e-03 0.0
6.170999e-01 6.072125e-03 0.0
6.149992e-01 5.602877e-03 0.0
6.130236e-01 5.116901e-03 0.0
6.111785e-01 4.608817e-03 0.0
6.094712e-01 4.073559e-03 0.0
6.079125e-01 3.507047e-03 0.0
6.065175e-01 2.907433e-03 0.0
6.053092e-01 2.277637e-03 0.0
6.043221e-01 1.629093e-03 0.0
6.036085e-01 9.891911e-04 0.0
6.032382e-01 4.122632e-04 0.0
6.032376e-01 2.357310e-06 0.0
0.000000e+00 2.379213e-06 0.0
0.000000e+00 0.000000e+00 0.0
0.000000e+00 0.000000e+00 0.0
0.000000e+00 0.000000e+00 0.0
0.000000e+00 0.000000e+00 0.0
0.000000e+00 0.000000e+00 0.0
0.000000e+00 0.000000e+00 0.0
0.000000e+00 0.000000e+00 0.0
0.000000e+00 0.000000e+00 0.0
0.000000e+00 0.000000e+00 0.0
0.000000e+00 0.000000e+00 0.0
0.000000e+00 -5.674537e-02 0.0
-1.314193e-02 5.674645e-02 0.0
-3.053262e-02 1.017207e-01 0.0
-4.348430e-02 1.094604e-01 0.0
-5.067732e-02 1.033003e-01 0.0
-5.210400e-02 9.305672e-02 0.0
-4.782491e-02 8.183672e-02 0.0
-3.760976e-02 6.995368e-02 0.0
-2.005528e-02 5.580370e-02 0.0
6.324039e-03 3.869558e-02 0.0
4.607565e-02 1.309994e-02 0.0
1.044682e-01 -2.371438e-02 0.0
1.778305e-01 -7.022204e-02 0.0
2.606216e-01 -1.250405e-01 0.0
3.475701e-01 -1.837631e-01 0.0
4.324887e-01 -2.415702e-01 0.0
5.103873e-01 -2.928835e-01 0.0
5.782642e-01 -3.326670e-01 0.0
6.343480e-01 -3.578775e-01 0.0
6.783473e-01 -3.670636e-01 0.0
7.107646e-01 -3.597976e-01 0.0
7.349391e-01 -3.391491e-01 0.0
7.536585e-01 -3.095063e-01 0.0
7.688649e-01 -2.745920e-01 0.0
7.817798e-01 -2.373986e-01 0.0
7.931004e-01 -2.002143e-01 0.0
8.031858e-01 -1.646776e-01 0.0
8.121736e-01 -1.318112e-01 0.0
8.200831e-01 -1.021822e-01 0.0
8.268873e-01 -7.603637e-02 0.0
8.325635e-01 -5.341774e-02 0.0
8.371110e-01 -3.422434e-02 0.0
8.405410e-01 -1.824512e-02 0.0
8.428868e-01 -5.230575e-03 0.0
8.442833e-01 5.119475e-03 0.0
8.448400e-01 1.332096e-02 0.0
8.446476e-01 1.977818e-02 0.0
8.437886e-01 2.480706e-02 0.0
8.423400e-01 2.866112e-02 0.0
8.403750e-01 3.154722e-02 0.0
8.379605e-01 3.363549e-02 0.0
8.351581e-01 3.506748e-02 0.0
8.320211e-01 3.596087e-02 0.0
8.285858e-01 3.641167e-02 0.0
8.248899e-01 3.649478e-02 0.0
8.209744e-01 3.627703e-02 0.0
8.168789e-01 3.581632e-02 0.0
8.126402e-01 3.516094e-02 0.0
8.082924e-01 3.435199e-02 0.0
8.038661e-01 3.342481e-02 0.0
7.993886e-01 3.240996e-02 0.0
7.948837e-01 3.133310e-02 0.0
7.903727e-01 3.021584e-02 0.0
7.858739e-01 2.907628e-02 0.0
7.814033e-01 2.792943e-02 0.0
7.769747e-01 2.678756e-02 0.0
7.725997e-01 2.566057e-02 0.0
7.682882e-01 2.455627e-02 0.0
7.640483e-01 2.348068e-02 0.0
7.598868e-01 2.243830e-02 0.0
7.558091e-01 2.143229e-02 0.0
7.518195e-01 2.046471e-02 0.0
7.479213e-01 1.953666e-02 0.0
7.441170e-01 1.864847e-02 0.0
7.404083e-01 1.779976e-02 0.0
7.367961e-01 1.698959e-02 0.0
7.332813e-01 1.621656e-02 0.0
7.298638e-01 1.547887e-02 0.0
7.265436e-01 1.477436e-02 0.0
7.233204e-01 1.410060e-02 0.0
7.201936e-01 1.345489e-02 0.0
7.171626e-01 1.283426e-02 0.0
7.142271e-01 1.223554e-02 0.0
7.113865e-01 1.165529e-02 0.0
7.086406e-01 1.108985e-02 0.0
7.059895e-01 1.053532e-02 0.0
7.034333e-01 9.987511e-03 0.0
7.009730e-01 9.441817e-03 0.0
6.986098e-01 8.893207e-03 0.0
6.963457e-01 8.336205e-03 0.0
6.941838e-01 7.764837e-03 0.0
6.921281e-01 7.172609e-03 0.0
6.901844e-01 6.552523e-03 0.0
6.883608e-01 5.897164e-03 0.0
6.866690e-01 5.198894e-03 0.0
6.851262e-01 4.450259e-03 0.0
6.837591e-01 3.644805e-03 0.0
6.826098e-01 2.778440e-03 0.0
6.817461e-01 1.852907e-03 0.0
6.812699e-01 8.884344e-04 0.0
6.812695e-01 2.784577e-06 0.0
0.000000e+00 2.810746e-06 0.0
0.000000e+00 0.000000e+00 0.0
0.000000e+00 0.000000e+00 0.0
0.000000e+00 0.000000e+00 0.0
0.000000e+00 0.000000e+00 0.0
0.000000e+00 0.000000e+00 0.0
0.000000e+00 0.000000e+00 0.0
0.000000e+00 0.000000e+00 0.0
0.000000e+00 0.000000e+00 0.0
0.000000e+00 0.000000e+00 0.0
0.000000e+00 0.000000e+00 0.0
0.000000e+00 -7.039207e-02 0.0
-1.364549e-02 7.039248e-02 0.0
-2.291406e-02 1.109900e-01 0.0
-2.230969e-02 1.088550e-01 0.0
-1.384723e-02 9.483587e-02 0.0
1.862547e-03 7.734551e-02 0.0
2.494441e-02 5.875426e-02 0.0
5.568551e-02 3.921219e-02 0.0
9.769991e-02 1.378859e-02 0.0
1.558350e-01 -1.943991e-02 0.0
2.281852e-01 -5.924962e-02 0.0
3.103979e-01 -1.059253e-01 0.0
3.981185e-01 -1.579414e-01 0.0
4.858585e-01 -2.127809e-01 0.0
5.686413e-01 -2.665481e-01 0.0
6.420837e-01 -3.150143e-01 0.0
7.032611e-01 -3.540610e-01 0.0
7.510436e-01 -3.804479e-01 0.0
7.856429e-01 -3.924752e-01 0.0
8.081652e-01 -3.895854e-01 0.0
8.215110e-01 -3.731442e-01 0.0
8.291152e-01 -3.467543e-01 0.0
8.334691e-01 -3.138606e-01 0.0
8.362480e-01 -2.773705e-01 0.0
8.384627e-01 -2.396127e-01 0.0
8.406561e-01 -2.024073e-01 0.0
8.430815e-01 -1.671030e-01 0.0
8.457579e-01 -1.344879e-01 0.0
8.485807e-01 -1.050052e-01 0.0
8.513904e-01 -7.884604e-02 0.0
8.540372e-01 -5.606440e-02 0.0
8.563984e-01 -3.658536e-02 0.0
8.583556e-01 -2.020229e-02 0.0
8.598234e-01 -6.698415e-03 0.0
8.607704e-01 4.172444e-03 0.0
8.612077e-01 1.288362e-02 0.0
8.611585e-01 1.982740e-02 0.0
8.606566e-01 2.530906e-02 0.0
8.597424e-01 2.957533e-02 0.0
8.584599e-01 3.282979e-02 0.0
8.568530e-01 3.524242e-02 0.0
8.549641e-01 3.695635e-02 0.0
8.528326e-01 3.809240e-02 0.0
8.504920e-01 3.875227e-02 0.0
8.479658e-01 3.902105e-02 0.0
8.452758e-01 3.896705e-02 0.0
8.424460e-01 3.864615e-02 0.0
8.395000e-01 3.810698e-02 0.0
8.364599e-01 3.739210e-02 0.0
8.333459e-01 3.653882e-02 0.0
8.301756e-01 3.558032e-02 0.0
8.269647e-01 3.454403e-02 0.0
8.237272e-01 3.345337e-02 0.0
8.204753e-01 3.232812e-02 0.0
8.172200e-01 3.118477e-02 0.0
8.139707e-01 3.003692e-02 0.0
8.107356e-01 2.889564e-02 0.0
8.075221e-01 2.776981e-02 0.0
8.043364e-01 2.666641e-02 0.0
8.011840e-01 2.559075e-02 0.0
7.980695e-01 2.454677e-02 0.0
7.949971e-01 2.353717e-02 0.0
7.919701e-01 2.256368e-02 0.0
7.889915e-01 2.162710e-02 0.0
7.860638e-01 2.072753e-02 0.0
7.831890e-01 1.986441e-02 0.0
7.803689e-01 1.903668e-02 0.0
7.776050e-01 1.824280e-02 0.0
7.748985e-01 1.748085e-02 0.0
7.722506e-01 1.674857e-02 0.0
7.696621e-01 1.604337e-02 0.0
7.671340e-01 1.536236e-02 0.0
7.646672e-01 1.470238e-02 0.0
7.622626e-01 1.405995e-02 0.0
7.599212e-01 1.343129e-02 0.0
7.576441e-01 1.281241e-02 0.0
7.554327e-01 1.219898e-02 0.0
7.532885e-01 1.158604e-02 0.0
7.512136e-01 1.096816e-02 0.0
7.492105e-01 1.033930e-02 0.0
7.472826e-01 9.692786e-03 0.0
7.454341e-01 9.021114e-03 0.0
7.436708e-01 8.315838e-03 0.0
7.420006e-01 7.567356e-03 0.0
7.404350e-01 6.764599e-03 0.0
7.389907e-01 5.894526e-03 0.0
7.376943e-01 4.941287e-03 0.0
7.365879e-01 3.884788e-03 0.0
7.357412e-01 2.699682e-03 0.0
7.352630e-01 1.366662e-03 0.0
7.352628e-01 3.029186e-06 0.0
0.000000e+00 3.058085e-06 0.0
0.000000e+00 0.000000e+00 0.0
0.000000e+00 0.000000e+00 0.0
0.000000e+00 0.000000e+00 0.0
0.000000e+00 0.000000e+00 0.0
0.000000e+00 0.000000e+00 0.0
0.000000e+00 0.000000e+00 0.0
0.000000e+00 0.000000e+00 0.0
0.000000e+00 0.000000e+00 0.0
0.000000e+00 0.000000e+00 0.0
0.000000e+00 0.000000e+00 0.0
0.000000e+00 -8.412145e-02 0.0
-1.372797e-02 8.412083e-02 0.0
-5.680445e-03 1.029445e-01 0.0
1.884733e-02 8.432750e-02 0.0
5.209146e-02 6.159124e-02 0.0
9.296406e-02 3.647277e-02 0.0
1.441700e-01 7.548482e-03 0.0
2.087225e-01 -2.534065e-02 0.0
2.841021e-01 -6.159220e-02 0.0
3.668618e-01 -1.022002e-01 0.0
4.542242e-01 -1.466110e-01 0.0
5.422347e-01 -1.939338e-01 0.0
6.266889e-01 -2.423945e-01 0.0
7.034087e-01 -2.895019e-01 0.0
7.690084e-01 -3.321500e-01 0.0
8.211929e-01 -3.672001e-01 0.0
8.590873e-01 -3.919547e-01 0.0
8.832457e-01 -4.046046e-01 0.0
8.952188e-01 -4.044471e-01 0.0
8.975045e-01 -3.918715e-01 0.0
8.938228e-01 -3.694635e-01 0.0
8.869802e-01 -3.399125e-01 0.0
8.790276e-01 -3.059080e-01 0.0
8.712902e-01 -2.696326e-01 0.0
8.645133e-01 -2.328354e-01 0.0
8.590503e-01 -1.969441e-01 0.0
8.550368e-01 -1.630896e-01 0.0
8.523652e-01 -1.318165e-01 0.0
8.508299e-01 -1.034700e-01 0.0
8.501930e-01 -7.820906e-02 0.0
8.501948e-01 -5.606609e-02 0.0
8.505805e-01 -3.697091e-02 0.0
8.511462e-01 -2.076796e-02 0.0
8.517210e-01 -7.273291e-03 0.0
8.521676e-01 3.725845e-03 0.0
8.523995e-01 1.265169e-02 0.0
8.523777e-01 1.984923e-02 0.0
8.520918e-01 2.559507e-02 0.0
8.515489e-01 3.011830e-02 0.0
8.507666e-01 3.361212e-02 0.0
8.497680e-01 3.624103e-02 0.0
8.485784e-01 3.814587e-02 0.0
8.472234e-01 3.944739e-02 0.0
8.457267e-01 4.024901e-02 0.0
8.441087e-01 4.063914e-02 0.0
8.423831e-01 4.069270e-02 0.0
8.405637e-01 4.046555e-02 0.0
8.386651e-01 4.000558e-02 0.0
8.367010e-01 3.935627e-02 0.0
8.346835e-01 3.855634e-02 0.0
8.326239e-01 3.763993e-02 0.0
8.305319e-01 3.663610e-02 0.0
8.284157e-01 3.556959e-02 0.0
8.262825e-01 3.446126e-02 0.0
8.241388e-01 3.332853e-02 0.0
8.219899e-01 3.218581e-02 0.0
8.198408e-01 3.104483e-02 0.0
8.176956e-01 2.991506e-02 0.0
8.155581e-01 2.880397e-02 0.0
8.134315e-01 2.771732e-02 0.0
8.113189e-01 2.665939e-02 0.0
8.092228e-01 2.563325e-02 0.0
8.071457e-01 2.464087e-02 0.0
8.050895e-01 2.368332e-02 0.0
8.030562e-01 2.276090e-02 0.0
8.010474e-01 2.187323e-02 0.0
7.990646e-01 2.101941e-02 0.0
7.971094e-01 2.019804e-02 0.0
7.951830e-01 1.940729e-02 0.0
7.932866e-01 1.864498e-02 0.0
7.914214e-01 1.790857e-02 0.0
7.895886e-01 1.719521e-02 0.0
7.877893e-01 1.650170e-02 0.0
7.860248e-01 1.582453e-02 0.0
7.842963e-01 1.515979e-02 0.0
7.826052e-01 1.450349e-02 0.0
7.809530e-01 1.385125e-02 0.0
7.793413e-01 1.319779e-02 0.0
7.777721e-01 1.253735e-02 0.0
7.762479e-01 1.186352e-02 0.0
7.747717e-01 1.116905e-02 0.0
7.733472e-01 1.044564e-02 0.0
7.719794e-01 9.683690e-03 0.0
7.706750e-01 8.871759e-03 0.0
7.694437e-01 7.995888e-03 0.0
7.683000e-01 7.038307e-03 0.0
7.672661e-01 5.975224e-03 0.0
7.663778e-01 4.773049e-03 0.0
7.656939e-01 3.383685e-03 0.0
7.653060e-01 1.754587e-03 0.0
7.653060e-01 3.072476e-06 0.0
0.000000e+00 3.102341e-06 0.0
0.000000e+00 0.000000e+00 0.0
0.000000e+00 0.000000e+00 0.0
0.000000e+00 0.000000e+00 0.0
0.000000e+00 0.000000e+00 0.0
0.000000e+00 0.000000e+00 0.0
0.000000e+00 0.000000e+00 0.0
0.000000e+00 0.000000e+00 0.0
0.000000e+00 0.000000e+00 0.0
0.000000e+00 0.000000e+00 0.0
0.000000e+00 0.000000e+00 0.0
0.000000e+00 -7.896739e-02 0.0
5.155798e-03 7.896469e-02 0.0
5.423390e-02 5.386718e-02 0.0
1.182572e-01 2.030305e-02 0.0
1.921547e-01 -1.230831e-02 0.0
2.729654e-01 -4.433890e-02 0.0
3.575254e-01 -7.701134e-02 0.0
4.441274e-01 -1.119427e-01 0.0
5.315466e-01 -1.490120e-01 0.0
6.174329e-01 -1.880866e-01 0.0
6.992260e-01 -2.284027e-01 0.0
7.740690e-01 -2.687750e-01 0.0
8.391884e-01 -3.075137e-01 0.0
8.922365e-01 -3.425517e-01 0.0
9.317157e-01 -3.716312e-01 0.0