# vtk DataFile Version 3.0
Vector Field
ASCII
DATASET RECTILINEAR_GRID
DIMENSIONS 102 22 1
X_COORDINATES 102 double
0.000000 0.100000 0.200000 0.300000 0.400000 0.500000 0.600000 0.700000 0.800000 0.900000 1.000000 1.100000 1.200000 1.300000 1.400000 1.500000 1.600000 1.700000 1.800000 1.900000 2.000000 2.100000 2.200000 2.300000 2.400000 2.500000 2.600000 2.700000 2.800000 2.900000 3.000000 3.100000 3.200000 3.300000 3.400000 3.500000 3.600000 3.700000 3.800000 3.900000 4.000000 4.100000 4.200000 4.300000 4.400000 4.500000 4.600000 4.700000 4.800000 4.900000 5.000000 5.100000 5.200000 5.300000 5.400000 5.500000 5.600000 5.700000 5.800000 5.900000 6.000000 6.100000 6.200000 6.300000 6.400000 6.500000 6.600000 6.700000 6.800000 6.900000 7.000000 7.100000 7.200000 7.300000 7.400000 7.500000 7.600000 7.700000 7.800000 7.900000 8.000000 8.100000 8.200000 8.300000 8.400000 8.500000 8.600000 8.700000 8.800000 8.900000 9.000000 9.100000 9.200000 9.300000 9.400000 9.500000 9.600000 9.700000 9.800000 9.900000 10.000000 10.100000 
Y_COORDINATES 22 double
0.000000 0.100000 0.200000 0.300000 0.400000 0.500000 0.600000 0.700000 0.800000 0.900000 1.000000 1.100000 1.200000 1.300000 1.400000 1.500000 1.600000 1.700000 1.800000 1.900000 2.000000 2.100000 
Z_COORDINATES 1 double
0.0
POINT_DATA 2244
VECTORS Velocity double
0.000000e+00 0.000000e+00 0.0
-0.000000e+00 0.000000e+00 0.0
-0.000000e+00 0.000000e+00 0.0
-0.000000e+00 0.000000e+00 0.0
-0.000000e+00 0.000000e+00 0.0
-0.000000e+00 0.000000e+00 0.0
-0.000000e+00 0.000000e+00 0.0
-0.000000e+00 0.000000e+00 0.0
-0.000000e+00 0.000000e+00 0.0
-0.000000e+00 0.000000e+00 0.0
-0.000000e+00 0.000000e+00 0.0
-3.559917e-03 0.000000e+00 0.0
2.368061e-03 0.000000e+00 0.0
1.145699e-02 0.000000e+00 0.0
2.216164e-02 0.000000e+00 0.0
3.421192e-02 0.000000e+00 0.0
4.790634e-02 0.000000e+00 0.0
6.365779e-02 0.000000e+00 0.0
8.179008e-02 0.000000e+00 0.0
1.024046e-01 0.000000e+00 0.0
1.252120e-01 0.000000e+00 0.0
1.493271e-01 0.000000e+00 0.0
1.729883e-01 0.000000e+00 0.0
1.933213e-01 0.000000e+00 0.0
2.066333e-01 0.000000e+00 0.0
2.087489e-01 0.000000e+00 0.0
1.960275e-01 0.000000e+00 0.0
1.676659e-01 0.000000e+00 0.0
1.261877e-01 0.000000e+00 0.0
7.689629e-02 0.000000e+00 0.0
2.657667e-02 0.000000e+00 0.0
-1.857834e-02 0.000000e+00 0.0
-5.379114e-02 0.000000e+00 0.0
-7.912617e-02 0.000000e+00 0.0
-9.608737e-02 0.000000e+00 0.0
-1.065634e-01 0.000000e+00 0.0
-1.124115e-01 0.000000e+00 0.0
-1.151502e-01 0.000000e+00 0.0
-1.157116e-01 0.000000e+00 0.0
-1.148881e-01 0.000000e+00 0.0
-1.133505e-01 0.000000e+00 0.0
-1.115853e-01 0.000000e+00 0.0
-1.098918e-01 0.000000e+00 0.0
-1.084137e-01 0.000000e+00 0.0
-1.072012e-01 0.000000e+00 0.0
-1.062542e-01 0.000000e+00 0.0
-1.055482e-01 0.000000e+00 0.0
-1.050482e-01 0.000000e+00 0.0
-1.047175e-01 0.000000e+00 0.0
-1.045211e-01 0.000000e+00 0.0
-1.044285e-01 0.000000e+00 0.0
-1.044139e-01 0.000000e+00 0.0
-1.044563e-01 0.000000e+00 0.0
-1.045387e-01 0.000000e+00 0.0
-1.046481e-01 0.000000e+00 0.0
-1.047740e-01 0.000000e+00 0.0
-1.049085e-01 0.000000e+00 0.0
-1.050457e-01 0.000000e+00 0.0
-1.051815e-01 0.000000e+00 0.0
-1.053130e-01 0.000000e+00 0.0
-1.054386e-01 0.000000e+00 0.0
-1.055574e-01 0.000000e+00 0.0
-1.056693e-01 0.000000e+00 0.0
-1.057742e-01 0.000000e+00 0.0
-1.058723e-01 0.000000e+00 0.0
-1.059641e-01 0.000000e+00 0.0
-1.060500e-01 0.000000e+00 0.0
-1.061305e-01 0.000000e+00 0.0
-1.062060e-01 0.000000e+00 0.0
-1.062770e-01 0.000000e+00 0.0
-1.063439e-01 0.000000e+00 0.0
-1.064071e-01 0.000000e+00 0.0
-1.064670e-01 0.000000e+00 0.0
-1.065238e-01 0.000000e+00 0.0
-1.065779e-01 0.000000e+00 0.0
-1.066295e-01 0.000000e+00 0.0
-1.066789e-01 0.000000e+00 0.0
-1.067262e-01 0.000000e+00 0.0
-1.067716e-01 0.000000e+00 0.0
-1.068153e-01 0.000000e+00 0.0
-1.068574e-01 0.000000e+00 0.0
-1.068980e-01 0.000000e+00 0.0
-1.069373e-01 0.000000e+00 0.0
-1.069755e-01 0.000000e+00 0.0
-1.070128e-01 0.000000e+00 0.0
-1.070494e-01 0.000000e+00 0.0
-1.070860e-01 0.000000e+00 0.0
-1.071234e-01 0.000000e+00 0.0
-1.071624e-01 0.000000e+00 0.0
-1.072047e-01 0.000000e+00 0.0
-1.072521e-01 0.000000e+00 0.0
-1.073076e-01 0.000000e+00 0.0
-1.073750e-01 0.000000e+00 0.0
-1.074599e-01 0.000000e+00 0.0
-1.075692e-01 0.000000e+00 0.0
-1.077120e-01 0.000000e+00 0.0
-1.078975e-01 0.000000e+00 0.0
-1.081326e-01 0.000000e+00 0.0
-1.084158e-01 0.000000e+00 0.0
-1.087391e-01 0.000000e+00 0.0
-1.087391e-01 0.000000e+00 0.0
0.000000e+00 0.000000e+00 0.0
0.000000e+00 0.000000e+00 0.0
0.000000e+00 0.000000e+00 0.0
0.000000e+00 0.000000e+00 0.0
0.000000e+00 0.000000e+00 0.0
0.000000e+00 0.000000e+00 0.0
0.000000e+00 0.000000e+00 0.0
0.000000e+00 0.000000e+00 0.0
0.000000e+00 0.000000e+00 0.0
0.000000e+00 0.000000e+00 0.0
0.000000e+00 0.000000e+00 0.0
0.000000e+00 -4.306964e-03 0.0
3.516569e-03 4.270126e-03 0.0
-2.365985e-03 1.035990e-02 0.0
-1.137963e-02 1.349099e-02 0.0
-2.198508e-02 1.508280e-02 0.0
-3.390738e-02 1.639964e-02 0.0
-4.744054e-02 1.801050e-02 0.0
-6.299872e-02 2.003552e-02 0.0
-8.091522e-02 2.239384e-02 0.0
-1.013120e-01 2.487410e-02 0.0
-1.239332e-01 2.709853e-02 0.0
-1.479407e-01 2.848480e-02 0.0
-1.716469e-01 2.818356e-02 0.0
-1.922400e-01 2.507046e-02 0.0
-2.060747e-01 1.831200e-02 0.0
-2.089897e-01 7.392258e-03 0.0
-1.972444e-01 -7.267995e-03 0.0
-1.698074e-01 -2.295970e-02 0.0
-1.290269e-01 -3.630313e-02 0.0
-7.997535e-02 -4.457430e-02 0.0
-2.949071e-02 -4.600736e-02 0.0
1.628798e-02 -4.130141e-02 0.0
5.222128e-02 -3.145603e-02 0.0
7.818122e-02 -2.148267e-02 0.0
9.562294e-02 -1.296446e-02 0.0
1.064282e-01 -6.327970e-03 0.0
1.124671e-01 -1.561716e-03 0.0
1.153045e-01 1.639871e-03 0.0
1.158948e-01 3.886972e-03 0.0
1.150424e-01 5.329669e-03 0.0
1.134395e-01 6.080044e-03 0.0
1.115931e-01 6.323675e-03 0.0
1.098176e-01 6.252716e-03 0.0
1.082646e-01 6.030150e-03 0.0
1.069879e-01 5.753960e-03 0.0
1.059882e-01 5.476880e-03 0.0
1.052405e-01 5.224894e-03 0.0
1.047089e-01 5.008825e-03 0.0
1.043549e-01 4.831105e-03 0.0
1.041424e-01 4.689693e-03 0.0
1.040392e-01 4.580373e-03 0.0
1.040182e-01 4.498141e-03 0.0
1.040574e-01 4.438031e-03 0.0
1.041389e-01 4.395594e-03 0.0
1.042490e-01 4.367092e-03 0.0
1.043766e-01 4.349462e-03 0.0
1.045136e-01 4.340119e-03 0.0
1.046537e-01 4.337071e-03 0.0
1.047923e-01 4.338523e-03 0.0
1.049264e-01 4.343018e-03 0.0
1.050542e-01 4.349254e-03 0.0
1.051750e-01 4.356360e-03 0.0
1.052883e-01 4.363777e-03 0.0
1.053942e-01 4.371148e-03 0.0
1.054931e-01 4.378254e-03 0.0
1.055852e-01 4.384961e-03 0.0
1.056710e-01 4.391196e-03 0.0
1.057512e-01 4.396928e-03 0.0
1.058261e-01 4.402156e-03 0.0
1.058962e-01 4.406899e-03 0.0
1.059621e-01 4.411186e-03 0.0
1.060241e-01 4.415055e-03 0.0
1.060826e-01 4.418543e-03 0.0
1.061379e-01 4.421691e-03 0.0
1.061904e-01 4.424535e-03 0.0
1.062404e-01 4.427111e-03 0.0
1.062879e-01 4.429450e-03 0.0
1.063334e-01 4.431581e-03 0.0
1.063768e-01 4.433528e-03 0.0
1.064185e-01 4.435310e-03 0.0
1.064586e-01 4.436941e-03 0.0
1.064972e-01 4.438426e-03 0.0
1.065344e-01 4.439764e-03 0.0
1.065705e-01 4.440934e-03 0.0
1.066056e-01 4.441889e-03 0.0
1.066401e-01 4.442519e-03 0.0
1.066744e-01 4.442597e-03 0.0
1.067095e-01 4.441916e-03 0.0
1.067463e-01 4.440211e-03 0.0
1.067862e-01 4.437089e-03 0.0
1.068312e-01 4.431976e-03 0.0
1.068841e-01 4.424057e-03 0.0
1.069489e-01 4.412218e-03 0.0
1.070308e-01 4.395017e-03 0.0
1.071370e-01 4.370750e-03 0.0
1.072762e-01 4.337774e-03 0.0
1.074577e-01 4.295459e-03 0.0
1.076884e-01 4.246314e-03 0.0
1.079666e-01 4.198789e-03 0.0
1.082846e-01 4.158941e-03 0.0
1.087391e-01 4.022506e-03 0.0
0.000000e+00 4.061254e-03 0.0
0.000000e+00 0.000000e+00 0.0
0.000000e+00 0.000000e+00 0.0
0.000000e+00 0.000000e+00 0.0
0.000000e+00 0.000000e+00 0.0
0.000000e+00 0.000000e+00 0.0
0.000000e+00 0.000000e+00 0.0
0.000000e+00 0.000000e+00 0.0
0.000000e+00 0.000000e+00 0.0
0.000000e+00 0.000000e+00 0.0
0.000000e+00 0.000000e+00 0.0
0.000000e+00 -1.117482e-02 0.0
-2.329760e-03 1.107723e-02 0.0
-1.946510e-02 2.866325e-02 0.0
-4.307085e-02 3.826474e-02 0.0
-6.982579e-02 4.300574e-02 0.0
-9.833948e-02 4.608132e-02 0.0
-1.281720e-01 4.901105e-02 0.0
-1.590514e-01 5.208288e-02 0.0
-1.904980e-01 5.500846e-02 0.0
-2.216430e-01 5.718705e-02 0.0
-2.510645e-01 5.768806e-02 0.0
-2.766822e-01 5.527050e-02 0.0
-2.957573e-01 4.842664e-02 0.0
-3.049096e-01 3.539077e-02 0.0
-2.998772e-01 1.444759e-02 0.0
-2.759515e-01 -1.536550e-02 0.0
-2.329164e-01 -4.913508e-02 0.0
-1.731341e-01 -8.157395e-02 0.0
-1.015873e-01 -1.066820e-01 0.0
-2.343856e-02 -1.215550e-01 0.0
5.138829e-02 -1.196662e-01 0.0
1.149702e-01 -1.037153e-01 0.0
1.672417e-01 -8.255960e-02 0.0
2.081234e-01 -6.119634e-02 0.0
2.384827e-01 -4.215582e-02 0.0
2.598113e-01 -2.648855e-02 0.0
2.738162e-01 -1.439863e-02 0.0
2.822253e-01 -5.601260e-03 0.0
2.868486e-01 4.316021e-04 0.0
2.889232e-01 4.423011e-03 0.0
2.893146e-01 6.856620e-03 0.0
2.887414e-01 8.064862e-03 0.0
2.877473e-01 8.414853e-03 0.0
2.867147e-01 8.230689e-03 0.0
2.858443e-01 7.792307e-03 0.0
2.852254e-01 7.263740e-03 0.0
2.848801e-01 6.738172e-03 0.0
2.847925e-01 6.264361e-03 0.0
2.849281e-01 5.863505e-03 0.0
2.852454e-01 5.540308e-03 0.0
2.857035e-01 5.290232e-03 0.0
2.862653e-01 5.104233e-03 0.0
2.868995e-01 4.971790e-03 0.0
2.875803e-01 4.882758e-03 0.0
2.882871e-01 4.828299e-03 0.0
2.890034e-01 4.801065e-03 0.0
2.897171e-01 4.794412e-03 0.0
2.904186e-01 4.803444e-03 0.0
2.911021e-01 4.822959e-03 0.0
2.917645e-01 4.848580e-03 0.0
2.924042e-01 4.877523e-03 0.0
2.930206e-01 4.907888e-03 0.0
2.936139e-01 4.938348e-03 0.0
2.941850e-01 4.968002e-03 0.0
2.947349e-01 4.996279e-03 0.0
2.952650e-01 5.022839e-03 0.0
2.957766e-01 5.047506e-03 0.0
2.962712e-01 5.070221e-03 0.0
2.967503e-01 5.091011e-03 0.0
2.972152e-01 5.109955e-03 0.0
2.976671e-01 5.127168e-03 0.0
2.981073e-01 5.142780e-03 0.0
2.985368e-01 5.156930e-03 0.0
2.989567e-01 5.169755e-03 0.0
2.993678e-01 5.181389e-03 0.0
2.997708e-01 5.191955e-03 0.0
3.001666e-01 5.201568e-03 0.0
3.005558e-01 5.210331e-03 0.0
3.009389e-01 5.218333e-03 0.0
3.013165e-01 5.225651e-03 0.0
3.016890e-01 5.232343e-03 0.0
3.020569e-01 5.238446e-03 0.0
3.024206e-01 5.243968e-03 0.0
3.027806e-01 5.248880e-03 0.0
3.031373e-01 5.253095e-03 0.0
3.034912e-01 5.256443e-03 0.0
3.038432e-01 5.258592e-03 0.0
3.041942e-01 5.258765e-03 0.0
3.045460e-01 5.256308e-03 0.0
3.049008e-01 5.250262e-03 0.0
3.052615e-01 5.239192e-03 0.0
3.056324e-01 5.221023e-03 0.0
3.060197e-01 5.192843e-03 0.0
3.064319e-01 5.150694e-03 0.0
3.068811e-01 5.089453e-03 0.0
3.073838e-01 5.003015e-03 0.0
3.079618e-01 4.885349e-03 0.0
3.086427e-01 4.733349e-03 0.0
3.094582e-01 4.551196e-03 0.0
3.104465e-01 4.338467e-03 0.0
3.117302e-01 3.906744e-03 0.0
0.000000e+00 3.938568e-03 0.0
0.000000e+00 0.000000e+00 0.0
0.000000e+00 0.000000e+00 0.0
0.000000e+00 0.000000e+00 0.0
0.000000e+00 0.000000e+00 0.0
0.000000e+00 0.000000e+00 0.0
0.000000e+00 0.000000e+00 0.0
0.000000e+00 0.000000e+00 0.0
0.000000e+00 0.000000e+00 0.0
0.000000e+00 0.000000e+00 0.0
0.000000e+00 0.000000e+00 0.0
0.000000e+00 -2.340351e-02 0.0
-7.665296e-03 2.321988e-02 0.0
-3.165664e-02 5.382260e-02 0.0
-6.142144e-02 6.919754e-02 0.0
-9.274299e-02 7.549530e-02 0.0
-1.236540e-01 7.816032e-02 0.0
-1.532635e-01 7.978854e-02 0.0
-1.809739e-01 8.096130e-02 0.0
-2.061293e-01 8.133185e-02 0.0
-2.278980e-01 8.012373e-02 0.0
-2.451541e-01 7.611222e-02 0.0
-2.563628e-01 6.764711e-02 0.0
-2.590469e-01 5.227880e-02 0.0
-2.488845e-01 2.639633e-02 0.0
-2.190250e-01 -1.424395e-02 0.0
-1.707688e-01 -6.245369e-02 0.0
-1.065158e-01 -1.122201e-01 0.0
-3.071073e-02 -1.562110e-01 0.0
4.889359e-02 -1.851183e-01 0.0
1.218557e-01 -1.933492e-01 0.0
1.852633e-01 -1.819059e-01 0.0
2.405440e-01 -1.578280e-01 0.0
2.873835e-01 -1.282311e-01 0.0
3.255965e-01 -9.824134e-02 0.0
3.555468e-01 -7.093814e-02 0.0
3.780643e-01 -4.783810e-02 0.0
3.942441e-01 -2.941040e-02 0.0
4.052936e-01 -1.548284e-02 0.0
4.124284e-01 -5.535243e-03 0.0
4.168854e-01 1.134015e-03 0.0
4.195574e-01 5.352583e-03 0.0
4.211273e-01 7.662915e-03 0.0
4.220779e-01 8.632229e-03 0.0
4.227603e-01 8.716241e-03 0.0
4.234139e-01 8.306720e-03 0.0
4.241714e-01 7.674170e-03 0.0
4.250919e-01 6.985656e-03 0.0
4.261867e-01 6.337471e-03 0.0
4.274398e-01 5.778332e-03 0.0
4.288218e-01 5.326340e-03 0.0
4.302988e-01 4.981137e-03 0.0
4.318386e-01 4.732393e-03 0.0
4.334128e-01 4.565554e-03 0.0
4.349979e-01 4.465637e-03 0.0
4.365747e-01 4.419400e-03 0.0
4.381276e-01 4.416089e-03 0.0
4.396438e-01 4.446188e-03 0.0
4.411173e-01 4.497901e-03 0.0
4.425453e-01 4.562893e-03 0.0
4.439262e-01 4.635558e-03 0.0
4.452598e-01 4.711914e-03 0.0
4.465466e-01 4.789022e-03 0.0
4.477882e-01 4.864689e-03 0.0
4.489867e-01 4.937395e-03 0.0
4.501447e-01 5.006194e-03 0.0
4.512650e-01 5.070550e-03 0.0
4.523502e-01 5.130211e-03 0.0
4.534032e-01 5.185134e-03 0.0
4.544267e-01 5.235434e-03 0.0
4.554233e-01 5.281325e-03 0.0
4.563953e-01 5.323079e-03 0.0
4.573450e-01 5.361002e-03 0.0
4.582744e-01 5.395412e-03 0.0
4.591855e-01 5.426622e-03 0.0
4.600798e-01 5.454936e-03 0.0
4.609591e-01 5.480640e-03 0.0
4.618246e-01 5.503996e-03 0.0
4.626776e-01 5.525247e-03 0.0
4.635192e-01 5.544607e-03 0.0
4.643505e-01 5.562262e-03 0.0
4.651724e-01 5.578365e-03 0.0
4.659857e-01 5.593032e-03 0.0
4.667913e-01 5.606330e-03 0.0
4.675898e-01 5.618262e-03 0.0
4.683820e-01 5.628752e-03 0.0
4.691688e-01 5.637610e-03 0.0
4.699508e-01 5.644484e-03 0.0
4.707287e-01 5.648732e-03 0.0
4.715041e-01 5.648847e-03 0.0
4.722788e-01 5.643450e-03 0.0
4.730555e-01 5.630442e-03 0.0
4.738377e-01 5.606719e-03 0.0
4.746306e-01 5.567813e-03 0.0
4.754418e-01 5.507436e-03 0.0
4.762822e-01 5.416965e-03 0.0
4.771682e-01 5.284946e-03 0.0
4.781245e-01 5.096957e-03 0.0
4.791894e-01 4.836340e-03 0.0
4.804230e-01 4.485518e-03 0.0
4.819137e-01 4.015685e-03 0.0
4.837266e-01 3.261684e-03 0.0
0.000000e+00 3.281717e-03 0.0
0.000000e+00 0.000000e+00 0.0
0.000000e+00 0.000000e+00 0.0
0.000000e+00 0.000000e+00 0.0
0.000000e+00 0.000000e+00 0.0
0.000000e+00 0.000000e+00 0.0
0.000000e+00 0.000000e+00 0.0
0.000000e+00 0.000000e+00 0.0
0.000000e+00 0.000000e+00 0.0
0.000000e+00 0.000000e+00 0.0
0.000000e+00 0.000000e+00 0.0
0.000000e+00 -3.651627e-02 0.0
-8.591654e-03 3.628888e-02 0.0
-3.189152e-02 7.829047e-02 0.0
-5.838654e-02 9.686056e-02 0.0
-8.401865e-02 1.022954e-01 0.0
-1.069160e-01 1.022256e-01 0.0
-1.263175e-01 1.003581e-01 0.0
-1.418636e-01 9.767543e-02 0.0
-1.532602e-01 9.389638e-02 0.0
-1.600209e-01 8.805247e-02 0.0
-1.611705e-01 7.842978e-02 0.0
-1.551705e-01 6.281511e-02 0.0
-1.388131e-01 3.708946e-02 0.0
-1.044362e-01 -6.812646e-03 0.0
-5.076286e-02 -6.674926e-02 0.0
1.868150e-02 -1.307301e-01 0.0
9.464684e-02 -1.870175e-01 0.0
1.685366e-01 -2.289328e-01 0.0
2.354788e-01 -2.508926e-01 0.0
2.929107e-01 -2.496130e-01 0.0
3.412931e-01 -2.291203e-01 0.0
3.820868e-01 -1.974537e-01 0.0
4.161201e-01 -1.610964e-01 0.0
4.438795e-01 -1.248327e-01 0.0
4.658634e-01 -9.175413e-02 0.0
4.827083e-01 -6.351504e-02 0.0
4.951656e-01 -4.069971e-02 0.0
5.040353e-01 -2.318453e-02 0.0
5.101047e-01 -1.043671e-02 0.0
5.141317e-01 -1.724949e-03 0.0
5.169070e-01 3.745185e-03 0.0
5.189561e-01 6.781841e-03 0.0
5.206487e-01 8.107607e-03 0.0
5.222132e-01 8.319693e-03 0.0
5.238102e-01 7.877650e-03 0.0
5.255343e-01 7.118038e-03 0.0
5.274256e-01 6.262366e-03 0.0
5.294857e-01 5.445321e-03 0.0
5.316929e-01 4.739047e-03 0.0
5.340139e-01 4.173258e-03 0.0
5.364121e-01 3.750898e-03 0.0
5.388528e-01 3.459671e-03 0.0
5.413061e-01 3.280232e-03 0.0
5.437475e-01 3.192136e-03 0.0
5.461567e-01 3.178160e-03 0.0
5.485171e-01 3.223615e-03 0.0
5.508207e-01 3.310594e-03 0.0
5.530613e-01 3.425234e-03 0.0
5.552349e-01 3.557224e-03 0.0
5.573394e-01 3.698957e-03 0.0
5.593745e-01 3.844783e-03 0.0
5.613411e-01 3.990407e-03 0.0
5.632412e-01 4.132472e-03 0.0
5.650780e-01 4.268568e-03 0.0
5.668548e-01 4.397254e-03 0.0
5.685756e-01 4.517728e-03 0.0
5.702441e-01 4.629600e-03 0.0
5.718644e-01 4.732810e-03 0.0
5.734402e-01 4.827558e-03 0.0
5.749752e-01 4.914209e-03 0.0
5.764730e-01 4.993228e-03 0.0
5.779368e-01 5.065137e-03 0.0
5.793696e-01 5.130486e-03 0.0
5.807743e-01 5.189824e-03 0.0
5.821535e-01 5.243687e-03 0.0
5.835095e-01 5.292582e-03 0.0
5.848444e-01 5.336988e-03 0.0
5.861602e-01 5.377344e-03 0.0
5.874587e-01 5.414048e-03 0.0
5.887414e-01 5.447458e-03 0.0
5.900098e-01 5.477877e-03 0.0
5.912652e-01 5.505557e-03 0.0
5.925088e-01 5.530680e-03 0.0
5.937416e-01 5.553346e-03 0.0
5.949647e-01 5.573551e-03 0.0
5.961791e-01 5.591152e-03 0.0
5.973856e-01 5.605826e-03 0.0
5.985853e-01 5.616981e-03 0.0
5.997786e-01 5.623503e-03 0.0
6.009668e-01 5.623084e-03 0.0
6.021519e-01 5.613290e-03 0.0
6.033361e-01 5.590425e-03 0.0
6.045228e-01 5.549045e-03 0.0
6.057168e-01 5.481285e-03 0.0
6.069258e-01 5.375927e-03 0.0
6.081615e-01 5.217121e-03 0.0
6.094437e-01 4.982613e-03 0.0
6.108068e-01 4.641169e-03 0.0
6.123119e-01 4.148375e-03 0.0
6.140555e-01 3.440004e-03 0.0
6.160387e-01 2.446391e-03 0.0
0.000000e+00 2.456088e-03 0.0
0.000000e+00 0.000000e+00 0.0
0.000000e+00 0.000000e+00 0.0
0.000000e+00 0.000000e+00 0.0
0.000000e+00 0.000000e+00 0.0
0.000000e+00 0.000000e+00 0.0
0.000000e+00 0.000000e+00 0.0
0.000000e+00 0.000000e+00 0.0
0.000000e+00 0.000000e+00 0.0
0.000000e+00 0.000000e+00 0.0
0.000000e+00 0.000000e+00 0.0
0.000000e+00 -4.742959e-02 0.0
-6.464898e-03 4.723113e-02 0.0
-2.402894e-02 9.702252e-02 0.0
-4.153854e-02 1.155382e-01 0.0
-5.582024e-02 1.177451e-01 0.0
-6.582591e-02 1.133993e-01 0.0
-7.113987e-02 1.068400e-01 0.0
-7.173770e-02 9.944126e-02 0.0
-6.742050e-02 9.074718e-02 0.0
-5.783779e-02 7.963776e-02 0.0
-4.137845e-02 6.313844e-02 0.0
-1.504355e-02 3.764822e-02 0.0
3.041981e-02 -7.205908e-03 0.0
9.273252e-02 -6.795736e-02 0.0
1.639468e-01 -1.367955e-01 0.0
2.375107e-01 -2.031260e-01 0.0
3.083387e-01 -2.566774e-01 0.0
3.716862e-01 -2.911123e-01 0.0
4.246974e-01 -3.027358e-01 0.0
4.665980e-01 -2.903456e-01 0.0
4.999195e-01 -2.612739e-01 0.0
5.263685e-01 -2.227347e-01 0.0
5.471306e-01 -1.806906e-01 0.0
5.630553e-01 -1.395894e-01 0.0
5.748478e-01 -1.023786e-01 0.0
5.831837e-01 -7.068299e-02 0.0
5.887321e-01 -4.508011e-02 0.0
5.921313e-01 -2.541579e-02 0.0
5.939663e-01 -1.110376e-02 0.0
5.947795e-01 -1.370198e-03 0.0
5.951401e-01 4.552635e-03 0.0
5.954044e-01 7.685439e-03 0.0
5.958124e-01 8.867564e-03 0.0
5.965007e-01 8.799367e-03 0.0
5.975303e-01 8.016086e-03 0.0
5.989262e-01 6.890086e-03 0.0
6.006773e-01 5.679169e-03 0.0
6.027462e-01 4.544364e-03 0.0
6.050803e-01 3.572905e-03 0.0
6.076214e-01 2.800110e-03 0.0
6.103125e-01 2.227767e-03 0.0
6.131020e-01 1.838111e-03 0.0
6.159466e-01 1.603594e-03 0.0
6.188117e-01 1.495028e-03 0.0
6.216712e-01 1.486557e-03 0.0
6.245070e-01 1.555812e-03 0.0
6.273025e-01 1.682968e-03 0.0
6.300456e-01 1.850161e-03 0.0
6.327271e-01 2.043662e-03 0.0
6.353411e-01 2.252867e-03 0.0
6.378841e-01 2.469694e-03 0.0
6.403545e-01 2.687959e-03 0.0
6.427524e-01 2.902551e-03 0.0
6.450794e-01 3.109468e-03 0.0
6.473382e-01 3.306399e-03 0.0
6.495318e-01 3.491994e-03 0.0
6.516639e-01 3.665444e-03 0.0
6.537383e-01 3.826397e-03 0.0
6.557588e-01 3.974954e-03 0.0
6.577294e-01 4.111495e-03 0.0
6.596540e-01 4.236565e-03 0.0
6.615363e-01 4.350826e-03 0.0
6.633797e-01 4.455009e-03 0.0
6.651875e-01 4.549869e-03 0.0
6.669630e-01 4.636161e-03 0.0
6.687089e-01 4.714618e-03 0.0
6.704278e-01 4.785942e-03 0.0
6.721223e-01 4.850789e-03 0.0
6.737945e-01 4.909771e-03 0.0
6.754464e-01 4.963441e-03 0.0
6.770799e-01 5.012294e-03 0.0
6.786966e-01 5.056752e-03 0.0
6.802981e-01 5.097159e-03 0.0
6.818856e-01 5.133763e-03 0.0
6.834603e-01 5.166689e-03 0.0
6.850235e-01 5.195912e-03 0.0
6.865760e-01 5.221203e-03 0.0
6.881188e-01 5.242055e-03 0.0
6.896527e-01 5.257536e-03 0.0
6.911778e-01 5.265880e-03 0.0
6.926951e-01 5.263927e-03 0.0
6.942056e-01 5.247839e-03 0.0
6.957107e-01 5.211827e-03 0.0
6.972126e-01 5.147348e-03 0.0
6.987145e-01 5.041887e-03 0.0
7.002224e-01 4.877099e-03 0.0
7.017471e-01 4.625828e-03 0.0
7.033092e-01 4.247047e-03 0.0
7.049476e-01 3.677807e-03 0.0
7.067233e-01 2.832186e-03 0.0
7.085941e-01 1.743575e-03 0.0
0.000000e+00 1.747716e-03 0.0
0.000000e+00 0.000000e+00 0.0
0.000000e+00 0.000000e+00 0.0
0.000000e+00 0.000000e+00 0.0
0.000000e+00 0.000000e+00 0.0
0.000000e+00 0.000000e+00 0.0
0.000000e+00 0.000000e+00 0.0
0.000000e+00 0.000000e+00 0.0
0.000000e+00 0.000000e+00 0.0
0.000000e+00 0.000000e+00 0.0
0.000000e+00 0.000000e+00 0.0
0.000000e+00 -5.661787e-02 0.0
-4.794544e-03 5.650302e-02 0.0
-1.517887e-02 1.085748e-01 0.0
-2.108899e-02 1.226163e-01 0.0
-2.144687e-02 1.192710e-01 0.0
-1.620513e-02 1.093256e-01 0.0
-5.361887e-03 9.716480e-02 0.0
1.087498e-02 8.437239e-02 0.0
3.308409e-02 6.970606e-02 0.0
6.239770e-02 5.149215e-02 0.0
1.020967e-01 2.460748e-02 0.0
1.593961e-01 -1.848324e-02 0.0
2.295248e-01 -7.616658e-02 0.0
3.060109e-01 -1.432755e-01 0.0
3.821757e-01 -2.117923e-01 0.0
4.525277e-01 -2.723101e-01 0.0
5.136072e-01 -3.165889e-01 0.0
5.632031e-01 -3.395403e-01 0.0
6.001971e-01 -3.385619e-01 0.0
6.270537e-01 -3.160342e-01 0.0
6.463702e-01 -2.794224e-01 0.0
6.600061e-01 -2.352026e-01 0.0
6.691914e-01 -1.887079e-01 0.0
6.747681e-01 -1.439981e-01 0.0
6.773993e-01 -1.038419e-01 0.0
6.776900e-01 -6.980565e-02 0.0
6.762205e-01 -4.244265e-02 0.0
6.735298e-01 -2.155709e-02 0.0
6.701132e-01 -6.519200e-03 0.0
6.665330e-01 3.377987e-03 0.0
6.631120e-01 9.141576e-03 0.0
6.601189e-01 1.184652e-02 0.0
6.577348e-01 1.241966e-02 0.0
6.560295e-01 1.167258e-02 0.0
6.550415e-01 1.017212e-02 0.0
6.547557e-01 8.343792e-03 0.0
6.551199e-01 6.482890e-03 0.0
6.560584e-01 4.773861e-03 0.0
6.574841e-01 3.315127e-03 0.0
6.593083e-01 2.143872e-03 0.0
6.614464e-01 1.257618e-03 0.0
6.638216e-01 6.309202e-04 0.0
6.663679e-01 2.252037e-04 0.0
6.690332e-01 -2.258835e-06 0.0
6.717758e-01 -8.811984e-05 0.0
6.745650e-01 -6.547859e-05 0.0
6.773761e-01 3.981258e-05 0.0
6.801872e-01 2.070498e-04 0.0
6.829804e-01 4.183915e-04 0.0
6.857421e-01 6.591078e-04 0.0
6.884623e-01 9.174394e-04 0.0
6.911337e-01 1.184455e-03 0.0
6.937514e-01 1.452821e-03 0.0
6.963130e-01 1.715818e-03 0.0
6.988175e-01 1.969773e-03 0.0
7.012651e-01 2.212323e-03 0.0
7.036568e-01 2.441717e-03 0.0
7.059944e-01 2.656715e-03 0.0
7.082803e-01 2.856927e-03 0.0
7.105173e-01 3.042429e-03 0.0
7.127083e-01 3.213557e-03 0.0
7.148561e-01 3.370861e-03 0.0
7.169640e-01 3.515063e-03 0.0
7.190348e-01 3.646975e-03 0.0
7.210715e-01 3.767448e-03 0.0
7.230766e-01 3.877341e-03 0.0
7.250530e-01 3.977508e-03 0.0
7.270029e-01 4.068773e-03 0.0
7.289287e-01 4.151918e-03 0.0
7.308324e-01 4.227674e-03 0.0
7.327159e-01 4.296710e-03 0.0
7.345809e-01 4.359621e-03 0.0
7.364291e-01 4.416921e-03 0.0
7.382617e-01 4.469024e-03 0.0
7.400801e-01 4.516220e-03 0.0
7.418853e-01 4.558644e-03 0.0
7.436782e-01 4.596226e-03 0.0
7.454595e-01 4.628615e-03 0.0
7.472299e-01 4.655062e-03 0.0
7.489895e-01 4.674185e-03 0.0
7.507379e-01 4.683447e-03 0.0
7.524749e-01 4.678747e-03 0.0
7.542001e-01 4.654543e-03 0.0
7.559128e-01 4.602495e-03 0.0
7.576125e-01 4.510153e-03 0.0
7.592986e-01 4.358885e-03 0.0
7.609719e-01 4.120454e-03 0.0
7.626356e-01 3.751249e-03 0.0
7.642973e-01 3.183945e-03 0.0
7.659642e-01 2.333227e-03 0.0
7.675759e-01 1.299752e-03 0.0
0.000000e+00 1.303227e-03 0.0
0.000000e+00 0.000000e+00 0.0
0.000000e+00 0.000000e+00 0.0
0.000000e+00 0.000000e+00 0.0
0.000000e+00 0.000000e+00 0.0
0.000000e+00 0.000000e+00 0.0
0.000000e+00 0.000000e+00 0.0
0.000000e+00 0.000000e+00 0.0
0.000000e+00 0.000000e+00 0.0
0.000000e+00 0.000000e+00 0.0
0.000000e+00 0.000000e+00 0.0
0.000000e+00 -6.708400e-02 0.0
-6.082569e-03 6.706294e-02 0.0
-8.574979e-03 1.122353e-01 0.0
1.418386e-04 1.150675e-01 0.0
1.711248e-02 1.034684e-01 0.0
4.059683e-02 8.700921e-02 0.0
7.034068e-02 6.858895e-02 0.0
1.059439e-01 4.993720e-02 0.0
1.497513e-01 2.706663e-02 0.0
2.064571e-01 -4.045610e-03 0.0
2.773842e-01 -4.515168e-02 0.0
3.571122e-01 -9.704323e-02 0.0
4.399389e-01 -1.578253e-01 0.0
5.199457e-01 -2.221143e-01 0.0
5.918324e-01 -2.825110e-01 0.0
6.519596e-01 -3.312693e-01 0.0
6.986991e-01 -3.621604e-01 0.0
7.318254e-01 -3.714986e-01 0.0
7.524193e-01 -3.579878e-01 0.0
7.646028e-01 -3.270496e-01 0.0
7.710640e-01 -2.847157e-01 0.0
7.735355e-01 -2.365061e-01 0.0
7.730821e-01 -1.870865e-01 0.0
7.703624e-01 -1.401104e-01 0.0
7.658414e-01 -9.815290e-02 0.0
7.599249e-01 -6.272119e-02 0.0
7.530077e-01 -3.435745e-02 0.0
7.454687e-01 -1.285020e-02 0.0
7.377780e-01 2.339476e-03 0.0
7.302797e-01 1.204432e-02 0.0
7.232065e-01 1.738268e-02 0.0
7.167885e-01 1.943250e-02 0.0
7.111811e-01 1.919501e-02 0.0
7.065019e-01 1.751978e-02 0.0
7.028021e-01 1.503987e-02 0.0
7.000717e-01 1.224215e-02 0.0
6.982546e-01 9.467938e-03 0.0
6.972650e-01 6.931484e-03 0.0
6.970015e-01 4.746516e-03 0.0
6.973592e-01 2.954196e-03 0.0
6.982365e-01 1.548215e-03 0.0
6.995404e-01 4.949941e-04 0.0
7.011836e-01 -2.501040e-04 0.0
7.030869e-01 -7.375878e-04 0.0
7.051893e-01 -1.022590e-03 0.0
7.074432e-01 -1.151430e-03 0.0
7.098100e-01 -1.159055e-03 0.0
7.122572e-01 -1.072187e-03 0.0
7.147576e-01 -9.140820e-04 0.0
7.172891e-01 -7.044236e-04 0.0
7.198342e-01 -4.597400e-04 0.0
7.223804e-01 -1.937720e-04 0.0
7.249180e-01 8.318143e-05 0.0
7.274372e-01 3.645162e-04 0.0
7.299309e-01 6.440334e-04 0.0
7.323939e-01 9.171896e-04 0.0
7.348230e-01 1.180620e-03 0.0
7.372163e-01 1.431286e-03 0.0
7.395733e-01 1.667829e-03 0.0
7.418941e-01 1.889610e-03 0.0
7.441792e-01 2.096318e-03 0.0
7.464300e-01 2.287997e-03 0.0
7.486480e-01 2.465058e-03 0.0
7.508347e-01 2.628118e-03 0.0
7.529922e-01 2.777903e-03 0.0
7.551222e-01 2.915217e-03 0.0
7.572268e-01 3.040909e-03 0.0
7.593076e-01 3.155846e-03 0.0
7.613666e-01 3.260882e-03 0.0
7.634053e-01 3.356844e-03 0.0
7.654254e-01 3.444513e-03 0.0
7.674283e-01 3.524608e-03 0.0
7.694154e-01 3.597779e-03 0.0
7.713877e-01 3.664586e-03 0.0
7.733464e-01 3.725480e-03 0.0
7.752922e-01 3.780773e-03 0.0
7.772257e-01 3.830587e-03 0.0
7.791474e-01 3.874794e-03 0.0
7.810575e-01 3.912900e-03 0.0
7.829557e-01 3.943875e-03 0.0
7.848412e-01 3.965850e-03 0.0
7.867124e-01 3.975534e-03 0.0
7.885670e-01 3.967840e-03 0.0
7.904019e-01 3.935429e-03 0.0
7.922128e-01 3.867190e-03 0.0
7.939933e-01 3.746316e-03 0.0
7.957345e-01 3.547187e-03 0.0
7.974232e-01 3.230442e-03 0.0
7.990380e-01 2.737020e-03 0.0
8.005400e-01 1.999110e-03 0.0
8.018698e-01 1.137832e-03 0.0
0.000000e+00 1.143819e-03 0.0
0.000000e+00 0.000000e+00 0.0
0.000000e+00 0.000000e+00 0.0
0.000000e+00 0.000000e+00 0.0
0.000000e+00 0.000000e+00 0.0
0.000000e+00 0.000000e+00 0.0
0.000000e+00 0.000000e+00 0.0
0.000000e+00 0.000000e+00 0.0
0.000000e+00 0.000000e+00 0.0
0.000000e+00 0.000000e+00 0.0
0.000000e+00 0.000000e+00 0.0
0.000000e+00 -7.997208e-02 0.0
-8.466025e-03 8.000632e-02 0.0
3.981074e-03 1.009562e-01 0.0
3.482081e-02 8.539574e-02 0.0
7.471459e-02 6.474257e-02 0.0
1.209463e-01 4.194546e-02 0.0
1.747181e-01 1.598517e-02 0.0
2.395175e-01 -1.369421e-02 0.0
3.148917e-01 -4.713949e-02 0.0
3.978649e-01 -8.585084e-02 0.0
4.851560e-01 -1.312748e-01 0.0
5.722513e-01 -1.829705e-01 0.0
6.539549e-01 -2.383609e-01 0.0
7.255775e-01 -2.925689e-01 0.0
7.836959e-01 -3.394614e-01 0.0
8.266895e-01 -3.730949e-01 0.0
8.547582e-01 -3.890611e-01 0.0
8.691111e-01 -3.846835e-01 0.0
8.738442e-01 -3.615529e-01 0.0
8.725572e-01 -3.245946e-01 0.0
8.677119e-01 -2.787024e-01 0.0
8.608107e-01 -2.284368e-01 0.0
8.526738e-01 -1.777817e-01 0.0
8.437050e-01 -1.299736e-01 0.0
8.341139e-01 -8.739379e-02 0.0
8.240610e-01 -5.150029e-02 0.0
8.137168e-01 -2.284527e-02 0.0
8.032710e-01 -1.236418e-03 0.0
7.929532e-01 1.382523e-02 0.0
7.828929e-01 2.327263e-02 0.0
7.732645e-01 2.817899e-02 0.0
7.642627e-01 2.960223e-02 0.0
7.560564e-01 2.856935e-02 0.0
7.488129e-01 2.593127e-02 0.0
7.426229e-01 2.239784e-02 0.0
7.375105e-01 1.852250e-02 0.0
7.334465e-01 1.469984e-02 0.0
7.303641e-01 1.118190e-02 0.0
7.281732e-01 8.105326e-03 0.0
7.267734e-01 5.521955e-03 0.0
7.260624e-01 3.427199e-03 0.0
7.259420e-01 1.783345e-03 0.0
7.263230e-01 5.368432e-04 0.0
7.271232e-01 -3.698578e-04 0.0
7.282632e-01 -9.946023e-04 0.0
7.296764e-01 -1.396759e-03 0.0
7.313092e-01 -1.623871e-03 0.0
7.331186e-01 -1.713644e-03 0.0
7.350677e-01 -1.695267e-03 0.0
7.371248e-01 -1.593563e-03 0.0
7.392631e-01 -1.430109e-03 0.0
7.414602e-01 -1.222950e-03 0.0
7.436976e-01 -9.862820e-04 0.0
7.459612e-01 -7.311031e-04 0.0
7.482396e-01 -4.664663e-04 0.0
7.505244e-01 -1.996882e-04 0.0
7.528091e-01 6.382881e-05 0.0
7.550875e-01 3.208762e-04 0.0
7.573547e-01 5.685122e-04 0.0
7.596075e-01 8.047634e-04 0.0
7.618435e-01 1.028203e-03 0.0
7.640615e-01 1.237879e-03 0.0
7.662610e-01 1.433577e-03 0.0
7.684415e-01 1.615443e-03 0.0
7.706035e-01 1.783823e-03 0.0
7.727475e-01 1.939225e-03 0.0
7.748740e-01 2.082306e-03 0.0
7.769839e-01 2.213810e-03 0.0
7.790782e-01 2.334525e-03 0.0
7.811577e-01 2.445254e-03 0.0
7.832233e-01 2.546794e-03 0.0
7.852759e-01 2.639909e-03 0.0
7.873163e-01 2.725313e-03 0.0
7.893452e-01 2.803663e-03 0.0
7.913630e-01 2.875535e-03 0.0
7.933703e-01 2.941400e-03 0.0
7.953672e-01 3.001581e-03 0.0
7.973537e-01 3.056202e-03 0.0
7.993294e-01 3.105099e-03 0.0
8.012935e-01 3.147681e-03 0.0
8.032446e-01 3.182715e-03 0.0
8.051800e-01 3.207973e-03 0.0
8.070961e-01 3.219683e-03 0.0
8.089874e-01 3.212015e-03 0.0
8.108462e-01 3.176271e-03 0.0
8.126612e-01 3.099228e-03 0.0
8.144155e-01 2.960840e-03 0.0
8.160829e-01 2.730952e-03 0.0
8.176214e-01 2.366426e-03 0.0
8.189650e-01 1.823358e-03 0.0
8.200645e-01 1.206288e-03 0.0
0.000000e+00 1.216045e-03 0.0
0.000000e+00 0.000000e+00 0.0
0.000000e+00 0.000000e+00 0.0
0.000000e+00 0.000000e+00 0.0
0.000000e+00 0.000000e+00 0.0
0.000000e+00 0.000000e+00 0.0
0.000000e+00 0.000000e+00 0.0
0.000000e+00 0.000000e+00 0.0
0.000000e+00 0.000000e+00 0.0
0.000000e+00 0.000000e+00 0.0
0.000000e+00 0.000000e+00 0.0
0.000000e+00 -7.640129e-02 0.0
8.050818e-03 7.643286e-02 0.0
5.827708e-02 5.189791e-02 0.0
1.248522e-01 1.998858e-02 0.0
2.009159e-01 -1.015313e-02 0.0
2.832979e-01 -3.926846e-02 0.0
3.689992e-01 -6.854811e-02 0.0
4.565449e-01 -1.000720e-01 0.0
5.450822e-01 -1.345087e-01 0.0
6.328011e-01 -1.724017e-01 0.0
7.166674e-01 -2.139732e-01 0.0
7.930633e-01 -2.581984e-01 0.0
8.583353e-01 -3.024649e-01 0.0
9.096158e-01 -3.426814e-01 0.0
9.454251e-01 -3.741027e-01 0.0
9.659169e-01 -3.924187e-01 0.0