# vtk DataFile Version 3.0
Vector Field
ASCII
DATASET RECTILINEAR_GRID
DIMENSIONS 102 22 1
X_COORDINATES 102 double
0.000000 0.100000 0.200000 0.300000 0.400000 0.500000 0.600000 0.700000 0.800000 0.900000 1.000000 1.100000 1.200000 1.300000 1.400000 1.500000 1.600000 1.700000 1.800000 1.900000 2.000000 2.100000 2.200000 2.300000 2.400000 2.500000 2.600000 2.700000 2.800000 2.900000 3.000000 3.100000 3.200000 3.300000 3.400000 3.500000 3.600000 3.700000 3.800000 3.900000 4.000000 4.100000 4.200000 4.300000 4.400000 4.500000 4.600000 4.700000 4.800000 4.900000 5.000000 5.100000 5.200000 5.300000 5.400000 5.500000 5.600000 5.700000 5.800000 5.900000 6.000000 6.100000 6.200000 6.300000 6.400000 6.500000 6.600000 6.700000 6.800000 6.900000 7.000000 7.100000 7.200000 7.300000 7.400000 7.500000 7.600000 7.700000 7.800000 7.900000 8.000000 8.100000 8.200000 8.300000 8.400000 8.500000 8.600000 8.700000 8.800000 8.900000 9.000000 9.100000 9.200000 9.300000 9.400000 9.500000 9.600000 9.700000 9.800000 9.900000 10.000000 10.100000 
Y_COORDINATES 22 double
0.000000 0.100000 0.200000 0.300000 0.400000 0.500000 0.600000 0.700000 0.800000 0.900000 1.000000 1.100000 1.200000 1.300000 1.400000 1.500000 1.600000 1.700000 1.800000 1.900000 2.000000 2.100000 
Z_COORDINATES 1 double
0.0
POINT_DATA 2244
VECTORS Velocity double
0.000000e+00 0.000000e+00 0.0
-0.000000e+00 0.000000e+00 0.0
-0.000000e+00 0.000000e+00 0.0
-0.000000e+00 0.000000e+00 0.0
-0.000000e+00 0.000000e+00 0.0
-0.000000e+00 0.000000e+00 0.0
-0.000000e+00 0.000000e+00 0.0
-0.000000e+00 0.000000e+00 0.0
-0.000000e+00 0.000000e+00 0.0
-0.000000e+00 0.000000e+00 0.0
-0.000000e+00 0.000000e+00 0.0
3.840302e-04 0.000000e+00 0.0
4.712973e-03 0.000000e+00 0.0
1.132388e-02 0.000000e+00 0.0
1.901553e-02 0.000000e+00 0.0
2.737887e-02 0.000000e+00 0.0
3.647480e-02 0.000000e+00 0.0
4.655525e-02 0.000000e+00 0.0
5.793570e-02 0.000000e+00 0.0
7.094143e-02 0.000000e+00 0.0
8.585104e-02 0.000000e+00 0.0
1.028096e-01 0.000000e+00 0.0
1.216881e-01 0.000000e+00 0.0
1.419119e-01 0.000000e+00 0.0
1.622748e-01 0.000000e+00 0.0
1.806756e-01 0.000000e+00 0.0
1.942862e-01 0.000000e+00 0.0
1.996795e-01 0.000000e+00 0.0
1.934798e-01 0.000000e+00 0.0
1.740526e-01 0.000000e+00 0.0
1.413489e-01 0.000000e+00 0.0
9.832240e-02 0.000000e+00 0.0
4.836808e-02 0.000000e+00 0.0
-4.567107e-03 0.000000e+00 0.0
-5.334648e-02 0.000000e+00 0.0
-9.375124e-02 0.000000e+00 0.0
-1.249487e-01 0.000000e+00 0.0
-1.475475e-01 0.000000e+00 0.0
-1.627424e-01 0.000000e+00 0.0
-1.719096e-01 0.000000e+00 0.0
-1.764096e-01 0.000000e+00 0.0
-1.775026e-01 0.000000e+00 0.0
-1.762473e-01 0.000000e+00 0.0
-1.731426e-01 0.000000e+00 0.0
-1.687488e-01 0.000000e+00 0.0
-1.635730e-01 0.000000e+00 0.0
-1.580150e-01 0.000000e+00 0.0
-1.523687e-01 0.000000e+00 0.0
-1.468188e-01 0.000000e+00 0.0
-1.414756e-01 0.000000e+00 0.0
-1.364067e-01 0.000000e+00 0.0
-1.316427e-01 0.000000e+00 0.0
-1.271932e-01 0.000000e+00 0.0
-1.230533e-01 0.000000e+00 0.0
-1.192099e-01 0.000000e+00 0.0
-1.156451e-01 0.000000e+00 0.0
-1.123388e-01 0.000000e+00 0.0
-1.092699e-01 0.000000e+00 0.0
-1.064178e-01 0.000000e+00 0.0
-1.037625e-01 0.000000e+00 0.0
-1.012855e-01 0.000000e+00 0.0
-9.896947e-02 0.000000e+00 0.0
-9.679880e-02 0.000000e+00 0.0
-9.475950e-02 0.000000e+00 0.0
-9.283930e-02 0.000000e+00 0.0
-9.102764e-02 0.000000e+00 0.0
-8.931563e-02 0.000000e+00 0.0
-8.769601e-02 0.000000e+00 0.0
-8.616307e-02 0.000000e+00 0.0
-8.471254e-02 0.000000e+00 0.0
-8.334145e-02 0.000000e+00 0.0
-8.204798e-02 0.000000e+00 0.0
-8.083129e-02 0.000000e+00 0.0
-7.969129e-02 0.000000e+00 0.0
-7.862853e-02 0.000000e+00 0.0
-7.764391e-02 0.000000e+00 0.0
-7.673856e-02 0.000000e+00 0.0
-7.591364e-02 0.000000e+00 0.0
-7.517017e-02 0.000000e+00 0.0
-7.450887e-02 0.000000e+00 0.0
-7.393006e-02 0.000000e+00 0.0
-7.343353e-02 0.000000e+00 0.0
-7.301848e-02 0.000000e+00 0.0
-7.268342e-02 0.000000e+00 0.0
-7.242617e-02 0.000000e+00 0.0
-7.224384e-02 0.000000e+00 0.0
-7.213277e-02 0.000000e+00 0.0
-7.208846e-02 0.000000e+00 0.0
-7.210531e-02 0.000000e+00 0.0
-7.217609e-02 0.000000e+00 0.0
-7.229126e-02 0.000000e+00 0.0
-7.243952e-02 0.000000e+00 0.0
-7.261485e-02 0.000000e+00 0.0
-7.281254e-02 0.000000e+00 0.0
-7.302601e-02 0.000000e+00 0.0
-7.324829e-02 0.000000e+00 0.0
-7.347129e-02 0.000000e+00 0.0
-7.368021e-02 0.000000e+00 0.0
-7.385059e-02 0.000000e+00 0.0
-7.394471e-02 0.000000e+00 0.0
-7.394471e-02 0.000000e+00 0.0
0.000000e+00 0.000000e+00 0.0
0.000000e+00 0.000000e+00 0.0
0.000000e+00 0.000000e+00 0.0
0.000000e+00 0.000000e+00 0.0
0.000000e+00 0.000000e+00 0.0
0.000000e+00 0.000000e+00 0.0
0.000000e+00 0.000000e+00 0.0
0.000000e+00 0.000000e+00 0.0
0.000000e+00 0.000000e+00 0.0
0.000000e+00 0.000000e+00 0.0
0.000000e+00 0.000000e+00 0.0
0.000000e+00 -7.191637e-04 0.0
-3.854715e-04 7.171885e-04 0.0
-4.714400e-03 4.519666e-03 0.0
-1.132591e-02 6.802248e-03 0.0
-1.901888e-02 7.883710e-03 0.0
-2.738437e-02 8.556225e-03 0.0
-3.648340e-02 9.289769e-03 0.0
-4.656810e-02 1.027544e-02 0.0
-5.795416e-02 1.157680e-02 0.0
-7.096704e-02 1.320362e-02 0.0
-8.588538e-02 1.510907e-02 0.0
-1.028540e-01 1.715938e-02 0.0
-1.217432e-01 1.907991e-02 0.0
-1.419769e-01 2.042442e-02 0.0
-1.623472e-01 2.056108e-02 0.0
-1.807494e-01 1.859298e-02 0.0
-1.943522e-01 1.379349e-02 0.0
-1.997254e-01 5.563966e-03 0.0
-1.934934e-01 -6.041260e-03 0.0
-1.740267e-01 -1.927601e-02 0.0
-1.412795e-01 -3.255639e-02 0.0
-9.821494e-02 -4.287384e-02 0.0
-4.822477e-02 -4.979943e-02 0.0
4.728277e-03 -5.276230e-02 0.0
5.350231e-02 -4.858329e-02 0.0
9.389195e-02 -4.019889e-02 0.0
1.250707e-01 -3.098801e-02 0.0
1.476505e-01 -2.238904e-02 0.0
1.628279e-01 -1.498663e-02 0.0
1.719797e-01 -8.961122e-03 0.0
1.764674e-01 -4.296894e-03 0.0
1.775508e-01 -8.927184e-04 0.0
1.762876e-01 1.453999e-03 0.0
1.731768e-01 3.301527e-03 0.0
1.687788e-01 4.588720e-03 0.0
1.636004e-01 5.369238e-03 0.0
1.580410e-01 5.750081e-03 0.0
1.523944e-01 5.837356e-03 0.0
1.468450e-01 5.740165e-03 0.0
1.415031e-01 5.532684e-03 0.0
1.364358e-01 5.257987e-03 0.0
1.316742e-01 4.952423e-03 0.0
1.272274e-01 4.637517e-03 0.0
1.230907e-01 4.327426e-03 0.0
1.192510e-01 4.030520e-03 0.0
1.156902e-01 3.751498e-03 0.0
1.123883e-01 3.492677e-03 0.0
1.093243e-01 3.254826e-03 0.0
1.064773e-01 3.037729e-03 0.0
1.038275e-01 2.840561e-03 0.0
1.013561e-01 2.662119e-03 0.0
9.904591e-02 2.500970e-03 0.0
9.688112e-02 2.355543e-03 0.0
9.484770e-02 2.224186e-03 0.0
9.293325e-02 2.105209e-03 0.0
9.112710e-02 1.996911e-03 0.0
8.942024e-02 1.897619e-03 0.0
8.780530e-02 1.805704e-03 0.0
8.627645e-02 1.719617e-03 0.0
8.482930e-02 1.637916e-03 0.0
8.346078e-02 1.559285e-03 0.0
8.216898e-02 1.482563e-03 0.0
8.095298e-02 1.406763e-03 0.0
7.981266e-02 1.331082e-03 0.0
7.874852e-02 1.254908e-03 0.0
7.776147e-02 1.177821e-03 0.0
7.685264e-02 1.099591e-03 0.0
7.602324e-02 1.020164e-03 0.0
7.527435e-02 9.396576e-04 0.0
7.460679e-02 8.583358e-04 0.0
7.402096e-02 7.765959e-04 0.0
7.351678e-02 6.949439e-04 0.0
7.309358e-02 6.139717e-04 0.0
7.275001e-02 5.343333e-04 0.0
7.248406e-02 4.567214e-04 0.0
7.229298e-02 3.818520e-04 0.0
7.217328e-02 3.104696e-04 0.0
7.212065e-02 2.433984e-04 0.0
7.212974e-02 1.816826e-04 0.0
7.219366e-02 1.268516e-04 0.0
7.230327e-02 8.115310e-05 0.0
7.244717e-02 4.686973e-05 0.0
7.261886e-02 1.908127e-05 0.0
7.281352e-02 -3.887039e-06 0.0
7.302467e-02 -2.037827e-05 0.0
7.324522e-02 -2.977477e-05 0.0
7.346713e-02 -3.113898e-05 0.0
7.367558e-02 -1.768582e-05 0.0
7.384601e-02 2.033952e-05 0.0
7.394015e-02 9.663768e-05 0.0
7.394471e-02 1.862132e-04 0.0
0.000000e+00 1.873293e-04 0.0
0.000000e+00 0.000000e+00 0.0
0.000000e+00 0.000000e+00 0.0
0.000000e+00 0.000000e+00 0.0
0.000000e+00 0.000000e+00 0.0
0.000000e+00 0.000000e+00 0.0
0.000000e+00 0.000000e+00 0.0
0.000000e+00 0.000000e+00 0.0
0.000000e+00 0.000000e+00 0.0
0.000000e+00 0.000000e+00 0.0
0.000000e+00 0.000000e+00 0.0
0.000000e+00 -6.348146e-03 0.0
-5.439262e-03 6.347188e-03 0.0
-1.862579e-02 1.775595e-02 0.0
-3.589441e-02 2.412062e-02 0.0
-5.507594e-02 2.711500e-02 0.0
-7.532740e-02 2.885744e-02 0.0
-9.654952e-02 3.056165e-02 0.0
-1.188970e-01 3.267264e-02 0.0
-1.425075e-01 3.523711e-02 0.0
-1.673489e-01 3.809479e-02 0.0
-1.930803e-01 4.089025e-02 0.0
-2.189372e-01 4.306597e-02 0.0
-2.435824e-01 4.377485e-02 0.0
-2.649771e-01 4.186889e-02 0.0
-2.802672e-01 3.590096e-02 0.0
-2.862275e-01 2.460308e-02 0.0
-2.790230e-01 6.638756e-03 0.0
-2.545616e-01 -1.884766e-02 0.0
-2.127846e-01 -4.776858e-02 0.0
-1.561823e-01 -7.582856e-02 0.0
-8.675161e-02 -1.019373e-01 0.0
-8.535457e-03 -1.210402e-01 0.0
7.139477e-02 -1.296799e-01 0.0
1.446559e-01 -1.259736e-01 0.0
2.092388e-01 -1.131165e-01 0.0
2.646907e-01 -9.560096e-02 0.0
3.106213e-01 -7.686889e-02 0.0
3.472563e-01 -5.897430e-02 0.0
3.752805e-01 -4.296108e-02 0.0
3.956301e-01 -2.926092e-02 0.0
4.093446e-01 -1.796162e-02 0.0
4.174626e-01 -8.960981e-03 0.0
4.210028e-01 -2.036471e-03 0.0
4.211891e-01 3.165053e-03 0.0
4.186437e-01 7.183850e-03 0.0
4.139727e-01 1.009003e-02 0.0
4.077030e-01 1.206953e-02 0.0
4.002622e-01 1.332788e-02 0.0
3.920292e-01 1.402296e-02 0.0
3.833305e-01 1.428112e-02 0.0
3.744229e-01 1.421532e-02 0.0
3.654879e-01 1.393726e-02 0.0
3.566604e-01 1.351475e-02 0.0
3.480345e-01 1.300309e-02 0.0
3.396732e-01 1.244160e-02 0.0
3.316155e-01 1.185891e-02 0.0
3.238825e-01 1.127550e-02 0.0
3.164815e-01 1.070558e-02 0.0
3.094103e-01 1.015864e-02 0.0
3.026600e-01 9.640632e-03 0.0
2.962171e-01 9.154804e-03 0.0
2.900655e-01 8.702360e-03 0.0
2.841878e-01 8.282923e-03 0.0
2.785669e-01 7.894897e-03 0.0
2.731861e-01 7.535751e-03 0.0
2.680305e-01 7.202255e-03 0.0
2.630872e-01 6.890687e-03 0.0
2.583457e-01 6.597017e-03 0.0
2.537980e-01 6.317077e-03 0.0
2.494389e-01 6.046729e-03 0.0
2.452660e-01 5.782009e-03 0.0
2.412790e-01 5.519280e-03 0.0
2.374802e-01 5.255347e-03 0.0
2.338735e-01 4.987565e-03 0.0
2.304643e-01 4.713907e-03 0.0
2.272588e-01 4.433014e-03 0.0
2.242640e-01 4.144214e-03 0.0
2.214864e-01 3.847527e-03 0.0
2.189322e-01 3.543631e-03 0.0
2.166065e-01 3.233813e-03 0.0
2.145129e-01 2.919895e-03 0.0
2.126535e-01 2.604148e-03 0.0
2.110280e-01 2.289187e-03 0.0
2.096343e-01 1.977865e-03 0.0
2.084676e-01 1.673155e-03 0.0
2.075212e-01 1.378041e-03 0.0
2.067860e-01 1.095432e-03 0.0
2.062510e-01 8.281204e-04 0.0
2.059036e-01 5.788365e-04 0.0
2.057298e-01 3.504158e-04 0.0
2.057146e-01 1.461638e-04 0.0
2.058405e-01 -2.929458e-05 0.0
2.060737e-01 -1.643630e-04 0.0
2.063848e-01 -2.651829e-04 0.0
2.067491e-01 -3.349154e-04 0.0
2.071433e-01 -3.741690e-04 0.0
2.075424e-01 -3.804924e-04 0.0
2.079142e-01 -3.397071e-04 0.0
2.082153e-01 -2.310044e-04 0.0
2.083960e-01 -3.435494e-05 0.0
2.084138e-01 2.182134e-04 0.0
0.000000e+00 2.179265e-04 0.0
0.000000e+00 0.000000e+00 0.0
0.000000e+00 0.000000e+00 0.0
0.000000e+00 0.000000e+00 0.0
0.000000e+00 0.000000e+00 0.0
0.000000e+00 0.000000e+00 0.0
0.000000e+00 0.000000e+00 0.0
0.000000e+00 0.000000e+00 0.0
0.000000e+00 0.000000e+00 0.0
0.000000e+00 0.000000e+00 0.0
0.000000e+00 0.000000e+00 0.0
0.000000e+00 -1.662021e-02 0.0
-1.008336e-02 1.662128e-02 0.0
-3.016556e-02 3.788792e-02 0.0
-5.407257e-02 4.807739e-02 0.0
-7.888042e-02 5.197260e-02 0.0
-1.035025e-01 5.352930e-02 0.0
-1.276174e-01 5.472627e-02 0.0
-1.510696e-01 5.617461e-02 0.0
-1.736091e-01 5.782638e-02 0.0
-1.947766e-01 5.931200e-02 0.0
-2.137683e-01 5.993176e-02 0.0
-2.294311e-01 5.877848e-02 0.0
-2.401829e-01 5.457641e-02 0.0
-2.440909e-01 4.582671e-02 0.0
-2.376896e-01 2.954942e-02 0.0
-2.158254e-01 2.788651e-03 0.0
-1.757490e-01 -3.338789e-02 0.0
-1.188794e-01 -7.566754e-02 0.0
-4.708432e-02 -1.195139e-01 0.0
3.548929e-02 -1.583524e-01 0.0
1.188466e-01 -1.852448e-01 0.0
1.975974e-01 -1.997414e-01 0.0
2.686711e-01 -2.007038e-01 0.0
3.308778e-01 -1.881306e-01 0.0
3.851463e-01 -1.673353e-01 0.0
4.321438e-01 -1.425487e-01 0.0
4.721841e-01 -1.168594e-01 0.0
5.055277e-01 -9.226815e-02 0.0
5.325278e-01 -6.991143e-02 0.0
5.536455e-01 -5.032887e-02 0.0
5.694178e-01 -3.368415e-02 0.0
5.804241e-01 -1.991758e-02 0.0
5.872809e-01 -8.843481e-03 0.0
5.906974e-01 -2.016767e-04 0.0
5.913653e-01 6.565744e-03 0.0
5.897757e-01 1.172930e-02 0.0
5.863309e-01 1.556414e-02 0.0
5.813833e-01 1.832521e-02 0.0
5.752293e-01 2.022678e-02 0.0
5.681084e-01 2.145173e-02 0.0
5.602232e-01 2.215031e-02 0.0
5.517903e-01 2.241996e-02 0.0
5.429985e-01 2.235625e-02 0.0
5.339945e-01 2.205691e-02 0.0
5.248958e-01 2.159008e-02 0.0
5.157941e-01 2.101029e-02 0.0
5.067595e-01 2.035990e-02 0.0
4.978437e-01 1.967119e-02 0.0
4.890836e-01 1.896848e-02 0.0
4.805043e-01 1.826969e-02 0.0
4.721213e-01 1.758759e-02 0.0
4.639427e-01 1.693072e-02 0.0
4.559712e-01 1.630410e-02 0.0
4.482061e-01 1.570984e-02 0.0
4.406439e-01 1.514765e-02 0.0
4.332807e-01 1.461525e-02 0.0
4.261124e-01 1.410879e-02 0.0
4.191359e-01 1.362322e-02 0.0
4.123501e-01 1.315264e-02 0.0
4.057560e-01 1.269067e-02 0.0
3.993570e-01 1.223077e-02 0.0
3.931594e-01 1.176662e-02 0.0
3.871721e-01 1.129236e-02 0.0
3.814065e-01 1.080293e-02 0.0
3.758759e-01 1.029429e-02 0.0
3.705951e-01 9.763558e-03 0.0
3.655800e-01 9.209172e-03 0.0
3.608463e-01 8.630956e-03 0.0
3.564096e-01 8.030130e-03 0.0
3.522839e-01 7.409261e-03 0.0
3.484814e-01 6.772144e-03 0.0
3.450117e-01 6.123650e-03 0.0
3.418811e-01 5.469518e-03 0.0
3.390926e-01 4.816123e-03 0.0
3.366453e-01 4.170215e-03 0.0
3.345345e-01 3.538653e-03 0.0
3.327515e-01 2.928140e-03 0.0
3.312844e-01 2.345002e-03 0.0
3.301179e-01 1.795072e-03 0.0
3.292344e-01 1.283739e-03 0.0
3.286140e-01 8.163211e-04 0.0
3.282354e-01 3.990553e-04 0.0
3.280806e-01 4.021902e-05 0.0
3.281106e-01 -2.454626e-04 0.0
3.282735e-01 -4.480418e-04 0.0
3.285251e-01 -5.759983e-04 0.0
3.288239e-01 -6.295501e-04 0.0
3.291307e-01 -5.967344e-04 0.0
3.293990e-01 -4.495492e-04 0.0
3.295698e-01 -1.553290e-04 0.0
3.295815e-01 2.563114e-04 0.0
0.000000e+00 2.536983e-04 0.0
0.000000e+00 0.000000e+00 0.0
0.000000e+00 0.000000e+00 0.0
0.000000e+00 0.000000e+00 0.0
0.000000e+00 0.000000e+00 0.0
0.000000e+00 0.000000e+00 0.0
0.000000e+00 0.000000e+00 0.0
0.000000e+00 0.000000e+00 0.0
0.000000e+00 0.000000e+00 0.0
0.000000e+00 0.000000e+00 0.0
0.000000e+00 0.000000e+00 0.0
0.000000e+00 -2.943617e-02 0.0
-1.262730e-02 2.943932e-02 0.0
-3.559737e-02 6.090774e-02 0.0
-6.070114e-02 7.323091e-02 0.0
-8.462425e-02 7.594547e-02 0.0
-1.063282e-01 7.528298e-02 0.0
-1.254531e-01 7.390100e-02 0.0
-1.417203e-01 7.249154e-02 0.0
-1.547585e-01 7.091435e-02 0.0
-1.640782e-01 6.868145e-02 0.0
-1.688380e-01 6.474129e-02 0.0
-1.678678e-01 5.785806e-02 0.0
-1.588938e-01 4.565211e-02 0.0
-1.396211e-01 2.660376e-02 0.0
-1.032650e-01 -6.756897e-03 0.0
-4.766488e-02 -5.276170e-02 0.0
2.452133e-02 -1.055243e-01 0.0
1.057896e-01 -1.568861e-01 0.0
1.888400e-01 -2.025145e-01 0.0
2.683573e-01 -2.378200e-01 0.0
3.419767e-01 -2.588144e-01 0.0
4.070465e-01 -2.647614e-01 0.0
4.615810e-01 -2.551885e-01 0.0
5.079851e-01 -2.344849e-01 0.0
5.478984e-01 -2.071988e-01 0.0
5.823480e-01 -1.769486e-01 0.0
6.119267e-01 -1.463883e-01 0.0
6.369979e-01 -1.172896e-01 0.0
6.578419e-01 -9.070561e-02 0.0
6.747285e-01 -6.716571e-02 0.0
6.879435e-01 -4.684942e-02 0.0
6.977940e-01 -2.971835e-02 0.0
7.046074e-01 -1.560711e-02 0.0
7.087263e-01 -4.270802e-03 0.0
7.107092e-01 4.632648e-03 0.0
7.108816e-01 1.160667e-02 0.0
7.095095e-01 1.698593e-02 0.0
7.068200e-01 2.106452e-02 0.0
7.030081e-01 2.408847e-02 0.0
6.982466e-01 2.626295e-02 0.0
6.926904e-01 2.775633e-02 0.0
6.864577e-01 2.870238e-02 0.0
6.796488e-01 2.921497e-02 0.0
6.723857e-01 2.936972e-02 0.0
6.647781e-01 2.924742e-02 0.0
6.569174e-01 2.892084e-02 0.0
6.488790e-01 2.844799e-02 0.0
6.407254e-01 2.787457e-02 0.0
6.325070e-01 2.723668e-02 0.0
6.242639e-01 2.656250e-02 0.0
6.160277e-01 2.587358e-02 0.0
6.078223e-01 2.518585e-02 0.0
5.996658e-01 2.451036e-02 0.0
5.915715e-01 2.385395e-02 0.0
5.835491e-01 2.321978e-02 0.0
5.756063e-01 2.260787e-02 0.0
5.677493e-01 2.201557e-02 0.0
5.599842e-01 2.143808e-02 0.0
5.523177e-01 2.086885e-02 0.0
5.447580e-01 2.030014e-02 0.0
5.373151e-01 1.972347e-02 0.0
5.300013e-01 1.913014e-02 0.0
5.228317e-01 1.851173e-02 0.0
5.158238e-01 1.786059e-02 0.0
5.089977e-01 1.717020e-02 0.0
5.023754e-01 1.643559e-02 0.0
4.959808e-01 1.565355e-02 0.0
4.898385e-01 1.482296e-02 0.0
4.839736e-01 1.394485e-02 0.0
4.784102e-01 1.302244e-02 0.0
4.731710e-01 1.206106e-02 0.0
4.682765e-01 1.106798e-02 0.0
4.637436e-01 1.005213e-02 0.0
4.595857e-01 9.023767e-03 0.0
4.558116e-01 7.994077e-03 0.0
4.524253e-01 6.974747e-03 0.0
4.494257e-01 5.977497e-03 0.0
4.468069e-01 5.013635e-03 0.0
4.445580e-01 4.093711e-03 0.0
4.426641e-01 3.227422e-03 0.0
4.411062e-01 2.423931e-03 0.0
4.398624e-01 1.692678e-03 0.0
4.389081e-01 1.044217e-03 0.0
4.382210e-01 4.914319e-04 0.0
4.377800e-01 4.275538e-05 0.0
4.375405e-01 -2.867783e-04 0.0
4.374441e-01 -4.833543e-04 0.0
4.374399e-01 -5.427469e-04 0.0
4.374873e-01 -4.472030e-04 0.0
4.375362e-01 -1.544813e-04 0.0
4.375113e-01 3.309859e-04 0.0
0.000000e+00 3.251732e-04 0.0
0.000000e+00 0.000000e+00 0.0
0.000000e+00 0.000000e+00 0.0
0.000000e+00 0.000000e+00 0.0
0.000000e+00 0.000000e+00 0.0
0.000000e+00 0.000000e+00 0.0
0.000000e+00 0.000000e+00 0.0
0.000000e+00 0.000000e+00 0.0
0.000000e+00 0.000000e+00 0.0
0.000000e+00 0.000000e+00 0.0
0.000000e+00 0.000000e+00 0.0
0.000000e+00 -4.278323e-02 0.0
-1.315763e-02 4.278769e-02 0.0
-3.493681e-02 8.273667e-02 0.0
-5.615524e-02 9.449910e-02 0.0
-7.393965e-02 9.377964e-02 0.0
-8.765174e-02 8.904483e-02 0.0
-9.710318e-02 8.340220e-02 0.0
-1.020923e-01 7.753042e-02 0.0
-1.021625e-01 7.103433e-02 0.0
-9.688385e-02 6.345254e-02 0.0
-8.483949e-02 5.274669e-02 0.0
-6.445822e-02 3.752654e-02 0.0
-3.002923e-02 1.127289e-02 0.0
2.527785e-02 -2.865357e-02 0.0
9.573097e-02 -7.716026e-02 0.0
1.752168e-01 -1.321978e-01 0.0
2.579205e-01 -1.881782e-01 0.0
3.394509e-01 -2.383668e-01 0.0
4.152318e-01 -2.782457e-01 0.0
4.821045e-01 -3.046429e-01 0.0
5.390170e-01 -3.156771e-01 0.0
5.851029e-01 -3.107975e-01 0.0
6.224643e-01 -2.925002e-01 0.0
6.534600e-01 -2.654308e-01 0.0
6.797317e-01 -2.334208e-01 0.0
7.023100e-01 -1.994771e-01 0.0
7.217955e-01 -1.658241e-01 0.0
7.385252e-01 -1.339696e-01 0.0
7.526966e-01 -1.048272e-01 0.0
7.644489e-01 -7.886824e-02 0.0
7.739081e-01 -5.625894e-02 0.0
7.812096e-01 -3.697002e-02 0.0
7.865104e-01 -2.085813e-02 0.0
7.899930e-01 -7.703635e-03 0.0
7.919110e-01 2.764319e-03 0.0
7.925208e-01 1.104670e-02 0.0
7.919989e-01 1.755761e-02 0.0
7.904876e-01 2.262551e-02 0.0
7.881098e-01 2.651602e-02 0.0
7.849758e-01 2.944678e-02 0.0
7.811852e-01 3.159664e-02 0.0
7.768247e-01 3.311263e-02 0.0
7.719717e-01 3.411776e-02 0.0
7.666799e-01 3.471127e-02 0.0
7.610035e-01 3.497355e-02 0.0
7.550069e-01 3.496726e-02 0.0
7.487451e-01 3.475956e-02 0.0
7.422658e-01 3.440357e-02 0.0
7.356098e-01 3.394247e-02 0.0
7.288112e-01 3.341088e-02 0.0
7.218984e-01 3.283611e-02 0.0
7.148949e-01 3.223920e-02 0.0
7.078194e-01 3.163561e-02 0.0
7.006873e-01 3.103578e-02 0.0
6.935111e-01 3.044570e-02 0.0
6.863014e-01 2.986738e-02 0.0
6.790673e-01 2.929940e-02 0.0
6.718178e-01 2.873738e-02 0.0
6.645619e-01 2.817450e-02 0.0
6.573097e-01 2.760207e-02 0.0
6.500729e-01 2.701007e-02 0.0
6.428651e-01 2.638775e-02 0.0
6.357022e-01 2.572431e-02 0.0
6.286031e-01 2.500951e-02 0.0
6.215888e-01 2.423421e-02 0.0
6.146833e-01 2.339085e-02 0.0
6.079127e-01 2.247396e-02 0.0
6.013049e-01 2.148057e-02 0.0
5.948890e-01 2.041048e-02 0.0
5.886947e-01 1.926646e-02 0.0
5.827514e-01 1.805420e-02 0.0
5.770869e-01 1.678222e-02 0.0
5.717271e-01 1.546164e-02 0.0
5.666949e-01 1.410574e-02 0.0
5.620092e-01 1.272955e-02 0.0
5.576845e-01 1.134927e-02 0.0
5.537301e-01 9.981678e-03 0.0
5.501500e-01 8.643461e-03 0.0
5.469429e-01 7.350581e-03 0.0
5.441022e-01 6.117925e-03 0.0
5.416164e-01 4.959426e-03 0.0
5.394704e-01 3.888504e-03 0.0
5.376459e-01 2.918449e-03 0.0
5.361247e-01 2.062410e-03 0.0
5.348853e-01 1.331934e-03 0.0
5.339067e-01 7.415861e-04 0.0
5.331686e-01 3.045305e-04 0.0
5.326416e-01 3.397332e-05 0.0
5.322984e-01 -5.419787e-05 0.0
5.321156e-01 7.802042e-05 0.0
5.320276e-01 4.688396e-04 0.0
0.000000e+00 4.592273e-04 0.0
0.000000e+00 0.000000e+00 0.0
0.000000e+00 0.000000e+00 0.0
0.000000e+00 0.000000e+00 0.0
0.000000e+00 0.000000e+00 0.0
0.000000e+00 0.000000e+00 0.0
0.000000e+00 0.000000e+00 0.0
0.000000e+00 0.000000e+00 0.0
0.000000e+00 0.000000e+00 0.0
0.000000e+00 0.000000e+00 0.0
0.000000e+00 0.000000e+00 0.0
0.000000e+00 -5.595069e-02 0.0
-1.297700e-02 5.595543e-02 0.0
-3.041715e-02 1.002266e-01 0.0
-4.354784e-02 1.076795e-01 0.0
-5.108419e-02 1.013657e-01 0.0
-5.307179e-02 9.108219e-02 0.0
-4.961921e-02 7.999938e-02 0.0
-4.063452e-02 6.859549e-02 0.0
-2.485180e-02 5.530137e-02 0.0
-1.159568e-03 3.981006e-02 0.0
3.443356e-02 1.720332e-02 0.0
8.747497e-02 -1.546512e-02 0.0
1.559284e-01 -5.713074e-02 0.0
2.344197e-01 -1.070952e-01 0.0
3.188058e-01 -1.614965e-01 0.0
4.031972e-01 -2.165394e-01 0.0
4.824425e-01 -2.673738e-01 0.0
5.532043e-01 -3.090788e-01 0.0
6.132733e-01 -3.382649e-01 0.0
6.617387e-01 -3.530585e-01 0.0
6.988617e-01 -3.527503e-01 0.0
7.262474e-01 -3.381335e-01 0.0
7.470787e-01 -3.132818e-01 0.0
7.635929e-01 -2.818952e-01 0.0
7.772739e-01 -2.470520e-01 0.0
7.890216e-01 -2.111750e-01 0.0
7.993392e-01 -1.760919e-01 0.0
8.084678e-01 -1.430484e-01 0.0
8.164884e-01 -1.127981e-01 0.0
8.234051e-01 -8.573513e-02 0.0
8.291968e-01 -6.200086e-02 0.0
8.338478e-01 -4.157131e-02 0.0
8.373752e-01 -2.433578e-02 0.0
8.398180e-01 -1.009671e-02 0.0
8.412490e-01 1.383081e-03 0.0
8.417984e-01 1.054715e-02 0.0
8.415619e-01 1.784381e-02 0.0
8.406215e-01 2.361566e-02 0.0
8.390520e-01 2.813528e-02 0.0
8.369236e-01 3.162501e-02 0.0
8.343014e-01 3.426854e-02 0.0
8.312450e-01 3.621886e-02 0.0
8.278081e-01 3.760441e-02 0.0
8.240367e-01 3.853237e-02 0.0
8.199678e-01 3.909225e-02 0.0
8.156247e-01 3.936016e-02 0.0
8.110406e-01 3.939335e-02 0.0
8.062455e-01 3.924845e-02 0.0
8.012650e-01 3.897275e-02 0.0
7.961212e-01 3.860442e-02 0.0
7.908329e-01 3.817421e-02 0.0
7.854155e-01 3.770631e-02 0.0
7.798820e-01 3.721896e-02 0.0
7.742425e-01 3.672496e-02 0.0
7.685058e-01 3.623216e-02 0.0
7.626791e-01 3.574390e-02 0.0
7.567687e-01 3.525952e-02 0.0
7.507810e-01 3.477490e-02 0.0
7.447223e-01 3.428295e-02 0.0
7.386000e-01 3.377418e-02 0.0
7.324225e-01 3.323727e-02 0.0
7.262003e-01 3.265972e-02 0.0
7.199458e-01 3.202862e-02 0.0
7.136737e-01 3.133139e-02 0.0
7.074012e-01 3.055641e-02 0.0
7.011484e-01 2.969346e-02 0.0
6.949376e-01 2.873450e-02 0.0
6.887937e-01 2.767423e-02 0.0
6.827435e-01 2.651049e-02 0.0
6.768151e-01 2.524460e-02 0.0
6.710376e-01 2.388148e-02 0.0
6.654399e-01 2.242963e-02 0.0
6.600504e-01 2.090093e-02 0.0
6.548956e-01 1.931029e-02 0.0
6.499998e-01 1.767518e-02 0.0
6.453837e-01 1.601507e-02 0.0
6.410644e-01 1.435074e-02 0.0
6.370541e-01 1.270351e-02 0.0
6.333602e-01 1.109429e-02 0.0
6.299851e-01 9.542794e-03 0.0
6.269268e-01 8.067495e-03 0.0
6.241794e-01 6.685665e-03 0.0
6.217343e-01 5.413285e-03 0.0
6.195819e-01 4.264624e-03 0.0
6.177118e-01 3.251814e-03 0.0
6.161172e-01 2.385897e-03 0.0
6.147959e-01 1.675576e-03 0.0
6.137494e-01 1.130326e-03 0.0
6.129793e-01 7.655865e-04 0.0
6.125069e-01 6.001929e-04 0.0
6.123517e-01 6.738163e-04 0.0
0.000000e+00 6.607049e-04 0.0
0.000000e+00 0.000000e+00 0.0
0.000000e+00 0.000000e+00 0.0
0.000000e+00 0.000000e+00 0.0
0.000000e+00 0.000000e+00 0.0
0.000000e+00 0.000000e+00 0.0
0.000000e+00 0.000000e+00 0.0
0.000000e+00 0.000000e+00 0.0
0.000000e+00 0.000000e+00 0.0
0.000000e+00 0.000000e+00 0.0
0.000000e+00 0.000000e+00 0.0
0.000000e+00 -6.969968e-02 0.0
-1.355788e-02 6.970404e-02 0.0
-2.309361e-02 1.098121e-01 0.0
-2.294343e-02 1.075791e-01 0.0
-1.514680e-02 9.361887e-02 0.0
-4.667809e-04 7.645193e-02 0.0
2.125542e-02 5.832694e-02 0.0
5.003799e-02 3.986268e-02 0.0
8.901323e-02 1.637589e-02 0.0
1.430775e-01 -1.420442e-02 0.0
2.111600e-01 -5.082944e-02 0.0
2.894307e-01 -9.368611e-02 0.0
3.741051e-01 -1.417553e-01 0.0
4.601461e-01 -1.930864e-01 0.0
5.430286e-01 -2.443293e-01 0.0
6.183927e-01 -2.918538e-01 0.0
6.829717e-01 -3.319030e-01 0.0
7.351373e-01 -3.611947e-01 0.0
7.745957e-01 -3.776735e-01 0.0
8.021135e-01 -3.805266e-01 0.0
8.190750e-01 -3.696621e-01 0.0
8.291148e-01 -3.481234e-01 0.0
8.349578e-01 -3.190750e-01 0.0
8.385244e-01 -2.854122e-01 0.0
8.410549e-01 -2.495327e-01 0.0
8.432597e-01 -2.133301e-01 0.0
8.455155e-01 -1.782979e-01 0.0
8.479533e-01 -1.454365e-01 0.0
8.505368e-01 -1.153319e-01 0.0
8.531477e-01 -8.829626e-02 0.0
8.556393e-01 -6.444268e-02 0.0
8.578645e-01 -4.374671e-02 0.0
8.597251e-01 -2.614668e-02 0.0
8.611318e-01 -1.145358e-02 0.0
8.620260e-01 5.385943e-04 0.0
8.624059e-01 1.021707e-02 0.0
8.622865e-01 1.801296e-02 0.0
8.616953e-01 2.425661e-02 0.0
8.606677e-01 2.921262e-02 0.0
8.592435e-01 3.309894e-02 0.0
8.574638e-01 3.609801e-02 0.0
8.553685e-01 3.836394e-02 0.0
8.529950e-01 4.002769e-02 0.0
8.503767e-01 4.120041e-02 0.0
8.475421e-01 4.197665e-02 0.0
8.445154e-01 4.243657e-02 0.0
8.413116e-01 4.264697e-02 0.0
8.379461e-01 4.266365e-02 0.0
8.344336e-01 4.253501e-02 0.0
8.307869e-01 4.230098e-02 0.0
8.270165e-01 4.199432e-02 0.0
8.231313e-01 4.164129e-02 0.0
8.191380e-01 4.126204e-02 0.0
8.150417e-01 4.087098e-02 0.0
8.108464e-01 4.047723e-02 0.0
8.065551e-01 4.008501e-02 0.0
8.021702e-01 3.969420e-02 0.0
7.976940e-01 3.930083e-02 0.0
7.931291e-01 3.889758e-02 0.0
7.884787e-01 3.847438e-02 0.0
7.837468e-01 3.801893e-02 0.0
7.789389e-01 3.751735e-02 0.0
7.740623e-01 3.695499e-02 0.0
7.691260e-01 3.631748e-02 0.0
7.641410e-01 3.559118e-02 0.0
7.591207e-01 3.476351e-02 0.0
7.540810e-01 3.382402e-02 0.0
7.490399e-01 3.276507e-02 0.0
7.440178e-01 3.158234e-02 0.0
7.390369e-01 3.027530e-02 0.0
7.341207e-01 2.884743e-02 0.0
7.292938e-01 2.730631e-02 0.0
7.245809e-01 2.566352e-02 0.0
7.200066e-01 2.393436e-02 0.0
7.155942e-01 2.213737e-02 0.0
7.113653e-01 2.029381e-02 0.0
7.073387e-01 1.842703e-02 0.0
7.035303e-01 1.656175e-02 0.0
6.999515e-01 1.472279e-02 0.0
6.966106e-01 1.293352e-02 0.0
6.935119e-01 1.121589e-02 0.0
6.906572e-01 9.590190e-03 0.0
6.880457e-01 8.074486e-03 0.0
6.856763e-01 6.683872e-03 0.0
6.835481e-01 5.429704e-03 0.0
6.816647e-01 4.319069e-03 0.0
6.800362e-01 3.353850e-03 0.0
6.786846e-01 2.531703e-03 0.0
6.776520e-01 1.847947e-03 0.0
6.770027e-01 1.299298e-03 0.0
6.768156e-01 9.106078e-04 0.0
0.000000e+00 8.949346e-04 0.0
0.000000e+00 0.000000e+00 0.0
0.000000e+00 0.000000e+00 0.0
0.000000e+00 0.000000e+00 0.0
0.000000e+00 0.000000e+00 0.0
0.000000e+00 0.000000e+00 0.0
0.000000e+00 0.000000e+00 0.0
0.000000e+00 0.000000e+00 0.0
0.000000e+00 0.000000e+00 0.0
0.000000e+00 0.000000e+00 0.0
0.000000e+00 0.000000e+00 0.0
0.000000e+00 -8.352242e-02 0.0
-1.363139e-02 8.352618e-02 0.0
-6.061835e-03 1.022923e-01 0.0
1.766607e-02 8.390098e-02 0.0
4.988611e-02 6.144858e-02 0.0
8.917357e-02 3.721423e-02 0.0
1.379487e-01 9.601530e-03 0.0
1.994427e-01 -2.158154e-02 0.0
2.715782e-01 -5.570980e-02 0.0
3.511298e-01 -9.370627e-02 0.0
4.355958e-01 -1.352457e-01 0.0
5.215398e-01 -1.795803e-01 0.0
6.051360e-01 -2.253017e-01 0.0
6.824464e-01 -2.703471e-01 0.0
7.501728e-01 -3.120059e-01 0.0
8.058344e-01 -3.474656e-01 0.0
8.481330e-01 -3.741519e-01 0.0
8.771109e-01 -3.901228e-01 0.0
8.938582e-01 -3.943711e-01 0.0
9.000429e-01 -3.866616e-01 0.0
8.991506e-01 -3.687200e-01 0.0
8.940950e-01 -3.430181e-01 0.0
8.870832e-01 -3.120135e-01 0.0
8.796696e-01 -2.779488e-01 0.0
8.728144e-01 -2.426277e-01 0.0
8.670110e-01 -2.074770e-01 0.0
8.625016e-01 -1.737387e-01 0.0
8.593012e-01 -1.421863e-01 0.0
8.572623e-01 -1.132432e-01 0.0
8.561708e-01 -8.715500e-02 0.0
8.557928e-01 -6.401496e-02 0.0
8.559042e-01 -4.380839e-02 0.0
8.562716e-01 -2.646429e-02 0.0
8.567108e-01 -1.184302e-02 0.0
8.570723e-01 2.269031e-04 0.0
8.572447e-01 1.009438e-02 0.0
8.571732e-01 1.813425e-02 0.0
8.568365e-01 2.464308e-02 0.0
8.562343e-01 2.986462e-02 0.0
8.553788e-01 3.400418e-02 0.0
8.542894e-01 3.723715e-02 0.0
8.529887e-01 3.971440e-02 0.0
8.514999e-01 4.156620e-02 0.0
8.498453e-01 4.290484e-02 0.0
8.480446e-01 4.382707e-02 0.0
8.461152e-01 4.441574e-02 0.0
8.440705e-01 4.474140e-02 0.0
8.419201e-01 4.486388e-02 0.0
8.396710e-01 4.483384e-02 0.0
8.373302e-01 4.469150e-02 0.0
8.349036e-01 4.447074e-02 0.0
8.323954e-01 4.419926e-02 0.0
8.298086e-01 4.389861e-02 0.0
8.271449e-01 4.358443e-02 0.0
8.244051e-01 4.326673e-02 0.0
8.215895e-01 4.295045e-02 0.0
8.186976e-01 4.263585e-02 0.0
8.157290e-01 4.231912e-02 0.0
8.126835e-01 4.199288e-02 0.0
8.095610e-01 4.164670e-02 0.0
8.063619e-01 4.126771e-02 0.0
8.030879e-01 4.084113e-02 0.0
7.997417e-01 4.035101e-02 0.0
7.963271e-01 3.978185e-02 0.0
7.928493e-01 3.911873e-02 0.0
7.893154e-01 3.834711e-02 0.0
7.857346e-01 3.745463e-02 0.0
7.821177e-01 3.643169e-02 0.0
7.784778e-01 3.527207e-02 0.0
7.748294e-01 3.397343e-02 0.0
7.711889e-01 3.253769e-02 0.0
7.675738e-01 3.097119e-02 0.0
7.640024e-01 2.928466e-02 0.0
7.604935e-01 2.749300e-02 0.0
7.570658e-01 2.561490e-02 0.0
7.537371e-01 2.367228e-02 0.0
7.505241e-01 2.168974e-02 0.0
7.474415e-01 1.969417e-02 0.0
7.445005e-01 1.771353e-02 0.0
7.417105e-01 1.577331e-02 0.0
7.390785e-01 1.389762e-02 0.0
7.366098e-01 1.210864e-02 0.0
7.343084e-01 1.042573e-02 0.0
7.321778e-01 8.864173e-03 0.0
7.302233e-01 7.433959e-03 0.0
7.284539e-01 6.138265e-03 0.0
7.268859e-01 4.971592e-03 0.0
7.255496e-01 3.917812e-03 0.0
7.244999e-01 2.947439e-03 0.0
7.238303e-01 2.018669e-03 0.0
7.236595e-01 1.131119e-03 0.0
0.000000e+00 1.114099e-03 0.0
0.000000e+00 0.000000e+00 0.0
0.000000e+00 0.000000e+00 0.0
0.000000e+00 0.000000e+00 0.0
0.000000e+00 0.000000e+00 0.0
0.000000e+00 0.000000e+00 0.0
0.000000e+00 0.000000e+00 0.0
0.000000e+00 0.000000e+00 0.0
0.000000e+00 0.000000e+00 0.0
0.000000e+00 0.000000e+00 0.0
0.000000e+00 0.000000e+00 0.0
0.000000e+00 -7.860336e-02 0.0
5.111299e-03 7.860561e-02 0.0
5.335450e-02 5.409883e-02 0.0
1.160573e-01 2.124790e-02 0.0
1.879326e-01 -1.037689e-02 0.0
2.664774e-01 -4.128082e-02 0.0
3.486368e-01 -7.250813e-02 0.0
4.328146e-01 -1.057096e-01 0.0
5.179691e-01 -1.408145e-01 0.0
6.020455e-01 -1.777329e-01 0.0
6.827181e-01 -2.158686e-01 0.0
7.574107e-01 -2.542232e-01 0.0
8.235392e-01 -2.913804e-01 0.0
8.788032e-01 -3.255614e-01 0.0