# vtk DataFile Version 3.0
Vector Field
ASCII
DATASET RECTILINEAR_GRID
DIMENSIONS 102 22 1
X_COORDINATES 102 double
0.000000 0.100000 0.200000 0.300000 0.400000 0.500000 0.600000 0.700000 0.800000 0.900000 1.000000 1.100000 1.200000 1.300000 1.400000 1.500000 1.600000 1.700000 1.800000 1.900000 2.000000 2.100000 2.200000 2.300000 2.400000 2.500000 2.600000 2.700000 2.800000 2.900000 3.000000 3.100000 3.200000 3.300000 3.400000 3.500000 3.600000 3.700000 3.800000 3.900000 4.000000 4.100000 4.200000 4.300000 4.400000 4.500000 4.600000 4.700000 4.800000 4.900000 5.000000 5.100000 5.200000 5.300000 5.400000 5.500000 5.600000 5.700000 5.800000 5.900000 6.000000 6.100000 6.200000 6.300000 6.400000 6.500000 6.600000 6.700000 6.800000 6.900000 7.000000 7.100000 7.200000 7.300000 7.400000 7.500000 7.600000 7.700000 7.800000 7.900000 8.000000 8.100000 8.200000 8.300000 8.400000 8.500000 8.600000 8.700000 8.800000 8.900000 9.000000 9.100000 9.200000 9.300000 9.400000 9.500000 9.600000 9.700000 9.800000 9.900000 10.000000 10.100000 
Y_COORDINATES 22 double
0.000000 0.100000 0.200000 0.300000 0.400000 0.500000 0.600000 0.700000 0.800000 0.900000 1.000000 1.100000 1.200000 1.300000 1.400000 1.500000 1.600000 1.700000 1.800000 1.900000 2.000000 2.100000 
Z_COORDINATES 1 double
0.0
POINT_DATA 2244
VECTORS Velocity double
0.000000e+00 0.000000e+00 0.0
-0.000000e+00 0.000000e+00 0.0
-0.000000e+00 0.000000e+00 0.0
-0.000000e+00 0.000000e+00 0.0
-0.000000e+00 0.000000e+00 0.0
-0.000000e+00 0.000000e+00 0.0
-0.000000e+00 0.000000e+00 0.0
-0.000000e+00 0.000000e+00 0.0
-0.000000e+00 0.000000e+00 0.0
-0.000000e+00 0.000000e+00 0.0
-0.000000e+00 0.000000e+00 0.0
5.182184e-04 0.000000e+00 0.0
4.905529e-03 0.000000e+00 0.0
1.168311e-02 0.000000e+00 0.0
1.966144e-02 0.000000e+00 0.0
2.845817e-02 0.000000e+00 0.0
3.817071e-02 0.000000e+00 0.0
4.908879e-02 0.000000e+00 0.0
6.156184e-02 0.000000e+00 0.0
7.593481e-02 0.000000e+00 0.0
9.247562e-02 0.000000e+00 0.0
1.112661e-01 0.000000e+00 0.0
1.320293e-01 0.000000e+00 0.0
1.539439e-01 0.000000e+00 0.0
1.754032e-01 0.000000e+00 0.0
1.936864e-01 0.000000e+00 0.0
2.052734e-01 0.000000e+00 0.0
2.061933e-01 0.000000e+00 0.0
1.933541e-01 0.000000e+00 0.0
1.658390e-01 0.000000e+00 0.0
1.253700e-01 0.000000e+00 0.0
7.601697e-02 0.000000e+00 0.0
2.049316e-02 0.000000e+00 0.0
-3.426008e-02 0.000000e+00 0.0
-8.108305e-02 0.000000e+00 0.0
-1.180485e-01 0.000000e+00 0.0
-1.453946e-01 0.000000e+00 0.0
-1.642581e-01 0.000000e+00 0.0
-1.760985e-01 0.000000e+00 0.0
-1.824179e-01 0.000000e+00 0.0
-1.846338e-01 0.000000e+00 0.0
-1.840190e-01 0.000000e+00 0.0
-1.813137e-01 0.000000e+00 0.0
-1.770727e-01 0.000000e+00 0.0
-1.718593e-01 0.000000e+00 0.0
-1.661378e-01 0.000000e+00 0.0
-1.602565e-01 0.000000e+00 0.0
-1.544477e-01 0.000000e+00 0.0
-1.488478e-01 0.000000e+00 0.0
-1.435431e-01 0.000000e+00 0.0
-1.385757e-01 0.000000e+00 0.0
-1.339615e-01 0.000000e+00 0.0
-1.296991e-01 0.000000e+00 0.0
-1.257771e-01 0.000000e+00 0.0
-1.221782e-01 0.000000e+00 0.0
-1.188823e-01 0.000000e+00 0.0
-1.158684e-01 0.000000e+00 0.0
-1.131157e-01 0.000000e+00 0.0
-1.106038e-01 0.000000e+00 0.0
-1.083134e-01 0.000000e+00 0.0
-1.062261e-01 0.000000e+00 0.0
-1.043246e-01 0.000000e+00 0.0
-1.025929e-01 0.000000e+00 0.0
-1.010159e-01 0.000000e+00 0.0
-9.957955e-02 0.000000e+00 0.0
-9.827096e-02 0.000000e+00 0.0
-9.707818e-02 0.000000e+00 0.0
-9.599026e-02 0.000000e+00 0.0
-9.499718e-02 0.000000e+00 0.0
-9.408978e-02 0.000000e+00 0.0
-9.325979e-02 0.000000e+00 0.0
-9.249969e-02 0.000000e+00 0.0
-9.180273e-02 0.000000e+00 0.0
-9.116286e-02 0.000000e+00 0.0
-9.057466e-02 0.000000e+00 0.0
-9.003334e-02 0.000000e+00 0.0
-8.953468e-02 0.000000e+00 0.0
-8.907500e-02 0.000000e+00 0.0
-8.865116e-02 0.000000e+00 0.0
-8.826045e-02 0.000000e+00 0.0
-8.790064e-02 0.000000e+00 0.0
-8.756994e-02 0.000000e+00 0.0
-8.726698e-02 0.000000e+00 0.0
-8.699081e-02 0.000000e+00 0.0
-8.674090e-02 0.000000e+00 0.0
-8.651712e-02 0.000000e+00 0.0
-8.631977e-02 0.000000e+00 0.0
-8.614960e-02 0.000000e+00 0.0
-8.600780e-02 0.000000e+00 0.0
-8.589602e-02 0.000000e+00 0.0
-8.581650e-02 0.000000e+00 0.0
-8.577215e-02 0.000000e+00 0.0
-8.576672e-02 0.000000e+00 0.0
-8.580270e-02 0.000000e+00 0.0
-8.587809e-02 0.000000e+00 0.0
-8.598639e-02 0.000000e+00 0.0
-8.612182e-02 0.000000e+00 0.0
-8.627305e-02 0.000000e+00 0.0
-8.641871e-02 0.000000e+00 0.0
-8.651537e-02 0.000000e+00 0.0
-8.651537e-02 0.000000e+00 0.0
0.000000e+00 0.000000e+00 0.0
0.000000e+00 0.000000e+00 0.0
0.000000e+00 0.000000e+00 0.0
0.000000e+00 0.000000e+00 0.0
0.000000e+00 0.000000e+00 0.0
0.000000e+00 0.000000e+00 0.0
0.000000e+00 0.000000e+00 0.0
0.000000e+00 0.000000e+00 0.0
0.000000e+00 0.000000e+00 0.0
0.000000e+00 0.000000e+00 0.0
0.000000e+00 0.000000e+00 0.0
0.000000e+00 -5.223899e-04 0.0
-5.216348e-04 5.164313e-04 0.0
-4.894420e-03 4.381439e-03 0.0
-1.166754e-02 6.780001e-03 0.0
-1.965304e-02 7.985774e-03 0.0
-2.846141e-02 8.803045e-03 0.0
-3.818116e-02 9.713699e-03 0.0
-4.909818e-02 1.091449e-02 0.0
-6.156485e-02 1.246837e-02 0.0
-7.593190e-02 1.437077e-02 0.0
-9.247121e-02 1.654204e-02 0.0
-1.112643e-01 1.879350e-02 0.0
-1.320313e-01 2.076588e-02 0.0
-1.539479e-01 2.191536e-02 0.0
-1.754069e-01 2.145860e-02 0.0
-1.936882e-01 1.828194e-02 0.0
-2.052734e-01 1.158614e-02 0.0
-2.061926e-01 9.195965e-04 0.0
-1.933532e-01 -1.283949e-02 0.0
-1.658382e-01 -2.751561e-02 0.0
-1.253687e-01 -4.047001e-02 0.0
-7.601494e-02 -4.935399e-02 0.0
-2.049004e-02 -5.552460e-02 0.0
3.426366e-02 -5.475319e-02 0.0
8.108633e-02 -4.682234e-02 0.0
1.180509e-01 -3.696464e-02 0.0
1.453961e-01 -2.734533e-02 0.0
1.642591e-01 -1.886302e-02 0.0
1.760995e-01 -1.184004e-02 0.0
1.824190e-01 -6.319054e-03 0.0
1.846347e-01 -2.215427e-03 0.0
1.840194e-01 6.153803e-04 0.0
1.813138e-01 2.705733e-03 0.0
1.770728e-01 4.241345e-03 0.0
1.718595e-01 5.213651e-03 0.0
1.661379e-01 5.721809e-03 0.0
1.602565e-01 5.881596e-03 0.0
1.544475e-01 5.809054e-03 0.0
1.488476e-01 5.600061e-03 0.0
1.435430e-01 5.304847e-03 0.0
1.385757e-01 4.967566e-03 0.0
1.339615e-01 4.614436e-03 0.0
1.296991e-01 4.262565e-03 0.0
1.257771e-01 3.922220e-03 0.0
1.221781e-01 3.599125e-03 0.0
1.188822e-01 3.296066e-03 0.0
1.158684e-01 3.014015e-03 0.0
1.131157e-01 2.752894e-03 0.0
1.106038e-01 2.512062e-03 0.0
1.083134e-01 2.290607e-03 0.0
1.062261e-01 2.087487e-03 0.0
1.043247e-01 1.901613e-03 0.0
1.025930e-01 1.731886e-03 0.0
1.010160e-01 1.577213e-03 0.0
9.957963e-02 1.436527e-03 0.0
9.827104e-02 1.308782e-03 0.0
9.707827e-02 1.192965e-03 0.0
9.599034e-02 1.088100e-03 0.0
9.499726e-02 9.932606e-04 0.0
9.408987e-02 9.075650e-04 0.0
9.325990e-02 8.301744e-04 0.0
9.249982e-02 7.602890e-04 0.0
9.180287e-02 6.971545e-04 0.0
9.116298e-02 6.400701e-04 0.0
9.057477e-02 5.883875e-04 0.0
9.003345e-02 5.415008e-04 0.0
8.953480e-02 4.988367e-04 0.0
8.907515e-02 4.598519e-04 0.0
8.865132e-02 4.240345e-04 0.0
8.826061e-02 3.909028e-04 0.0
8.790080e-02 3.600010e-04 0.0
8.757010e-02 3.308917e-04 0.0
8.726715e-02 3.031503e-04 0.0
8.699098e-02 2.763597e-04 0.0
8.674107e-02 2.501056e-04 0.0
8.651730e-02 2.239719e-04 0.0
8.631996e-02 1.975357e-04 0.0
8.614979e-02 1.703626e-04 0.0
8.600799e-02 1.420008e-04 0.0
8.589621e-02 1.119682e-04 0.0
8.581669e-02 7.971617e-05 0.0
8.577235e-02 4.454588e-05 0.0
8.576692e-02 5.621128e-06 0.0
8.580291e-02 -3.578678e-05 0.0
8.587830e-02 -7.519146e-05 0.0
8.598660e-02 -1.081036e-04 0.0
8.612203e-02 -1.352329e-04 0.0
8.627326e-02 -1.510316e-04 0.0
8.641891e-02 -1.454600e-04 0.0
8.651558e-02 -9.646537e-05 0.0
8.651537e-02 4.044280e-07 0.0
0.000000e+00 4.081181e-07 0.0
0.000000e+00 0.000000e+00 0.0
0.000000e+00 0.000000e+00 0.0
0.000000e+00 0.000000e+00 0.0
0.000000e+00 0.000000e+00 0.0
0.000000e+00 0.000000e+00 0.0
0.000000e+00 0.000000e+00 0.0
0.000000e+00 0.000000e+00 0.0
0.000000e+00 0.000000e+00 0.0
0.000000e+00 0.000000e+00 0.0
0.000000e+00 0.000000e+00 0.0
0.000000e+00 -6.336210e-03 0.0
-5.814907e-03 6.337389e-03 0.0
-1.943886e-02 1.800875e-02 0.0
-3.734476e-02 2.468259e-02 0.0
-5.738940e-02 2.802388e-02 0.0
-7.875390e-02 3.016271e-02 0.0
-1.013459e-01 3.230518e-02 0.0
-1.252979e-01 3.486941e-02 0.0
-1.506876e-01 3.786140e-02 0.0
-1.773622e-01 4.104649e-02 0.0
-2.047851e-01 4.396393e-02 0.0
-2.319222e-01 4.592872e-02 0.0
-2.570708e-01 4.591322e-02 0.0
-2.777695e-01 4.261416e-02 0.0
-2.908775e-01 3.456739e-02 0.0
-2.925745e-01 1.997969e-02 0.0
-2.781485e-01 -2.839764e-03 0.0
-2.449096e-01 -3.231969e-02 0.0
-1.940736e-01 -6.367603e-02 0.0
-1.285355e-01 -9.305418e-02 0.0
-5.093632e-02 -1.180691e-01 0.0
3.359652e-02 -1.338864e-01 0.0
1.140611e-01 -1.359888e-01 0.0
1.854197e-01 -1.261116e-01 0.0
2.476625e-01 -1.090654e-01 0.0
3.000160e-01 -8.931839e-02 0.0
3.424056e-01 -6.973500e-02 0.0
3.753828e-01 -5.183995e-02 0.0
3.998602e-01 -3.631709e-02 0.0
4.169165e-01 -2.337526e-02 0.0
4.276668e-01 -1.296586e-02 0.0
4.331736e-01 -4.891507e-03 0.0
4.347342e-01 1.145250e-03 0.0
4.331884e-01 5.787397e-03 0.0
4.292165e-01 9.185553e-03 0.0
4.234065e-01 1.153175e-02 0.0
4.162427e-01 1.304533e-02 0.0
4.081397e-01 1.391213e-02 0.0
3.994707e-01 1.426923e-02 0.0
3.905387e-01 1.423691e-02 0.0
3.815585e-01 1.394783e-02 0.0
3.726922e-01 1.348072e-02 0.0
3.640556e-01 1.289916e-02 0.0
3.557289e-01 1.224896e-02 0.0
3.477649e-01 1.156319e-02 0.0
3.401958e-01 1.086531e-02 0.0
3.330381e-01 1.017173e-02 0.0
3.262973e-01 9.493760e-03 0.0
3.199703e-01 8.839079e-03 0.0
3.140481e-01 8.212824e-03 0.0
3.085174e-01 7.618275e-03 0.0
3.033617e-01 7.057345e-03 0.0
2.985627e-01 6.530923e-03 0.0
2.941009e-01 6.039120e-03 0.0
2.899560e-01 5.581456e-03 0.0
2.861078e-01 5.157004e-03 0.0
2.825363e-01 4.764504e-03 0.0
2.792220e-01 4.402462e-03 0.0
2.761461e-01 4.069227e-03 0.0
2.732907e-01 3.763041e-03 0.0
2.706388e-01 3.482082e-03 0.0
2.681747e-01 3.224504e-03 0.0
2.658834e-01 2.988474e-03 0.0
2.637513e-01 2.772202e-03 0.0
2.617658e-01 2.573946e-03 0.0
2.599153e-01 2.392011e-03 0.0
2.581894e-01 2.224760e-03 0.0
2.565787e-01 2.070611e-03 0.0
2.550748e-01 1.928048e-03 0.0
2.536701e-01 1.795609e-03 0.0
2.523583e-01 1.671885e-03 0.0
2.511337e-01 1.555501e-03 0.0
2.499918e-01 1.445116e-03 0.0
2.489288e-01 1.339404e-03 0.0
2.479419e-01 1.237044e-03 0.0
2.470293e-01 1.136710e-03 0.0
2.461898e-01 1.037053e-03 0.0
2.454235e-01 9.366905e-04 0.0
2.447314e-01 8.341995e-04 0.0
2.441153e-01 7.281131e-04 0.0
2.435781e-01 6.169291e-04 0.0
2.431235e-01 4.991555e-04 0.0
2.427556e-01 3.735904e-04 0.0
2.424793e-01 2.405993e-04 0.0
2.423013e-01 1.028209e-04 0.0
2.422289e-01 -3.557978e-05 0.0
2.422522e-01 -1.584794e-04 0.0
2.423448e-01 -2.435988e-04 0.0
2.424674e-01 -2.679875e-04 0.0
2.425646e-01 -1.937016e-04 0.0
2.425641e-01 1.038332e-06 0.0
0.000000e+00 1.047857e-06 0.0
0.000000e+00 0.000000e+00 0.0
0.000000e+00 0.000000e+00 0.0
0.000000e+00 0.000000e+00 0.0
0.000000e+00 0.000000e+00 0.0
0.000000e+00 0.000000e+00 0.0
0.000000e+00 0.000000e+00 0.0
0.000000e+00 0.000000e+00 0.0
0.000000e+00 0.000000e+00 0.0
0.000000e+00 0.000000e+00 0.0
0.000000e+00 0.000000e+00 0.0
0.000000e+00 -1.695705e-02 0.0
-1.061679e-02 1.696102e-02 0.0
-3.136349e-02 3.875528e-02 0.0
-5.608388e-02 4.939797e-02 0.0
-8.183321e-02 5.376772e-02 0.0
-1.075036e-01 5.583100e-02 0.0
-1.327270e-01 5.753059e-02 0.0
-1.572672e-01 5.941315e-02 0.0
-1.807695e-01 6.136579e-02 0.0
-2.026265e-01 6.290318e-02 0.0
-2.218387e-01 6.317428e-02 0.0
-2.370557e-01 6.114392e-02 0.0
-2.464523e-01 5.530949e-02 0.0
-2.475335e-01 4.369598e-02 0.0
-2.364767e-01 2.351156e-02 0.0
-2.067983e-01 -9.698247e-03 0.0
-1.584198e-01 -5.121858e-02 0.0
-9.265305e-02 -9.808697e-02 0.0
-1.278414e-02 -1.435454e-01 0.0
7.418594e-02 -1.800243e-01 0.0
1.589038e-01 -2.027866e-01 0.0
2.366450e-01 -2.116271e-01 0.0
3.052367e-01 -2.045803e-01 0.0
3.651974e-01 -1.860725e-01 0.0
4.174389e-01 -1.613072e-01 0.0
4.623762e-01 -1.342559e-01 0.0
5.002443e-01 -1.076028e-01 0.0
5.313459e-01 -8.294129e-02 0.0
5.561109e-01 -6.108187e-02 0.0
5.750688e-01 -4.233328e-02 0.0
5.888061e-01 -2.670323e-02 0.0
5.979373e-01 -1.402270e-02 0.0
6.031047e-01 -4.021929e-03 0.0
6.052355e-01 3.656694e-03 0.0
6.048348e-01 9.586255e-03 0.0
6.023531e-01 1.401338e-02 0.0
5.981863e-01 1.721214e-02 0.0
5.926737e-01 1.942490e-02 0.0
5.860877e-01 2.085532e-02 0.0
5.786453e-01 2.167937e-02 0.0
5.705922e-01 2.200097e-02 0.0
5.621465e-01 2.192643e-02 0.0
5.534807e-01 2.156496e-02 0.0
5.447347e-01 2.099505e-02 0.0
5.360199e-01 2.027801e-02 0.0
5.274244e-01 1.946094e-02 0.0
5.190163e-01 1.857984e-02 0.0
5.108478e-01 1.766228e-02 0.0
5.029574e-01 1.672949e-02 0.0
4.953724e-01 1.579789e-02 0.0
4.881107e-01 1.488010e-02 0.0
4.811823e-01 1.398576e-02 0.0
4.745913e-01 1.312201e-02 0.0
4.683364e-01 1.229401e-02 0.0
4.624127e-01 1.150527e-02 0.0
4.568117e-01 1.075795e-02 0.0
4.515232e-01 1.005311e-02 0.0
4.465347e-01 9.390935e-03 0.0
4.418331e-01 8.770923e-03 0.0
4.374042e-01 8.192007e-03 0.0
4.332337e-01 7.652689e-03 0.0
4.293071e-01 7.151158e-03 0.0
4.256102e-01 6.685386e-03 0.0
4.221292e-01 6.253192e-03 0.0
4.188509e-01 5.852290e-03 0.0
4.157627e-01 5.480329e-03 0.0
4.128526e-01 5.134927e-03 0.0
4.101095e-01 4.813701e-03 0.0
4.075233e-01 4.514286e-03 0.0
4.050847e-01 4.234332e-03 0.0
4.027851e-01 3.971514e-03 0.0
4.006171e-01 3.723521e-03 0.0
3.985742e-01 3.488051e-03 0.0
3.966509e-01 3.262799e-03 0.0
3.948425e-01 3.045445e-03 0.0
3.931457e-01 2.833632e-03 0.0
3.915578e-01 2.624944e-03 0.0
3.900777e-01 2.416886e-03 0.0
3.887051e-01 2.206872e-03 0.0
3.874410e-01 1.992232e-03 0.0
3.862877e-01 1.770248e-03 0.0
3.852487e-01 1.538277e-03 0.0
3.843282e-01 1.294098e-03 0.0
3.835321e-01 1.036779e-03 0.0
3.828673e-01 7.676815e-04 0.0
3.823398e-01 4.919079e-04 0.0
3.819569e-01 2.244981e-04 0.0
3.817215e-01 -8.163327e-06 0.0
3.816113e-01 -1.577625e-04 0.0
3.815874e-01 -1.696813e-04 0.0
3.815865e-01 1.924242e-06 0.0
0.000000e+00 1.942030e-06 0.0
0.000000e+00 0.000000e+00 0.0
0.000000e+00 0.000000e+00 0.0
0.000000e+00 0.000000e+00 0.0
0.000000e+00 0.000000e+00 0.0
0.000000e+00 0.000000e+00 0.0
0.000000e+00 0.000000e+00 0.0
0.000000e+00 0.000000e+00 0.0
0.000000e+00 0.000000e+00 0.0
0.000000e+00 0.000000e+00 0.0
0.000000e+00 0.000000e+00 0.0
0.000000e+00 -3.009592e-02 0.0
-1.313262e-02 3.010061e-02 0.0
-3.666938e-02 6.228946e-02 0.0
-6.236525e-02 7.508874e-02 0.0
-8.685430e-02 7.825362e-02 0.0
-1.090438e-01 7.802149e-02 0.0
-1.285096e-01 7.700018e-02 0.0
-1.449067e-01 7.581392e-02 0.0
-1.577989e-01 7.425917e-02 0.0
-1.666226e-01 7.172590e-02 0.0
-1.704085e-01 6.695836e-02 0.0
-1.677500e-01 5.848443e-02 0.0
-1.562046e-01 4.376441e-02 0.0
-1.322039e-01 1.969620e-02 0.0
-8.776585e-02 -2.092567e-02 0.0
-2.419154e-02 -7.327253e-02 0.0
5.481621e-02 -1.302268e-01 0.0
1.399487e-01 -1.832200e-01 0.0
2.243095e-01 -2.279065e-01 0.0
3.034927e-01 -2.592073e-01 0.0
3.749919e-01 -2.742854e-01 0.0
4.361795e-01 -2.728143e-01 0.0
4.878515e-01 -2.562523e-01 0.0
5.321095e-01 -2.303308e-01 0.0
5.703573e-01 -1.995552e-01 0.0
6.033992e-01 -1.672977e-01 0.0
6.316846e-01 -1.358879e-01 0.0
6.555136e-01 -1.067699e-01 0.0
6.751524e-01 -8.072074e-02 0.0
6.908798e-01 -5.806081e-02 0.0
7.029986e-01 -3.882204e-02 0.0
7.118376e-01 -2.286152e-02 0.0
7.177556e-01 -9.939743e-03 0.0
7.211762e-01 2.361313e-04 0.0
7.225704e-01 8.191958e-03 0.0
7.222628e-01 1.432087e-02 0.0
7.205139e-01 1.896122e-02 0.0
7.175444e-01 2.239453e-02 0.0
7.135461e-01 2.485367e-02 0.0
7.086946e-01 2.653092e-02 0.0
7.031204e-01 2.757513e-02 0.0
6.969356e-01 2.811121e-02 0.0
6.902819e-01 2.821873e-02 0.0
6.832856e-01 2.799151e-02 0.0
6.760544e-01 2.750921e-02 0.0
6.686808e-01 2.683463e-02 0.0
6.612434e-01 2.601730e-02 0.0
6.538089e-01 2.509678e-02 0.0
6.464334e-01 2.410506e-02 0.0
6.391631e-01 2.306825e-02 0.0
6.320355e-01 2.200769e-02 0.0
6.250806e-01 2.094070e-02 0.0
6.183215e-01 1.988119e-02 0.0
6.117754e-01 1.884021e-02 0.0
6.054544e-01 1.782631e-02 0.0
5.993664e-01 1.684601e-02 0.0
5.935155e-01 1.590401e-02 0.0
5.879029e-01 1.500356e-02 0.0
5.825273e-01 1.414664e-02 0.0
5.773852e-01 1.333419e-02 0.0
5.724716e-01 1.256630e-02 0.0
5.677804e-01 1.184237e-02 0.0
5.633045e-01 1.116128e-02 0.0
5.590363e-01 1.052146e-02 0.0
5.549677e-01 9.920977e-03 0.0
5.510904e-01 9.357652e-03 0.0
5.473963e-01 8.829097e-03 0.0
5.438773e-01 8.332779e-03 0.0
5.405256e-01 7.866057e-03 0.0
5.373337e-01 7.426201e-03 0.0
5.342949e-01 7.010408e-03 0.0
5.314027e-01 6.615815e-03 0.0
5.286513e-01 6.239490e-03 0.0
5.260357e-01 5.878437e-03 0.0
5.235516e-01 5.529579e-03 0.0
5.211955e-01 5.189742e-03 0.0
5.189649e-01 4.855621e-03 0.0
5.168581e-01 4.523748e-03 0.0
5.148746e-01 4.190475e-03 0.0
5.130149e-01 3.851976e-03 0.0
5.112809e-01 3.504287e-03 0.0
5.096758e-01 3.143415e-03 0.0
5.082043e-01 2.765644e-03 0.0
5.068730e-01 2.368168e-03 0.0
5.056906e-01 1.950078e-03 0.0
5.046685e-01 1.514127e-03 0.0
5.038221e-01 1.070887e-03 0.0
5.031707e-01 6.433210e-04 0.0
5.027361e-01 2.768677e-04 0.0
5.025234e-01 4.304660e-05 0.0
5.025225e-01 2.894100e-06 0.0
0.000000e+00 2.920943e-06 0.0
0.000000e+00 0.000000e+00 0.0
0.000000e+00 0.000000e+00 0.0
0.000000e+00 0.000000e+00 0.0
0.000000e+00 0.000000e+00 0.0
0.000000e+00 0.000000e+00 0.0
0.000000e+00 0.000000e+00 0.0
0.000000e+00 0.000000e+00 0.0
0.000000e+00 0.000000e+00 0.0
0.000000e+00 0.000000e+00 0.0
0.000000e+00 0.000000e+00 0.0
0.000000e+00 -4.359802e-02 0.0
-1.349555e-02 4.360306e-02 0.0
-3.553136e-02 8.432152e-02 0.0
-5.694538e-02 9.649798e-02 0.0
-7.478830e-02 9.609478e-02 0.0
-8.838095e-02 9.161627e-02 0.0
-9.747913e-02 8.610193e-02 0.0
-1.018196e-01 8.015658e-02 0.0
-1.009096e-01 7.334875e-02 0.0
-9.425474e-02 6.506913e-02 0.0
-8.014994e-02 5.285185e-02 0.0
-5.635752e-02 3.469170e-02 0.0
-1.577109e-02 3.178869e-03 0.0
4.611142e-02 -4.218519e-02 0.0
1.219095e-01 -9.672326e-02 0.0
2.051774e-01 -1.565408e-01 0.0
2.898190e-01 -2.148690e-01 0.0
3.712792e-01 -2.646807e-01 0.0
4.450746e-01 -3.017018e-01 0.0
5.088664e-01 -3.229986e-01 0.0
5.619278e-01 -3.273464e-01 0.0
6.040839e-01 -3.149703e-01 0.0
6.386383e-01 -2.908069e-01 0.0
6.677307e-01 -2.594235e-01 0.0
6.927084e-01 -2.245330e-01 0.0
7.143597e-01 -1.889488e-01 0.0
7.331206e-01 -1.546484e-01 0.0
7.492289e-01 -1.228781e-01 0.0
7.628321e-01 -9.432408e-02 0.0
7.740506e-01 -6.927950e-02 0.0
7.830126e-01 -4.778389e-02 0.0
7.898652e-01 -2.971395e-02 0.0
7.947723e-01 -1.484667e-02 0.0
7.979192e-01 -2.910833e-03 0.0
7.996168e-01 6.494247e-03 0.0
8.000782e-01 1.385951e-02 0.0
7.994686e-01 1.957090e-02 0.0
7.979276e-01 2.393567e-02 0.0
7.955790e-01 2.720242e-02 0.0
7.925360e-01 2.957387e-02 0.0
7.888968e-01 3.121433e-02 0.0
7.847482e-01 3.225982e-02 0.0
7.801472e-01 3.281985e-02 0.0
7.751652e-01 3.297356e-02 0.0
7.698777e-01 3.279680e-02 0.0
7.643520e-01 3.236030e-02 0.0
7.586492e-01 3.172020e-02 0.0
7.528237e-01 3.092232e-02 0.0
7.469240e-01 3.000475e-02 0.0
7.409928e-01 2.899953e-02 0.0
7.350668e-01 2.793372e-02 0.0
7.291777e-01 2.682987e-02 0.0
7.233522e-01 2.570672e-02 0.0
7.176128e-01 2.457967e-02 0.0
7.119779e-01 2.346125e-02 0.0
7.064625e-01 2.236148e-02 0.0
7.010783e-01 2.128823e-02 0.0
6.958344e-01 2.024749e-02 0.0
6.907375e-01 1.924365e-02 0.0
6.857920e-01 1.827972e-02 0.0
6.810007e-01 1.735759e-02 0.0
6.763650e-01 1.647818e-02 0.0
6.718847e-01 1.564160e-02 0.0
6.675589e-01 1.484731e-02 0.0
6.633857e-01 1.409420e-02 0.0
6.593627e-01 1.338072e-02 0.0
6.554869e-01 1.270496e-02 0.0
6.517550e-01 1.206471e-02 0.0
6.481636e-01 1.145751e-02 0.0
6.447092e-01 1.088070e-02 0.0
6.413882e-01 1.033144e-02 0.0
6.381974e-01 9.806711e-03 0.0
6.351336e-01 9.303358e-03 0.0
6.321940e-01 8.818053e-03 0.0
6.293763e-01 8.347312e-03 0.0
6.266786e-01 7.887475e-03 0.0
6.240996e-01 7.434661e-03 0.0
6.216387e-01 6.984712e-03 0.0
6.192961e-01 6.533171e-03 0.0
6.170728e-01 6.075273e-03 0.0
6.149712e-01 5.605948e-03 0.0
6.129948e-01 5.119880e-03 0.0
6.111488e-01 4.611690e-03 0.0
6.094407e-01 4.076309e-03 0.0
6.078812e-01 3.509655e-03 0.0
6.064855e-01 2.909879e-03 0.0
6.052765e-01 2.279899e-03 0.0
6.042888e-01 1.631152e-03 0.0
6.035747e-01 9.910285e-04 0.0
6.032039e-01 4.138803e-04 0.0
6.032030e-01 3.794412e-06 0.0
0.000000e+00 3.829689e-06 0.0
0.000000e+00 0.000000e+00 0.0
0.000000e+00 0.000000e+00 0.0
0.000000e+00 0.000000e+00 0.0
0.000000e+00 0.000000e+00 0.0
0.000000e+00 0.000000e+00 0.0
0.000000e+00 0.000000e+00 0.0
0.000000e+00 0.000000e+00 0.0
0.000000e+00 0.000000e+00 0.0
0.000000e+00 0.000000e+00 0.0
0.000000e+00 0.000000e+00 0.0
0.000000e+00 -5.674009e-02 0.0
-1.313679e-02 5.674541e-02 0.0
-3.053482e-02 1.017144e-01 0.0
-4.349190e-02 1.094509e-01 0.0
-5.068680e-02 1.032893e-01 0.0
-5.211370e-02 9.304594e-02 0.0
-4.783607e-02 8.182758e-02 0.0
-3.762580e-02 6.994758e-02 0.0
-2.007992e-02 5.580177e-02 0.0
6.285416e-03 3.870158e-02 0.0
4.601635e-02 1.311942e-02 0.0
1.043843e-01 -2.367619e-02 0.0
1.777263e-01 -7.016195e-02 0.0
2.605016e-01 -1.249596e-01 0.0
3.474434e-01 -1.836649e-01 0.0
4.323642e-01 -2.414622e-01 0.0
5.102711e-01 -2.927765e-01 0.0
5.781616e-01 -3.325714e-01 0.0
6.342626e-01 -3.578025e-01 0.0
6.782807e-01 -3.670163e-01 0.0
7.107168e-01 -3.597821e-01 0.0
7.349052e-01 -3.391588e-01 0.0
7.536332e-01 -3.095352e-01 0.0
7.688442e-01 -2.746347e-01 0.0
7.817614e-01 -2.374501e-01 0.0
7.930832e-01 -2.002703e-01 0.0
8.031697e-01 -1.647346e-01 0.0
8.121583e-01 -1.318667e-01 0.0
8.200687e-01 -1.022347e-01 0.0
8.268739e-01 -7.608465e-02 0.0
8.325511e-01 -5.346099e-02 0.0
8.370996e-01 -3.426227e-02 0.0
8.405307e-01 -1.827771e-02 0.0
8.428778e-01 -5.257998e-03 0.0
8.442753e-01 5.096688e-03 0.0
8.448329e-01 1.330197e-02 0.0
8.446416e-01 1.976242e-02 0.0
8.437833e-01 2.479403e-02 0.0
8.423353e-01 2.865040e-02 0.0
8.403707e-01 3.153844e-02 0.0
8.379567e-01 3.362839e-02 0.0
8.351547e-01 3.506186e-02 0.0
8.320181e-01 3.595653e-02 0.0
8.285833e-01 3.640845e-02 0.0
8.248876e-01 3.649254e-02 0.0
8.209723e-01 3.627562e-02 0.0
8.168769e-01 3.581566e-02 0.0
8.126383e-01 3.516094e-02 0.0
8.082905e-01 3.435257e-02 0.0
8.038642e-01 3.342589e-02 0.0
7.993865e-01 3.241146e-02 0.0
7.948815e-01 3.133496e-02 0.0
7.903703e-01 3.021802e-02 0.0
7.858712e-01 2.907874e-02 0.0
7.814004e-01 2.793213e-02 0.0
7.769714e-01 2.679046e-02 0.0
7.725961e-01 2.566364e-02 0.0
7.682842e-01 2.455949e-02 0.0
7.640438e-01 2.348404e-02 0.0
7.598818e-01 2.244176e-02 0.0
7.558036e-01 2.143584e-02 0.0
7.518135e-01 2.046834e-02 0.0
7.479148e-01 1.954038e-02 0.0
7.441099e-01 1.865227e-02 0.0
7.404005e-01 1.780362e-02 0.0
7.367878e-01 1.699352e-02 0.0
7.332722e-01 1.622054e-02 0.0
7.298541e-01 1.548289e-02 0.0
7.265332e-01 1.477843e-02 0.0
7.233092e-01 1.410472e-02 0.0
7.201817e-01 1.345904e-02 0.0
7.171500e-01 1.283844e-02 0.0
7.142137e-01 1.223973e-02 0.0
7.113723e-01 1.165948e-02 0.0
7.086256e-01 1.109404e-02 0.0
7.059737e-01 1.053950e-02 0.0
7.034167e-01 9.991668e-03 0.0
7.009555e-01 9.445936e-03 0.0
6.985915e-01 8.897275e-03 0.0
6.963266e-01 8.340207e-03 0.0
6.941638e-01 7.768758e-03 0.0
6.921073e-01 7.176432e-03 0.0
6.901629e-01 6.556227e-03 0.0
6.883385e-01 5.900726e-03 0.0
6.866459e-01 5.202289e-03 0.0
6.851024e-01 4.453457e-03 0.0
6.837346e-01 3.647773e-03 0.0
6.825846e-01 2.781140e-03 0.0
6.817204e-01 1.855300e-03 0.0
6.812439e-01 8.904913e-04 0.0
6.812432e-01 4.497342e-06 0.0
0.000000e+00 4.539500e-06 0.0
0.000000e+00 0.000000e+00 0.0
0.000000e+00 0.000000e+00 0.0
0.000000e+00 0.000000e+00 0.0
0.000000e+00 0.000000e+00 0.0
0.000000e+00 0.000000e+00 0.0
0.000000e+00 0.000000e+00 0.0
0.000000e+00 0.000000e+00 0.0
0.000000e+00 0.000000e+00 0.0
0.000000e+00 0.000000e+00 0.0
0.000000e+00 0.000000e+00 0.0
0.000000e+00 -7.038702e-02 0.0
-1.364227e-02 7.039131e-02 0.0
-2.291860e-02 1.109856e-01 0.0
-2.231976e-02 1.088490e-01 0.0
-1.385949e-02 9.482976e-02 0.0
1.848451e-03 7.734126e-02 0.0
2.492625e-02 5.875275e-02 0.0
5.565860e-02 3.921584e-02 0.0
9.765795e-02 1.380082e-02 0.0
1.557739e-01 -1.941642e-02 0.0
2.281046e-01 -5.921208e-02 0.0
3.102999e-01 -1.058708e-01 0.0
3.980090e-01 -1.578698e-01 0.0
4.857449e-01 -2.126949e-01 0.0
5.685323e-01 -2.664526e-01 0.0
6.419862e-01 -3.149168e-01 0.0
7.031794e-01 -3.539703e-01 0.0
7.509804e-01 -3.803723e-01 0.0
7.855999e-01 -3.924217e-01 0.0
8.081432e-01 -3.895591e-01 0.0
8.215036e-01 -3.731424e-01 0.0
8.291171e-01 -3.467725e-01 0.0
8.334759e-01 -3.138943e-01 0.0
8.362564e-01 -2.774153e-01 0.0
8.384711e-01 -2.396646e-01 0.0
8.406636e-01 -2.024625e-01 0.0
8.430878e-01 -1.671586e-01 0.0
8.457630e-01 -1.345421e-01 0.0
8.485848e-01 -1.050565e-01 0.0
8.513937e-01 -7.889352e-02 0.0
8.540399e-01 -5.610704e-02 0.0
8.564008e-01 -3.662300e-02 0.0
8.583579e-01 -2.023491e-02 0.0
8.598260e-01 -6.726137e-03 0.0
8.607734e-01 4.149293e-03 0.0
8.612113e-01 1.286425e-02 0.0
8.611626e-01 1.981124e-02 0.0
8.606610e-01 2.529564e-02 0.0
8.597472e-01 2.956423e-02 0.0
8.584649e-01 3.282070e-02 0.0
8.568582e-01 3.523510e-02 0.0
8.549696e-01 3.695057e-02 0.0
8.528382e-01 3.808796e-02 0.0
8.504978e-01 3.874899e-02 0.0
8.479716e-01 3.901875e-02 0.0
8.452816e-01 3.896563e-02 0.0
8.424518e-01 3.864551e-02 0.0
8.395057e-01 3.810705e-02 0.0
8.364656e-01 3.739279e-02 0.0
8.333515e-01 3.654005e-02 0.0
8.301810e-01 3.558200e-02 0.0
8.269699e-01 3.454611e-02 0.0
8.237321e-01 3.345581e-02 0.0
8.204800e-01 3.233087e-02 0.0
8.172244e-01 3.118777e-02 0.0
8.139748e-01 3.004015e-02 0.0
8.107394e-01 2.889907e-02 0.0
8.075256e-01 2.777341e-02 0.0
8.043395e-01 2.667015e-02 0.0
8.011867e-01 2.559462e-02 0.0
7.980718e-01 2.455074e-02 0.0
7.949989e-01 2.354126e-02 0.0
7.919715e-01 2.256787e-02 0.0
7.889925e-01 2.163139e-02 0.0
7.860642e-01 2.073190e-02 0.0
7.831890e-01 1.986885e-02 0.0
7.803683e-01 1.904119e-02 0.0
7.776039e-01 1.824738e-02 0.0
7.748969e-01 1.748550e-02 0.0
7.722484e-01 1.675328e-02 0.0
7.696594e-01 1.604813e-02 0.0
7.671307e-01 1.536716e-02 0.0
7.646632e-01 1.470721e-02 0.0
7.622580e-01 1.406480e-02 0.0
7.599159e-01 1.343615e-02 0.0
7.576382e-01 1.281727e-02 0.0
7.554261e-01 1.220383e-02 0.0
7.532812e-01 1.159086e-02 0.0
7.512056e-01 1.097293e-02 0.0
7.492019e-01 1.034402e-02 0.0
7.472732e-01 9.697419e-03 0.0
7.454241e-01 9.025645e-03 0.0
7.436601e-01 8.320244e-03 0.0
7.419893e-01 7.571609e-03 0.0
7.404230e-01 6.768666e-03 0.0
7.389781e-01 5.898369e-03 0.0
7.376811e-01 4.944860e-03 0.0
7.365742e-01 3.888036e-03 0.0
7.357270e-01 2.702543e-03 0.0
7.352485e-01 1.369068e-03 0.0
7.352481e-01 4.920060e-06 0.0
0.000000e+00 4.966602e-06 0.0
0.000000e+00 0.000000e+00 0.0
0.000000e+00 0.000000e+00 0.0
0.000000e+00 0.000000e+00 0.0
0.000000e+00 0.000000e+00 0.0
0.000000e+00 0.000000e+00 0.0
0.000000e+00 0.000000e+00 0.0
0.000000e+00 0.000000e+00 0.0
0.000000e+00 0.000000e+00 0.0
0.000000e+00 0.000000e+00 0.0
0.000000e+00 0.000000e+00 0.0
0.000000e+00 -8.411772e-02 0.0
-1.372528e-02 8.411925e-02 0.0
-5.686238e-03 1.029420e-01 0.0
1.883525e-02 8.432481e-02 0.0
5.207655e-02 6.158938e-02 0.0
9.294540e-02 3.647570e-02 0.0
1.441425e-01 7.558305e-03 0.0
2.086814e-01 -2.532299e-02 0.0
2.840457e-01 -6.156562e-02 0.0
3.667902e-01 -1.021628e-01 0.0
4.541392e-01 -1.465613e-01 0.0
5.421409e-01 -1.938713e-01 0.0
6.265930e-01 -2.423206e-01 0.0
7.033185e-01 -2.894201e-01 0.0
7.689305e-01 -3.320652e-01 0.0
8.211317e-01 -3.671187e-01 0.0
8.590450e-01 -3.918837e-01 0.0
8.832231e-01 -4.045502e-01 0.0
8.952162e-01 -4.044144e-01 0.0
8.975174e-01 -3.918601e-01 0.0
8.938461e-01 -3.694711e-01 0.0
8.870094e-01 -3.399361e-01 0.0
8.790587e-01 -3.059437e-01 0.0
8.713207e-01 -2.696772e-01 0.0
8.645420e-01 -2.328857e-01 0.0
8.590764e-01 -1.969967e-01 0.0
8.550602e-01 -1.631424e-01 0.0
8.523859e-01 -1.318678e-01 0.0
8.508480e-01 -1.035187e-01 0.0
8.502088e-01 -7.825426e-02 0.0
8.502090e-01 -5.610704e-02 0.0
8.505933e-01 -3.700731e-02 0.0
8.511581e-01 -2.079975e-02 0.0
8.517325e-01 -7.300536e-03 0.0
8.521790e-01 3.702843e-03 0.0
8.524111e-01 1.263227e-02 0.0
8.523896e-01 1.983291e-02 0.0
8.521038e-01 2.558142e-02 0.0
8.515610e-01 3.010698e-02 0.0
8.507789e-01 3.360283e-02 0.0
8.497805e-01 3.623355e-02 0.0
8.485912e-01 3.813998e-02 0.0
8.472363e-01 3.944288e-02 0.0
8.457397e-01 4.024568e-02 0.0
8.441216e-01 4.063684e-02 0.0
8.423960e-01 4.069129e-02 0.0
8.405766e-01 4.046497e-02 0.0
8.386780e-01 4.000574e-02 0.0
8.367137e-01 3.935707e-02 0.0
8.346961e-01 3.855770e-02 0.0
8.326364e-01 3.764177e-02 0.0
8.305442e-01 3.663837e-02 0.0
8.284278e-01 3.557224e-02 0.0
8.262945e-01 3.446422e-02 0.0
8.241505e-01 3.333177e-02 0.0
8.220015e-01 3.218928e-02 0.0
8.198521e-01 3.104852e-02 0.0
8.177066e-01 2.991893e-02 0.0
8.155688e-01 2.880800e-02 0.0
8.134420e-01 2.772147e-02 0.0
8.113291e-01 2.666368e-02 0.0
8.092328e-01 2.563766e-02 0.0
8.071553e-01 2.464540e-02 0.0
8.050988e-01 2.368795e-02 0.0
8.030651e-01 2.276562e-02 0.0
8.010560e-01 2.187804e-02 0.0
7.990729e-01 2.102431e-02 0.0
7.971173e-01 2.020302e-02 0.0
7.951905e-01 1.941235e-02 0.0
7.932937e-01 1.865011e-02 0.0
7.914281e-01 1.791376e-02 0.0
7.895949e-01 1.720045e-02 0.0
7.877952e-01 1.650698e-02 0.0
7.860302e-01 1.582984e-02 0.0
7.843013e-01 1.516513e-02 0.0
7.826098e-01 1.450884e-02 0.0
7.809570e-01 1.385659e-02 0.0
7.793448e-01 1.320311e-02 0.0
7.777752e-01 1.254264e-02 0.0
7.762505e-01 1.186875e-02 0.0
7.747738e-01 1.117420e-02 0.0
7.733488e-01 1.045070e-02 0.0
7.719805e-01 9.688613e-03 0.0
7.706756e-01 8.876522e-03 0.0
7.694439e-01 8.000453e-03 0.0
7.682997e-01 7.042627e-03 0.0
7.672653e-01 5.979243e-03 0.0
7.663767e-01 4.776696e-03 0.0
7.656924e-01 3.386874e-03 0.0
7.653044e-01 1.757213e-03 0.0
7.653043e-01 5.030059e-06 0.0
0.000000e+00 5.078222e-06 0.0
0.000000e+00 0.000000e+00 0.0
0.000000e+00 0.000000e+00 0.0
0.000000e+00 0.000000e+00 0.0
0.000000e+00 0.000000e+00 0.0
0.000000e+00 0.000000e+00 0.0
0.000000e+00 0.000000e+00 0.0
0.000000e+00 0.000000e+00 0.0
0.000000e+00 0.000000e+00 0.0
0.000000e+00 0.000000e+00 0.0
0.000000e+00 0.000000e+00 0.0
0.000000e+00 -7.896551e-02 0.0
5.157409e-03 7.896430e-02 0.0
5.422511e-02 5.386952e-02 0.0
1.182406e-01 2.030678e-02 0.0
1.921323e-01 -1.230058e-02 0.0
2.729370e-01 -4.432519e-02 0.0
3.574880e-01 -7.699045e-02 0.0
4.440787e-01 -1.119145e-01 0.0
5.314867e-01 -1.489760e-01 0.0
6.173641e-01 -1.880417e-01 0.0
6.991517e-01 -2.283486e-01 0.0
7.739943e-01 -2.687125e-01 0.0
8.391197e-01 -3.074451e-01 0.0
8.921798e-01 -3.424804e-01 0.0
9.316753e-01 -3.715613e-01 0.0