# vtk DataFile Version 3.0
Vector Field
ASCII
DATASET RECTILINEAR_GRID
DIMENSIONS 102 22 1
X_COORDINATES 102 double
0.000000 0.100000 0.200000 0.300000 0.400000 0.500000 0.600000 0.700000 0.800000 0.900000 1.000000 1.100000 1.200000 1.300000 1.400000 1.500000 1.600000 1.700000 1.800000 1.900000 2.000000 2.100000 2.200000 2.300000 2.400000 2.500000 2.600000 2.700000 2.800000 2.900000 3.000000 3.100000 3.200000 3.300000 3.400000 3.500000 3.600000 3.700000 3.800000 3.900000 4.000000 4.100000 4.200000 4.300000 4.400000 4.500000 4.600000 4.700000 4.800000 4.900000 5.000000 5.100000 5.200000 5.300000 5.400000 5.500000 5.600000 5.700000 5.800000 5.900000 6.000000 6.100000 6.200000 6.300000 6.400000 6.500000 6.600000 6.700000 6.800000 6.900000 7.000000 7.100000 7.200000 7.300000 7.400000 7.500000 7.600000 7.700000 7.800000 7.900000 8.000000 8.100000 8.200000 8.300000 8.400000 8.500000 8.600000 8.700000 8.800000 8.900000 9.000000 9.100000 9.200000 9.300000 9.400000 9.500000 9.600000 9.700000 9.800000 9.900000 10.000000 10.100000 
Y_COORDINATES 22 double
0.000000 0.100000 0.200000 0.300000 0.400000 0.500000 0.600000 0.700000 0.800000 0.900000 1.000000 1.100000 1.200000 1.300000 1.400000 1.500000 1.600000 1.700000 1.800000 1.900000 2.000000 2.100000 
Z_COORDINATES 1 double
0.0
POINT_DATA 2244
VECTORS Velocity double
0.000000e+00 0.000000e+00 0.0
-0.000000e+00 0.000000e+00 0.0
-0.000000e+00 0.000000e+00 0.0
-0.000000e+00 0.000000e+00 0.0
-0.000000e+00 0.000000e+00 0.0
-0.000000e+00 0.000000e+00 0.0
-0.000000e+00 0.000000e+00 0.0
-0.000000e+00 0.000000e+00 0.0
-0.000000e+00 0.000000e+00 0.0
-0.000000e+00 0.000000e+00 0.0
-0.000000e+00 0.000000e+00 0.0
1.178503e-04 0.000000e+00 0.0
4.484678e-03 0.000000e+00 0.0
1.105932e-02 0.000000e+00 0.0
1.862171e-02 0.000000e+00 0.0
2.675221e-02 0.000000e+00 0.0
3.549649e-02 0.000000e+00 0.0
4.508606e-02 0.000000e+00 0.0
5.581223e-02 0.000000e+00 0.0
6.797849e-02 0.000000e+00 0.0
8.185599e-02 0.000000e+00 0.0
9.761369e-02 0.000000e+00 0.0
1.152003e-01 0.000000e+00 0.0
1.341847e-01 0.000000e+00 0.0
1.535827e-01 0.000000e+00 0.0
1.716772e-01 0.000000e+00 0.0
1.860202e-01 0.000000e+00 0.0
1.935163e-01 0.000000e+00 0.0
1.907807e-01 0.000000e+00 0.0
1.758034e-01 0.000000e+00 0.0
1.480899e-01 0.000000e+00 0.0
1.096398e-01 0.000000e+00 0.0
6.408024e-02 0.000000e+00 0.0
1.361113e-02 0.000000e+00 0.0
-3.533043e-02 0.000000e+00 0.0
-7.707971e-02 0.000000e+00 0.0
-1.101151e-01 0.000000e+00 0.0
-1.346650e-01 0.000000e+00 0.0
-1.517064e-01 0.000000e+00 0.0
-1.624966e-01 0.000000e+00 0.0
-1.683378e-01 0.000000e+00 0.0
-1.704677e-01 0.000000e+00 0.0
-1.699934e-01 0.000000e+00 0.0
-1.674192e-01 0.000000e+00 0.0
-1.633013e-01 0.000000e+00 0.0
-1.581771e-01 0.000000e+00 0.0
-1.524805e-01 0.000000e+00 0.0
-1.465291e-01 0.000000e+00 0.0
-1.405452e-01 0.000000e+00 0.0
-1.346588e-01 0.000000e+00 0.0
-1.289493e-01 0.000000e+00 0.0
-1.234702e-01 0.000000e+00 0.0
-1.182507e-01 0.000000e+00 0.0
-1.133061e-01 0.000000e+00 0.0
-1.086447e-01 0.000000e+00 0.0
-1.042699e-01 0.000000e+00 0.0
-1.001823e-01 0.000000e+00 0.0
-9.638065e-02 0.000000e+00 0.0
-9.286265e-02 0.000000e+00 0.0
-8.962489e-02 0.000000e+00 0.0
-8.666337e-02 0.000000e+00 0.0
-8.397346e-02 0.000000e+00 0.0
-8.154989e-02 0.000000e+00 0.0
-7.938671e-02 0.000000e+00 0.0
-7.747715e-02 0.000000e+00 0.0
-7.581358e-02 0.000000e+00 0.0
-7.438744e-02 0.000000e+00 0.0
-7.318922e-02 0.000000e+00 0.0
-7.220845e-02 0.000000e+00 0.0
-7.143362e-02 0.000000e+00 0.0
-7.085213e-02 0.000000e+00 0.0
-7.045022e-02 0.000000e+00 0.0
-7.021281e-02 0.000000e+00 0.0
-7.012329e-02 0.000000e+00 0.0
-7.016307e-02 0.000000e+00 0.0
-7.031070e-02 0.000000e+00 0.0
-7.054109e-02 0.000000e+00 0.0
-7.082653e-02 0.000000e+00 0.0
-7.115358e-02 0.000000e+00 0.0
-7.151625e-02 0.000000e+00 0.0
-7.190783e-02 0.000000e+00 0.0
-7.232061e-02 0.000000e+00 0.0
-7.274657e-02 0.000000e+00 0.0
-7.317743e-02 0.000000e+00 0.0
-7.360292e-02 0.000000e+00 0.0
-7.401319e-02 0.000000e+00 0.0
-7.440050e-02 0.000000e+00 0.0
-7.475963e-02 0.000000e+00 0.0
-7.508768e-02 0.000000e+00 0.0
-7.538371e-02 0.000000e+00 0.0
-7.564802e-02 0.000000e+00 0.0
-7.588128e-02 0.000000e+00 0.0
-7.608420e-02 0.000000e+00 0.0
-7.625974e-02 0.000000e+00 0.0
-7.640922e-02 0.000000e+00 0.0
-7.653271e-02 0.000000e+00 0.0
-7.663063e-02 0.000000e+00 0.0
-7.670395e-02 0.000000e+00 0.0
-7.675476e-02 0.000000e+00 0.0
-7.679140e-02 0.000000e+00 0.0
-7.679140e-02 0.000000e+00 0.0
0.000000e+00 0.000000e+00 0.0
0.000000e+00 0.000000e+00 0.0
0.000000e+00 0.000000e+00 0.0
0.000000e+00 0.000000e+00 0.0
0.000000e+00 0.000000e+00 0.0
0.000000e+00 0.000000e+00 0.0
0.000000e+00 0.000000e+00 0.0
0.000000e+00 0.000000e+00 0.0
0.000000e+00 0.000000e+00 0.0
0.000000e+00 0.000000e+00 0.0
0.000000e+00 0.000000e+00 0.0
0.000000e+00 -1.070942e-03 0.0
-1.221024e-04 1.065478e-03 0.0
-4.487986e-03 4.908325e-03 0.0
-1.106246e-02 7.116916e-03 0.0
-1.862577e-02 8.105756e-03 0.0
-2.675838e-02 8.675049e-03 0.0
-3.550609e-02 9.290150e-03 0.0
-4.510059e-02 1.013694e-02 0.0
-5.583344e-02 1.127530e-02 0.0
-6.800837e-02 1.271737e-02 0.0
-8.189666e-02 1.443073e-02 0.0
-9.766703e-02 1.631281e-02 0.0
-1.152675e-01 1.814288e-02 0.0
-1.342654e-01 1.954043e-02 0.0
-1.536745e-01 1.995146e-02 0.0
-1.717736e-01 1.864163e-02 0.0
-1.861112e-01 1.487999e-02 0.0
-1.935900e-01 8.021270e-03 0.0
-1.908222e-01 -2.225347e-03 0.0
-1.758015e-01 -1.447824e-02 0.0
-1.480390e-01 -2.722005e-02 0.0
-1.095417e-01 -3.795482e-02 0.0
-6.393627e-02 -4.506301e-02 0.0
-1.343632e-02 -4.995750e-02 0.0
3.551072e-02 -4.840458e-02 0.0
7.725236e-02 -4.119919e-02 0.0
1.102737e-01 -3.247890e-02 0.0
1.348073e-01 -2.399115e-02 0.0
1.518329e-01 -1.648316e-02 0.0
1.626092e-01 -1.023383e-02 0.0
1.684394e-01 -5.287674e-03 0.0
1.705612e-01 -1.579433e-03 0.0
1.700822e-01 1.021541e-03 0.0
1.675074e-01 3.117209e-03 0.0
1.633923e-01 4.657533e-03 0.0
1.582737e-01 5.661056e-03 0.0
1.525850e-01 6.231183e-03 0.0
1.466434e-01 6.484069e-03 0.0
1.406709e-01 6.514932e-03 0.0
1.347969e-01 6.416514e-03 0.0
1.291004e-01 6.238963e-03 0.0
1.236343e-01 6.008526e-03 0.0
1.184274e-01 5.749436e-03 0.0
1.134943e-01 5.475533e-03 0.0
1.088429e-01 5.193866e-03 0.0
1.044761e-01 4.909242e-03 0.0
1.003943e-01 4.624304e-03 0.0
9.659602e-02 4.340756e-03 0.0
9.307872e-02 4.059763e-03 0.0
8.983905e-02 3.782151e-03 0.0
8.687298e-02 3.508539e-03 0.0
8.417599e-02 3.239465e-03 0.0
8.174297e-02 2.975494e-03 0.0
7.956815e-02 2.717290e-03 0.0
7.764501e-02 2.465616e-03 0.0
7.596617e-02 2.221318e-03 0.0
7.452336e-02 1.985293e-03 0.0
7.330736e-02 1.758476e-03 0.0
7.230800e-02 1.541832e-03 0.0
7.151411e-02 1.336374e-03 0.0
7.091341e-02 1.143174e-03 0.0
7.049250e-02 9.633916e-04 0.0
7.023668e-02 7.983010e-04 0.0
7.012977e-02 6.493912e-04 0.0
7.015368e-02 5.185716e-04 0.0
7.028765e-02 4.085186e-04 0.0
7.050726e-02 3.228662e-04 0.0
7.078497e-02 2.647720e-04 0.0
7.110482e-02 2.226336e-04 0.0
7.146094e-02 1.863680e-04 0.0
7.184680e-02 1.566290e-04 0.0
7.225477e-02 1.345132e-04 0.0
7.267692e-02 1.203371e-04 0.0
7.310511e-02 1.142937e-04 0.0
7.352938e-02 1.182133e-04 0.0
7.393974e-02 1.321303e-04 0.0
7.432818e-02 1.540495e-04 0.0
7.468914e-02 1.815235e-04 0.0
7.501945e-02 2.121765e-04 0.0
7.531794e-02 2.439978e-04 0.0
7.558481e-02 2.756209e-04 0.0
7.582073e-02 3.065663e-04 0.0
7.602623e-02 3.369859e-04 0.0
7.620409e-02 3.646354e-04 0.0
7.635584e-02 3.907370e-04 0.0
7.648158e-02 4.167481e-04 0.0
7.658143e-02 4.426381e-04 0.0
7.665627e-02 4.676438e-04 0.0
7.670800e-02 4.907652e-04 0.0
7.674478e-02 5.057073e-04 0.0
7.679140e-02 4.958633e-04 0.0
0.000000e+00 5.010018e-04 0.0
0.000000e+00 0.000000e+00 0.0
0.000000e+00 0.000000e+00 0.0
0.000000e+00 0.000000e+00 0.0
0.000000e+00 0.000000e+00 0.0
0.000000e+00 0.000000e+00 0.0
0.000000e+00 0.000000e+00 0.0
0.000000e+00 0.000000e+00 0.0
0.000000e+00 0.000000e+00 0.0
0.000000e+00 0.000000e+00 0.0
0.000000e+00 0.000000e+00 0.0
0.000000e+00 -6.578865e-03 0.0
-4.966752e-03 6.574671e-03 0.0
-1.789808e-02 1.798116e-02 0.0
-3.482958e-02 2.418993e-02 0.0
-5.354047e-02 2.695815e-02 0.0
-7.315309e-02 2.842917e-02 0.0
-9.355238e-02 2.983095e-02 0.0
-1.148961e-01 3.162222e-02 0.0
-1.373469e-01 3.386757e-02 0.0
-1.609291e-01 3.644106e-02 0.0
-1.854038e-01 3.904698e-02 0.0
-2.101613e-01 4.121177e-02 0.0
-2.340905e-01 4.221359e-02 0.0
-2.554366e-01 4.102811e-02 0.0
-2.716386e-01 3.629495e-02 0.0
-2.797697e-01 2.691424e-02 0.0
-2.764265e-01 1.167825e-02 0.0
-2.571407e-01 -1.112297e-02 0.0
-2.212350e-01 -3.798955e-02 0.0
-1.704031e-01 -6.516868e-02 0.0
-1.069488e-01 -9.053282e-02 0.0
-3.372039e-02 -1.110417e-01 0.0
4.447155e-02 -1.231134e-01 0.0
1.178961e-01 -1.232406e-01 0.0
1.830506e-01 -1.134176e-01 0.0
2.397434e-01 -9.775046e-02 0.0
2.873245e-01 -7.991854e-02 0.0
3.257656e-01 -6.229075e-02 0.0
3.555755e-01 -4.615152e-02 0.0
3.775761e-01 -3.209288e-02 0.0
3.927349e-01 -2.030497e-02 0.0
4.020478e-01 -1.075088e-02 0.0
4.064607e-01 -3.249801e-03 0.0
4.072309e-01 2.488464e-03 0.0
4.049759e-01 7.054055e-03 0.0
4.003009e-01 1.047761e-02 0.0
3.937403e-01 1.293329e-02 0.0
3.857452e-01 1.462067e-02 0.0
3.766754e-01 1.572626e-02 0.0
3.668555e-01 1.637794e-02 0.0
3.565542e-01 1.668178e-02 0.0
3.459901e-01 1.671410e-02 0.0
3.353246e-01 1.655645e-02 0.0
3.246870e-01 1.625468e-02 0.0
3.141851e-01 1.583725e-02 0.0
3.039072e-01 1.532866e-02 0.0
2.939280e-01 1.474496e-02 0.0
2.843115e-01 1.409882e-02 0.0
2.751124e-01 1.340040e-02 0.0
2.663779e-01 1.265814e-02 0.0
2.581486e-01 1.187937e-02 0.0
2.504587e-01 1.107082e-02 0.0
2.433365e-01 1.023921e-02 0.0
2.368038e-01 9.391535e-03 0.0
2.308757e-01 8.535216e-03 0.0
2.255606e-01 7.678007e-03 0.0
2.208595e-01 6.827862e-03 0.0
2.167667e-01 5.992765e-03 0.0
2.132695e-01 5.180583e-03 0.0
2.103484e-01 4.398943e-03 0.0
2.079780e-01 3.655123e-03 0.0
2.061270e-01 2.955950e-03 0.0
2.047591e-01 2.307711e-03 0.0
2.038339e-01 1.716104e-03 0.0
2.033076e-01 1.186334e-03 0.0
2.031343e-01 7.234102e-04 0.0
2.032661e-01 3.325720e-04 0.0
2.036534e-01 1.897736e-05 0.0
2.042290e-01 -2.114498e-04 0.0
2.049391e-01 -3.822712e-04 0.0
2.057433e-01 -5.060578e-04 0.0
2.066083e-01 -5.889485e-04 0.0
2.075058e-01 -6.356317e-04 0.0
2.084115e-01 -6.498754e-04 0.0
2.093040e-01 -6.327449e-04 0.0
2.101651e-01 -5.874739e-04 0.0
2.109807e-01 -5.200812e-04 0.0
2.117413e-01 -4.374944e-04 0.0
2.124414e-01 -3.464410e-04 0.0
2.130797e-01 -2.527902e-04 0.0
2.136581e-01 -1.612088e-04 0.0
2.141811e-01 -7.492349e-05 0.0
2.146546e-01 4.970338e-06 0.0
2.150785e-01 8.224014e-05 0.0
2.154530e-01 1.577914e-04 0.0
2.157790e-01 2.322179e-04 0.0
2.160573e-01 3.058531e-04 0.0
2.162899e-01 3.765826e-04 0.0
2.164783e-01 4.438914e-04 0.0
2.166284e-01 4.971800e-04 0.0
2.167699e-01 4.958998e-04 0.0
0.000000e+00 5.011454e-04 0.0
0.000000e+00 0.000000e+00 0.0
0.000000e+00 0.000000e+00 0.0
0.000000e+00 0.000000e+00 0.0
0.000000e+00 0.000000e+00 0.0
0.000000e+00 0.000000e+00 0.0
0.000000e+00 0.000000e+00 0.0
0.000000e+00 0.000000e+00 0.0
0.000000e+00 0.000000e+00 0.0
0.000000e+00 0.000000e+00 0.0
0.000000e+00 0.000000e+00 0.0
0.000000e+00 -1.659484e-02 0.0
-9.476431e-03 1.659354e-02 0.0
-2.907800e-02 3.772424e-02 0.0
-5.245490e-02 4.770833e-02 0.0
-7.666918e-02 5.131394e-02 0.0
-1.006212e-01 5.252266e-02 0.0
-1.240019e-01 5.335323e-02 0.0
-1.466965e-01 5.445825e-02 0.0
-1.685163e-01 5.582896e-02 0.0
-1.890880e-01 5.715418e-02 0.0
-2.077252e-01 5.782576e-02 0.0
-2.234029e-01 5.703097e-02 0.0
-2.347162e-01 5.366841e-02 0.0
-2.399847e-01 4.643803e-02 0.0
-2.361189e-01 3.257066e-02 0.0
-2.187803e-01 9.717182e-03 0.0
-1.837753e-01 -2.318525e-02 0.0
-1.324898e-01 -6.226696e-02 0.0
-6.625572e-02 -1.040821e-01 0.0
1.143338e-02 -1.427163e-01 0.0
9.290508e-02 -1.718630e-01 0.0
1.714583e-01 -1.894534e-01 0.0
2.433130e-01 -1.948267e-01 0.0
3.065300e-01 -1.863160e-01 0.0
3.617499e-01 -1.684959e-01 0.0
4.097137e-01 -1.455728e-01 0.0
4.507712e-01 -1.208345e-01 0.0
4.851525e-01 -9.653053e-02 0.0
5.131565e-01 -7.401400e-02 0.0
5.351910e-01 -5.398588e-02 0.0
5.517489e-01 -3.672136e-02 0.0
5.633749e-01 -2.223538e-02 0.0
5.706588e-01 -1.039216e-02 0.0
5.742594e-01 -9.706615e-04 0.0
5.748828e-01 6.572149e-03 0.0
5.730082e-01 1.249369e-02 0.0
5.690189e-01 1.706415e-02 0.0
5.632439e-01 2.053718e-02 0.0
5.559786e-01 2.313309e-02 0.0
5.474721e-01 2.502591e-02 0.0
5.379374e-01 2.635802e-02 0.0
5.275429e-01 2.725016e-02 0.0
5.164704e-01 2.777046e-02 0.0
5.048933e-01 2.797322e-02 0.0
4.929687e-01 2.790343e-02 0.0
4.808317e-01 2.760711e-02 0.0
4.686090e-01 2.710921e-02 0.0
4.564172e-01 2.643216e-02 0.0
4.443652e-01 2.559391e-02 0.0
4.325551e-01 2.460970e-02 0.0
4.210831e-01 2.349291e-02 0.0
4.100391e-01 2.225632e-02 0.0
3.995065e-01 2.091334e-02 0.0
3.895607e-01 1.947886e-02 0.0
3.802678e-01 1.796966e-02 0.0
3.716830e-01 1.640429e-02 0.0
3.638496e-01 1.480277e-02 0.0
3.567978e-01 1.318612e-02 0.0
3.505441e-01 1.157579e-02 0.0
3.450915e-01 9.993068e-03 0.0
3.404296e-01 8.458548e-03 0.0
3.365355e-01 6.991543e-03 0.0
3.333752e-01 5.609513e-03 0.0
3.309053e-01 4.327500e-03 0.0
3.290755e-01 3.157662e-03 0.0
3.278314e-01 2.109035e-03 0.0
3.271177e-01 1.187782e-03 0.0
3.268792e-01 3.990549e-04 0.0
3.270530e-01 -2.437426e-04 0.0
3.275271e-01 -7.148921e-04 0.0
3.282161e-01 -1.053493e-03 0.0
3.290511e-01 -1.282476e-03 0.0
3.299772e-01 -1.420189e-03 0.0
3.309494e-01 -1.480531e-03 0.0
3.319362e-01 -1.478094e-03 0.0
3.329120e-01 -1.421778e-03 0.0
3.338564e-01 -1.322873e-03 0.0
3.347541e-01 -1.193724e-03 0.0
3.355953e-01 -1.046129e-03 0.0
3.363743e-01 -8.903071e-04 0.0
3.370889e-01 -7.342764e-04 0.0
3.377390e-01 -5.834522e-04 0.0
3.383259e-01 -4.404113e-04 0.0
3.388549e-01 -3.052915e-04 0.0
3.393329e-01 -1.786182e-04 0.0
3.397674e-01 -6.085334e-05 0.0
3.401644e-01 5.041558e-05 0.0
3.405205e-01 1.619963e-04 0.0
3.408312e-01 2.747120e-04 0.0
3.410932e-01 3.766578e-04 0.0
3.413083e-01 4.223382e-04 0.0
0.000000e+00 4.267612e-04 0.0
0.000000e+00 0.000000e+00 0.0
0.000000e+00 0.000000e+00 0.0
0.000000e+00 0.000000e+00 0.0
0.000000e+00 0.000000e+00 0.0
0.000000e+00 0.000000e+00 0.0
0.000000e+00 0.000000e+00 0.0
0.000000e+00 0.000000e+00 0.0
0.000000e+00 0.000000e+00 0.0
0.000000e+00 0.000000e+00 0.0
0.000000e+00 0.000000e+00 0.0
0.000000e+00 -2.912295e-02 0.0
-1.198929e-02 2.912527e-02 0.0
-3.444594e-02 6.032239e-02 0.0
-5.905166e-02 7.245555e-02 0.0
-8.251527e-02 7.491906e-02 0.0
-1.038129e-01 7.396181e-02 0.0
-1.226144e-01 7.229620e-02 0.0
-1.386839e-01 7.066930e-02 0.0
-1.516958e-01 6.898232e-02 0.0
-1.612107e-01 6.681057e-02 0.0
-1.664722e-01 6.322884e-02 0.0
-1.663956e-01 5.709580e-02 0.0
-1.589517e-01 4.636609e-02 0.0
-1.422426e-01 2.987043e-02 0.0
-1.104787e-01 9.482623e-04 0.0
-5.995829e-02 -4.066174e-02 0.0
6.941119e-03 -8.994315e-02 0.0
8.463564e-02 -1.398200e-01 0.0
1.657614e-01 -1.850663e-01 0.0
2.448785e-01 -2.216919e-01 0.0
3.188920e-01 -2.457350e-01 0.0
3.853393e-01 -2.557593e-01 0.0
4.418097e-01 -2.511555e-01 0.0
4.897166e-01 -2.340814e-01 0.0
5.306959e-01 -2.093337e-01 0.0
5.659300e-01 -1.806654e-01 0.0
5.961309e-01 -1.508938e-01 0.0
6.217209e-01 -1.219790e-01 0.0
6.429964e-01 -9.514799e-02 0.0
6.602217e-01 -7.106970e-02 0.0
6.736682e-01 -5.002636e-02 0.0
6.836263e-01 -3.205195e-02 0.0
6.904076e-01 -1.703200e-02 0.0
6.943409e-01 -4.762431e-03 0.0
6.959750e-01 5.079583e-03 0.0
6.956182e-01 1.299203e-02 0.0
6.935124e-01 1.931148e-02 0.0
6.898590e-01 2.433206e-02 0.0
6.848353e-01 2.829834e-02 0.0
6.785957e-01 3.140700e-02 0.0
6.712790e-01 3.381625e-02 0.0
6.630184e-01 3.565229e-02 0.0
6.539252e-01 3.700517e-02 0.0
6.440919e-01 3.794804e-02 0.0
6.336037e-01 3.853307e-02 0.0
6.225732e-01 3.877912e-02 0.0
6.111166e-01 3.870739e-02 0.0
5.993440e-01 3.834627e-02 0.0
5.873645e-01 3.771490e-02 0.0
5.752864e-01 3.682928e-02 0.0
5.632183e-01 3.570256e-02 0.0
5.512691e-01 3.434704e-02 0.0
5.395474e-01 3.277650e-02 0.0
5.281598e-01 3.100799e-02 0.0
5.172084e-01 2.906265e-02 0.0
5.067882e-01 2.696594e-02 0.0
4.969851e-01 2.474744e-02 0.0
4.878725e-01 2.244016e-02 0.0
4.795102e-01 2.007967e-02 0.0
4.719417e-01 1.770303e-02 0.0
4.651942e-01 1.534756e-02 0.0
4.592777e-01 1.304959e-02 0.0
4.541857e-01 1.084304e-02 0.0
4.498966e-01 8.758106e-03 0.0
4.463759e-01 6.819863e-03 0.0
4.435790e-01 5.047516e-03 0.0
4.414537e-01 3.454596e-03 0.0
4.399431e-01 2.051159e-03 0.0
4.389911e-01 8.497903e-04 0.0
4.385540e-01 -1.363160e-04 0.0
4.385224e-01 -8.804199e-04 0.0
4.387830e-01 -1.401551e-03 0.0
4.392507e-01 -1.746359e-03 0.0
4.398548e-01 -1.943060e-03 0.0
4.405420e-01 -2.023790e-03 0.0
4.412767e-01 -2.015001e-03 0.0
4.420304e-01 -1.935048e-03 0.0
4.427808e-01 -1.802628e-03 0.0
4.435114e-01 -1.635209e-03 0.0
4.442105e-01 -1.447851e-03 0.0
4.448704e-01 -1.252635e-03 0.0
4.454868e-01 -1.058341e-03 0.0
4.460585e-01 -8.706114e-04 0.0
4.465873e-01 -6.925712e-04 0.0
4.470760e-01 -5.257550e-04 0.0
4.475266e-01 -3.700227e-04 0.0
4.479415e-01 -2.229322e-04 0.0
4.483259e-01 -8.087962e-05 0.0
4.486834e-01 5.869842e-05 0.0
4.490011e-01 2.005598e-04 0.0
4.492511e-01 3.138557e-04 0.0
0.000000e+00 3.166406e-04 0.0
0.000000e+00 0.000000e+00 0.0
0.000000e+00 0.000000e+00 0.0
0.000000e+00 0.000000e+00 0.0
0.000000e+00 0.000000e+00 0.0
0.000000e+00 0.000000e+00 0.0
0.000000e+00 0.000000e+00 0.0
0.000000e+00 0.000000e+00 0.0
0.000000e+00 0.000000e+00 0.0
0.000000e+00 0.000000e+00 0.0
0.000000e+00 0.000000e+00 0.0
0.000000e+00 -4.225673e-02 0.0
-1.259447e-02 4.226219e-02 0.0
-3.399519e-02 8.186462e-02 0.0
-5.489473e-02 9.349661e-02 0.0
-7.246726e-02 9.263309e-02 0.0
-8.609669e-02 8.773274e-02 0.0
-9.562387e-02 8.196488e-02 0.0
-1.008898e-01 7.607677e-02 0.0
-1.014681e-01 6.970211e-02 0.0
-9.694673e-02 6.243070e-02 0.0
-8.612264e-02 5.254626e-02 0.0
-6.754537e-02 3.866003e-02 0.0
-3.652346e-02 1.548570e-02 0.0
1.407223e-02 -2.058376e-02 0.0
8.057824e-02 -6.541623e-02 0.0
1.569851e-01 -1.169271e-01 0.0
2.377755e-01 -1.705921e-01 0.0
3.184020e-01 -2.203049e-01 0.0
3.946658e-01 -2.611887e-01 0.0
4.631276e-01 -2.900122e-01 0.0
5.221888e-01 -3.046547e-01 0.0
5.710392e-01 -3.044682e-01 0.0
6.101966e-01 -2.901714e-01 0.0
6.424109e-01 -2.661542e-01 0.0
6.694932e-01 -2.362745e-01 0.0
6.926031e-01 -2.036338e-01 0.0
7.124307e-01 -1.705800e-01 0.0
7.293729e-01 -1.387797e-01 0.0
7.436589e-01 -1.092925e-01 0.0
7.554392e-01 -8.270851e-02 0.0
7.648391e-01 -5.928474e-02 0.0
7.719863e-01 -3.905763e-02 0.0
7.770249e-01 -2.192910e-02 0.0
7.801289e-01 -7.724942e-03 0.0
7.815588e-01 3.791250e-03 0.0
7.815471e-01 1.314520e-02 0.0
7.802472e-01 2.075293e-02 0.0
7.777779e-01 2.694288e-02 0.0
7.742405e-01 3.197721e-02 0.0
7.697244e-01 3.606466e-02 0.0
7.643112e-01 3.937094e-02 0.0
7.580789e-01 4.202607e-02 0.0
7.510970e-01 4.412858e-02 0.0
7.434317e-01 4.575489e-02 0.0
7.351452e-01 4.696108e-02 0.0
7.262810e-01 4.778486e-02 0.0
7.168797e-01 4.825014e-02 0.0
7.070142e-01 4.835331e-02 0.0
6.967613e-01 4.810935e-02 0.0
6.862002e-01 4.753185e-02 0.0
6.754147e-01 4.662954e-02 0.0
6.644944e-01 4.540892e-02 0.0
6.535341e-01 4.387826e-02 0.0
6.426332e-01 4.205044e-02 0.0
6.318929e-01 3.994446e-02 0.0
6.214144e-01 3.758595e-02 0.0
6.112960e-01 3.500737e-02 0.0
6.016301e-01 3.224757e-02 0.0
5.925003e-01 2.935092e-02 0.0
5.839789e-01 2.636594e-02 0.0
5.761243e-01 2.334373e-02 0.0
5.689793e-01 2.033609e-02 0.0
5.625704e-01 1.739348e-02 0.0
5.569073e-01 1.456274e-02 0.0
5.519838e-01 1.188485e-02 0.0
5.477796e-01 9.393255e-03 0.0
5.442618e-01 7.113859e-03 0.0
5.413878e-01 5.066701e-03 0.0
5.391101e-01 3.269062e-03 0.0
5.373794e-01 1.735827e-03 0.0
5.361614e-01 4.791098e-04 0.0
5.354009e-01 -4.995155e-04 0.0
5.349937e-01 -1.197584e-03 0.0
5.348466e-01 -1.654457e-03 0.0
5.348874e-01 -1.923062e-03 0.0
5.350579e-01 -2.044017e-03 0.0
5.353213e-01 -2.056982e-03 0.0
5.356484e-01 -1.988172e-03 0.0
5.360161e-01 -1.861378e-03 0.0
5.364066e-01 -1.696809e-03 0.0
5.368066e-01 -1.511174e-03 0.0
5.372070e-01 -1.317240e-03 0.0
5.376020e-01 -1.124002e-03 0.0
5.379880e-01 -9.371056e-04 0.0
5.383632e-01 -7.593994e-04 0.0
5.387259e-01 -5.912757e-04 0.0
5.390755e-01 -4.309854e-04 0.0
5.394114e-01 -2.752037e-04 0.0
5.397305e-01 -1.188846e-04 0.0
5.400272e-01 4.530316e-05 0.0
5.402668e-01 2.157714e-04 0.0
0.000000e+00 2.163761e-04 0.0
0.000000e+00 0.000000e+00 0.0
0.000000e+00 0.000000e+00 0.0
0.000000e+00 0.000000e+00 0.0
0.000000e+00 0.000000e+00 0.0
0.000000e+00 0.000000e+00 0.0
0.000000e+00 0.000000e+00 0.0
0.000000e+00 0.000000e+00 0.0
0.000000e+00 0.000000e+00 0.0
0.000000e+00 0.000000e+00 0.0
0.000000e+00 0.000000e+00 0.0
0.000000e+00 -5.534042e-02 0.0
-1.254293e-02 5.534756e-02 0.0
-2.979913e-02 9.926232e-02 0.0
-4.283032e-02 1.066693e-01 0.0
-5.038099e-02 1.003253e-01 0.0
-5.253889e-02 9.003215e-02 0.0
-4.943660e-02 7.900410e-02 0.0
-4.106538e-02 6.784706e-02 0.0
-2.625181e-02 5.503004e-02 0.0
-3.920664e-03 4.024106e-02 0.0
2.942954e-02 1.933757e-02 0.0
7.888504e-02 -1.065396e-02 0.0
1.437680e-01 -4.925574e-02 0.0
2.191624e-01 -9.583670e-02 0.0
3.011586e-01 -1.472709e-01 0.0
3.844295e-01 -2.000565e-01 0.0
4.638696e-01 -2.498907e-01 0.0
5.358554e-01 -2.921492e-01 0.0
5.980536e-01 -3.232453e-01 0.0
6.492694e-01 -3.410864e-01 0.0
6.895092e-01 -3.447530e-01 0.0
7.192065e-01 -3.340240e-01 0.0
7.416328e-01 -3.124562e-01 0.0
7.591939e-01 -2.835738e-01 0.0
7.735197e-01 -2.504588e-01 0.0
7.856336e-01 -2.156061e-01 0.0
7.961170e-01 -1.809220e-01 0.0
8.052807e-01 -1.478019e-01 0.0
8.132509e-01 -1.171211e-01 0.0
8.200543e-01 -8.937043e-02 0.0
8.256781e-01 -6.476705e-02 0.0
8.301055e-01 -4.334349e-02 0.0
8.333361e-01 -2.501816e-02 0.0
8.354001e-01 -9.647437e-03 0.0
8.363721e-01 2.960694e-03 0.0
8.363623e-01 1.329652e-02 0.0
8.354469e-01 2.180990e-02 0.0
8.336875e-01 2.884374e-02 0.0
8.311394e-01 3.466682e-02 0.0
8.278537e-01 3.949193e-02 0.0
8.238787e-01 4.348744e-02 0.0
8.192609e-01 4.678533e-02 0.0
8.140439e-01 4.948713e-02 0.0
8.082698e-01 5.167051e-02 0.0
8.019793e-01 5.339314e-02 0.0
7.952091e-01 5.469653e-02 0.0
7.879917e-01 5.560904e-02 0.0
7.803394e-01 5.614711e-02 0.0
7.722854e-01 5.630491e-02 0.0
7.638755e-01 5.608327e-02 0.0
7.551604e-01 5.548618e-02 0.0
7.461979e-01 5.451288e-02 0.0
7.370538e-01 5.316386e-02 0.0
7.278006e-01 5.144521e-02 0.0
7.185163e-01 4.937030e-02 0.0
7.092831e-01 4.696059e-02 0.0
7.001857e-01 4.424635e-02 0.0
6.913081e-01 4.126667e-02 0.0
6.827318e-01 3.806874e-02 0.0
6.745326e-01 3.470663e-02 0.0
6.667783e-01 3.123956e-02 0.0
6.595261e-01 2.772980e-02 0.0
6.528208e-01 2.424025e-02 0.0
6.466934e-01 2.083166e-02 0.0
6.411604e-01 1.755941e-02 0.0
6.362244e-01 1.447079e-02 0.0
6.318752e-01 1.160456e-02 0.0
6.280914e-01 8.992014e-03 0.0
6.248436e-01 6.658349e-03 0.0
6.220981e-01 4.622914e-03 0.0
6.198209e-01 2.897833e-03 0.0
6.179755e-01 1.487381e-03 0.0
6.165361e-01 3.833528e-04 0.0
6.154583e-01 -4.352026e-04 0.0
6.146691e-01 -9.923223e-04 0.0
6.140999e-01 -1.333278e-03 0.0
6.136953e-01 -1.510885e-03 0.0
6.134219e-01 -1.573236e-03 0.0
6.132530e-01 -1.551009e-03 0.0
6.131669e-01 -1.469173e-03 0.0
6.131464e-01 -1.349146e-03 0.0
6.131783e-01 -1.207602e-03 0.0
6.132526e-01 -1.056837e-03 0.0
6.133620e-01 -9.049582e-04 0.0
6.135006e-01 -7.564586e-04 0.0
6.136637e-01 -6.128622e-04 0.0
6.138475e-01 -4.732661e-04 0.0
6.140483e-01 -3.345152e-04 0.0
6.142614e-01 -1.904353e-04 0.0
6.144779e-01 -2.965032e-05 0.0
6.146702e-01 1.649265e-04 0.0
0.000000e+00 1.631752e-04 0.0
0.000000e+00 0.000000e+00 0.0
0.000000e+00 0.000000e+00 0.0
0.000000e+00 0.000000e+00 0.0
0.000000e+00 0.000000e+00 0.0
0.000000e+00 0.000000e+00 0.0
0.000000e+00 0.000000e+00 0.0
0.000000e+00 0.000000e+00 0.0
0.000000e+00 0.000000e+00 0.0
0.000000e+00 0.000000e+00 0.0
0.000000e+00 0.000000e+00 0.0
0.000000e+00 -6.911306e-02 0.0
-1.323032e-02 6.912032e-02 0.0
-2.278666e-02 1.089602e-01 0.0
-2.274446e-02 1.067686e-01 0.0
-1.517097e-02 9.289329e-02 0.0
-9.307509e-04 7.593343e-02 0.0
2.012670e-02 5.808816e-02 0.0
4.788036e-02 4.023490e-02 0.0
8.520064e-02 1.785127e-02 0.0
1.366370e-01 -1.105379e-02 0.0
2.018101e-01 -4.569404e-02 0.0
2.773228e-01 -8.602515e-02 0.0
3.596371e-01 -1.314285e-01 0.0
4.441627e-01 -1.802209e-01 0.0
5.265389e-01 -2.295056e-01 0.0
6.025770e-01 -2.759530e-01 0.0
6.689056e-01 -3.160778e-01 0.0
7.235788e-01 -3.466809e-01 0.0
7.659968e-01 -3.655218e-01 0.0
7.965822e-01 -3.715303e-01 0.0
8.163281e-01 -3.643573e-01 0.0
8.284585e-01 -3.460130e-01 0.0
8.357078e-01 -3.195639e-01 0.0
8.401360e-01 -2.878604e-01 0.0
8.431360e-01 -2.533174e-01 0.0
8.455528e-01 -2.178814e-01 0.0
8.478229e-01 -1.830505e-01 0.0
8.501655e-01 -1.500030e-01 0.0
8.525995e-01 -1.194136e-01 0.0
8.550361e-01 -9.166548e-02 0.0
8.573416e-01 -6.693107e-02 0.0
8.593751e-01 -4.523550e-02 0.0
8.610098e-01 -2.651132e-02 0.0
8.621456e-01 -1.064172e-02 0.0
8.627173e-01 2.530485e-03 0.0
8.627077e-01 1.344766e-02 0.0
8.621146e-01 2.254453e-02 0.0
8.609470e-01 3.015288e-02 0.0
8.592217e-01 3.653356e-02 0.0
8.569610e-01 4.189418e-02 0.0
8.541900e-01 4.640000e-02 0.0
8.509354e-01 5.018135e-02 0.0
8.472246e-01 5.333947e-02 0.0
8.430848e-01 5.595180e-02 0.0
8.385432e-01 5.807626e-02 0.0
8.336261e-01 5.975517e-02 0.0
8.283582e-01 6.101848e-02 0.0
8.227604e-01 6.188639e-02 0.0
8.168394e-01 6.236739e-02 0.0
8.106090e-01 6.245523e-02 0.0
8.040927e-01 6.214398e-02 0.0
7.973220e-01 6.142512e-02 0.0
7.903360e-01 6.029138e-02 0.0
7.831803e-01 5.874237e-02 0.0
7.759062e-01 5.678597e-02 0.0
7.685701e-01 5.443819e-02 0.0
7.612329e-01 5.172510e-02 0.0
7.539579e-01 4.868313e-02 0.0
7.468095e-01 4.535873e-02 0.0
7.398504e-01 4.180724e-02 0.0
7.331401e-01 3.809130e-02 0.0
7.267327e-01 3.427874e-02 0.0
7.206744e-01 3.044013e-02 0.0
7.150016e-01 2.664597e-02 0.0
7.097396e-01 2.296292e-02 0.0
7.049030e-01 1.944891e-02 0.0
7.004961e-01 1.615293e-02 0.0
6.965140e-01 1.311566e-02 0.0
6.929440e-01 1.036980e-02 0.0
6.897688e-01 7.939694e-03 0.0
6.869678e-01 5.840288e-03 0.0
6.845203e-01 4.076468e-03 0.0
6.824045e-01 2.640637e-03 0.0
6.805952e-01 1.515611e-03 0.0
6.790709e-01 6.735276e-04 0.0
6.778064e-01 7.273813e-05 0.0
6.767644e-01 -3.274216e-04 0.0
6.759016e-01 -5.688479e-04 0.0
6.751857e-01 -6.936485e-04 0.0
6.745956e-01 -7.374815e-04 0.0
6.741141e-01 -7.261783e-04 0.0
6.737273e-01 -6.792921e-04 0.0
6.734239e-01 -6.118623e-04 0.0
6.731946e-01 -5.341361e-04 0.0
6.730319e-01 -4.522325e-04 0.0
6.729295e-01 -3.689661e-04 0.0
6.728823e-01 -2.845540e-04 0.0
6.728861e-01 -1.967699e-04 0.0
6.729373e-01 -1.001486e-04 0.0
6.730322e-01 1.690787e-05 0.0
6.731558e-01 1.829107e-04 0.0
0.000000e+00 1.788460e-04 0.0
0.000000e+00 0.000000e+00 0.0
0.000000e+00 0.000000e+00 0.0
0.000000e+00 0.000000e+00 0.0
0.000000e+00 0.000000e+00 0.0
0.000000e+00 0.000000e+00 0.0
0.000000e+00 0.000000e+00 0.0
0.000000e+00 0.000000e+00 0.0
0.000000e+00 0.000000e+00 0.0
0.000000e+00 0.000000e+00 0.0
0.000000e+00 0.000000e+00 0.0
0.000000e+00 -8.302037e-02 0.0
-1.336380e-02 8.302656e-02 0.0
-6.018862e-03 1.017567e-01 0.0
1.733367e-02 8.355758e-02 0.0
4.905012e-02 6.131834e-02 0.0
8.748743e-02 3.763763e-02 0.0
1.348719e-01 1.084523e-02 0.0
1.945232e-01 -1.927488e-02 0.0
2.645838e-01 -5.206784e-02 0.0
3.420222e-01 -8.835070e-02 0.0
4.244527e-01 -1.279830e-01 0.0
5.088277e-01 -1.702587e-01 0.0
5.915538e-01 -2.140131e-01 0.0
6.689117e-01 -2.574372e-01 0.0
7.376593e-01 -2.981117e-01 0.0
7.952733e-01 -3.334256e-01 0.0
8.402523e-01 -3.609152e-01 0.0
8.723212e-01 -3.786084e-01 0.0
8.922659e-01 -3.853249e-01 0.0
9.015053e-01 -3.806283e-01 0.0
9.028694e-01 -3.655799e-01 0.0
8.994076e-01 -3.424096e-01 0.0
8.933980e-01 -3.134129e-01 0.0
8.865321e-01 -2.808530e-01 0.0
8.799058e-01 -2.465495e-01 0.0
8.741418e-01 -2.119760e-01 0.0
8.694991e-01 -1.782662e-01 0.0
8.661070e-01 -1.464695e-01 0.0
8.638680e-01 -1.170330e-01 0.0
8.625938e-01 -9.024978e-02 0.0
8.620598e-01 -6.625554e-02 0.0
8.620338e-01 -4.506806e-02 0.0
8.622936e-01 -2.662958e-02 0.0
8.626363e-01 -1.084287e-02 0.0
8.628852e-01 2.423101e-03 0.0
8.629125e-01 1.356182e-02 0.0
8.626453e-01 2.295321e-02 0.0
8.620441e-01 3.089561e-02 0.0
8.610906e-01 3.762858e-02 0.0
8.597803e-01 4.334597e-02 0.0
8.581177e-01 4.820413e-02 0.0
8.561128e-01 5.232777e-02 0.0
8.537791e-01 5.581467e-02 0.0
8.511323e-01 5.874012e-02 0.0
8.481893e-01 6.116081e-02 0.0
8.449675e-01 6.311844e-02 0.0
8.414846e-01 6.464299e-02 0.0
8.377571e-01 6.575533e-02 0.0
8.337979e-01 6.646812e-02 0.0
8.296093e-01 6.678540e-02 0.0
8.251959e-01 6.669885e-02 0.0
8.205712e-01 6.619134e-02 0.0
8.157555e-01 6.524861e-02 0.0
8.107741e-01 6.386524e-02 0.0
8.056560e-01 6.204561e-02 0.0
8.004352e-01 5.980054e-02 0.0
7.951499e-01 5.715188e-02 0.0
7.898417e-01 5.413282e-02 0.0
7.845544e-01 5.078760e-02 0.0
7.793323e-01 4.717079e-02 0.0
7.742195e-01 4.334568e-02 0.0
7.692574e-01 3.938234e-02 0.0
7.644839e-01 3.535517e-02 0.0
7.599307e-01 3.134066e-02 0.0
7.556207e-01 2.741442e-02 0.0
7.515698e-01 2.364132e-02 0.0
7.477876e-01 2.007669e-02 0.0
7.442771e-01 1.676764e-02 0.0
7.410361e-01 1.375231e-02 0.0
7.380584e-01 1.105893e-02 0.0
7.353354e-01 8.704844e-03 0.0
7.328576e-01 6.695759e-03 0.0
7.306147e-01 5.025048e-03 0.0
7.285966e-01 3.675242e-03 0.0
7.267939e-01 2.617753e-03 0.0
7.251930e-01 1.815177e-03 0.0
7.237788e-01 1.228253e-03 0.0
7.225358e-01 8.157053e-04 0.0
7.214470e-01 5.366010e-04 0.0
7.204955e-01 3.555621e-04 0.0
7.196676e-01 2.432712e-04 0.0
7.189529e-01 1.769294e-04 0.0
7.183421e-01 1.404059e-04 0.0
7.178271e-01 1.224397e-04 0.0
7.174006e-01 1.157037e-04 0.0
7.170571e-01 1.161102e-04 0.0
7.167920e-01 1.220302e-04 0.0
7.166029e-01 1.339175e-04 0.0
7.164895e-01 1.546799e-04 0.0
7.164559e-01 1.920568e-04 0.0
7.165108e-01 2.695442e-04 0.0
0.000000e+00 2.635167e-04 0.0
0.000000e+00 0.000000e+00 0.0
0.000000e+00 0.000000e+00 0.0
0.000000e+00 0.000000e+00 0.0
0.000000e+00 0.000000e+00 0.0
0.000000e+00 0.000000e+00 0.0
0.000000e+00 0.000000e+00 0.0
0.000000e+00 0.000000e+00 0.0
0.000000e+00 0.000000e+00 0.0
0.000000e+00 0.000000e+00 0.0
0.000000e+00 0.000000e+00 0.0
0.000000e+00 -7.830618e-02 0.0
5.259202e-03 7.830980e-02 0.0
5.300349e-02 5.415396e-02 0.0
1.149546e-01 2.174794e-02 0.0
1.856676e-01 -9.253109e-03 0.0
2.628747e-01 -3.942801e-02 0.0
3.435770e-01 -6.971551e-02 0.0
4.262281e-01 -1.017844e-01 0.0
5.098882e-01 -1.355864e-01 0.0
5.927150e-01 -1.710360e-01 0.0
6.725228e-01 -2.076493e-01 0.0
7.469391e-01 -2.445335e-01 0.0