# vtk DataFile Version 3.0
Vector Field
ASCII
DATASET RECTILINEAR_GRID
DIMENSIONS 102 22 1
X_COORDINATES 102 double
0.000000 0.100000 0.200000 0.300000 0.400000 0.500000 0.600000 0.700000 0.800000 0.900000 1.000000 1.100000 1.200000 1.300000 1.400000 1.500000 1.600000 1.700000 1.800000 1.900000 2.000000 2.100000 2.200000 2.300000 2.400000 2.500000 2.600000 2.700000 2.800000 2.900000 3.000000 3.100000 3.200000 3.300000 3.400000 3.500000 3.600000 3.700000 3.800000 3.900000 4.000000 4.100000 4.200000 4.300000 4.400000 4.500000 4.600000 4.700000 4.800000 4.900000 5.000000 5.100000 5.200000 5.300000 5.400000 5.500000 5.600000 5.700000 5.800000 5.900000 6.000000 6.100000 6.200000 6.300000 6.400000 6.500000 6.600000 6.700000 6.800000 6.900000 7.000000 7.100000 7.200000 7.300000 7.400000 7.500000 7.600000 7.700000 7.800000 7.900000 8.000000 8.100000 8.200000 8.300000 8.400000 8.500000 8.600000 8.700000 8.800000 8.900000 9.000000 9.100000 9.200000 9.300000 9.400000 9.500000 9.600000 9.700000 9.800000 9.900000 10.000000 10.100000 
Y_COORDINATES 22 double
0.000000 0.100000 0.200000 0.300000 0.400000 0.500000 0.600000 0.700000 0.800000 0.900000 1.000000 1.100000 1.200000 1.300000 1.400000 1.500000 1.600000 1.700000 1.800000 1.900000 2.000000 2.100000 
Z_COORDINATES 1 double
0.0
POINT_DATA 2244
VECTORS Velocity double
0.000000e+00 0.000000e+00 0.0
-0.000000e+00 0.000000e+00 0.0
-0.000000e+00 0.000000e+00 0.0
-0.000000e+00 0.000000e+00 0.0
-0.000000e+00 0.000000e+00 0.0
-0.000000e+00 0.000000e+00 0.0
-0.000000e+00 0.000000e+00 0.0
-0.000000e+00 0.000000e+00 0.0
-0.000000e+00 0.000000e+00 0.0
-0.000000e+00 0.000000e+00 0.0
-0.000000e+00 0.000000e+00 0.0
5.137670e-04 0.000000e+00 0.0
4.878845e-03 0.000000e+00 0.0
1.162190e-02 0.000000e+00 0.0
1.955259e-02 0.000000e+00 0.0
2.827991e-02 0.000000e+00 0.0
3.789042e-02 0.000000e+00 0.0
4.866575e-02 0.000000e+00 0.0
6.095143e-02 0.000000e+00 0.0
7.509292e-02 0.000000e+00 0.0
9.136300e-02 0.000000e+00 0.0
1.098562e-01 0.000000e+00 0.0
1.303219e-01 0.000000e+00 0.0
1.519834e-01 0.000000e+00 0.0
1.733095e-01 0.000000e+00 0.0
1.916768e-01 0.000000e+00 0.0
2.036842e-01 0.000000e+00 0.0
2.054330e-01 0.000000e+00 0.0
1.937468e-01 0.000000e+00 0.0
1.675995e-01 0.000000e+00 0.0
1.283712e-01 0.000000e+00 0.0
7.997416e-02 0.000000e+00 0.0
2.525692e-02 0.000000e+00 0.0
-2.951831e-02 0.000000e+00 0.0
-7.678294e-02 0.000000e+00 0.0
-1.143655e-01 0.000000e+00 0.0
-1.423665e-01 0.000000e+00 0.0
-1.618494e-01 0.000000e+00 0.0
-1.742367e-01 0.000000e+00 0.0
-1.810138e-01 0.000000e+00 0.0
-1.835914e-01 0.000000e+00 0.0
-1.832418e-01 0.000000e+00 0.0
-1.807628e-01 0.000000e+00 0.0
-1.767017e-01 0.000000e+00 0.0
-1.716220e-01 0.000000e+00 0.0
-1.659945e-01 0.000000e+00 0.0
-1.601736e-01 0.000000e+00 0.0
-1.544004e-01 0.000000e+00 0.0
-1.488137e-01 0.000000e+00 0.0
-1.435059e-01 0.000000e+00 0.0
-1.385281e-01 0.000000e+00 0.0
-1.339052e-01 0.000000e+00 0.0
-1.296393e-01 0.000000e+00 0.0
-1.257147e-01 0.000000e+00 0.0
-1.221068e-01 0.000000e+00 0.0
-1.187926e-01 0.000000e+00 0.0
-1.157551e-01 0.000000e+00 0.0
-1.129811e-01 0.000000e+00 0.0
-1.104540e-01 0.000000e+00 0.0
-1.081525e-01 0.000000e+00 0.0
-1.060534e-01 0.000000e+00 0.0
-1.041365e-01 0.000000e+00 0.0
-1.023869e-01 0.000000e+00 0.0
-1.007923e-01 0.000000e+00 0.0
-9.934016e-02 0.000000e+00 0.0
-9.801708e-02 0.000000e+00 0.0
-9.680979e-02 0.000000e+00 0.0
-9.570676e-02 0.000000e+00 0.0
-9.469826e-02 0.000000e+00 0.0
-9.377561e-02 0.000000e+00 0.0
-9.293055e-02 0.000000e+00 0.0
-9.215529e-02 0.000000e+00 0.0
-9.144289e-02 0.000000e+00 0.0
-9.078743e-02 0.000000e+00 0.0
-9.018368e-02 0.000000e+00 0.0
-8.962687e-02 0.000000e+00 0.0
-8.911261e-02 0.000000e+00 0.0
-8.863701e-02 0.000000e+00 0.0
-8.819683e-02 0.000000e+00 0.0
-8.778944e-02 0.000000e+00 0.0
-8.741277e-02 0.000000e+00 0.0
-8.706507e-02 0.000000e+00 0.0
-8.674493e-02 0.000000e+00 0.0
-8.645132e-02 0.000000e+00 0.0
-8.618367e-02 0.000000e+00 0.0
-8.594193e-02 0.000000e+00 0.0
-8.572652e-02 0.000000e+00 0.0
-8.553831e-02 0.000000e+00 0.0
-8.537859e-02 0.000000e+00 0.0
-8.524913e-02 0.000000e+00 0.0
-8.515220e-02 0.000000e+00 0.0
-8.509062e-02 0.000000e+00 0.0
-8.506791e-02 0.000000e+00 0.0
-8.508815e-02 0.000000e+00 0.0
-8.515165e-02 0.000000e+00 0.0
-8.525363e-02 0.000000e+00 0.0
-8.538477e-02 0.000000e+00 0.0
-8.553475e-02 0.000000e+00 0.0
-8.568132e-02 0.000000e+00 0.0
-8.577743e-02 0.000000e+00 0.0
-8.577743e-02 0.000000e+00 0.0
0.000000e+00 0.000000e+00 0.0
0.000000e+00 0.000000e+00 0.0
0.000000e+00 0.000000e+00 0.0
0.000000e+00 0.000000e+00 0.0
0.000000e+00 0.000000e+00 0.0
0.000000e+00 0.000000e+00 0.0
0.000000e+00 0.000000e+00 0.0
0.000000e+00 0.000000e+00 0.0
0.000000e+00 0.000000e+00 0.0
0.000000e+00 0.000000e+00 0.0
0.000000e+00 0.000000e+00 0.0
0.000000e+00 -5.318368e-04 0.0
-5.142492e-04 5.313018e-04 0.0
-4.879202e-03 4.375036e-03 0.0
-1.162215e-02 6.753196e-03 0.0
-1.955296e-02 7.941121e-03 0.0
-2.828085e-02 8.738024e-03 0.0
-3.789230e-02 9.621532e-03 0.0
-4.866892e-02 1.078656e-02 0.0
-6.095615e-02 1.229716e-02 0.0
-7.509940e-02 1.415306e-02 0.0
-9.137159e-02 1.628183e-02 0.0
-1.098668e-01 1.850498e-02 0.0
-1.303347e-01 2.047773e-02 0.0
-1.519981e-01 2.167307e-02 0.0
-1.733252e-01 2.133613e-02 0.0
-1.916920e-01 1.837568e-02 0.0
-2.036964e-01 1.201256e-02 0.0
-2.054394e-01 1.751047e-03 0.0
-1.937448e-01 -1.168687e-02 0.0
-1.675874e-01 -2.615019e-02 0.0
-1.283499e-01 -3.922971e-02 0.0
-7.994566e-02 -4.839608e-02 0.0
-2.522236e-02 -5.471473e-02 0.0
2.955329e-02 -5.476671e-02 0.0
7.681490e-02 -4.725236e-02 0.0
1.143928e-01 -3.756848e-02 0.0
1.423886e-01 -2.798656e-02 0.0
1.618661e-01 -1.946881e-02 0.0
1.742483e-01 -1.237413e-02 0.0
1.810215e-01 -6.765015e-03 0.0
1.835977e-01 -2.565979e-03 0.0
1.832502e-01 3.619761e-04 0.0
1.807755e-01 2.493652e-03 0.0
1.767173e-01 4.078046e-03 0.0
1.716341e-01 5.097603e-03 0.0
1.659952e-01 5.643403e-03 0.0
1.601599e-01 5.832064e-03 0.0
1.543797e-01 5.778759e-03 0.0
1.488003e-01 5.588923e-03 0.0
1.435107e-01 5.311538e-03 0.0
1.385489e-01 4.987498e-03 0.0
1.339276e-01 4.639540e-03 0.0
1.296476e-01 4.285833e-03 0.0
1.257052e-01 3.941723e-03 0.0
1.220896e-01 3.617953e-03 0.0
1.187822e-01 3.318311e-03 0.0
1.157581e-01 3.040752e-03 0.0
1.129923e-01 2.781703e-03 0.0
1.104637e-01 2.539816e-03 0.0
1.081553e-01 2.316234e-03 0.0
1.060511e-01 2.112148e-03 0.0
1.041344e-01 1.926848e-03 0.0
1.023880e-01 1.758064e-03 0.0
1.007960e-01 1.603631e-03 0.0
9.934431e-02 1.462491e-03 0.0
9.802019e-02 1.334270e-03 0.0
9.681205e-02 1.218346e-03 0.0
9.570904e-02 1.113578e-03 0.0
9.470113e-02 1.018749e-03 0.0
9.377903e-02 9.329688e-04 0.0
9.293422e-02 8.555969e-04 0.0
9.215902e-02 7.859216e-04 0.0
9.144669e-02 7.230493e-04 0.0
9.079135e-02 6.660909e-04 0.0
9.018776e-02 6.143765e-04 0.0
8.963113e-02 5.674571e-04 0.0
8.911705e-02 5.249272e-04 0.0
8.864166e-02 4.862724e-04 0.0
8.820171e-02 4.508672e-04 0.0
8.779456e-02 4.180871e-04 0.0
8.741809e-02 3.874174e-04 0.0
8.707057e-02 3.584704e-04 0.0
8.675063e-02 3.309143e-04 0.0
8.645725e-02 3.043773e-04 0.0
8.618986e-02 2.784084e-04 0.0
8.594841e-02 2.525127e-04 0.0
8.573328e-02 2.262060e-04 0.0
8.554534e-02 1.990325e-04 0.0
8.538588e-02 1.705452e-04 0.0
8.525666e-02 1.402808e-04 0.0
8.515998e-02 1.077409e-04 0.0
8.509865e-02 7.237275e-05 0.0
8.507619e-02 3.349675e-05 0.0
8.509670e-02 -9.481125e-06 0.0
8.516040e-02 -5.270400e-05 0.0
8.526250e-02 -9.109825e-05 0.0
8.539372e-02 -1.202629e-04 0.0
8.554374e-02 -1.391129e-04 0.0
8.569028e-02 -1.356732e-04 0.0
8.578639e-02 -8.525203e-05 0.0
8.577743e-02 1.981626e-05 0.0
0.000000e+00 1.993356e-05 0.0
0.000000e+00 0.000000e+00 0.0
0.000000e+00 0.000000e+00 0.0
0.000000e+00 0.000000e+00 0.0
0.000000e+00 0.000000e+00 0.0
0.000000e+00 0.000000e+00 0.0
0.000000e+00 0.000000e+00 0.0
0.000000e+00 0.000000e+00 0.0
0.000000e+00 0.000000e+00 0.0
0.000000e+00 0.000000e+00 0.0
0.000000e+00 0.000000e+00 0.0
0.000000e+00 -6.319197e-03 0.0
-5.777634e-03 6.318944e-03 0.0
-1.933046e-02 1.793067e-02 0.0
-3.712473e-02 2.455019e-02 0.0
-5.701764e-02 2.783661e-02 0.0
-7.819072e-02 2.991366e-02 0.0
-1.005533e-01 3.198664e-02 0.0
-1.242425e-01 3.447827e-02 0.0
-1.493456e-01 3.740290e-02 0.0
-1.757304e-01 4.054021e-02 0.0
-2.028937e-01 4.344784e-02 0.0
-2.298478e-01 4.546175e-02 0.0
-2.549524e-01 4.558488e-02 0.0
-2.758169e-01 4.253965e-02 0.0
-2.893427e-01 3.486420e-02 0.0
-2.918045e-01 2.083951e-02 0.0
-2.786562e-01 -1.133863e-03 0.0
-2.468824e-01 -3.002075e-02 0.0
-1.974983e-01 -6.106944e-02 0.0
-1.333668e-01 -9.027921e-02 0.0
-5.697510e-02 -1.156190e-01 0.0
2.670941e-02 -1.320781e-01 0.0
1.073254e-01 -1.353281e-01 0.0
1.789809e-01 -1.264195e-01 0.0
2.416933e-01 -1.099621e-01 0.0
2.946257e-01 -9.049849e-02 0.0
3.376409e-01 -7.099968e-02 0.0
3.712449e-01 -5.307116e-02 0.0
3.963210e-01 -3.744848e-02 0.0
4.139304e-01 -2.437140e-02 0.0
4.251800e-01 -1.380983e-02 0.0
4.311303e-01 -5.580289e-03 0.0
4.330285e-01 6.028750e-04 0.0
4.317788e-01 5.330156e-03 0.0
4.280507e-01 8.821220e-03 0.0
4.224384e-01 1.124779e-02 0.0
4.154407e-01 1.282634e-02 0.0
4.074726e-01 1.375369e-02 0.0
3.989102e-01 1.416630e-02 0.0
3.900585e-01 1.417716e-02 0.0
3.811303e-01 1.391980e-02 0.0
3.722917e-01 1.347191e-02 0.0
3.636671e-01 1.290201e-02 0.0
3.553457e-01 1.226160e-02 0.0
3.473840e-01 1.158692e-02 0.0
3.398123e-01 1.090044e-02 0.0
3.326442e-01 1.021553e-02 0.0
3.258849e-01 9.542029e-03 0.0
3.195343e-01 8.889126e-03 0.0
3.135865e-01 8.264555e-03 0.0
3.080293e-01 7.672793e-03 0.0
3.028457e-01 7.114982e-03 0.0
2.980168e-01 6.590741e-03 0.0
2.935230e-01 6.099941e-03 0.0
2.893446e-01 5.642887e-03 0.0
2.854620e-01 5.219349e-03 0.0
2.818552e-01 4.827993e-03 0.0
2.785051e-01 4.466863e-03 0.0
2.753926e-01 4.134183e-03 0.0
2.724998e-01 3.828548e-03 0.0
2.698096e-01 3.548491e-03 0.0
2.673062e-01 3.292107e-03 0.0
2.649749e-01 3.057198e-03 0.0
2.628021e-01 2.841730e-03 0.0
2.607752e-01 2.644085e-03 0.0
2.588826e-01 2.462911e-03 0.0
2.571136e-01 2.296800e-03 0.0
2.554586e-01 2.144123e-03 0.0
2.539092e-01 2.003122e-03 0.0
2.524581e-01 1.872127e-03 0.0
2.510986e-01 1.749697e-03 0.0
2.498254e-01 1.634595e-03 0.0
2.486335e-01 1.525630e-03 0.0
2.475193e-01 1.421496e-03 0.0
2.464799e-01 1.320754e-03 0.0
2.455134e-01 1.221916e-03 0.0
2.446190e-01 1.123526e-03 0.0
2.437967e-01 1.024159e-03 0.0
2.430478e-01 9.223595e-04 0.0
2.423743e-01 8.166086e-04 0.0
2.417796e-01 7.053324e-04 0.0
2.412679e-01 5.869835e-04 0.0
2.408441e-01 4.602118e-04 0.0
2.405130e-01 3.244932e-04 0.0
2.402808e-01 1.823360e-04 0.0
2.401537e-01 3.883917e-05 0.0
2.401313e-01 -9.502212e-05 0.0
2.401890e-01 -1.939106e-04 0.0
2.402829e-01 -2.267608e-04 0.0
2.403546e-01 -1.541067e-04 0.0
2.403260e-01 5.126670e-05 0.0
0.000000e+00 5.183537e-05 0.0
0.000000e+00 0.000000e+00 0.0
0.000000e+00 0.000000e+00 0.0
0.000000e+00 0.000000e+00 0.0
0.000000e+00 0.000000e+00 0.0
0.000000e+00 0.000000e+00 0.0
0.000000e+00 0.000000e+00 0.0
0.000000e+00 0.000000e+00 0.0
0.000000e+00 0.000000e+00 0.0
0.000000e+00 0.000000e+00 0.0
0.000000e+00 0.000000e+00 0.0
0.000000e+00 -1.688752e-02 0.0
-1.055871e-02 1.688775e-02 0.0
-3.120241e-02 3.857710e-02 0.0
-5.578830e-02 4.913876e-02 0.0
-8.138015e-02 5.343097e-02 0.0
-1.068783e-01 5.541436e-02 0.0
-1.319247e-01 5.703558e-02 0.0
-1.562965e-01 5.885269e-02 0.0
-1.796553e-01 6.076414e-02 0.0
-2.014179e-01 6.230534e-02 0.0
-2.206168e-01 6.264944e-02 0.0
-2.359320e-01 6.077964e-02 0.0
-2.455737e-01 5.522903e-02 0.0
-2.471469e-01 4.411495e-02 0.0
-2.369032e-01 2.462272e-02 0.0
-2.085467e-01 -7.515046e-03 0.0
-1.615446e-01 -4.813378e-02 0.0
-9.718784e-02 -9.437581e-02 0.0
-1.855053e-02 -1.397047e-01 0.0
6.789819e-02 -1.767256e-01 0.0
1.525013e-01 -2.002196e-01 0.0
2.305132e-01 -2.100874e-01 0.0
2.995634e-01 -2.043756e-01 0.0
3.599142e-01 -1.867677e-01 0.0
4.125144e-01 -1.625598e-01 0.0
4.578176e-01 -1.357995e-01 0.0
4.960666e-01 -1.092469e-01 0.0
5.275572e-01 -8.456016e-02 0.0
5.527088e-01 -6.259783e-02 0.0
5.720427e-01 -4.370094e-02 0.0
5.861387e-01 -2.789882e-02 0.0
5.956054e-01 -1.503896e-02 0.0
6.010785e-01 -4.865519e-03 0.0
6.034439e-01 2.963007e-03 0.0
6.032392e-01 9.018899e-03 0.0
6.009280e-01 1.355307e-02 0.0
5.969135e-01 1.684384e-02 0.0
5.915413e-01 1.913864e-02 0.0
5.850839e-01 2.063919e-02 0.0
5.777445e-01 2.152441e-02 0.0
5.697656e-01 2.189518e-02 0.0
5.613734e-01 2.185516e-02 0.0
5.527491e-01 2.152187e-02 0.0
5.440380e-01 2.097777e-02 0.0
5.353503e-01 2.028517e-02 0.0
5.267702e-01 1.948902e-02 0.0
5.183649e-01 1.862332e-02 0.0
5.101891e-01 1.771638e-02 0.0
5.022856e-01 1.679220e-02 0.0
4.946836e-01 1.586928e-02 0.0
4.874010e-01 1.496013e-02 0.0
4.804471e-01 1.407306e-02 0.0
4.738260e-01 1.321464e-02 0.0
4.675371e-01 1.239078e-02 0.0
4.615761e-01 1.160607e-02 0.0
4.559355e-01 1.086286e-02 0.0
4.506049e-01 1.016168e-02 0.0
4.455724e-01 9.502391e-03 0.0
4.408246e-01 8.884841e-03 0.0
4.363472e-01 8.308601e-03 0.0
4.321261e-01 7.772374e-03 0.0
4.281470e-01 7.273977e-03 0.0
4.243961e-01 6.810935e-03 0.0
4.208597e-01 6.381040e-03 0.0
4.175242e-01 5.982403e-03 0.0
4.143769e-01 5.613102e-03 0.0
4.114057e-01 5.270875e-03 0.0
4.085995e-01 4.953127e-03 0.0
4.059483e-01 4.657179e-03 0.0
4.034428e-01 4.380530e-03 0.0
4.010744e-01 4.120956e-03 0.0
3.988355e-01 3.876379e-03 0.0
3.967194e-01 3.644639e-03 0.0
3.947204e-01 3.423357e-03 0.0
3.928341e-01 3.209999e-03 0.0
3.910569e-01 3.002015e-03 0.0
3.893864e-01 2.796885e-03 0.0
3.878214e-01 2.592062e-03 0.0
3.863618e-01 2.384865e-03 0.0
3.850088e-01 2.172446e-03 0.0
3.837652e-01 1.951838e-03 0.0
3.826350e-01 1.720093e-03 0.0
3.816235e-01 1.474584e-03 0.0
3.807371e-01 1.213729e-03 0.0
3.799838e-01 9.385217e-04 0.0
3.793716e-01 6.539697e-04 0.0
3.789062e-01 3.731693e-04 0.0
3.785902e-01 1.249774e-04 0.0
3.784097e-01 -4.345281e-05 0.0
3.783302e-01 -7.173624e-05 0.0
3.782876e-01 9.668992e-05 0.0
0.000000e+00 9.794427e-05 0.0
0.000000e+00 0.000000e+00 0.0
0.000000e+00 0.000000e+00 0.0
0.000000e+00 0.000000e+00 0.0
0.000000e+00 0.000000e+00 0.0
0.000000e+00 0.000000e+00 0.0
0.000000e+00 0.000000e+00 0.0
0.000000e+00 0.000000e+00 0.0
0.000000e+00 0.000000e+00 0.0
0.000000e+00 0.000000e+00 0.0
0.000000e+00 0.000000e+00 0.0
0.000000e+00 -2.998175e-02 0.0
-1.308448e-02 2.998236e-02 0.0
-3.654150e-02 6.203679e-02 0.0
-6.214885e-02 7.474868e-02 0.0
-8.655269e-02 7.783731e-02 0.0
-1.086724e-01 7.753665e-02 0.0
-1.280950e-01 7.646077e-02 0.0
-1.444849e-01 7.524504e-02 0.0
-1.574153e-01 7.369711e-02 0.0
-1.663356e-01 7.122828e-02 0.0
-1.702981e-01 6.661470e-02 0.0
-1.679426e-01 5.842669e-02 0.0
-1.568465e-01 4.413513e-02 0.0
-1.336820e-01 2.095286e-02 0.0
-9.059697e-02 -1.846021e-02 0.0
-2.830346e-02 -6.980656e-02 0.0
4.979599e-02 -1.262312e-01 0.0
1.344328e-01 -1.790108e-01 0.0
2.187002e-01 -2.239697e-01 0.0
2.980212e-01 -2.560441e-01 0.0
3.699370e-01 -2.721329e-01 0.0
4.318319e-01 -2.719798e-01 0.0
4.839476e-01 -2.564886e-01 0.0
5.285197e-01 -2.313373e-01 0.0
5.670167e-01 -2.010545e-01 0.0
6.002806e-01 -1.690614e-01 0.0
6.287797e-01 -1.377444e-01 0.0
6.528212e-01 -1.085999e-01 0.0
6.726727e-01 -8.244612e-02 0.0
6.886112e-01 -5.963362e-02 0.0
7.009355e-01 -4.021533e-02 0.0
7.099685e-01 -2.406536e-02 0.0
7.160603e-01 -1.095615e-02 0.0
7.196221e-01 -6.039862e-04 0.0
7.211364e-01 7.497375e-03 0.0
7.209386e-01 1.374971e-02 0.0
7.192941e-01 1.849774e-02 0.0
7.164225e-01 2.202588e-02 0.0
7.125077e-01 2.456580e-02 0.0
7.077232e-01 2.630943e-02 0.0
7.022052e-01 2.740477e-02 0.0
6.960673e-01 2.798561e-02 0.0
6.894560e-01 2.813475e-02 0.0
6.824982e-01 2.794547e-02 0.0
6.752969e-01 2.749700e-02 0.0
6.679406e-01 2.684997e-02 0.0
6.605092e-01 2.605377e-02 0.0
6.530735e-01 2.515044e-02 0.0
6.456925e-01 2.417475e-02 0.0
6.384128e-01 2.315357e-02 0.0
6.312707e-01 2.210706e-02 0.0
6.242955e-01 2.105153e-02 0.0
6.175107e-01 2.000140e-02 0.0
6.109344e-01 1.896903e-02 0.0
6.045795e-01 1.796363e-02 0.0
5.984543e-01 1.699121e-02 0.0
5.925632e-01 1.605592e-02 0.0
5.869073e-01 1.516118e-02 0.0
5.814850e-01 1.430981e-02 0.0
5.762931e-01 1.350327e-02 0.0
5.713268e-01 1.274144e-02 0.0
5.665805e-01 1.202313e-02 0.0
5.620473e-01 1.134698e-02 0.0
5.577194e-01 1.071176e-02 0.0
5.535885e-01 1.011615e-02 0.0
5.496462e-01 9.558266e-03 0.0
5.458843e-01 9.035622e-03 0.0
5.422950e-01 8.545342e-03 0.0
5.388705e-01 8.084512e-03 0.0
5.356035e-01 7.650420e-03 0.0
5.324868e-01 7.240530e-03 0.0
5.295138e-01 6.852247e-03 0.0
5.266786e-01 6.482684e-03 0.0
5.239763e-01 6.128647e-03 0.0
5.214024e-01 5.786808e-03 0.0
5.189534e-01 5.453834e-03 0.0
5.166268e-01 5.126363e-03 0.0
5.144209e-01 4.800857e-03 0.0
5.123352e-01 4.473493e-03 0.0
5.103704e-01 4.140136e-03 0.0
5.085287e-01 3.796395e-03 0.0
5.068140e-01 3.437758e-03 0.0
5.052316e-01 3.059884e-03 0.0
5.037890e-01 2.659207e-03 0.0
5.024963e-01 2.234074e-03 0.0
5.013667e-01 1.786455e-03 0.0
5.004171e-01 1.325588e-03 0.0
4.996704e-01 8.745904e-04 0.0
4.991515e-01 4.782896e-04 0.0
4.988710e-01 2.116452e-04 0.0
4.988230e-01 1.476140e-04 0.0
0.000000e+00 1.496505e-04 0.0
0.000000e+00 0.000000e+00 0.0
0.000000e+00 0.000000e+00 0.0
0.000000e+00 0.000000e+00 0.0
0.000000e+00 0.000000e+00 0.0
0.000000e+00 0.000000e+00 0.0
0.000000e+00 0.000000e+00 0.0
0.000000e+00 0.000000e+00 0.0
0.000000e+00 0.000000e+00 0.0
0.000000e+00 0.000000e+00 0.0
0.000000e+00 0.000000e+00 0.0
0.000000e+00 -4.346948e-02 0.0
-1.347771e-02 4.347020e-02 0.0
-3.548933e-02 8.405106e-02 0.0
-5.688669e-02 9.614859e-02 0.0
-7.473541e-02 9.568868e-02 0.0
-8.836369e-02 9.116753e-02 0.0
-9.753538e-02 8.563506e-02 0.0
-1.019950e-01 7.970730e-02 0.0
-1.012545e-01 7.295928e-02 0.0
-9.483424e-02 6.481065e-02 0.0
-8.107375e-02 5.285692e-02 0.0
-5.786591e-02 3.522131e-02 0.0
-1.832822e-02 4.599692e-03 0.0
4.252303e-02 -3.989606e-02 0.0
1.175258e-01 -9.346091e-02 0.0
2.002851e-01 -1.525638e-01 0.0
2.846876e-01 -2.106318e-01 0.0
3.662714e-01 -2.605924e-01 0.0
4.404819e-01 -2.981778e-01 0.0
5.048526e-01 -3.204124e-01 0.0
5.586628e-01 -3.259405e-01 0.0
6.013625e-01 -3.146769e-01 0.0
6.362885e-01 -2.914122e-01 0.0
6.656327e-01 -2.606791e-01 0.0
6.907876e-01 -2.262071e-01 0.0
7.125735e-01 -1.908455e-01 0.0
7.314483e-01 -1.566177e-01 0.0
7.476632e-01 -1.248124e-01 0.0
7.613723e-01 -9.615083e-02 0.0
7.726977e-01 -7.095217e-02 0.0
7.817638e-01 -4.927392e-02 0.0
7.887132e-01 -3.101079e-02 0.0
7.937048e-01 -1.595012e-02 0.0
7.969192e-01 -3.825286e-03 0.0
7.986785e-01 5.733434e-03 0.0
7.992005e-01 1.323242e-02 0.0
7.986513e-01 1.906078e-02 0.0
7.971648e-01 2.352709e-02 0.0
7.948573e-01 2.687891e-02 0.0
7.918418e-01 2.931924e-02 0.0
7.882219e-01 3.101537e-02 0.0
7.840946e-01 3.211017e-02 0.0
7.795207e-01 3.271593e-02 0.0
7.745633e-01 3.291443e-02 0.0
7.692920e-01 3.277601e-02 0.0
7.637725e-01 3.237035e-02 0.0
7.580686e-01 3.175541e-02 0.0
7.522387e-01 3.098015e-02 0.0
7.463327e-01 3.008436e-02 0.0
7.403920e-01 2.909950e-02 0.0
7.344518e-01 2.805124e-02 0.0
7.285435e-01 2.696214e-02 0.0
7.226945e-01 2.585225e-02 0.0
7.169278e-01 2.473806e-02 0.0
7.112626e-01 2.363191e-02 0.0
7.057139e-01 2.254305e-02 0.0
7.002936e-01 2.147922e-02 0.0
6.950103e-01 2.044725e-02 0.0
6.898704e-01 1.945237e-02 0.0
6.848788e-01 1.849765e-02 0.0
6.800387e-01 1.758435e-02 0.0
6.753518e-01 1.671292e-02 0.0
6.708179e-01 1.588369e-02 0.0
6.664358e-01 1.509677e-02 0.0
6.622032e-01 1.435157e-02 0.0
6.581177e-01 1.364658e-02 0.0
6.541767e-01 1.297956e-02 0.0
6.503769e-01 1.234796e-02 0.0
6.467151e-01 1.174922e-02 0.0
6.431874e-01 1.118092e-02 0.0
6.397902e-01 1.064058e-02 0.0
6.365200e-01 1.012537e-02 0.0
6.333736e-01 9.632009e-03 0.0
6.303483e-01 9.156892e-03 0.0
6.274416e-01 8.696334e-03 0.0
6.246517e-01 8.246621e-03 0.0
6.219771e-01 7.803848e-03 0.0
6.194171e-01 7.363745e-03 0.0
6.169719e-01 6.921581e-03 0.0
6.146428e-01 6.472158e-03 0.0
6.124323e-01 6.009845e-03 0.0
6.103443e-01 5.528653e-03 0.0
6.083847e-01 5.022407e-03 0.0
6.065617e-01 4.485085e-03 0.0
6.048872e-01 3.911481e-03 0.0
6.033782e-01 3.298380e-03 0.0
6.020596e-01 2.646987e-03 0.0
6.009697e-01 1.967429e-03 0.0
6.001651e-01 1.285797e-03 0.0
5.997220e-01 6.575909e-04 0.0
5.996761e-01 1.963995e-04 0.0
0.000000e+00 1.991908e-04 0.0
0.000000e+00 0.000000e+00 0.0
0.000000e+00 0.000000e+00 0.0
0.000000e+00 0.000000e+00 0.0
0.000000e+00 0.000000e+00 0.0
0.000000e+00 0.000000e+00 0.0
0.000000e+00 0.000000e+00 0.0
0.000000e+00 0.000000e+00 0.0
0.000000e+00 0.000000e+00 0.0
0.000000e+00 0.000000e+00 0.0
0.000000e+00 0.000000e+00 0.0
0.000000e+00 -5.662564e-02 0.0
-1.314585e-02 5.662619e-02 0.0
-3.056732e-02 1.014751e-01 0.0
-4.356995e-02 1.091537e-01 0.0
-5.083959e-02 1.029609e-01 0.0
-5.237739e-02 9.270790e-02 0.0
-4.825248e-02 8.151277e-02 0.0
-3.825676e-02 6.971415e-02 0.0
-2.100771e-02 5.571286e-02 0.0
4.895592e-03 3.890999e-02 0.0
4.392687e-02 1.382820e-02 0.0
1.014432e-01 -2.229269e-02 0.0
1.740384e-01 -6.799317e-02 0.0
2.561761e-01 -1.220315e-01 0.0
3.427920e-01 -1.800747e-01 0.0
4.277212e-01 -2.374909e-01 0.0
5.059107e-01 -2.888191e-01 0.0
5.743227e-01 -3.290022e-01 0.0
6.310913e-01 -3.549439e-01 0.0
6.758122e-01 -3.651308e-01 0.0
7.089174e-01 -3.590433e-01 0.0
7.335933e-01 -3.393502e-01 0.0
7.526365e-01 -3.104529e-01 0.0
7.680361e-01 -2.760763e-01 0.0
7.810601e-01 -2.392291e-01 0.0
7.924390e-01 -2.022228e-01 0.0
8.025584e-01 -1.667352e-01 0.0
8.115726e-01 -1.338235e-01 0.0
8.195111e-01 -1.040837e-01 0.0
8.263501e-01 -7.778390e-02 0.0
8.320613e-01 -5.497919e-02 0.0
8.366422e-01 -3.559079e-02 0.0
8.401039e-01 -1.941681e-02 0.0
8.424856e-01 -6.213224e-03 0.0
8.439104e-01 4.308474e-03 0.0
8.444987e-01 1.265415e-02 0.0
8.443387e-01 1.923592e-02 0.0
8.435050e-01 2.437120e-02 0.0
8.420697e-01 2.831344e-02 0.0
8.401084e-01 3.127175e-02 0.0
8.376959e-01 3.342125e-02 0.0
8.349001e-01 3.490892e-02 0.0
8.317727e-01 3.585394e-02 0.0
8.283461e-01 3.635131e-02 0.0
8.246512e-01 3.647481e-02 0.0
8.207298e-01 3.629016e-02 0.0
8.166252e-01 3.585837e-02 0.0
8.123771e-01 3.523027e-02 0.0
8.080191e-01 3.444718e-02 0.0
8.035801e-01 3.354328e-02 0.0
7.990860e-01 3.254836e-02 0.0
7.945609e-01 3.148913e-02 0.0
7.900265e-01 3.038864e-02 0.0
7.855021e-01 2.926527e-02 0.0
7.810040e-01 2.813325e-02 0.0
7.765457e-01 2.700439e-02 0.0
7.721386e-01 2.588923e-02 0.0
7.677918e-01 2.479664e-02 0.0
7.635139e-01 2.373304e-02 0.0
7.593120e-01 2.270241e-02 0.0
7.551919e-01 2.170727e-02 0.0
7.511580e-01 2.074967e-02 0.0
7.472132e-01 1.983137e-02 0.0
7.433595e-01 1.895334e-02 0.0
7.395985e-01 1.811543e-02 0.0
7.359314e-01 1.731646e-02 0.0
7.323593e-01 1.655461e-02 0.0
7.288822e-01 1.582786e-02 0.0
7.255001e-01 1.513424e-02 0.0
7.222121e-01 1.447171e-02 0.0
7.190177e-01 1.383789e-02 0.0
7.159162e-01 1.322981e-02 0.0
7.129071e-01 1.264400e-02 0.0
7.099901e-01 1.207676e-02 0.0
7.071650e-01 1.152439e-02 0.0
7.044314e-01 1.098306e-02 0.0
7.017896e-01 1.044851e-02 0.0
6.992403e-01 9.915933e-03 0.0
6.967849e-01 9.379933e-03 0.0
6.944254e-01 8.834504e-03 0.0
6.921652e-01 8.273025e-03 0.0
6.900085e-01 7.688243e-03 0.0
6.879616e-01 7.072241e-03 0.0
6.860332e-01 6.416443e-03 0.0
6.842358e-01 5.711724e-03 0.0
6.825884e-01 4.948735e-03 0.0
6.811195e-01 4.118696e-03 0.0
6.798748e-01 3.215042e-03 0.0
6.789267e-01 2.236822e-03 0.0
6.783844e-01 1.202845e-03 0.0
6.783464e-01 2.373490e-04 0.0
0.000000e+00 2.407825e-04 0.0
0.000000e+00 0.000000e+00 0.0
0.000000e+00 0.000000e+00 0.0
0.000000e+00 0.000000e+00 0.0
0.000000e+00 0.000000e+00 0.0
0.000000e+00 0.000000e+00 0.0
0.000000e+00 0.000000e+00 0.0
0.000000e+00 0.000000e+00 0.0
0.000000e+00 0.000000e+00 0.0
0.000000e+00 0.000000e+00 0.0
0.000000e+00 0.000000e+00 0.0
0.000000e+00 -7.029291e-02 0.0
-1.365696e-02 7.029321e-02 0.0
-2.298560e-02 1.108063e-01 0.0
-2.247432e-02 1.086450e-01 0.0
-1.414148e-02 9.463067e-02 0.0
1.376076e-03 7.719294e-02 0.0
2.421197e-02 5.867946e-02 0.0
5.460610e-02 3.932259e-02 0.0
9.608829e-02 1.423319e-02 0.0
1.535575e-01 -1.855664e-02 0.0
2.252230e-01 -5.783481e-02 0.0
3.068158e-01 -1.038832e-01 0.0
3.940847e-01 -1.552597e-01 0.0
4.816052e-01 -2.095498e-01 0.0
5.644760e-01 -2.629434e-01 0.0
6.383012e-01 -3.113140e-01 0.0
7.000816e-01 -3.505972e-01 0.0
7.486077e-01 -3.775260e-01 0.0
7.840016e-01 -3.903354e-01 0.0
8.073143e-01 -3.884411e-01 0.0
8.211938e-01 -3.729202e-01 0.0
8.291455e-01 -3.472994e-01 0.0
8.336976e-01 -3.150025e-01 0.0
8.365666e-01 -2.789431e-01 0.0
8.388027e-01 -2.414633e-01 0.0
8.409722e-01 -2.043907e-01 0.0
8.433545e-01 -1.691150e-01 0.0
8.459857e-01 -1.364505e-01 0.0
8.487707e-01 -1.068625e-01 0.0
8.515553e-01 -8.056172e-02 0.0
8.541792e-01 -5.759957e-02 0.0
8.565236e-01 -3.793720e-02 0.0
8.584714e-01 -2.137040e-02 0.0
8.599410e-01 -7.686203e-03 0.0
8.608987e-01 3.355694e-03 0.0
8.613541e-01 1.221172e-02 0.0
8.613232e-01 1.928007e-02 0.0
8.608319e-01 2.486728e-02 0.0
8.599186e-01 2.922132e-02 0.0
8.586323e-01 3.254969e-02 0.0
8.570240e-01 3.502764e-02 0.0
8.551385e-01 3.680182e-02 0.0
8.530108e-01 3.799275e-02 0.0
8.506691e-01 3.870020e-02 0.0
8.481359e-01 3.900875e-02 0.0
8.454351e-01 3.898897e-02 0.0
8.425938e-01 3.869971e-02 0.0
8.396371e-01 3.819065e-02 0.0
8.365859e-01 3.750339e-02 0.0
8.334585e-01 3.667464e-02 0.0
8.302716e-01 3.573755e-02 0.0
8.270416e-01 3.472110e-02 0.0
8.237831e-01 3.364955e-02 0.0
8.205092e-01 3.254218e-02 0.0
8.172309e-01 3.141477e-02 0.0
8.139570e-01 3.028122e-02 0.0
8.106952e-01 2.915368e-02 0.0
8.074528e-01 2.804180e-02 0.0
8.042363e-01 2.695228e-02 0.0
8.010519e-01 2.588973e-02 0.0
7.979042e-01 2.485781e-02 0.0
7.947970e-01 2.385975e-02 0.0
7.917331e-01 2.289803e-02 0.0
7.887154e-01 2.197388e-02 0.0
7.857465e-01 2.108726e-02 0.0
7.828286e-01 2.023722e-02 0.0
7.799637e-01 1.942233e-02 0.0
7.771533e-01 1.864113e-02 0.0
7.743983e-01 1.789210e-02 0.0
7.716995e-01 1.717340e-02 0.0
7.690577e-01 1.648257e-02 0.0
7.664740e-01 1.581649e-02 0.0
7.639492e-01 1.517164e-02 0.0
7.614845e-01 1.454441e-02 0.0
7.590806e-01 1.393120e-02 0.0
7.567384e-01 1.332816e-02 0.0
7.544590e-01 1.273072e-02 0.0
7.522442e-01 1.213366e-02 0.0
7.500960e-01 1.153108e-02 0.0
7.480170e-01 1.091637e-02 0.0
7.460108e-01 1.028220e-02 0.0
7.440817e-01 9.620255e-03 0.0
7.422358e-01 8.921085e-03 0.0
7.404814e-01 8.173719e-03 0.0
7.388308e-01 7.365271e-03 0.0
7.373021e-01 6.480378e-03 0.0
7.359234e-01 5.500283e-03 0.0
7.347399e-01 4.401445e-03 0.0
7.338254e-01 3.154327e-03 0.0
7.332954e-01 1.735748e-03 0.0
7.332686e-01 2.671438e-04 0.0
0.000000e+00 2.710596e-04 0.0
0.000000e+00 0.000000e+00 0.0
0.000000e+00 0.000000e+00 0.0
0.000000e+00 0.000000e+00 0.0
0.000000e+00 0.000000e+00 0.0
0.000000e+00 0.000000e+00 0.0
0.000000e+00 0.000000e+00 0.0
0.000000e+00 0.000000e+00 0.0
0.000000e+00 0.000000e+00 0.0
0.000000e+00 0.000000e+00 0.0
0.000000e+00 0.000000e+00 0.0
0.000000e+00 -8.403441e-02 0.0
-1.373123e-02 8.403450e-02 0.0
-5.771786e-03 1.028494e-01 0.0
1.861078e-02 8.426503e-02 0.0
5.167193e-02 6.157210e-02 0.0
9.226731e-02 3.660011e-02 0.0
1.430562e-01 7.893068e-03 0.0
2.070938e-01 -2.471239e-02 0.0
2.819408e-01 -6.061135e-02 0.0
3.641800e-01 -1.007933e-01 0.0
4.510848e-01 -1.447372e-01 0.0
5.387844e-01 -1.915804e-01 0.0
6.231372e-01 -2.396103e-01 0.0
6.999991e-01 -2.864094e-01 0.0
7.659929e-01 -3.289350e-01 0.0
8.187826e-01 -3.641016e-01 0.0
8.574153e-01 -3.892275e-01 0.0
8.823644e-01 -4.024727e-01 0.0
8.951187e-01 -4.030873e-01 0.0
8.979826e-01 -3.913024e-01 0.0
8.946860e-01 -3.696211e-01 0.0
8.880727e-01 -3.406835e-01 0.0
8.802209e-01 -3.071484e-01 0.0
8.724931e-01 -2.712132e-01 0.0
8.656700e-01 -2.346384e-01 0.0
8.601195e-01 -1.988382e-01 0.0
8.560058e-01 -1.649983e-01 0.0
8.532360e-01 -1.336756e-01 0.0
8.516113e-01 -1.052314e-01 0.0
8.508942e-01 -7.983937e-02 0.0
8.508342e-01 -5.753852e-02 0.0
8.511698e-01 -3.827653e-02 0.0
8.516984e-01 -2.190368e-02 0.0
8.522528e-01 -8.240024e-03 0.0
8.526969e-01 2.920365e-03 0.0
8.529367e-01 1.198508e-02 0.0
8.529234e-01 1.930258e-02 0.0
8.526398e-01 2.515047e-02 0.0
8.520938e-01 2.976026e-02 0.0
8.513086e-01 3.332963e-02 0.0
8.503118e-01 3.602725e-02 0.0
8.491278e-01 3.799536e-02 0.0
8.477766e-01 3.935324e-02 0.0
8.462778e-01 4.020288e-02 0.0
8.446523e-01 4.063349e-02 0.0
8.429177e-01 4.072245e-02 0.0
8.410901e-01 4.052920e-02 0.0
8.391841e-01 4.010105e-02 0.0
8.372118e-01 3.948028e-02 0.0
8.351840e-01 3.870555e-02 0.0
8.331117e-01 3.781198e-02 0.0
8.310052e-01 3.682976e-02 0.0
8.288738e-01 3.578367e-02 0.0
8.267252e-01 3.469386e-02 0.0
8.245654e-01 3.357766e-02 0.0
8.223991e-01 3.245034e-02 0.0
8.202308e-01 3.132466e-02 0.0
8.180652e-01 3.021021e-02 0.0
8.159064e-01 2.911384e-02 0.0
8.137582e-01 2.804083e-02 0.0
8.116232e-01 2.699573e-02 0.0
8.095034e-01 2.598237e-02 0.0
8.074009e-01 2.500333e-02 0.0
8.053179e-01 2.405974e-02 0.0
8.032566e-01 2.315154e-02 0.0
8.012187e-01 2.227794e-02 0.0
7.992059e-01 2.143795e-02 0.0
7.972194e-01 2.063048e-02 0.0
7.952602e-01 1.985423e-02 0.0
7.933292e-01 1.910726e-02 0.0
7.914278e-01 1.838691e-02 0.0
7.895572e-01 1.768996e-02 0.0
7.877188e-01 1.701299e-02 0.0
7.859136e-01 1.635249e-02 0.0
7.841428e-01 1.570490e-02 0.0
7.824074e-01 1.506645e-02 0.0
7.807088e-01 1.443217e-02 0.0
7.790489e-01 1.379650e-02 0.0
7.774297e-01 1.315320e-02 0.0
7.758537e-01 1.249529e-02 0.0
7.743239e-01 1.181489e-02 0.0
7.728442e-01 1.110290e-02 0.0
7.714197e-01 1.034857e-02 0.0
7.700574e-01 9.538916e-03 0.0
7.687678e-01 8.657929e-03 0.0
7.675658e-01 7.685206e-03 0.0
7.664754e-01 6.593615e-03 0.0
7.655345e-01 5.345334e-03 0.0
7.648050e-01 3.886803e-03 0.0
7.643840e-01 2.159674e-03 0.0
7.643698e-01 2.844185e-04 0.0
0.000000e+00 2.886376e-04 0.0
0.000000e+00 0.000000e+00 0.0
0.000000e+00 0.000000e+00 0.0
0.000000e+00 0.000000e+00 0.0
0.000000e+00 0.000000e+00 0.0
0.000000e+00 0.000000e+00 0.0
0.000000e+00 0.000000e+00 0.0
0.000000e+00 0.000000e+00 0.0
0.000000e+00 0.000000e+00 0.0
0.000000e+00 0.000000e+00 0.0
0.000000e+00 0.000000e+00 0.0
0.000000e+00 -7.891241e-02 0.0
5.132284e-03 7.891220e-02 0.0
5.406816e-02 5.391610e-02 0.0
1.178654e-01 2.047039e-02 0.0
1.914184e-01 -1.197839e-02 0.0
2.718463e-01 -4.382526e-02 0.0
3.560041e-01 -7.626224e-02 0.0
4.422061e-01 -1.109119e-01 0.0
5.292594e-01 -1.476622e-01 0.0
6.148590e-01 -1.863903e-01 0.0
6.964839e-01 -2.263597e-01 0.0
7.713231e-01 -2.664172e-01 0.0
8.366334e-01 -3.049184e-01 0.0
8.900705e-01 -3.398442e-01 0.0
9.301131e-01 -3.689754e-01 0.0