# vtk DataFile Version 3.0
Vector Field
ASCII
DATASET RECTILINEAR_GRID
DIMENSIONS 102 22 1
X_COORDINATES 102 double
0.000000 0.100000 0.200000 0.300000 0.400000 0.500000 0.600000 0.700000 0.800000 0.900000 1.000000 1.100000 1.200000 1.300000 1.400000 1.500000 1.600000 1.700000 1.800000 1.900000 2.000000 2.100000 2.200000 2.300000 2.400000 2.500000 2.600000 2.700000 2.800000 2.900000 3.000000 3.100000 3.200000 3.300000 3.400000 3.500000 3.600000 3.700000 3.800000 3.900000 4.000000 4.100000 4.200000 4.300000 4.400000 4.500000 4.600000 4.700000 4.800000 4.900000 5.000000 5.100000 5.200000 5.300000 5.400000 5.500000 5.600000 5.700000 5.800000 5.900000 6.000000 6.100000 6.200000 6.300000 6.400000 6.500000 6.600000 6.700000 6.800000 6.900000 7.000000 7.100000 7.200000 7.300000 7.400000 7.500000 7.600000 7.700000 7.800000 7.900000 8.000000 8.100000 8.200000 8.300000 8.400000 8.500000 8.600000 8.700000 8.800000 8.900000 9.000000 9.100000 9.200000 9.300000 9.400000 9.500000 9.600000 9.700000 9.800000 9.900000 10.000000 10.100000 
Y_COORDINATES 22 double
0.000000 0.100000 0.200000 0.300000 0.400000 0.500000 0.600000 0.700000 0.800000 0.900000 1.000000 1.100000 1.200000 1.300000 1.400000 1.500000 1.600000 1.700000 1.800000 1.900000 2.000000 2.100000 
Z_COORDINATES 1 double
0.0
POINT_DATA 2244
VECTORS Velocity double
0.000000e+00 0.000000e+00 0.0
-0.000000e+00 0.000000e+00 0.0
-0.000000e+00 0.000000e+00 0.0
-0.000000e+00 0.000000e+00 0.0
-0.000000e+00 0.000000e+00 0.0
-0.000000e+00 0.000000e+00 0.0
-0.000000e+00 0.000000e+00 0.0
-0.000000e+00 0.000000e+00 0.0
-0.000000e+00 0.000000e+00 0.0
-0.000000e+00 0.000000e+00 0.0
-0.000000e+00 0.000000e+00 0.0
5.386278e-03 0.000000e+00 0.0
2.499451e-02 0.000000e+00 0.0
3.579833e-02 0.000000e+00 0.0
3.629328e-02 0.000000e+00 0.0
2.665543e-02 0.000000e+00 0.0
8.330711e-03 0.000000e+00 0.0
-1.547282e-02 0.000000e+00 0.0
-4.139325e-02 0.000000e+00 0.0
-6.673287e-02 0.000000e+00 0.0
-8.976071e-02 0.000000e+00 0.0
-1.097410e-01 0.000000e+00 0.0
-1.266425e-01 0.000000e+00 0.0
-1.408312e-01 0.000000e+00 0.0
-1.527021e-01 0.000000e+00 0.0
-1.625690e-01 0.000000e+00 0.0
-1.707619e-01 0.000000e+00 0.0
-1.775974e-01 0.000000e+00 0.0
-1.833415e-01 0.000000e+00 0.0
-1.881837e-01 0.000000e+00 0.0
-1.923174e-01 0.000000e+00 0.0
-1.959074e-01 0.000000e+00 0.0
-1.990712e-01 0.000000e+00 0.0
-2.018895e-01 0.000000e+00 0.0
-2.044273e-01 0.000000e+00 0.0
-2.067393e-01 0.000000e+00 0.0
-2.088686e-01 0.000000e+00 0.0
-2.108490e-01 0.000000e+00 0.0
-2.127073e-01 0.000000e+00 0.0
-2.144651e-01 0.000000e+00 0.0
-2.161394e-01 0.000000e+00 0.0
-2.177441e-01 0.000000e+00 0.0
-2.192905e-01 0.000000e+00 0.0
-2.207879e-01 0.000000e+00 0.0
-2.222439e-01 0.000000e+00 0.0
-2.236648e-01 0.000000e+00 0.0
-2.250558e-01 0.000000e+00 0.0
-2.264213e-01 0.000000e+00 0.0
-2.277650e-01 0.000000e+00 0.0
-2.290901e-01 0.000000e+00 0.0
-2.303992e-01 0.000000e+00 0.0
-2.316944e-01 0.000000e+00 0.0
-2.329778e-01 0.000000e+00 0.0
-2.342509e-01 0.000000e+00 0.0
-2.355151e-01 0.000000e+00 0.0
-2.367717e-01 0.000000e+00 0.0
-2.380216e-01 0.000000e+00 0.0
-2.392657e-01 0.000000e+00 0.0
-2.405048e-01 0.000000e+00 0.0
-2.417396e-01 0.000000e+00 0.0
-2.429705e-01 0.000000e+00 0.0
-2.441982e-01 0.000000e+00 0.0
-2.454229e-01 0.000000e+00 0.0
-2.466451e-01 0.000000e+00 0.0
-2.478651e-01 0.000000e+00 0.0
-2.490832e-01 0.000000e+00 0.0
-2.502995e-01 0.000000e+00 0.0
-2.515143e-01 0.000000e+00 0.0
-2.527276e-01 0.000000e+00 0.0
-2.539398e-01 0.000000e+00 0.0
-2.551507e-01 0.000000e+00 0.0
-2.563606e-01 0.000000e+00 0.0
-2.575695e-01 0.000000e+00 0.0
-2.587774e-01 0.000000e+00 0.0
-2.599844e-01 0.000000e+00 0.0
-2.611904e-01 0.000000e+00 0.0
-2.623954e-01 0.000000e+00 0.0
-2.635995e-01 0.000000e+00 0.0
-2.648025e-01 0.000000e+00 0.0
-2.660045e-01 0.000000e+00 0.0
-2.672054e-01 0.000000e+00 0.0
-2.684052e-01 0.000000e+00 0.0
-2.696041e-01 0.000000e+00 0.0
-2.708024e-01 0.000000e+00 0.0
-2.720007e-01 0.000000e+00 0.0
-2.731998e-01 0.000000e+00 0.0
-2.744012e-01 0.000000e+00 0.0
-2.756073e-01 0.000000e+00 0.0
-2.768221e-01 0.000000e+00 0.0
-2.780518e-01 0.000000e+00 0.0
-2.793061e-01 0.000000e+00 0.0
-2.806002e-01 0.000000e+00 0.0
-2.819581e-01 0.000000e+00 0.0
-2.834171e-01 0.000000e+00 0.0
-2.850358e-01 0.000000e+00 0.0
-2.869065e-01 0.000000e+00 0.0
-2.891725e-01 0.000000e+00 0.0
-2.920472e-01 0.000000e+00 0.0
-2.958101e-01 0.000000e+00 0.0
-3.007604e-01 0.000000e+00 0.0
-3.007604e-01 0.000000e+00 0.0
0.000000e+00 0.000000e+00 0.0
0.000000e+00 0.000000e+00 0.0
0.000000e+00 0.000000e+00 0.0
0.000000e+00 0.000000e+00 0.0
0.000000e+00 0.000000e+00 0.0
0.000000e+00 0.000000e+00 0.0
0.000000e+00 0.000000e+00 0.0
0.000000e+00 0.000000e+00 0.0
0.000000e+00 0.000000e+00 0.0
0.000000e+00 0.000000e+00 0.0
0.000000e+00 0.000000e+00 0.0
0.000000e+00 -2.845732e-02 0.0
-5.593900e-03 2.842953e-02 0.0
-2.621468e-02 3.375124e-02 0.0
-3.849397e-02 2.540973e-02 0.0
-4.059414e-02 1.523057e-02 0.0
-3.251275e-02 5.048988e-03 0.0
-1.521619e-02 -4.166224e-03 0.0
8.269050e-03 -1.035494e-02 0.0
3.438035e-02 -1.298106e-02 0.0
6.023381e-02 -1.272326e-02 0.0
8.388891e-02 -1.052496e-02 0.0
1.044666e-01 -7.447578e-03 0.0
1.218597e-01 -4.263064e-03 0.0
1.364089e-01 -1.419320e-03 0.0
1.485558e-01 9.830655e-04 0.0
1.586230e-01 3.062601e-03 0.0
1.669504e-01 4.802348e-03 0.0
1.738664e-01 6.213662e-03 0.0
1.796521e-01 7.343887e-03 0.0
1.845093e-01 8.272313e-03 0.0
1.886337e-01 9.005058e-03 0.0
1.921991e-01 9.563871e-03 0.0
1.953294e-01 9.998966e-03 0.0
1.981089e-01 1.034971e-02 0.0
2.006036e-01 1.063438e-02 0.0
2.028697e-01 1.086287e-02 0.0
2.049517e-01 1.104692e-02 0.0
2.068841e-01 1.119639e-02 0.0
2.086943e-01 1.131848e-02 0.0
2.104040e-01 1.141883e-02 0.0
2.120307e-01 1.150183e-02 0.0
2.135882e-01 1.157085e-02 0.0
2.150880e-01 1.162855e-02 0.0
2.165392e-01 1.167700e-02 0.0
2.179494e-01 1.171787e-02 0.0
2.193249e-01 1.175246e-02 0.0
2.206710e-01 1.178184e-02 0.0
2.219919e-01 1.180688e-02 0.0
2.232913e-01 1.182827e-02 0.0
2.245722e-01 1.184660e-02 0.0
2.258374e-01 1.186233e-02 0.0
2.270889e-01 1.187585e-02 0.0
2.283286e-01 1.188750e-02 0.0
2.295582e-01 1.189755e-02 0.0
2.307791e-01 1.190623e-02 0.0
2.319923e-01 1.191373e-02 0.0
2.331989e-01 1.192023e-02 0.0
2.343998e-01 1.192586e-02 0.0
2.355957e-01 1.193073e-02 0.0
2.367872e-01 1.193497e-02 0.0
2.379750e-01 1.193865e-02 0.0
2.391595e-01 1.194184e-02 0.0
2.403411e-01 1.194463e-02 0.0
2.415202e-01 1.194706e-02 0.0
2.426971e-01 1.194919e-02 0.0
2.438720e-01 1.195105e-02 0.0
2.450452e-01 1.195270e-02 0.0
2.462168e-01 1.195415e-02 0.0
2.473871e-01 1.195546e-02 0.0
2.485560e-01 1.195663e-02 0.0
2.497239e-01 1.195770e-02 0.0
2.508906e-01 1.195870e-02 0.0
2.520563e-01 1.195963e-02 0.0
2.532211e-01 1.196054e-02 0.0
2.543849e-01 1.196142e-02 0.0
2.555477e-01 1.196230e-02 0.0
2.567096e-01 1.196320e-02 0.0
2.578704e-01 1.196413e-02 0.0
2.590303e-01 1.196509e-02 0.0
2.601891e-01 1.196609e-02 0.0
2.613468e-01 1.196711e-02 0.0
2.625034e-01 1.196812e-02 0.0
2.636591e-01 1.196903e-02 0.0
2.648140e-01 1.196966e-02 0.0
2.659689e-01 1.196970e-02 0.0
2.671246e-01 1.196888e-02 0.0
2.682824e-01 1.196666e-02 0.0
2.694448e-01 1.196211e-02 0.0
2.706154e-01 1.195379e-02 0.0
2.718003e-01 1.193948e-02 0.0
2.730089e-01 1.191577e-02 0.0
2.742559e-01 1.187736e-02 0.0
2.755642e-01 1.181601e-02 0.0
2.769696e-01 1.171882e-02 0.0
2.785283e-01 1.156553e-02 0.0
2.803280e-01 1.132461e-02 0.0
2.825035e-01 1.094871e-02 0.0
2.852528e-01 1.037487e-02 0.0
2.888287e-01 9.548339e-03 0.0
2.934901e-01 8.462785e-03 0.0
3.007604e-01 5.853952e-03 0.0
0.000000e+00 5.495550e-03 0.0
0.000000e+00 0.000000e+00 0.0
0.000000e+00 0.000000e+00 0.0
0.000000e+00 0.000000e+00 0.0
0.000000e+00 0.000000e+00 0.0
0.000000e+00 0.000000e+00 0.0
0.000000e+00 0.000000e+00 0.0
0.000000e+00 0.000000e+00 0.0
0.000000e+00 0.000000e+00 0.0
0.000000e+00 0.000000e+00 0.0
0.000000e+00 0.000000e+00 0.0
0.000000e+00 -4.717843e-02 0.0
-6.434807e-03 4.799481e-02 0.0
-2.518225e-02 5.592401e-02 0.0
-3.198723e-02 3.564002e-02 0.0
-2.316067e-02 9.829316e-03 0.0
1.975333e-03 -1.666172e-02 0.0
4.064768e-02 -3.941329e-02 0.0
8.756983e-02 -5.385182e-02 0.0
1.370964e-01 -5.908238e-02 0.0
1.850228e-01 -5.722444e-02 0.0
2.290185e-01 -5.109539e-02 0.0
2.680620e-01 -4.306590e-02 0.0
3.019793e-01 -3.475516e-02 0.0
3.310391e-01 -2.705401e-02 0.0
3.557570e-01 -2.030969e-02 0.0
3.768105e-01 -1.456575e-02 0.0
3.948136e-01 -9.775693e-03 0.0
4.102898e-01 -5.837403e-03 0.0
4.237001e-01 -2.641311e-03 0.0
4.355023e-01 -1.049097e-04 0.0
4.459924e-01 1.939960e-03 0.0
4.553524e-01 3.628900e-03 0.0
4.637491e-01 5.027199e-03 0.0
4.713266e-01 6.197154e-03 0.0
4.782120e-01 7.173905e-03 0.0
4.845191e-01 7.980675e-03 0.0
4.903409e-01 8.649980e-03 0.0
4.957541e-01 9.208129e-03 0.0
5.008229e-01 9.674419e-03 0.0
5.056013e-01 1.006530e-02 0.0
5.101338e-01 1.039403e-02 0.0
5.144581e-01 1.067135e-02 0.0
5.186054e-01 1.090599e-02 0.0
5.226020e-01 1.110504e-02 0.0
5.264702e-01 1.127431e-02 0.0
5.302287e-01 1.141858e-02 0.0
5.338934e-01 1.154179e-02 0.0
5.374777e-01 1.164720e-02 0.0
5.409930e-01 1.173753e-02 0.0
5.444490e-01 1.181506e-02 0.0
5.478542e-01 1.188168e-02 0.0
5.512155e-01 1.193901e-02 0.0
5.545390e-01 1.198838e-02 0.0
5.578301e-01 1.203094e-02 0.0
5.610930e-01 1.206767e-02 0.0
5.643317e-01 1.209938e-02 0.0
5.675495e-01 1.212678e-02 0.0
5.707492e-01 1.215047e-02 0.0
5.739333e-01 1.217097e-02 0.0
5.771038e-01 1.218873e-02 0.0
5.802626e-01 1.220411e-02 0.0
5.834112e-01 1.221745e-02 0.0
5.865509e-01 1.222903e-02 0.0
5.896831e-01 1.223910e-02 0.0
5.928085e-01 1.224786e-02 0.0
5.959282e-01 1.225551e-02 0.0
5.990428e-01 1.226220e-02 0.0
6.021529e-01 1.226808e-02 0.0
6.052592e-01 1.227326e-02 0.0
6.083620e-01 1.227787e-02 0.0
6.114617e-01 1.228199e-02 0.0
6.145586e-01 1.228572e-02 0.0
6.176531e-01 1.228914e-02 0.0
6.207453e-01 1.229231e-02 0.0
6.238353e-01 1.229530e-02 0.0
6.269234e-01 1.229817e-02 0.0
6.300095e-01 1.230098e-02 0.0
6.330938e-01 1.230375e-02 0.0
6.361762e-01 1.230653e-02 0.0
6.392568e-01 1.230931e-02 0.0
6.423357e-01 1.231208e-02 0.0
6.454129e-01 1.231476e-02 0.0
6.484885e-01 1.231720e-02 0.0
6.515628e-01 1.231914e-02 0.0
6.546362e-01 1.232011e-02 0.0
6.577096e-01 1.231926e-02 0.0
6.607845e-01 1.231546e-02 0.0
6.638636e-01 1.230679e-02 0.0
6.669509e-01 1.229031e-02 0.0
6.700526e-01 1.226145e-02 0.0
6.731789e-01 1.221322e-02 0.0
6.763452e-01 1.213484e-02 0.0
6.795752e-01 1.200969e-02 0.0
6.829058e-01 1.181191e-02 0.0
6.863943e-01 1.150077e-02 0.0
6.901319e-01 1.101069e-02 0.0
6.942713e-01 1.023304e-02 0.0
6.990887e-01 8.981208e-03 0.0
7.051344e-01 6.926348e-03 0.0
7.135030e-01 3.517916e-03 0.0
7.244511e-01 -1.670467e-03 0.0
0.000000e+00 -2.368053e-03 0.0
0.000000e+00 0.000000e+00 0.0
0.000000e+00 0.000000e+00 0.0
0.000000e+00 0.000000e+00 0.0
0.000000e+00 0.000000e+00 0.0
0.000000e+00 0.000000e+00 0.0
0.000000e+00 0.000000e+00 0.0
0.000000e+00 0.000000e+00 0.0
0.000000e+00 0.000000e+00 0.0
0.000000e+00 0.000000e+00 0.0
0.000000e+00 0.000000e+00 0.0
0.000000e+00 -6.689016e-02 0.0
-7.489689e-03 6.861497e-02 0.0
-2.563806e-02 7.749771e-02 0.0
-3.139059e-02 4.481786e-02 0.0
-2.001012e-02 1.874150e-03 0.0
1.122950e-02 -4.447604e-02 0.0
6.065753e-02 -8.541604e-02 0.0
1.207669e-01 -1.105359e-01 0.0
1.831450e-01 -1.180352e-01 0.0
2.424149e-01 -1.130691e-01 0.0
2.960365e-01 -1.012918e-01 0.0
3.432730e-01 -8.687720e-02 0.0
3.843212e-01 -7.237812e-02 0.0
4.197649e-01 -5.907258e-02 0.0
4.503191e-01 -4.743867e-02 0.0
4.767125e-01 -3.753402e-02 0.0
4.995983e-01 -2.923641e-02 0.0
5.195410e-01 -2.235505e-02 0.0
5.370162e-01 -1.669147e-02 0.0
5.523940e-01 -1.205761e-02 0.0
5.660093e-01 -8.250304e-03 0.0
5.781631e-01 -5.099950e-03 0.0
5.890943e-01 -2.479036e-03 0.0
5.990204e-01 -3.039768e-04 0.0
6.081084e-01 1.510769e-03 0.0
6.164748e-01 3.039240e-03 0.0
6.242192e-01 4.330417e-03 0.0
6.314288e-01 5.423432e-03 0.0
6.381815e-01 6.346539e-03 0.0
6.445438e-01 7.127745e-03 0.0
6.505727e-01 7.789907e-03 0.0
6.563166e-01 8.352184e-03 0.0
6.618168e-01 8.830493e-03 0.0
6.671085e-01 9.238079e-03 0.0
6.722215e-01 9.585975e-03 0.0
6.771813e-01 9.883387e-03 0.0
6.820097e-01 1.013801e-02 0.0
6.867251e-01 1.035630e-02 0.0
6.913436e-01 1.054367e-02 0.0
6.958785e-01 1.070468e-02 0.0
7.003415e-01 1.084318e-02 0.0
7.047425e-01 1.096242e-02 0.0
7.090902e-01 1.106516e-02 0.0
7.133918e-01 1.115375e-02 0.0
7.176537e-01 1.123019e-02 0.0
7.218812e-01 1.129619e-02 0.0
7.260791e-01 1.135320e-02 0.0
7.302514e-01 1.140248e-02 0.0
7.344016e-01 1.144510e-02 0.0
7.385326e-01 1.148198e-02 0.0
7.426470e-01 1.151392e-02 0.0
7.467471e-01 1.154158e-02 0.0
7.508348e-01 1.156557e-02 0.0
7.549116e-01 1.158640e-02 0.0
7.589791e-01 1.160449e-02 0.0
7.630385e-01 1.162025e-02 0.0
7.670908e-01 1.163399e-02 0.0
7.711369e-01 1.164602e-02 0.0
7.751777e-01 1.165659e-02 0.0
7.792136e-01 1.166591e-02 0.0
7.832454e-01 1.167420e-02 0.0
7.872735e-01 1.168161e-02 0.0
7.912983e-01 1.168832e-02 0.0
7.953201e-01 1.169446e-02 0.0
7.993392e-01 1.170016e-02 0.0
8.033558e-01 1.170552e-02 0.0
8.073700e-01 1.171066e-02 0.0
8.113820e-01 1.171564e-02 0.0
8.153918e-01 1.172054e-02 0.0
8.193996e-01 1.172538e-02 0.0
8.234054e-01 1.173015e-02 0.0
8.274092e-01 1.173477e-02 0.0
8.314111e-01 1.173907e-02 0.0
8.354113e-01 1.174274e-02 0.0
8.394100e-01 1.174521e-02 0.0
8.434077e-01 1.174535e-02 0.0
8.474054e-01 1.174151e-02 0.0
8.514048e-01 1.173114e-02 0.0
8.554086e-01 1.171026e-02 0.0
8.594211e-01 1.167274e-02 0.0
8.634489e-01 1.160917e-02 0.0
8.675023e-01 1.150513e-02 0.0
8.715973e-01 1.133847e-02 0.0
8.757578e-01 1.107509e-02 0.0
8.800206e-01 1.066172e-02 0.0
8.844415e-01 1.001347e-02 0.0
8.891083e-01 8.990001e-03 0.0
8.941667e-01 7.346485e-03 0.0
8.998841e-01 4.632684e-03 0.0
9.067221e-01 1.036369e-04 0.0
9.139399e-01 -5.464610e-03 0.0
0.000000e+00 -6.128120e-03 0.0
0.000000e+00 0.000000e+00 0.0
0.000000e+00 0.000000e+00 0.0
0.000000e+00 0.000000e+00 0.0
0.000000e+00 0.000000e+00 0.0
0.000000e+00 0.000000e+00 0.0
0.000000e+00 0.000000e+00 0.0
0.000000e+00 0.000000e+00 0.0
0.000000e+00 0.000000e+00 0.0
0.000000e+00 0.000000e+00 0.0
0.000000e+00 0.000000e+00 0.0
0.000000e+00 -9.213405e-02 0.0
-1.264547e-02 9.439092e-02 0.0
-3.744763e-02 1.057252e-01 0.0
-4.905436e-02 5.984991e-02 0.0
-4.051875e-02 -3.236146e-03 0.0
-5.616471e-03 -7.595303e-02 0.0
5.340059e-02 -1.410078e-01 0.0
1.254745e-01 -1.791846e-01 0.0
1.989888e-01 -1.881241e-01 0.0
2.666045e-01 -1.772596e-01 0.0
3.256329e-01 -1.568951e-01 0.0
3.761349e-01 -1.339540e-01 0.0
4.191715e-01 -1.119896e-01 0.0
4.559533e-01 -9.242913e-02 0.0
4.875588e-01 -7.561909e-02 0.0
5.148857e-01 -6.143581e-02 0.0
5.386614e-01 -4.958692e-02 0.0
5.594736e-01 -3.974226e-02 0.0
5.777956e-01 -3.158837e-02 0.0
5.940056e-01 -2.484254e-02 0.0
6.084297e-01 -1.924939e-02 0.0
6.213502e-01 -1.459545e-02 0.0
6.330068e-01 -1.071064e-02 0.0
6.435915e-01 -7.463737e-03 0.0
6.532677e-01 -4.740576e-03 0.0
6.621765e-01 -2.444594e-03 0.0
6.704353e-01 -5.035700e-04 0.0
6.781432e-01 1.140433e-03 0.0
6.853773e-01 2.537226e-03 0.0
6.922032e-01 3.726606e-03 0.0
6.986784e-01 4.739487e-03 0.0
7.048524e-01 5.602928e-03 0.0
7.107679e-01 6.339760e-03 0.0
7.164613e-01 6.969291e-03 0.0
7.219642e-01 7.507786e-03 0.0
7.273032e-01 7.968959e-03 0.0
7.325015e-01 8.364372e-03 0.0
7.375786e-01 8.703777e-03 0.0
7.425514e-01 8.995407e-03 0.0
7.474344e-01 9.246224e-03 0.0
7.522400e-01 9.462123e-03 0.0
7.569787e-01 9.648106e-03 0.0
7.616599e-01 9.808430e-03 0.0
7.662914e-01 9.946720e-03 0.0
7.708799e-01 1.006607e-02 0.0
7.754313e-01 1.016913e-02 0.0
7.799507e-01 1.025817e-02 0.0
7.844423e-01 1.033513e-02 0.0
7.889100e-01 1.040168e-02 0.0
7.933570e-01 1.045926e-02 0.0
7.977861e-01 1.050911e-02 0.0
8.021996e-01 1.055228e-02 0.0
8.065997e-01 1.058970e-02 0.0
8.109881e-01 1.062216e-02 0.0
8.153663e-01 1.065036e-02 0.0
8.197358e-01 1.067488e-02 0.0
8.240977e-01 1.069625e-02 0.0
8.284528e-01 1.071492e-02 0.0
8.328022e-01 1.073128e-02 0.0
8.371465e-01 1.074568e-02 0.0
8.414862e-01 1.075842e-02 0.0
8.458221e-01 1.076978e-02 0.0
8.501544e-01 1.077998e-02 0.0
8.544835e-01 1.078926e-02 0.0
8.588098e-01 1.079779e-02 0.0
8.631335e-01 1.080575e-02 0.0
8.674548e-01 1.081329e-02 0.0
8.717738e-01 1.082054e-02 0.0
8.760906e-01 1.082760e-02 0.0
8.804053e-01 1.083454e-02 0.0
8.847179e-01 1.084137e-02 0.0
8.890284e-01 1.084804e-02 0.0
8.933370e-01 1.085437e-02 0.0
8.976435e-01 1.086001e-02 0.0
9.019482e-01 1.086431e-02 0.0
9.062512e-01 1.086610e-02 0.0
9.105530e-01 1.086345e-02 0.0
9.148545e-01 1.085345e-02 0.0
9.191569e-01 1.083157e-02 0.0
9.234626e-01 1.079081e-02 0.0
9.277750e-01 1.072044e-02 0.0
9.320998e-01 1.060407e-02 0.0
9.364453e-01 1.041668e-02 0.0
9.408242e-01 1.011998e-02 0.0
9.452546e-01 9.655048e-03 0.0
9.497617e-01 8.930007e-03 0.0
9.543767e-01 7.798740e-03 0.0
9.591231e-01 6.023855e-03 0.0
9.639544e-01 3.225052e-03 0.0
9.685384e-01 -1.056604e-03 0.0
9.723364e-01 -5.838893e-03 0.0
0.000000e+00 -6.379835e-03 0.0
0.000000e+00 0.000000e+00 0.0
0.000000e+00 0.000000e+00 0.0
0.000000e+00 0.000000e+00 0.0
0.000000e+00 0.000000e+00 0.0
0.000000e+00 0.000000e+00 0.0
0.000000e+00 0.000000e+00 0.0
0.000000e+00 0.000000e+00 0.0
0.000000e+00 0.000000e+00 0.0
0.000000e+00 0.000000e+00 0.0
0.000000e+00 0.000000e+00 0.0
0.000000e+00 -1.241664e-01 0.0
-1.867496e-02 1.261964e-01 0.0
-5.132225e-02 1.417978e-01 0.0
-6.801340e-02 7.996638e-02 0.0
-5.822053e-02 -9.603702e-03 0.0
-1.477550e-02 -1.159728e-01 0.0
5.566547e-02 -2.080235e-01 0.0
1.386939e-01 -2.587877e-01 0.0
2.209838e-01 -2.669888e-01 0.0
2.936534e-01 -2.465040e-01 0.0
3.544498e-01 -2.142663e-01 0.0
4.045669e-01 -1.806458e-01 0.0
4.461116e-01 -1.501091e-01 0.0
4.809960e-01 -1.238883e-01 0.0
5.106845e-01 -1.018825e-01 0.0
5.362518e-01 -8.357794e-02 0.0
5.584902e-01 -6.840029e-02 0.0
5.779974e-01 -5.582434e-02 0.0
5.952332e-01 -4.539912e-02 0.0
6.105602e-01 -3.674443e-02 0.0
6.242769e-01 -2.954108e-02 0.0
6.366335e-01 -2.352715e-02 0.0
6.478395e-01 -1.849157e-02 0.0
6.580656e-01 -1.426497e-02 0.0
6.674568e-01 -1.070684e-02 0.0
6.761385e-01 -7.701413e-03 0.0
6.842166e-01 -5.156795e-03 0.0
6.917797e-01 -2.997841e-03 0.0
6.989018e-01 -1.159977e-03 0.0
7.056464e-01 4.067874e-04 0.0
7.120662e-01 1.744425e-03 0.0
7.182059e-01 2.887930e-03 0.0
7.241044e-01 3.865979e-03 0.0
7.297952e-01 4.703208e-03 0.0
7.353072e-01 5.420475e-03 0.0
7.406653e-01 6.035524e-03 0.0
7.458908e-01 6.563420e-03 0.0
7.510022e-01 7.016939e-03 0.0
7.560153e-01 7.406910e-03 0.0
7.609435e-01 7.742516e-03 0.0
7.657986e-01 8.031556e-03 0.0
7.705905e-01 8.280660e-03 0.0
7.753279e-01 8.495477e-03 0.0
7.800182e-01 8.680830e-03 0.0
7.846678e-01 8.840840e-03 0.0
7.892823e-01 8.979037e-03 0.0
7.938663e-01 9.098447e-03 0.0
7.984241e-01 9.201670e-03 0.0
8.029592e-01 9.290937e-03 0.0
8.074745e-01 9.368170e-03 0.0
8.119728e-01 9.435024e-03 0.0
8.164564e-01 9.492925e-03 0.0
8.209272e-01 9.543105e-03 0.0
8.253869e-01 9.586629e-03 0.0
8.298370e-01 9.624419e-03 0.0
8.342787e-01 9.657273e-03 0.0
8.387131e-01 9.685886e-03 0.0
8.431413e-01 9.710860e-03 0.0
8.475639e-01 9.732724e-03 0.0
8.519816e-01 9.751938e-03 0.0
8.563952e-01 9.768908e-03 0.0
8.608049e-01 9.783992e-03 0.0
8.652114e-01 9.797507e-03 0.0
8.696149e-01 9.809738e-03 0.0
8.740156e-01 9.820937e-03 0.0
8.784140e-01 9.831333e-03 0.0
8.828100e-01 9.841127e-03 0.0
8.872040e-01 9.850497e-03 0.0
8.915958e-01 9.859589e-03 0.0
8.959857e-01 9.868511e-03 0.0
9.003736e-01 9.877315e-03 0.0
9.047595e-01 9.885970e-03 0.0
9.091434e-01 9.894322e-03 0.0
9.135252e-01 9.902021e-03 0.0
9.179049e-01 9.908404e-03 0.0
9.222825e-01 9.912299e-03 0.0
9.266579e-01 9.911757e-03 0.0
9.310314e-01 9.903759e-03 0.0
9.354031e-01 9.883613e-03 0.0
9.397736e-01 9.844069e-03 0.0
9.441437e-01 9.774023e-03 0.0
9.485150e-01 9.656558e-03 0.0
9.528894e-01 9.466010e-03 0.0
9.572695e-01 9.163525e-03 0.0
9.616579e-01 8.690360e-03 0.0
9.660538e-01 7.957887e-03 0.0
9.704428e-01 6.833441e-03 0.0
9.747659e-01 5.124433e-03 0.0
9.788327e-01 2.581958e-03 0.0
9.821624e-01 -9.625734e-04 0.0
9.844697e-01 -4.722437e-03 0.0
0.000000e+00 -5.163580e-03 0.0
0.000000e+00 0.000000e+00 0.0
0.000000e+00 0.000000e+00 0.0
0.000000e+00 0.000000e+00 0.0
0.000000e+00 0.000000e+00 0.0
0.000000e+00 0.000000e+00 0.0
0.000000e+00 0.000000e+00 0.0
0.000000e+00 0.000000e+00 0.0
0.000000e+00 0.000000e+00 0.0
0.000000e+00 0.000000e+00 0.0
0.000000e+00 0.000000e+00 0.0
0.000000e+00 -1.570152e-01 0.0
-1.849792e-02 1.578248e-01 0.0
-4.867152e-02 1.753967e-01 0.0
-5.937979e-02 9.409998e-02 0.0
-3.503435e-02 -3.052384e-02 0.0
2.610972e-02 -1.736915e-01 0.0
1.068319e-01 -2.853204e-01 0.0
1.935407e-01 -3.420714e-01 0.0
2.744033e-01 -3.444261e-01 0.0
3.431331e-01 -3.118085e-01 0.0
3.989107e-01 -2.666187e-01 0.0
4.437084e-01 -2.220183e-01 0.0
4.801182e-01 -1.830938e-01 0.0
5.103256e-01 -1.506706e-01 0.0
5.359039e-01 -1.240356e-01 0.0
5.579325e-01 -1.021815e-01 0.0
5.771594e-01 -8.420201e-02 0.0
5.941200e-01 -6.935986e-02 0.0
6.092123e-01 -5.706643e-02 0.0
6.227432e-01 -4.685027e-02 0.0
6.349585e-01 -3.833136e-02 0.0
6.460601e-01 -3.120373e-02 0.0
6.562150e-01 -2.522154e-02 0.0
6.655615e-01 -2.018651e-02 0.0
6.742163e-01 -1.593673e-02 0.0
6.822797e-01 -1.233988e-02 0.0
6.898364e-01 -9.288627e-03 0.0
6.969580e-01 -6.694660e-03 0.0
7.037073e-01 -4.484464e-03 0.0
7.101373e-01 -2.598394e-03 0.0
7.162920e-01 -9.854568e-04 0.0
7.222088e-01 3.958148e-04 0.0
7.279200e-01 1.579553e-03 0.0
7.334531e-01 2.594795e-03 0.0
7.388323e-01 3.465878e-03 0.0
7.440788e-01 4.213720e-03 0.0
7.492106e-01 4.856209e-03 0.0
7.542435e-01 5.408605e-03 0.0
7.591910e-01 5.883907e-03 0.0
7.640649e-01 6.293175e-03 0.0
7.688751e-01 6.645823e-03 0.0
7.736304e-01 6.949871e-03 0.0
7.783382e-01 7.212162e-03 0.0
7.830049e-01 7.438545e-03 0.0
7.876361e-01 7.634025e-03 0.0
7.922366e-01 7.802891e-03 0.0
7.968105e-01 7.948828e-03 0.0
8.013615e-01 8.074996e-03 0.0
8.058926e-01 8.184118e-03 0.0
8.104065e-01 8.278536e-03 0.0
8.149055e-01 8.360268e-03 0.0
8.193916e-01 8.431054e-03 0.0
8.238665e-01 8.492400e-03 0.0
8.283317e-01 8.545605e-03 0.0
8.327885e-01 8.591795e-03 0.0
8.372379e-01 8.631943e-03 0.0
8.416810e-01 8.666898e-03 0.0
8.461185e-01 8.697395e-03 0.0
8.505512e-01 8.724077e-03 0.0
8.549797e-01 8.747507e-03 0.0
8.594044e-01 8.768176e-03 0.0
8.638259e-01 8.786522e-03 0.0
8.682445e-01 8.802931e-03 0.0
8.726604e-01 8.817746e-03 0.0
8.770740e-01 8.831277e-03 0.0
8.814854e-01 8.843802e-03 0.0
8.858949e-01 8.855568e-03 0.0
8.903025e-01 8.866797e-03 0.0
8.947083e-01 8.877675e-03 0.0
8.991123e-01 8.888353e-03 0.0
9.035145e-01 8.898922e-03 0.0
9.079149e-01 8.909392e-03 0.0
9.123134e-01 8.919652e-03 0.0
9.167098e-01 8.929390e-03 0.0
9.211040e-01 8.937992e-03 0.0
9.254957e-01 8.944363e-03 0.0
9.298846e-01 8.946684e-03 0.0
9.342700e-01 8.942071e-03 0.0
9.386514e-01 8.926025e-03 0.0
9.430276e-01 8.891595e-03 0.0
9.473972e-01 8.828156e-03 0.0
9.517579e-01 8.719596e-03 0.0
9.561060e-01 8.541653e-03 0.0
9.604352e-01 8.258076e-03 0.0
9.647339e-01 7.815293e-03 0.0
9.689799e-01 7.135647e-03 0.0
9.731262e-01 6.110878e-03 0.0
9.770715e-01 4.602842e-03 0.0
9.806043e-01 2.472833e-03 0.0
9.833623e-01 -2.968419e-04 0.0
9.851965e-01 -3.132874e-03 0.0
0.000000e+00 -3.489604e-03 0.0
0.000000e+00 0.000000e+00 0.0
0.000000e+00 0.000000e+00 0.0
0.000000e+00 0.000000e+00 0.0
0.000000e+00 0.000000e+00 0.0
0.000000e+00 0.000000e+00 0.0
0.000000e+00 0.000000e+00 0.0
0.000000e+00 0.000000e+00 0.0
0.000000e+00 0.000000e+00 0.0
0.000000e+00 0.000000e+00 0.0
0.000000e+00 0.000000e+00 0.0
0.000000e+00 -1.790097e-01 0.0
-7.419783e-03 1.783751e-01 0.0
-1.667337e-02 1.880757e-01 0.0
2.156321e-03 7.869562e-02 0.0
6.365019e-02 -8.859240e-02 0.0
1.455883e-01 -2.522044e-01 0.0
2.310223e-01 -3.673291e-01 0.0
3.085509e-01 -4.161747e-01 0.0
3.725940e-01 -4.050440e-01 0.0
4.240783e-01 -3.598675e-01 0.0
4.650792e-01 -3.041944e-01 0.0
4.979357e-01 -2.514496e-01 0.0
5.248030e-01 -2.065358e-01 0.0
5.473524e-01 -1.697949e-01 0.0
5.667390e-01 -1.399971e-01 0.0
5.837243e-01 -1.157416e-01 0.0
5.988156e-01 -9.586828e-02 0.0
6.123660e-01 -7.948515e-02 0.0
6.246338e-01 -6.590914e-02 0.0
6.358176e-01 -5.460904e-02 0.0
6.460769e-01 -4.516569e-02 0.0
6.555436e-01 -3.724542e-02 0.0
6.643280e-01 -3.058097e-02 0.0
6.725233e-01 -2.495684e-02 0.0
6.802093e-01 -2.019780e-02 0.0
6.874551e-01 -1.616078e-02 0.0
6.943201e-01 -1.272875e-02 0.0
7.008555e-01 -9.805234e-03 0.0
7.071061e-01 -7.310303e-03 0.0
7.131104e-01 -5.177831e-03 0.0
7.189019e-01 -3.352258e-03 0.0
7.245100e-01 -1.787510e-03 0.0
7.299584e-01 -4.441277e-04 0.0
7.352678e-01 7.100779e-04 0.0
7.404562e-01 1.702149e-03 0.0
7.455394e-01 2.555123e-03 0.0
7.505315e-01 3.288766e-03 0.0
7.554446e-01 3.920094e-03 0.0
7.602893e-01 4.463697e-03 0.0
7.650750e-01 4.932052e-03 0.0
7.698095e-01 5.335812e-03 0.0
7.744997e-01 5.684077e-03 0.0
7.791517e-01 5.984622e-03 0.0
7.837706e-01 6.244103e-03 0.0
7.883608e-01 6.468224e-03 0.0
7.929262e-01 6.661877e-03 0.0
7.974701e-01 6.829266e-03 0.0
8.019954e-01 6.974005e-03 0.0
8.065046e-01 7.099204e-03 0.0
8.109998e-01 7.207543e-03 0.0
8.154830e-01 7.301333e-03 0.0
8.199557e-01 7.382568e-03 0.0
8.244193e-01 7.452970e-03 0.0
8.288751e-01 7.514029e-03 0.0
8.333240e-01 7.567036e-03 0.0
8.377669e-01 7.613106e-03 0.0
8.422047e-01 7.653210e-03 0.0
8.466380e-01 7.688192e-03 0.0
8.510673e-01 7.718788e-03 0.0
8.554932e-01 7.745641e-03 0.0
8.599161e-01 7.769317e-03 0.0
8.643363e-01 7.790314e-03 0.0
8.687541e-01 7.809074e-03 0.0
8.731698e-01 7.825992e-03 0.0
8.775836e-01 7.841420e-03 0.0
8.819957e-01 7.855678e-03 0.0
8.864061e-01 7.869055e-03 0.0
8.908150e-01 7.881806e-03 0.0
8.952224e-01 7.894159e-03 0.0
8.996283e-01 7.906302e-03 0.0
9.040327e-01 7.918369e-03 0.0
9.084354e-01 7.930422e-03 0.0
9.128365e-01 7.942406e-03 0.0
9.172356e-01 7.954091e-03 0.0
9.216324e-01 7.964968e-03 0.0
9.260265e-01 7.974107e-03 0.0
9.304170e-01 7.979934e-03 0.0
9.348029e-01 7.979917e-03 0.0
9.391826e-01 7.970079e-03 0.0
9.435537e-01 7.944278e-03 0.0
9.479124e-01 7.893150e-03 0.0
9.522532e-01 7.802582e-03 0.0
9.565670e-01 7.651534e-03 0.0
9.608397e-01 7.409072e-03 0.0
9.650481e-01 7.030663e-03 0.0
9.691530e-01 6.454463e-03 0.0
9.730873e-01 5.600285e-03 0.0
9.767359e-01 4.378000e-03 0.0
9.799129e-01 2.719497e-03 0.0
9.823782e-01 6.615822e-04 0.0
9.840589e-01 -1.389896e-03 0.0
0.000000e+00 -1.661959e-03 0.0
0.000000e+00 0.000000e+00 0.0
0.000000e+00 0.000000e+00 0.0
0.000000e+00 0.000000e+00 0.0
0.000000e+00 0.000000e+00 0.0
0.000000e+00 0.000000e+00 0.0
0.000000e+00 0.000000e+00 0.0
0.000000e+00 0.000000e+00 0.0
0.000000e+00 0.000000e+00 0.0
0.000000e+00 0.000000e+00 0.0
0.000000e+00 0.000000e+00 0.0
0.000000e+00 -1.782961e-01 0.0
1.446323e-02 1.770424e-01 0.0
5.509371e-02 1.508705e-01 0.0
1.364757e-01 7.389871e-04 0.0
2.369567e-01 -1.856481e-01 0.0
3.331146e-01 -3.449370e-01 0.0
4.120617e-01 -4.428509e-01 0.0
4.685919e-01 -4.692796e-01 0.0
5.059058e-01 -4.389327e-01 0.0
5.313693e-01 -3.819057e-01 0.0
5.502898e-01 -3.196897e-01 0.0
5.656784e-01 -2.634130e-01 0.0
5.790984e-01 -2.165307e-01 0.0
5.913184e-01 -1.785897e-01 0.0
6.026915e-01 -1.479450e-01 0.0
6.133731e-01 -1.229981e-01 0.0
6.234371e-01 -1.025071e-01 0.0
6.329294e-01 -8.555236e-02 0.0
6.418889e-01 -7.144363e-02 0.0
6.503543e-01 -5.964938e-02 0.0
6.583652e-01 -4.975157e-02 0.0
6.659618e-01 -4.141698e-02 0.0
6.731834e-01 -3.437762e-02 0.0
6.800678e-01 -2.841627e-02 0.0
6.866505e-01 -2.335563e-02 0.0
6.929649e-01 -1.905027e-02 0.0
6.990414e-01 -1.538038e-02 0.0
7.049077e-01 -1.224675e-02 0.0
7.105891e-01 -9.566850e-03 0.0
7.161079e-01 -7.271849e-03 0.0
7.214844e-01 -5.303986e-03 0.0
7.267364e-01 -3.614767e-03 0.0
7.318801e-01 -2.163120e-03 0.0
7.369293e-01 -9.144051e-04 0.0
7.418952e-01 1.608677e-04 0.0
7.467880e-01 1.086955e-03 0.0
7.516167e-01 1.884687e-03 0.0
7.563894e-01 2.571950e-03 0.0
7.611135e-01 3.164237e-03 0.0
7.657951e-01 3.674896e-03 0.0
7.704401e-01 4.115381e-03 0.0
7.750531e-01 4.495509e-03 0.0
7.796385e-01 4.823688e-03 0.0
7.841999e-01 5.107129e-03 0.0
7.887405e-01 5.352020e-03 0.0
7.932630e-01 5.563675e-03 0.0
7.977700e-01 5.746665e-03 0.0
8.022634e-01 5.904923e-03 0.0
8.067450e-01 6.041839e-03 0.0
8.112165e-01 6.160332e-03 0.0
8.156792e-01 6.262924e-03 0.0
8.201341e-01 6.351790e-03 0.0
8.245825e-01 6.428812e-03 0.0
8.290251e-01 6.495615e-03 0.0
8.334626e-01 6.553609e-03 0.0
8.378959e-01 6.604014e-03 0.0
8.423253e-01 6.647890e-03 0.0
8.467514e-01 6.686158e-03 0.0
8.511746e-01 6.719623e-03 0.0
8.555953e-01 6.748988e-03 0.0
8.600137e-01 6.774870e-03 0.0
8.644302e-01 6.797814e-03 0.0
8.688450e-01 6.818302e-03 0.0
8.732582e-01 6.836766e-03 0.0
8.776699e-01 6.853593e-03 0.0
8.820804e-01 6.869133e-03 0.0
8.864896e-01 6.883705e-03 0.0
8.908977e-01 6.897597e-03 0.0
8.953047e-01 6.911068e-03 0.0
8.997105e-01 6.924342e-03 0.0
9.041151e-01 6.937601e-03 0.0
9.085184e-01 6.950962e-03 0.0
9.129202e-01 6.964449e-03 0.0
9.173201e-01 6.977939e-03 0.0
9.217178e-01 6.991085e-03 0.0
9.261125e-01 7.003194e-03 0.0
9.305032e-01 7.013055e-03 0.0
9.348882e-01 7.018673e-03 0.0
9.392651e-01 7.016887e-03 0.0
9.436303e-01 7.002807e-03 0.0
9.479782e-01 6.969004e-03 0.0
9.523002e-01 6.904380e-03 0.0
9.565828e-01 6.792612e-03 0.0
9.608054e-01 6.610182e-03 0.0
9.649356e-01 6.324198e-03 0.0
9.689229e-01 5.890928e-03 0.0
9.726895e-01 5.257394e-03 0.0
9.761204e-01 4.370753e-03 0.0
9.790612e-01 3.202477e-03 0.0
9.813492e-01 1.797298e-03 0.0
9.829567e-01 4.262913e-04 0.0
0.000000e+00 2.438998e-04 0.0
0.000000e+00 0.000000e+00 0.0
0.000000e+00 0.000000e+00 0.0
0.000000e+00 0.000000e+00 0.0
0.000000e+00 0.000000e+00 0.0
0.000000e+00 0.000000e+00 0.0
0.000000e+00 0.000000e+00 0.0
0.000000e+00 0.000000e+00 0.0
0.000000e+00 0.000000e+00 0.0
0.000000e+00 0.000000e+00 0.0
0.000000e+00 0.000000e+00 0.0
0.000000e+00 -1.234429e-01 0.0
6.650738e-02 1.236656e-01 0.0
1.984075e-01 2.239573e-02 0.0
3.440687e-01 -1.414969e-01 0.0
4.674416e-01 -3.055957e-01 0.0
5.575374e-01 -4.316074e-01 0.0
6.128969e-01 -4.947852e-01 0.0
6.380418e-01 -4.909992e-01 0.0
6.452997e-01 -4.427654e-01 0.0
6.444315e-01 -3.776123e-01 0.0
6.412155e-01 -3.130485e-01 0.0
6.385808e-01 -2.573531e-01 0.0
6.376872e-01 -2.122119e-01 0.0
6.386964e-01 -1.761737e-01 0.0
6.413133e-01 -1.471368e-01 0.0
6.451188e-01 -1.233785e-01 0.0