# vtk DataFile Version 3.0
Vector Field
ASCII
DATASET RECTILINEAR_GRID
DIMENSIONS 102 22 1
X_COORDINATES 102 double
0.000000 0.100000 0.200000 0.300000 0.400000 0.500000 0.600000 0.700000 0.800000 0.900000 1.000000 1.100000 1.200000 1.300000 1.400000 1.500000 1.600000 1.700000 1.800000 1.900000 2.000000 2.100000 2.200000 2.300000 2.400000 2.500000 2.600000 2.700000 2.800000 2.900000 3.000000 3.100000 3.200000 3.300000 3.400000 3.500000 3.600000 3.700000 3.800000 3.900000 4.000000 4.100000 4.200000 4.300000 4.400000 4.500000 4.600000 4.700000 4.800000 4.900000 5.000000 5.100000 5.200000 5.300000 5.400000 5.500000 5.600000 5.700000 5.800000 5.900000 6.000000 6.100000 6.200000 6.300000 6.400000 6.500000 6.600000 6.700000 6.800000 6.900000 7.000000 7.100000 7.200000 7.300000 7.400000 7.500000 7.600000 7.700000 7.800000 7.900000 8.000000 8.100000 8.200000 8.300000 8.400000 8.500000 8.600000 8.700000 8.800000 8.900000 9.000000 9.100000 9.200000 9.300000 9.400000 9.500000 9.600000 9.700000 9.800000 9.900000 10.000000 10.100000 
Y_COORDINATES 22 double
0.000000 0.100000 0.200000 0.300000 0.400000 0.500000 0.600000 0.700000 0.800000 0.900000 1.000000 1.100000 1.200000 1.300000 1.400000 1.500000 1.600000 1.700000 1.800000 1.900000 2.000000 2.100000 
Z_COORDINATES 1 double
0.0
POINT_DATA 2244
VECTORS Velocity double
0.000000e+00 0.000000e+00 0.0
-0.000000e+00 0.000000e+00 0.0
-0.000000e+00 0.000000e+00 0.0
-0.000000e+00 0.000000e+00 0.0
-0.000000e+00 0.000000e+00 0.0
-0.000000e+00 0.000000e+00 0.0
-0.000000e+00 0.000000e+00 0.0
-0.000000e+00 0.000000e+00 0.0
-0.000000e+00 0.000000e+00 0.0
-0.000000e+00 0.000000e+00 0.0
-0.000000e+00 0.000000e+00 0.0
5.157164e-04 0.000000e+00 0.0
4.899076e-03 0.000000e+00 0.0
1.168016e-02 0.000000e+00 0.0
1.966835e-02 0.000000e+00 0.0
2.847769e-02 0.000000e+00 0.0
3.820270e-02 0.000000e+00 0.0
4.913285e-02 0.000000e+00 0.0
6.161986e-02 0.000000e+00 0.0
7.601150e-02 0.000000e+00 0.0
9.257686e-02 0.000000e+00 0.0
1.113960e-01 0.000000e+00 0.0
1.321877e-01 0.000000e+00 0.0
1.541244e-01 0.000000e+00 0.0
1.755917e-01 0.000000e+00 0.0
1.938624e-01 0.000000e+00 0.0
2.054071e-01 0.000000e+00 0.0
2.062493e-01 0.000000e+00 0.0
1.933056e-01 0.000000e+00 0.0
1.656689e-01 0.000000e+00 0.0
1.250910e-01 0.000000e+00 0.0
7.565590e-02 0.000000e+00 0.0
2.006394e-02 0.000000e+00 0.0
-3.468253e-02 0.000000e+00 0.0
-8.146188e-02 0.000000e+00 0.0
-1.183690e-01 0.000000e+00 0.0
-1.456543e-01 0.000000e+00 0.0
-1.644614e-01 0.000000e+00 0.0
-1.762526e-01 0.000000e+00 0.0
-1.825312e-01 0.000000e+00 0.0
-1.847149e-01 0.000000e+00 0.0
-1.840762e-01 0.000000e+00 0.0
-1.813507e-01 0.000000e+00 0.0
-1.770938e-01 0.000000e+00 0.0
-1.718689e-01 0.000000e+00 0.0
-1.661396e-01 0.000000e+00 0.0
-1.602534e-01 0.000000e+00 0.0
-1.544417e-01 0.000000e+00 0.0
-1.488403e-01 0.000000e+00 0.0
-1.435352e-01 0.000000e+00 0.0
-1.385680e-01 0.000000e+00 0.0
-1.339543e-01 0.000000e+00 0.0
-1.296928e-01 0.000000e+00 0.0
-1.257717e-01 0.000000e+00 0.0
-1.221738e-01 0.000000e+00 0.0
-1.188790e-01 0.000000e+00 0.0
-1.158663e-01 0.000000e+00 0.0
-1.131146e-01 0.000000e+00 0.0
-1.106039e-01 0.000000e+00 0.0
-1.083145e-01 0.000000e+00 0.0
-1.062282e-01 0.000000e+00 0.0
-1.043278e-01 0.000000e+00 0.0
-1.025971e-01 0.000000e+00 0.0
-1.010210e-01 0.000000e+00 0.0
-9.958558e-02 0.000000e+00 0.0
-9.827785e-02 0.000000e+00 0.0
-9.708591e-02 0.000000e+00 0.0
-9.599879e-02 0.000000e+00 0.0
-9.500647e-02 0.000000e+00 0.0
-9.409982e-02 0.000000e+00 0.0
-9.327054e-02 0.000000e+00 0.0
-9.251113e-02 0.000000e+00 0.0
-9.181482e-02 0.000000e+00 0.0
-9.117558e-02 0.000000e+00 0.0
-9.058798e-02 0.000000e+00 0.0
-9.004725e-02 0.000000e+00 0.0
-8.954918e-02 0.000000e+00 0.0
-8.909007e-02 0.000000e+00 0.0
-8.866677e-02 0.000000e+00 0.0
-8.827659e-02 0.000000e+00 0.0
-8.791730e-02 0.000000e+00 0.0
-8.758710e-02 0.000000e+00 0.0
-8.728463e-02 0.000000e+00 0.0
-8.700893e-02 0.000000e+00 0.0
-8.675948e-02 0.000000e+00 0.0
-8.653614e-02 0.000000e+00 0.0
-8.633923e-02 0.000000e+00 0.0
-8.616946e-02 0.000000e+00 0.0
-8.602804e-02 0.000000e+00 0.0
-8.591663e-02 0.000000e+00 0.0
-8.583746e-02 0.000000e+00 0.0
-8.579344e-02 0.000000e+00 0.0
-8.578834e-02 0.000000e+00 0.0
-8.582459e-02 0.000000e+00 0.0
-8.590017e-02 0.000000e+00 0.0
-8.600858e-02 0.000000e+00 0.0
-8.614409e-02 0.000000e+00 0.0
-8.629535e-02 0.000000e+00 0.0
-8.644103e-02 0.000000e+00 0.0
-8.653775e-02 0.000000e+00 0.0
-8.653775e-02 0.000000e+00 0.0
0.000000e+00 0.000000e+00 0.0
0.000000e+00 0.000000e+00 0.0
0.000000e+00 0.000000e+00 0.0
0.000000e+00 0.000000e+00 0.0
0.000000e+00 0.000000e+00 0.0
0.000000e+00 0.000000e+00 0.0
0.000000e+00 0.000000e+00 0.0
0.000000e+00 0.000000e+00 0.0
0.000000e+00 0.000000e+00 0.0
0.000000e+00 0.000000e+00 0.0
0.000000e+00 0.000000e+00 0.0
0.000000e+00 -5.221251e-04 0.0
-5.232588e-04 5.153915e-04 0.0
-4.904704e-03 4.376060e-03 0.0
-1.168081e-02 6.776615e-03 0.0
-1.966543e-02 7.988782e-03 0.0
-2.847486e-02 8.812886e-03 0.0
-3.820235e-02 9.727828e-03 0.0
-4.913458e-02 1.093029e-02 0.0
-6.162169e-02 1.248531e-02 0.0
-7.601188e-02 1.439017e-02 0.0
-9.257578e-02 1.656542e-02 0.0
-1.113946e-01 1.882039e-02 0.0
-1.321870e-01 2.079300e-02 0.0
-1.541243e-01 2.193714e-02 0.0
-1.755919e-01 2.146720e-02 0.0
-1.938624e-01 1.827048e-02 0.0
-2.054070e-01 1.154460e-02 0.0
-2.062494e-01 8.421725e-04 0.0
-1.933058e-01 -1.294391e-02 0.0
-1.656689e-01 -2.763704e-02 0.0
-1.250908e-01 -4.057789e-02 0.0
-7.565548e-02 -4.943487e-02 0.0
-2.006372e-02 -5.559158e-02 0.0
3.468240e-02 -5.474635e-02 0.0
8.146156e-02 -4.677962e-02 0.0
1.183688e-01 -3.690751e-02 0.0
1.456544e-01 -2.728554e-02 0.0
1.644616e-01 -1.880695e-02 0.0
1.762528e-01 -1.179102e-02 0.0
1.825312e-01 -6.278508e-03 0.0
1.847147e-01 -2.183713e-03 0.0
1.840762e-01 6.384682e-04 0.0
1.813507e-01 2.725489e-03 0.0
1.770938e-01 4.256957e-03 0.0
1.718689e-01 5.224921e-03 0.0
1.661396e-01 5.729328e-03 0.0
1.602534e-01 5.886132e-03 0.0
1.544417e-01 5.811727e-03 0.0
1.488403e-01 5.601334e-03 0.0
1.435352e-01 5.305156e-03 0.0
1.385680e-01 4.967206e-03 0.0
1.339543e-01 4.613661e-03 0.0
1.296928e-01 4.261561e-03 0.0
1.257717e-01 3.921093e-03 0.0
1.221738e-01 3.597917e-03 0.0
1.188790e-01 3.294799e-03 0.0
1.158662e-01 3.012717e-03 0.0
1.131146e-01 2.751596e-03 0.0
1.106039e-01 2.510787e-03 0.0
1.083145e-01 2.289360e-03 0.0
1.062282e-01 2.086267e-03 0.0
1.043278e-01 1.900421e-03 0.0
1.025971e-01 1.730725e-03 0.0
1.010210e-01 1.576088e-03 0.0
9.958558e-02 1.435437e-03 0.0
9.827785e-02 1.307726e-03 0.0
9.708591e-02 1.191945e-03 0.0
9.599879e-02 1.087120e-03 0.0
9.500647e-02 9.923179e-04 0.0
9.409982e-02 9.066519e-04 0.0
9.327054e-02 8.292816e-04 0.0
9.251112e-02 7.594139e-04 0.0
9.181482e-02 6.963026e-04 0.0
9.117558e-02 6.392477e-04 0.0
9.058798e-02 5.875940e-04 0.0
9.004725e-02 5.407290e-04 0.0
8.954917e-02 4.980787e-04 0.0
8.909007e-02 4.591042e-04 0.0
8.866677e-02 4.232979e-04 0.0
8.827659e-02 3.901799e-04 0.0
8.791730e-02 3.592932e-04 0.0
8.758710e-02 3.301991e-04 0.0
8.728463e-02 3.024719e-04 0.0
8.700893e-02 2.756947e-04 0.0
8.675948e-02 2.494543e-04 0.0
8.653614e-02 2.233354e-04 0.0
8.633922e-02 1.969158e-04 0.0
8.616946e-02 1.697612e-04 0.0
8.602804e-02 1.414194e-04 0.0
8.591663e-02 1.114075e-04 0.0
8.583746e-02 7.917524e-05 0.0
8.579344e-02 4.401881e-05 0.0
8.578834e-02 5.098088e-06 0.0
8.582459e-02 -3.625353e-05 0.0
8.590017e-02 -7.558642e-05 0.0
8.600858e-02 -1.084084e-04 0.0
8.614409e-02 -1.355075e-04 0.0
8.629535e-02 -1.512617e-04 0.0
8.644103e-02 -1.456813e-04 0.0
8.653775e-02 -9.672438e-05 0.0
8.653775e-02 -1.299755e-09 0.0
0.000000e+00 -1.314443e-09 0.0
0.000000e+00 0.000000e+00 0.0
0.000000e+00 0.000000e+00 0.0
0.000000e+00 0.000000e+00 0.0
0.000000e+00 0.000000e+00 0.0
0.000000e+00 0.000000e+00 0.0
0.000000e+00 0.000000e+00 0.0
0.000000e+00 0.000000e+00 0.0
0.000000e+00 0.000000e+00 0.0
0.000000e+00 0.000000e+00 0.0
0.000000e+00 0.000000e+00 0.0
0.000000e+00 -6.340424e-03 0.0
-5.825657e-03 6.335604e-03 0.0
-1.945714e-02 1.801178e-02 0.0
-3.736840e-02 2.469375e-02 0.0
-5.742077e-02 2.804459e-02 0.0
-7.879987e-02 3.019191e-02 0.0
-1.014143e-01 3.234054e-02 0.0
-1.253939e-01 3.490902e-02 0.0
-1.508124e-01 3.790481e-02 0.0
-1.775137e-01 4.109343e-02 0.0
-2.049590e-01 4.401217e-02 0.0
-2.321112e-01 4.597279e-02 0.0
-2.572623e-01 4.594354e-02 0.0
-2.779437e-01 4.261823e-02 0.0
-2.910092e-01 3.453303e-02 0.0
-2.926340e-01 1.989553e-02 0.0
-2.780903e-01 -2.999094e-03 0.0
-2.447192e-01 -3.252912e-02 0.0
-1.937539e-01 -6.390914e-02 0.0
-1.280920e-01 -9.329863e-02 0.0
-5.038883e-02 -1.182805e-01 0.0
3.421435e-02 -1.340379e-01 0.0
1.146592e-01 -1.360367e-01 0.0
1.859872e-01 -1.260748e-01 0.0
2.481850e-01 -1.089776e-01 0.0
3.004844e-01 -8.920662e-02 0.0
3.428161e-01 -6.961685e-02 0.0
3.757352e-01 -5.172596e-02 0.0
4.001572e-01 -3.621314e-02 0.0
4.171627e-01 -2.328422e-02 0.0
4.278677e-01 -1.288878e-02 0.0
4.333346e-01 -4.828337e-03 0.0
4.348649e-01 1.195333e-03 0.0
4.332921e-01 5.829829e-03 0.0
4.292976e-01 9.219356e-03 0.0
4.234689e-01 1.155795e-02 0.0
4.162895e-01 1.306547e-02 0.0
4.081743e-01 1.392703e-02 0.0
3.994960e-01 1.427965e-02 0.0
3.905570e-01 1.424408e-02 0.0
3.815718e-01 1.395246e-02 0.0
3.727020e-01 1.348346e-02 0.0
3.640631e-01 1.290049e-02 0.0
3.557349e-01 1.224921e-02 0.0
3.477703e-01 1.156260e-02 0.0
3.402010e-01 1.086409e-02 0.0
3.330436e-01 1.017004e-02 0.0
3.263035e-01 9.491715e-03 0.0
3.199775e-01 8.836781e-03 0.0
3.140566e-01 8.210337e-03 0.0
3.085272e-01 7.615650e-03 0.0
3.033730e-01 7.054627e-03 0.0
2.985755e-01 6.528150e-03 0.0
2.941153e-01 6.036321e-03 0.0
2.899721e-01 5.578652e-03 0.0
2.861256e-01 5.154213e-03 0.0
2.825558e-01 4.761742e-03 0.0
2.792432e-01 4.399742e-03 0.0
2.761690e-01 4.066550e-03 0.0
2.733152e-01 3.760403e-03 0.0
2.706650e-01 3.479480e-03 0.0
2.682025e-01 3.221943e-03 0.0
2.659128e-01 2.985964e-03 0.0
2.637823e-01 2.769745e-03 0.0
2.617984e-01 2.571535e-03 0.0
2.599495e-01 2.389638e-03 0.0
2.582251e-01 2.222419e-03 0.0
2.566159e-01 2.068301e-03 0.0
2.551135e-01 1.925771e-03 0.0
2.537103e-01 1.793367e-03 0.0
2.523999e-01 1.669677e-03 0.0
2.511768e-01 1.553327e-03 0.0
2.500363e-01 1.442977e-03 0.0
2.489746e-01 1.337299e-03 0.0
2.479891e-01 1.234978e-03 0.0
2.470778e-01 1.134686e-03 0.0
2.462396e-01 1.035077e-03 0.0
2.454746e-01 9.347675e-04 0.0
2.447837e-01 8.323359e-04 0.0
2.441688e-01 7.263153e-04 0.0
2.436328e-01 6.152027e-04 0.0
2.431793e-01 4.975041e-04 0.0
2.428123e-01 3.720182e-04 0.0
2.425370e-01 2.391352e-04 0.0
2.423599e-01 1.014745e-04 0.0
2.422883e-01 -3.681754e-05 0.0
2.423123e-01 -1.595334e-04 0.0
2.424055e-01 -2.444415e-04 0.0
2.425286e-01 -2.687657e-04 0.0
2.426264e-01 -1.945058e-04 0.0
2.426264e-01 -1.231159e-09 0.0
0.000000e+00 -1.238019e-09 0.0
0.000000e+00 0.000000e+00 0.0
0.000000e+00 0.000000e+00 0.0
0.000000e+00 0.000000e+00 0.0
0.000000e+00 0.000000e+00 0.0
0.000000e+00 0.000000e+00 0.0
0.000000e+00 0.000000e+00 0.0
0.000000e+00 0.000000e+00 0.0
0.000000e+00 0.000000e+00 0.0
0.000000e+00 0.000000e+00 0.0
0.000000e+00 0.000000e+00 0.0
0.000000e+00 -1.696569e-02 0.0
-1.063006e-02 1.696474e-02 0.0
-3.138291e-02 3.877010e-02 0.0
-5.610906e-02 4.942372e-02 0.0
-8.186805e-02 5.380386e-02 0.0
-1.075538e-01 5.587546e-02 0.0
-1.327963e-01 5.758069e-02 0.0
-1.573547e-01 5.946679e-02 0.0
-1.808704e-01 6.142161e-02 0.0
-2.027341e-01 6.295856e-02 0.0
-2.219452e-01 6.322351e-02 0.0
-2.371518e-01 6.117860e-02 0.0
-2.465263e-01 5.531736e-02 0.0
-2.475639e-01 4.365572e-02 0.0
-2.364290e-01 2.339847e-02 0.0
-2.066293e-01 -9.904096e-03 0.0
-1.581280e-01 -5.150077e-02 0.0
-9.223703e-02 -9.842036e-02 0.0
-1.226068e-02 -1.438852e-01 0.0
7.475187e-02 -1.803106e-01 0.0
1.594757e-01 -2.030040e-01 0.0
2.371885e-01 -2.117511e-01 0.0
3.057365e-01 -2.045852e-01 0.0
3.656600e-01 -1.859985e-01 0.0
4.178676e-01 -1.611850e-01 0.0
4.627706e-01 -1.341092e-01 0.0
5.006028e-01 -1.074487e-01 0.0
5.316676e-01 -8.279095e-02 0.0
5.563962e-01 -6.094200e-02 0.0
5.753193e-01 -4.220743e-02 0.0
5.890236e-01 -2.659305e-02 0.0
5.981241e-01 -1.392867e-02 0.0
6.032631e-01 -3.943574e-03 0.0
6.053716e-01 3.721242e-03 0.0
6.049519e-01 9.639037e-03 0.0
6.024536e-01 1.405624e-02 0.0
5.982723e-01 1.724677e-02 0.0
5.927468e-01 1.945258e-02 0.0
5.861491e-01 2.087736e-02 0.0
5.786968e-01 2.169634e-02 0.0
5.706356e-01 2.201358e-02 0.0
5.621834e-01 2.193569e-02 0.0
5.535125e-01 2.157149e-02 0.0
5.447623e-01 2.099935e-02 0.0
5.360444e-01 2.028050e-02 0.0
5.274465e-01 1.946197e-02 0.0
5.190369e-01 1.857969e-02 0.0
5.108674e-01 1.766117e-02 0.0
5.029766e-01 1.672760e-02 0.0
4.953916e-01 1.579536e-02 0.0
4.881302e-01 1.487706e-02 0.0
4.812025e-01 1.398230e-02 0.0
4.746124e-01 1.311823e-02 0.0
4.683587e-01 1.228999e-02 0.0
4.624363e-01 1.150106e-02 0.0
4.568369e-01 1.075360e-02 0.0
4.515500e-01 1.004867e-02 0.0
4.465633e-01 9.386434e-03 0.0
4.418635e-01 8.766382e-03 0.0
4.374365e-01 8.187437e-03 0.0
4.332678e-01 7.648107e-03 0.0
4.293432e-01 7.146586e-03 0.0
4.256483e-01 6.680838e-03 0.0
4.221694e-01 6.248671e-03 0.0
4.188931e-01 5.847793e-03 0.0
4.158069e-01 5.475852e-03 0.0
4.128989e-01 5.130472e-03 0.0
4.101579e-01 4.809274e-03 0.0
4.075738e-01 4.509888e-03 0.0
4.051372e-01 4.229967e-03 0.0
4.028397e-01 3.967183e-03 0.0
4.006738e-01 3.719226e-03 0.0
3.986330e-01 3.483795e-03 0.0
3.967117e-01 3.258588e-03 0.0
3.949054e-01 3.041286e-03 0.0
3.932105e-01 2.829533e-03 0.0
3.916247e-01 2.620915e-03 0.0
3.901465e-01 2.412939e-03 0.0
3.887758e-01 2.203020e-03 0.0
3.875136e-01 1.988489e-03 0.0
3.863622e-01 1.766631e-03 0.0
3.853249e-01 1.534803e-03 0.0
3.844062e-01 1.290785e-03 0.0
3.836116e-01 1.033656e-03 0.0
3.829483e-01 7.647689e-04 0.0
3.824223e-01 4.892157e-04 0.0
3.820407e-01 2.220527e-04 0.0
3.818067e-01 -1.039302e-05 0.0
3.816976e-01 -1.597455e-04 0.0
3.816747e-01 -1.715209e-04 0.0
3.816747e-01 -1.153601e-09 0.0
0.000000e+00 -1.159879e-09 0.0
0.000000e+00 0.000000e+00 0.0
0.000000e+00 0.000000e+00 0.0
0.000000e+00 0.000000e+00 0.0
0.000000e+00 0.000000e+00 0.0
0.000000e+00 0.000000e+00 0.0
0.000000e+00 0.000000e+00 0.0
0.000000e+00 0.000000e+00 0.0
0.000000e+00 0.000000e+00 0.0
0.000000e+00 0.000000e+00 0.0
0.000000e+00 0.000000e+00 0.0
0.000000e+00 -3.010853e-02 0.0
-1.314352e-02 3.010968e-02 0.0
-3.668196e-02 6.231214e-02 0.0
-6.237933e-02 7.512212e-02 0.0
-8.687329e-02 7.829591e-02 0.0
-1.090708e-01 7.806981e-02 0.0
-1.285438e-01 7.705150e-02 0.0
-1.449430e-01 7.586591e-02 0.0
-1.578300e-01 7.430977e-02 0.0
-1.666417e-01 7.177089e-02 0.0
-1.704082e-01 6.698939e-02 0.0
-1.677188e-01 5.848816e-02 0.0
-1.561280e-01 4.372613e-02 0.0
-1.320441e-01 1.957211e-02 0.0
-8.749320e-02 -2.115223e-02 0.0
-2.381064e-02 -7.358699e-02 0.0
5.527286e-02 -1.305848e-01 0.0
1.404453e-01 -1.835929e-01 0.0
2.248110e-01 -2.282503e-01 0.0
3.039789e-01 -2.594779e-01 0.0
3.754381e-01 -2.744633e-01 0.0
4.365603e-01 -2.728739e-01 0.0
4.881914e-01 -2.562169e-01 0.0
5.324208e-01 -2.302279e-01 0.0
5.706460e-01 -1.994096e-01 0.0
6.036672e-01 -1.671301e-01 0.0
6.319321e-01 -1.357136e-01 0.0
6.557404e-01 -1.065996e-01 0.0
6.753591e-01 -8.056089e-02 0.0
6.910669e-01 -5.791514e-02 0.0
7.031666e-01 -3.869263e-02 0.0
7.119874e-01 -2.274928e-02 0.0
7.178885e-01 -9.844695e-03 0.0
7.212948e-01 3.148262e-04 0.0
7.226766e-01 8.257160e-03 0.0
7.223580e-01 1.437485e-02 0.0
7.205990e-01 1.900580e-02 0.0
7.176205e-01 2.243118e-02 0.0
7.136141e-01 2.488366e-02 0.0
7.087552e-01 2.655521e-02 0.0
7.031741e-01 2.759471e-02 0.0
6.969832e-01 2.812658e-02 0.0
6.903244e-01 2.823039e-02 0.0
6.833236e-01 2.800013e-02 0.0
6.760888e-01 2.751529e-02 0.0
6.687121e-01 2.683859e-02 0.0
6.612723e-01 2.601948e-02 0.0
6.538361e-01 2.509745e-02 0.0
6.464592e-01 2.410445e-02 0.0
6.391880e-01 2.306655e-02 0.0
6.320600e-01 2.200507e-02 0.0
6.251050e-01 2.093731e-02 0.0
6.183461e-01 1.987717e-02 0.0
6.118004e-01 1.883565e-02 0.0
6.054801e-01 1.782132e-02 0.0
5.993931e-01 1.684066e-02 0.0
5.935434e-01 1.589838e-02 0.0
5.879321e-01 1.499770e-02 0.0
5.825579e-01 1.414059e-02 0.0
5.774173e-01 1.332798e-02 0.0
5.725055e-01 1.255997e-02 0.0
5.678161e-01 1.183597e-02 0.0
5.633421e-01 1.115482e-02 0.0
5.590759e-01 1.051494e-02 0.0
5.550092e-01 9.914411e-03 0.0
5.511340e-01 9.351047e-03 0.0
5.474421e-01 8.822464e-03 0.0
5.439252e-01 8.326130e-03 0.0
5.405757e-01 7.859398e-03 0.0
5.373861e-01 7.419538e-03 0.0
5.343495e-01 7.003747e-03 0.0
5.314596e-01 6.609162e-03 0.0
5.287106e-01 6.232855e-03 0.0
5.260973e-01 5.871830e-03 0.0
5.236156e-01 5.523012e-03 0.0
5.212619e-01 5.183229e-03 0.0
5.190336e-01 4.849178e-03 0.0
5.169292e-01 4.517394e-03 0.0
5.149480e-01 4.184231e-03 0.0
5.130906e-01 3.845869e-03 0.0
5.113589e-01 3.498343e-03 0.0
5.097560e-01 3.137665e-03 0.0
5.082867e-01 2.760122e-03 0.0
5.069574e-01 2.362916e-03 0.0
5.057770e-01 1.945136e-03 0.0
5.047567e-01 1.509530e-03 0.0
5.039121e-01 1.066673e-03 0.0
5.032622e-01 6.395014e-04 0.0
5.028290e-01 2.734641e-04 0.0
5.026175e-01 3.999356e-05 0.0
5.026175e-01 -1.145705e-09 0.0
0.000000e+00 -1.155957e-09 0.0
0.000000e+00 0.000000e+00 0.0
0.000000e+00 0.000000e+00 0.0
0.000000e+00 0.000000e+00 0.0
0.000000e+00 0.000000e+00 0.0
0.000000e+00 0.000000e+00 0.0
0.000000e+00 0.000000e+00 0.0
0.000000e+00 0.000000e+00 0.0
0.000000e+00 0.000000e+00 0.0
0.000000e+00 0.000000e+00 0.0
0.000000e+00 0.000000e+00 0.0
0.000000e+00 -4.361246e-02 0.0
-1.350247e-02 4.361308e-02 0.0
-3.553363e-02 8.434512e-02 0.0
-5.694326e-02 9.653115e-02 0.0
-7.478466e-02 9.613431e-02 0.0
-8.837719e-02 9.165889e-02 0.0
-9.747183e-02 8.614447e-02 0.0
-1.018017e-01 8.019633e-02 0.0
-1.008738e-01 7.338308e-02 0.0
-9.419483e-02 6.509213e-02 0.0
-8.005725e-02 5.285078e-02 0.0
-5.621148e-02 3.464138e-02 0.0
-1.553030e-02 3.044906e-03 0.0
4.644069e-02 -4.239844e-02 0.0
1.223078e-01 -9.701943e-02 0.0
2.056176e-01 -1.568974e-01 0.0
2.902774e-01 -2.152450e-01 0.0
3.717244e-01 -2.650395e-01 0.0
4.454810e-01 -3.020061e-01 0.0
5.092193e-01 -3.232159e-01 0.0
5.622123e-01 -3.274568e-01 0.0
6.043191e-01 -3.149815e-01 0.0
6.388406e-01 -2.907386e-01 0.0
6.679112e-01 -2.592980e-01 0.0
6.928736e-01 -2.243714e-01 0.0
7.145125e-01 -1.887688e-01 0.0
7.332622e-01 -1.544637e-01 0.0
7.493600e-01 -1.226979e-01 0.0
7.629533e-01 -9.415422e-02 0.0
7.741621e-01 -6.912374e-02 0.0
7.831143e-01 -4.764465e-02 0.0
7.899574e-01 -2.959232e-02 0.0
7.948554e-01 -1.474286e-02 0.0
7.979947e-01 -2.824533e-03 0.0
7.996854e-01 6.566441e-03 0.0
8.001405e-01 1.391978e-02 0.0
7.995253e-01 1.962113e-02 0.0
7.979790e-01 2.397741e-02 0.0
7.956257e-01 2.723697e-02 0.0
7.925785e-01 2.960234e-02 0.0
7.889356e-01 3.123765e-02 0.0
7.847835e-01 3.227867e-02 0.0
7.801791e-01 3.283487e-02 0.0
7.751941e-01 3.298511e-02 0.0
7.699039e-01 3.280541e-02 0.0
7.643761e-01 3.236641e-02 0.0
7.586714e-01 3.172417e-02 0.0
7.528445e-01 3.092441e-02 0.0
7.469437e-01 3.000522e-02 0.0
7.410117e-01 2.899860e-02 0.0
7.350851e-01 2.793158e-02 0.0
7.291958e-01 2.682670e-02 0.0
7.233703e-01 2.570266e-02 0.0
7.176311e-01 2.457485e-02 0.0
7.119966e-01 2.345578e-02 0.0
7.064818e-01 2.235547e-02 0.0
7.010984e-01 2.128176e-02 0.0
6.958555e-01 2.024062e-02 0.0
6.907597e-01 1.923644e-02 0.0
6.858154e-01 1.827223e-02 0.0
6.810255e-01 1.734987e-02 0.0
6.763912e-01 1.647027e-02 0.0
6.719125e-01 1.563352e-02 0.0
6.675884e-01 1.483908e-02 0.0
6.634169e-01 1.408583e-02 0.0
6.593957e-01 1.337224e-02 0.0
6.555218e-01 1.269638e-02 0.0
6.517919e-01 1.205604e-02 0.0
6.482026e-01 1.144876e-02 0.0
6.447502e-01 1.087189e-02 0.0
6.414314e-01 1.032258e-02 0.0
6.382427e-01 9.797810e-03 0.0
6.351812e-01 9.294429e-03 0.0
6.322439e-01 8.809112e-03 0.0
6.294285e-01 8.338377e-03 0.0
6.267332e-01 7.878564e-03 0.0
6.241566e-01 7.425798e-03 0.0
6.216980e-01 6.975922e-03 0.0
6.193578e-01 6.524485e-03 0.0
6.171369e-01 6.066725e-03 0.0
6.150377e-01 5.597578e-03 0.0
6.130636e-01 5.111733e-03 0.0
6.112199e-01 4.603814e-03 0.0
6.095141e-01 4.068764e-03 0.0
6.079567e-01 3.502502e-03 0.0
6.065631e-01 2.903183e-03 0.0
6.053560e-01 2.273728e-03 0.0
6.043699e-01 1.625565e-03 0.0
6.036573e-01 9.860779e-04 0.0
6.032878e-01 4.095610e-04 0.0
6.032877e-01 -1.202104e-09 0.0
0.000000e+00 -1.212900e-09 0.0
0.000000e+00 0.000000e+00 0.0
0.000000e+00 0.000000e+00 0.0
0.000000e+00 0.000000e+00 0.0
0.000000e+00 0.000000e+00 0.0
0.000000e+00 0.000000e+00 0.0
0.000000e+00 0.000000e+00 0.0
0.000000e+00 0.000000e+00 0.0
0.000000e+00 0.000000e+00 0.0
0.000000e+00 0.000000e+00 0.0
0.000000e+00 0.000000e+00 0.0
0.000000e+00 -5.675406e-02 0.0
-1.314040e-02 5.675315e-02 0.0
-3.052868e-02 1.017343e-01 0.0
-4.347690e-02 1.094779e-01 0.0
-5.066579e-02 1.033199e-01 0.0
-5.208657e-02 9.307663e-02 0.0
-4.779781e-02 8.185496e-02 0.0
-3.756733e-02 6.996709e-02 0.0
-1.999176e-02 5.580875e-02 0.0
6.417820e-03 3.868235e-02 0.0
4.621253e-02 1.305489e-02 0.0
1.046562e-01 -2.380292e-02 0.0
1.780622e-01 -7.036075e-02 0.0
2.608904e-01 -1.252263e-01 0.0
3.478584e-01 -1.839879e-01 0.0
4.327760e-01 -2.418159e-01 0.0
5.106564e-01 -2.931255e-01 0.0
5.784999e-01 -3.328822e-01 0.0
6.345407e-01 -3.580462e-01 0.0
6.784953e-01 -3.671707e-01 0.0
7.108711e-01 -3.598335e-01 0.0
7.350164e-01 -3.391274e-01 0.0
7.537177e-01 -3.094395e-01 0.0
7.689134e-01 -2.744930e-01 0.0
7.818219e-01 -2.372795e-01 0.0
7.931385e-01 -2.000858e-01 0.0
8.032217e-01 -1.645472e-01 0.0
8.122079e-01 -1.316842e-01 0.0
8.201160e-01 -1.020622e-01 0.0
8.269183e-01 -7.592579e-02 0.0
8.325922e-01 -5.331850e-02 0.0
8.371369e-01 -3.413711e-02 0.0
8.405640e-01 -1.817001e-02 0.0
8.429066e-01 -5.167224e-03 0.0
8.443008e-01 5.172324e-03 0.0
8.448553e-01 1.336530e-02 0.0
8.446610e-01 1.981543e-02 0.0
8.438001e-01 2.483831e-02 0.0
8.423498e-01 2.868724e-02 0.0
8.403832e-01 3.156896e-02 0.0
8.379674e-01 3.365349e-02 0.0
8.351638e-01 3.508228e-02 0.0
8.320257e-01 3.597293e-02 0.0
8.285894e-01 3.642136e-02 0.0
8.248925e-01 3.650233e-02 0.0
8.209762e-01 3.628274e-02 0.0
8.168799e-01 3.582042e-02 0.0
8.126407e-01 3.516364e-02 0.0
8.082925e-01 3.435347e-02 0.0
8.038659e-01 3.342521e-02 0.0
7.993880e-01 3.240940e-02 0.0
7.948830e-01 3.133170e-02 0.0
7.903720e-01 3.021371e-02 0.0
7.858733e-01 2.907353e-02 0.0
7.814029e-01 2.792615e-02 0.0
7.769746e-01 2.678382e-02 0.0
7.725999e-01 2.565642e-02 0.0
7.682888e-01 2.455176e-02 0.0
7.640494e-01 2.347586e-02 0.0
7.598884e-01 2.243321e-02 0.0
7.558113e-01 2.142697e-02 0.0
7.518224e-01 2.045919e-02 0.0
7.479249e-01 1.953098e-02 0.0
7.441214e-01 1.864263e-02 0.0
7.404134e-01 1.779377e-02 0.0
7.368022e-01 1.698348e-02 0.0
7.332882e-01 1.621033e-02 0.0
7.298717e-01 1.547253e-02 0.0
7.265526e-01 1.476794e-02 0.0
7.233304e-01 1.409409e-02 0.0
7.202046e-01 1.344830e-02 0.0
7.171748e-01 1.282760e-02 0.0
7.142405e-01 1.222881e-02 0.0
7.114011e-01 1.164851e-02 0.0
7.086564e-01 1.108302e-02 0.0
7.060065e-01 1.052847e-02 0.0
7.034517e-01 9.980647e-03 0.0
7.009926e-01 9.434959e-03 0.0
6.986307e-01 8.886380e-03 0.0
6.963680e-01 8.329437e-03 0.0
6.942074e-01 7.758161e-03 0.0
6.921531e-01 7.166065e-03 0.0
6.902108e-01 6.546156e-03 0.0
6.883885e-01 5.891024e-03 0.0
6.866980e-01 5.193041e-03 0.0
6.851564e-01 4.444755e-03 0.0
6.837904e-01 3.639721e-03 0.0
6.826421e-01 2.773847e-03 0.0
6.817793e-01 1.848876e-03 0.0
6.813039e-01 8.850170e-04 0.0
6.813039e-01 -1.327438e-09 0.0
0.000000e+00 -1.341606e-09 0.0
0.000000e+00 0.000000e+00 0.0
0.000000e+00 0.000000e+00 0.0
0.000000e+00 0.000000e+00 0.0
0.000000e+00 0.000000e+00 0.0
0.000000e+00 0.000000e+00 0.0
0.000000e+00 0.000000e+00 0.0
0.000000e+00 0.000000e+00 0.0
0.000000e+00 0.000000e+00 0.0
0.000000e+00 0.000000e+00 0.0
0.000000e+00 0.000000e+00 0.0
0.000000e+00 -7.039862e-02 0.0
-1.364437e-02 7.039657e-02 0.0
-2.290844e-02 1.109996e-01 0.0
-2.229822e-02 1.088667e-01 0.0
-1.382858e-02 9.484765e-02 0.0
1.892304e-03 7.735392e-02 0.0
2.498995e-02 5.875779e-02 0.0
5.575442e-02 3.920465e-02 0.0
9.780326e-02 1.376121e-02 0.0
1.559789e-01 -1.949380e-02 0.0
2.283689e-01 -5.933626e-02 0.0
3.106166e-01 -1.060507e-01 0.0
3.983623e-01 -1.581058e-01 0.0
4.861142e-01 -2.129779e-01 0.0
5.688914e-01 -2.667659e-01 0.0
6.423106e-01 -3.152357e-01 0.0
7.034512e-01 -3.542656e-01 0.0
7.511879e-01 -3.806179e-01 0.0
7.857382e-01 -3.925961e-01 0.0
8.082124e-01 -3.896457e-01 0.0
8.215269e-01 -3.731489e-01 0.0
8.291119e-01 -3.467124e-01 0.0
8.334556e-01 -3.137826e-01 0.0
8.362301e-01 -2.772669e-01 0.0
8.384439e-01 -2.394933e-01 0.0
8.406387e-01 -2.022810e-01 0.0
8.430669e-01 -1.669757e-01 0.0
8.457466e-01 -1.343639e-01 0.0
8.485723e-01 -1.048877e-01 0.0
8.513838e-01 -7.873719e-02 0.0
8.540318e-01 -5.596654e-02 0.0
8.563934e-01 -3.649880e-02 0.0
8.583505e-01 -2.012711e-02 0.0
8.598175e-01 -6.634314e-03 0.0
8.607637e-01 4.226242e-03 0.0
8.612000e-01 1.292900e-02 0.0
8.611497e-01 1.986570e-02 0.0
8.606467e-01 2.534131e-02 0.0
8.597316e-01 2.960236e-02 0.0
8.584482e-01 3.285234e-02 0.0
8.568406e-01 3.526113e-02 0.0
8.549511e-01 3.697175e-02 0.0
8.528191e-01 3.810494e-02 0.0
8.504781e-01 3.876234e-02 0.0
8.479515e-01 3.902895e-02 0.0
8.452612e-01 3.897305e-02 0.0
8.424312e-01 3.865047e-02 0.0
8.394850e-01 3.810982e-02 0.0
8.364448e-01 3.739365e-02 0.0
8.333308e-01 3.653921e-02 0.0
8.301605e-01 3.557968e-02 0.0
8.269497e-01 3.454249e-02 0.0
8.237124e-01 3.345106e-02 0.0
8.204608e-01 3.232514e-02 0.0
8.172057e-01 3.118121e-02 0.0
8.139567e-01 3.003284e-02 0.0
8.107220e-01 2.889111e-02 0.0
8.075089e-01 2.776489e-02 0.0
8.043236e-01 2.666113e-02 0.0
8.011716e-01 2.558517e-02 0.0
7.980577e-01 2.454092e-02 0.0
7.949858e-01 2.353110e-02 0.0
7.919594e-01 2.255739e-02 0.0
7.889814e-01 2.162062e-02 0.0
7.860543e-01 2.072087e-02 0.0
7.831802e-01 1.985759e-02 0.0
7.803608e-01 1.902971e-02 0.0
7.775976e-01 1.823569e-02 0.0
7.748919e-01 1.747362e-02 0.0
7.722448e-01 1.674122e-02 0.0
7.696572e-01 1.603591e-02 0.0
7.671300e-01 1.535480e-02 0.0
7.646641e-01 1.469473e-02 0.0
7.622604e-01 1.405221e-02 0.0
7.599199e-01 1.342348e-02 0.0
7.576438e-01 1.280455e-02 0.0
7.554334e-01 1.219107e-02 0.0
7.532902e-01 1.157812e-02 0.0
7.512164e-01 1.096024e-02 0.0
7.492144e-01 1.033143e-02 0.0
7.472875e-01 9.684998e-03 0.0
7.454402e-01 9.013451e-03 0.0
7.436780e-01 8.308354e-03 0.0
7.420089e-01 7.560112e-03 0.0
7.404442e-01 6.757665e-03 0.0
7.390010e-01 5.887985e-03 0.0
7.377055e-01 4.935229e-03 0.0
7.366000e-01 3.879318e-03 0.0
7.357540e-01 2.694914e-03 0.0
7.352763e-01 1.362709e-03 0.0
7.352763e-01 -1.520306e-09 0.0
0.000000e+00 -1.538919e-09 0.0
0.000000e+00 0.000000e+00 0.0
0.000000e+00 0.000000e+00 0.0
0.000000e+00 0.000000e+00 0.0
0.000000e+00 0.000000e+00 0.0
0.000000e+00 0.000000e+00 0.0
0.000000e+00 0.000000e+00 0.0
0.000000e+00 0.000000e+00 0.0
0.000000e+00 0.000000e+00 0.0
0.000000e+00 0.000000e+00 0.0
0.000000e+00 0.000000e+00 0.0
0.000000e+00 -8.412524e-02 0.0
-1.372700e-02 8.412395e-02 0.0
-5.673612e-03 1.029486e-01 0.0
1.886274e-02 8.433007e-02 0.0
5.211690e-02 6.159122e-02 0.0
9.300575e-02 3.646365e-02 0.0
1.442383e-01 7.526345e-03 0.0
2.088245e-01 -2.537921e-02 0.0
2.842381e-01 -6.165133e-02 0.0
3.670287e-01 -1.022852e-01 0.0
4.544164e-01 -1.467250e-01 0.0
5.424434e-01 -1.940774e-01 0.0
6.269022e-01 -2.425639e-01 0.0
7.036130e-01 -2.896890e-01 0.0
7.691891e-01 -3.323429e-01 0.0
8.213372e-01 -3.673840e-01 0.0
8.591867e-01 -3.921141e-01 0.0
8.832966e-01 -4.047269e-01 0.0
8.952216e-01 -4.045213e-01 0.0
8.974730e-01 -3.918982e-01 0.0
8.937698e-01 -3.694463e-01 0.0
8.869158e-01 -3.398580e-01 0.0
8.789589e-01 -3.058251e-01 0.0
8.712218e-01 -2.695297e-01 0.0
8.644483e-01 -2.327200e-01 0.0
8.589909e-01 -1.968240e-01 0.0
8.549842e-01 -1.629690e-01 0.0
8.523193e-01 -1.316990e-01 0.0
8.507901e-01 -1.033583e-01 0.0
8.501584e-01 -7.810543e-02 0.0
8.501639e-01 -5.597211e-02 0.0
8.505522e-01 -3.688718e-02 0.0
8.511198e-01 -2.069466e-02 0.0
8.516957e-01 -7.210236e-03 0.0
8.521426e-01 3.779382e-03 0.0
8.523744e-01 1.269726e-02 0.0
8.523521e-01 1.988796e-02 0.0
8.520655e-01 2.562785e-02 0.0
8.515220e-01 3.014589e-02 0.0
8.507391e-01 3.363520e-02 0.0
8.497401e-01 3.626021e-02 0.0
8.485501e-01 3.816166e-02 0.0
8.471948e-01 3.946023e-02 0.0
8.456979e-01 4.025928e-02 0.0
8.440797e-01 4.064717e-02 0.0
8.423539e-01 4.069881e-02 0.0
8.405345e-01 4.046993e-02 0.0
8.386359e-01 4.000842e-02 0.0
8.366718e-01 3.935775e-02 0.0
8.346544e-01 3.855660e-02 0.0
8.325949e-01 3.763912e-02 0.0
8.305031e-01 3.663437e-02 0.0
8.283871e-01 3.556705e-02 0.0
8.262542e-01 3.445802e-02 0.0
8.241107e-01 3.332468e-02 0.0
8.219622e-01 3.218141e-02 0.0
8.198133e-01 3.103996e-02 0.0
8.176684e-01 2.990977e-02 0.0
8.155312e-01 2.879831e-02 0.0
8.134051e-01 2.771133e-02 0.0
8.112929e-01 2.665313e-02 0.0
8.091972e-01 2.562674e-02 0.0
8.071205e-01 2.463413e-02 0.0
8.050647e-01 2.367637e-02 0.0
8.030319e-01 2.275375e-02 0.0
8.010235e-01 2.186591e-02 0.0
7.990413e-01 2.101192e-02 0.0
7.970866e-01 2.019040e-02 0.0
7.951607e-01 1.939950e-02 0.0
7.932649e-01 1.863705e-02 0.0
7.914003e-01 1.790051e-02 0.0
7.895681e-01 1.718702e-02 0.0
7.877694e-01 1.649340e-02 0.0
7.860055e-01 1.581612e-02 0.0
7.842777e-01 1.515130e-02 0.0
7.825873e-01 1.449491e-02 0.0
7.809358e-01 1.384261e-02 0.0
7.793248e-01 1.318911e-02 0.0
7.777564e-01 1.252867e-02 0.0
7.762329e-01 1.185487e-02 0.0
7.747575e-01 1.116047e-02 0.0
7.733337e-01 1.043719e-02 0.0
7.719667e-01 9.675409e-03 0.0
7.706631e-01 8.863725e-03 0.0
7.694326e-01 7.988183e-03 0.0
7.682895e-01 7.031026e-03 0.0
7.672563e-01 5.968478e-03 0.0
7.663686e-01 4.766971e-03 0.0
7.656851e-01 3.378432e-03 0.0
7.652975e-01 1.750337e-03 0.0
7.652975e-01 -1.767225e-09 0.0
0.000000e+00 -1.789069e-09 0.0
0.000000e+00 0.000000e+00 0.0
0.000000e+00 0.000000e+00 0.0
0.000000e+00 0.000000e+00 0.0
0.000000e+00 0.000000e+00 0.0
0.000000e+00 0.000000e+00 0.0
0.000000e+00 0.000000e+00 0.0
0.000000e+00 0.000000e+00 0.0
0.000000e+00 0.000000e+00 0.0
0.000000e+00 0.000000e+00 0.0
0.000000e+00 0.000000e+00 0.0
0.000000e+00 -7.896739e-02 0.0
5.158636e-03 7.896869e-02 0.0
5.424547e-02 5.386532e-02 0.0
1.182818e-01 2.029350e-02 0.0
1.921991e-01 -1.232859e-02 0.0
2.730326e-01 -4.437108e-02 0.0
3.576185e-01 -7.705780e-02 0.0
4.442471e-01 -1.120054e-01 0.0
5.316894e-01 -1.490931e-01 0.0
6.175918e-01 -1.881889e-01 0.0
6.993927e-01 -2.285265e-01 0.0
7.742342e-01 -2.689180e-01 0.0
8.393414e-01 -3.076705e-01 0.0
8.923662e-01 -3.427145e-01 0.0