# vtk DataFile Version 3.0
Vector Field
ASCII
DATASET RECTILINEAR_GRID
DIMENSIONS 102 22 1
X_COORDINATES 102 double
0.000000 0.100000 0.200000 0.300000 0.400000 0.500000 0.600000 0.700000 0.800000 0.900000 1.000000 1.100000 1.200000 1.300000 1.400000 1.500000 1.600000 1.700000 1.800000 1.900000 2.000000 2.100000 2.200000 2.300000 2.400000 2.500000 2.600000 2.700000 2.800000 2.900000 3.000000 3.100000 3.200000 3.300000 3.400000 3.500000 3.600000 3.700000 3.800000 3.900000 4.000000 4.100000 4.200000 4.300000 4.400000 4.500000 4.600000 4.700000 4.800000 4.900000 5.000000 5.100000 5.200000 5.300000 5.400000 5.500000 5.600000 5.700000 5.800000 5.900000 6.000000 6.100000 6.200000 6.300000 6.400000 6.500000 6.600000 6.700000 6.800000 6.900000 7.000000 7.100000 7.200000 7.300000 7.400000 7.500000 7.600000 7.700000 7.800000 7.900000 8.000000 8.100000 8.200000 8.300000 8.400000 8.500000 8.600000 8.700000 8.800000 8.900000 9.000000 9.100000 9.200000 9.300000 9.400000 9.500000 9.600000 9.700000 9.800000 9.900000 10.000000 10.100000 
Y_COORDINATES 22 double
0.000000 0.100000 0.200000 0.300000 0.400000 0.500000 0.600000 0.700000 0.800000 0.900000 1.000000 1.100000 1.200000 1.300000 1.400000 1.500000 1.600000 1.700000 1.800000 1.900000 2.000000 2.100000 
Z_COORDINATES 1 double
0.0
POINT_DATA 2244
VECTORS Velocity double
0.000000e+00 0.000000e+00 0.0
-0.000000e+00 0.000000e+00 0.0
-0.000000e+00 0.000000e+00 0.0
-0.000000e+00 0.000000e+00 0.0
-0.000000e+00 0.000000e+00 0.0
-0.000000e+00 0.000000e+00 0.0
-0.000000e+00 0.000000e+00 0.0
-0.000000e+00 0.000000e+00 0.0
-0.000000e+00 0.000000e+00 0.0
-0.000000e+00 0.000000e+00 0.0
-0.000000e+00 0.000000e+00 0.0
5.177205e-04 0.000000e+00 0.0
4.897566e-03 0.000000e+00 0.0
1.167567e-02 0.000000e+00 0.0
1.966377e-02 0.000000e+00 0.0
2.847483e-02 0.000000e+00 0.0
3.819987e-02 0.000000e+00 0.0
4.912546e-02 0.000000e+00 0.0
6.160348e-02 0.000000e+00 0.0
7.598485e-02 0.000000e+00 0.0
9.254242e-02 0.000000e+00 0.0
1.113578e-01 0.000000e+00 0.0
1.321478e-01 0.000000e+00 0.0
1.540818e-01 0.000000e+00 0.0
1.755449e-01 0.000000e+00 0.0
1.938130e-01 0.000000e+00 0.0
2.053642e-01 0.000000e+00 0.0
2.062278e-01 0.000000e+00 0.0
1.933178e-01 0.000000e+00 0.0
1.657202e-01 0.000000e+00 0.0
1.251742e-01 0.000000e+00 0.0
7.575908e-02 0.000000e+00 0.0
2.018152e-02 0.000000e+00 0.0
-3.456930e-02 0.000000e+00 0.0
-8.135955e-02 0.000000e+00 0.0
-1.182798e-01 0.000000e+00 0.0
-1.455801e-01 0.000000e+00 0.0
-1.644035e-01 0.000000e+00 0.0
-1.762103e-01 0.000000e+00 0.0
-1.825012e-01 0.000000e+00 0.0
-1.846932e-01 0.000000e+00 0.0
-1.840602e-01 0.000000e+00 0.0
-1.813401e-01 0.000000e+00 0.0
-1.770883e-01 0.000000e+00 0.0
-1.718671e-01 0.000000e+00 0.0
-1.661397e-01 0.000000e+00 0.0
-1.602544e-01 0.000000e+00 0.0
-1.544432e-01 0.000000e+00 0.0
-1.488424e-01 0.000000e+00 0.0
-1.435378e-01 0.000000e+00 0.0
-1.385710e-01 0.000000e+00 0.0
-1.339573e-01 0.000000e+00 0.0
-1.296951e-01 0.000000e+00 0.0
-1.257733e-01 0.000000e+00 0.0
-1.221750e-01 0.000000e+00 0.0
-1.188804e-01 0.000000e+00 0.0
-1.158679e-01 0.000000e+00 0.0
-1.131160e-01 0.000000e+00 0.0
-1.106045e-01 0.000000e+00 0.0
-1.083146e-01 0.000000e+00 0.0
-1.062282e-01 0.000000e+00 0.0
-1.043279e-01 0.000000e+00 0.0
-1.025971e-01 0.000000e+00 0.0
-1.010206e-01 0.000000e+00 0.0
-9.958478e-02 0.000000e+00 0.0
-9.827686e-02 0.000000e+00 0.0
-9.708485e-02 0.000000e+00 0.0
-9.599763e-02 0.000000e+00 0.0
-9.500514e-02 0.000000e+00 0.0
-9.409827e-02 0.000000e+00 0.0
-9.326882e-02 0.000000e+00 0.0
-9.250927e-02 0.000000e+00 0.0
-9.181287e-02 0.000000e+00 0.0
-9.117352e-02 0.000000e+00 0.0
-9.058581e-02 0.000000e+00 0.0
-9.004496e-02 0.000000e+00 0.0
-8.954676e-02 0.000000e+00 0.0
-8.908754e-02 0.000000e+00 0.0
-8.866415e-02 0.000000e+00 0.0
-8.827388e-02 0.000000e+00 0.0
-8.791449e-02 0.000000e+00 0.0
-8.758420e-02 0.000000e+00 0.0
-8.728164e-02 0.000000e+00 0.0
-8.700586e-02 0.000000e+00 0.0
-8.675632e-02 0.000000e+00 0.0
-8.653291e-02 0.000000e+00 0.0
-8.633591e-02 0.000000e+00 0.0
-8.616608e-02 0.000000e+00 0.0
-8.602459e-02 0.000000e+00 0.0
-8.591311e-02 0.000000e+00 0.0
-8.583388e-02 0.000000e+00 0.0
-8.578980e-02 0.000000e+00 0.0
-8.578464e-02 0.000000e+00 0.0
-8.582085e-02 0.000000e+00 0.0
-8.589640e-02 0.000000e+00 0.0
-8.600479e-02 0.000000e+00 0.0
-8.614028e-02 0.000000e+00 0.0
-8.629153e-02 0.000000e+00 0.0
-8.643721e-02 0.000000e+00 0.0
-8.653392e-02 0.000000e+00 0.0
-8.653392e-02 0.000000e+00 0.0
0.000000e+00 0.000000e+00 0.0
0.000000e+00 0.000000e+00 0.0
0.000000e+00 0.000000e+00 0.0
0.000000e+00 0.000000e+00 0.0
0.000000e+00 0.000000e+00 0.0
0.000000e+00 0.000000e+00 0.0
0.000000e+00 0.000000e+00 0.0
0.000000e+00 0.000000e+00 0.0
0.000000e+00 0.000000e+00 0.0
0.000000e+00 0.000000e+00 0.0
0.000000e+00 0.000000e+00 0.0
0.000000e+00 -5.197285e-04 0.0
-5.185874e-04 5.193561e-04 0.0
-4.900385e-03 4.379601e-03 0.0
-1.168055e-02 6.776077e-03 0.0
-1.966775e-02 7.984450e-03 0.0
-2.847404e-02 8.808185e-03 0.0
-3.819324e-02 9.725837e-03 0.0
-4.911683e-02 1.093066e-02 0.0
-6.159966e-02 1.248435e-02 0.0
-7.599017e-02 1.438394e-02 0.0
-9.255428e-02 1.655338e-02 0.0
-1.113675e-01 1.880655e-02 0.0
-1.321473e-01 2.078323e-02 0.0
-1.540708e-01 2.193471e-02 0.0
-1.755318e-01 2.147127e-02 0.0
-1.938084e-01 1.827781e-02 0.0
-2.053719e-01 1.155460e-02 0.0
-2.062412e-01 8.580531e-04 0.0
-1.933262e-01 -1.292011e-02 0.0
-1.657174e-01 -2.760422e-02 0.0
-1.251638e-01 -4.054457e-02 0.0
-7.574979e-02 -4.940798e-02 0.0
-2.017970e-02 -5.557099e-02 0.0
3.456428e-02 -5.474971e-02 0.0
8.135395e-02 -4.679450e-02 0.0
1.182789e-01 -3.692518e-02 0.0
1.455838e-01 -2.730168e-02 0.0
1.644075e-01 -1.882099e-02 0.0
1.762111e-01 -1.180386e-02 0.0
1.824995e-01 -6.290265e-03 0.0
1.846920e-01 -2.193314e-03 0.0
1.840609e-01 6.319779e-04 0.0
1.813416e-01 2.720553e-03 0.0
1.770887e-01 4.253018e-03 0.0
1.718661e-01 5.221556e-03 0.0
1.661386e-01 5.726640e-03 0.0
1.602541e-01 5.884433e-03 0.0
1.544439e-01 5.811040e-03 0.0
1.488435e-01 5.601410e-03 0.0
1.435384e-01 5.305478e-03 0.0
1.385705e-01 4.967270e-03 0.0
1.339561e-01 4.613331e-03 0.0
1.296944e-01 4.261242e-03 0.0
1.257738e-01 3.921318e-03 0.0
1.221762e-01 3.598694e-03 0.0
1.188809e-01 3.295538e-03 0.0
1.158672e-01 3.012912e-03 0.0
1.131150e-01 2.751410e-03 0.0
1.106043e-01 2.510788e-03 0.0
1.083152e-01 2.289803e-03 0.0
1.062288e-01 2.086861e-03 0.0
1.043279e-01 1.900775e-03 0.0
1.025966e-01 1.730805e-03 0.0
1.010204e-01 1.576147e-03 0.0
9.958492e-02 1.435649e-03 0.0
9.827711e-02 1.308034e-03 0.0
9.708493e-02 1.192211e-03 0.0
9.599755e-02 1.087292e-03 0.0
9.500503e-02 9.924414e-04 0.0
9.409825e-02 9.067834e-04 0.0
9.326887e-02 8.294428e-04 0.0
9.250936e-02 7.595942e-04 0.0
9.181292e-02 6.964782e-04 0.0
9.117353e-02 6.393995e-04 0.0
9.058580e-02 5.877202e-04 0.0
9.004495e-02 5.408428e-04 0.0
8.954678e-02 4.981944e-04 0.0
8.908758e-02 4.592260e-04 0.0
8.866419e-02 4.234212e-04 0.0
8.827391e-02 3.902994e-04 0.0
8.791452e-02 3.594070e-04 0.0
8.758423e-02 3.303083e-04 0.0
8.728167e-02 3.025783e-04 0.0
8.700589e-02 2.757994e-04 0.0
8.675635e-02 2.495571e-04 0.0
8.653294e-02 2.234358e-04 0.0
8.633595e-02 1.970133e-04 0.0
8.616611e-02 1.698556e-04 0.0
8.602462e-02 1.415105e-04 0.0
8.591315e-02 1.114953e-04 0.0
8.583391e-02 7.925956e-05 0.0
8.578983e-02 4.410023e-05 0.0
8.578468e-02 5.177794e-06 0.0
8.582088e-02 -3.618365e-05 0.0
8.589644e-02 -7.552883e-05 0.0
8.600482e-02 -1.083661e-04 0.0
8.614032e-02 -1.354705e-04 0.0
8.629157e-02 -1.512324e-04 0.0
8.643725e-02 -1.456533e-04 0.0
8.653396e-02 -9.668921e-05 0.0
8.653392e-02 6.130006e-08 0.0
0.000000e+00 6.133519e-08 0.0
0.000000e+00 0.000000e+00 0.0
0.000000e+00 0.000000e+00 0.0
0.000000e+00 0.000000e+00 0.0
0.000000e+00 0.000000e+00 0.0
0.000000e+00 0.000000e+00 0.0
0.000000e+00 0.000000e+00 0.0
0.000000e+00 0.000000e+00 0.0
0.000000e+00 0.000000e+00 0.0
0.000000e+00 0.000000e+00 0.0
0.000000e+00 0.000000e+00 0.0
0.000000e+00 -6.338932e-03 0.0
-5.820094e-03 6.339486e-03 0.0
-1.945408e-02 1.801112e-02 0.0
-3.736716e-02 2.468792e-02 0.0
-5.741632e-02 2.803582e-02 0.0
-7.878637e-02 3.018324e-02 0.0
-1.013895e-01 3.233317e-02 0.0
-1.253607e-01 3.490133e-02 0.0
-1.507760e-01 3.789372e-02 0.0
-1.774768e-01 4.107740e-02 0.0
-2.049194e-01 4.399342e-02 0.0
-2.320643e-01 4.595665e-02 0.0
-2.572073e-01 4.593560e-02 0.0
-2.778879e-01 4.262143e-02 0.0
-2.909662e-01 3.454717e-02 0.0
-2.926175e-01 1.991967e-02 0.0
-2.781128e-01 -2.958440e-03 0.0
-2.447793e-01 -3.247601e-02 0.0
-1.938453e-01 -6.384717e-02 0.0
-1.282120e-01 -9.322943e-02 0.0
-5.053558e-02 -1.182183e-01 0.0
3.404587e-02 -1.339931e-01 0.0
1.144921e-01 -1.360237e-01 0.0
1.858265e-01 -1.260876e-01 0.0
2.480382e-01 -1.090044e-01 0.0
3.003553e-01 -8.923807e-02 0.0
3.427043e-01 -6.964844e-02 0.0
3.756386e-01 -5.175650e-02 0.0
4.000744e-01 -3.624212e-02 0.0
4.170938e-01 -2.331038e-02 0.0
4.278125e-01 -1.291069e-02 0.0
4.332913e-01 -4.845587e-03 0.0
4.348297e-01 1.181932e-03 0.0
4.332635e-01 5.818074e-03 0.0
4.292749e-01 9.209469e-03 0.0
4.234517e-01 1.155011e-02 0.0
4.162773e-01 1.305965e-02 0.0
4.081661e-01 1.392306e-02 0.0
3.994904e-01 1.427711e-02 0.0
3.905529e-01 1.424219e-02 0.0
3.815685e-01 1.395078e-02 0.0
3.726996e-01 1.348202e-02 0.0
3.640620e-01 1.289970e-02 0.0
3.557351e-01 1.224929e-02 0.0
3.477707e-01 1.156312e-02 0.0
3.402008e-01 1.086439e-02 0.0
3.330430e-01 1.016996e-02 0.0
3.263030e-01 9.491696e-03 0.0
3.199775e-01 8.837228e-03 0.0
3.140565e-01 8.211134e-03 0.0
3.085266e-01 7.616374e-03 0.0
3.033717e-01 7.055084e-03 0.0
2.985740e-01 6.528510e-03 0.0
2.941137e-01 6.036808e-03 0.0
2.899702e-01 5.579277e-03 0.0
2.861234e-01 5.154841e-03 0.0
2.825532e-01 4.762284e-03 0.0
2.792402e-01 4.400216e-03 0.0
2.761656e-01 4.067011e-03 0.0
2.733116e-01 3.760881e-03 0.0
2.706611e-01 3.479975e-03 0.0
2.681983e-01 3.222435e-03 0.0
2.659083e-01 2.986431e-03 0.0
2.637775e-01 2.770179e-03 0.0
2.617933e-01 2.571945e-03 0.0
2.599441e-01 2.390041e-03 0.0
2.582195e-01 2.222822e-03 0.0
2.566100e-01 2.068702e-03 0.0
2.551073e-01 1.926164e-03 0.0
2.537038e-01 1.793750e-03 0.0
2.523932e-01 1.670051e-03 0.0
2.511698e-01 1.553695e-03 0.0
2.500291e-01 1.443339e-03 0.0
2.489672e-01 1.337656e-03 0.0
2.479814e-01 1.235329e-03 0.0
2.470698e-01 1.135030e-03 0.0
2.462314e-01 1.035413e-03 0.0
2.454662e-01 9.350957e-04 0.0
2.447751e-01 8.326547e-04 0.0
2.441600e-01 7.266233e-04 0.0
2.436237e-01 6.154984e-04 0.0
2.431700e-01 4.977864e-04 0.0
2.428029e-01 3.722858e-04 0.0
2.425274e-01 2.393834e-04 0.0
2.423502e-01 1.017016e-04 0.0
2.422784e-01 -3.661016e-05 0.0
2.423023e-01 -1.593584e-04 0.0
2.423954e-01 -2.443032e-04 0.0
2.425184e-01 -2.686383e-04 0.0
2.426161e-01 -1.943727e-04 0.0
2.426159e-01 1.758303e-07 0.0
0.000000e+00 1.768894e-07 0.0
0.000000e+00 0.000000e+00 0.0
0.000000e+00 0.000000e+00 0.0
0.000000e+00 0.000000e+00 0.0
0.000000e+00 0.000000e+00 0.0
0.000000e+00 0.000000e+00 0.0
0.000000e+00 0.000000e+00 0.0
0.000000e+00 0.000000e+00 0.0
0.000000e+00 0.000000e+00 0.0
0.000000e+00 0.000000e+00 0.0
0.000000e+00 0.000000e+00 0.0
0.000000e+00 -1.696465e-02 0.0
-1.062698e-02 1.696512e-02 0.0
-3.138257e-02 3.876432e-02 0.0
-5.610788e-02 4.941361e-02 0.0
-8.186033e-02 5.379210e-02 0.0
-1.075361e-01 5.586402e-02 0.0
-1.327703e-01 5.756953e-02 0.0
-1.573262e-01 5.945415e-02 0.0
-1.808447e-01 6.140558e-02 0.0
-2.027121e-01 6.293974e-02 0.0
-2.219230e-01 6.320575e-02 0.0
-2.371261e-01 6.116741e-02 0.0
-2.464997e-01 5.531740e-02 0.0
-2.475475e-01 4.367109e-02 0.0
-2.364395e-01 2.343231e-02 0.0
-2.066809e-01 -9.848276e-03 0.0
-1.582167e-01 -5.142660e-02 0.0
-9.235701e-02 -9.833163e-02 0.0
-1.240414e-02 -1.437915e-01 0.0
7.460031e-02 -1.802288e-01 0.0
1.593214e-01 -2.029407e-01 0.0
2.370377e-01 -2.117158e-01 0.0
3.055945e-01 -2.045856e-01 0.0
3.655289e-01 -1.860218e-01 0.0
4.177489e-01 -1.612202e-01 0.0
4.626636e-01 -1.341492e-01 0.0
5.005051e-01 -1.074902e-01 0.0
5.315783e-01 -8.283234e-02 0.0
5.563161e-01 -6.098160e-02 0.0
5.752497e-01 -4.224322e-02 0.0
5.889644e-01 -2.662374e-02 0.0
5.980737e-01 -1.395434e-02 0.0
6.032197e-01 -3.965094e-03 0.0
6.053337e-01 3.702986e-03 0.0
6.049193e-01 9.623757e-03 0.0
6.024263e-01 1.404388e-02 0.0
5.982498e-01 1.723709e-02 0.0
5.927281e-01 1.944511e-02 0.0
5.861333e-01 2.087139e-02 0.0
5.786831e-01 2.169137e-02 0.0
5.706239e-01 2.200938e-02 0.0
5.621740e-01 2.193243e-02 0.0
5.535055e-01 2.156949e-02 0.0
5.447569e-01 2.099838e-02 0.0
5.360393e-01 2.027985e-02 0.0
5.274415e-01 1.946116e-02 0.0
5.190324e-01 1.857894e-02 0.0
5.108640e-01 1.766097e-02 0.0
5.029739e-01 1.672801e-02 0.0
4.953888e-01 1.579597e-02 0.0
4.881271e-01 1.487752e-02 0.0
4.811993e-01 1.398267e-02 0.0
4.746093e-01 1.311874e-02 0.0
4.683557e-01 1.229072e-02 0.0
4.624331e-01 1.150189e-02 0.0
4.568334e-01 1.075440e-02 0.0
4.515462e-01 1.004941e-02 0.0
4.465592e-01 9.387178e-03 0.0
4.418591e-01 8.767156e-03 0.0
4.374318e-01 8.188244e-03 0.0
4.332629e-01 7.648929e-03 0.0
4.293379e-01 7.147397e-03 0.0
4.256427e-01 6.681622e-03 0.0
4.221634e-01 6.249432e-03 0.0
4.188868e-01 5.848546e-03 0.0
4.158003e-01 5.476607e-03 0.0
4.128919e-01 5.131228e-03 0.0
4.101506e-01 4.810024e-03 0.0
4.075661e-01 4.510630e-03 0.0
4.051292e-01 4.230701e-03 0.0
4.028313e-01 3.967911e-03 0.0
4.006651e-01 3.719949e-03 0.0
3.986239e-01 3.484514e-03 0.0
3.967023e-01 3.259302e-03 0.0
3.948956e-01 3.041993e-03 0.0
3.932004e-01 2.830231e-03 0.0
3.916142e-01 2.621604e-03 0.0
3.901357e-01 2.413617e-03 0.0
3.887647e-01 2.203684e-03 0.0
3.875022e-01 1.989137e-03 0.0
3.863504e-01 1.767259e-03 0.0
3.853128e-01 1.535407e-03 0.0
3.843937e-01 1.291361e-03 0.0
3.835989e-01 1.034199e-03 0.0
3.829354e-01 7.652756e-04 0.0
3.824091e-01 4.896833e-04 0.0
3.820273e-01 2.224768e-04 0.0
3.817930e-01 -1.000685e-05 0.0
3.816837e-01 -1.594019e-04 0.0
3.816606e-01 -1.712013e-04 0.0
3.816604e-01 3.346402e-07 0.0
0.000000e+00 3.372844e-07 0.0
0.000000e+00 0.000000e+00 0.0
0.000000e+00 0.000000e+00 0.0
0.000000e+00 0.000000e+00 0.0
0.000000e+00 0.000000e+00 0.0
0.000000e+00 0.000000e+00 0.0
0.000000e+00 0.000000e+00 0.0
0.000000e+00 0.000000e+00 0.0
0.000000e+00 0.000000e+00 0.0
0.000000e+00 0.000000e+00 0.0
0.000000e+00 0.000000e+00 0.0
0.000000e+00 -3.010702e-02 0.0
-1.314422e-02 3.010655e-02 0.0
-3.668494e-02 6.230359e-02 0.0
-6.238010e-02 7.511081e-02 0.0
-8.686733e-02 7.828396e-02 0.0
-1.090576e-01 7.805825e-02 0.0
-1.285281e-01 7.703984e-02 0.0
-1.449316e-01 7.585274e-02 0.0
-1.578269e-01 7.429439e-02 0.0
-1.666450e-01 7.175520e-02 0.0
-1.704130e-01 6.697817e-02 0.0
-1.677243e-01 5.848740e-02 0.0
-1.561409e-01 4.373980e-02 0.0
-1.320823e-01 1.960992e-02 0.0
-8.757023e-02 -2.108866e-02 0.0
-2.392361e-02 -7.350233e-02 0.0
5.513933e-02 -1.304894e-01 0.0
1.403068e-01 -1.834917e-01 0.0
2.246770e-01 -2.281540e-01 0.0
3.038500e-01 -2.594001e-01 0.0
3.753163e-01 -2.744120e-01 0.0
4.364519e-01 -2.728580e-01 0.0
4.880932e-01 -2.562293e-01 0.0
5.323333e-01 -2.302585e-01 0.0
5.705679e-01 -1.994501e-01 0.0
6.035955e-01 -1.671754e-01 0.0
6.318642e-01 -1.357612e-01 0.0
6.556764e-01 -1.066473e-01 0.0
6.753008e-01 -8.060629e-02 0.0
6.910155e-01 -5.795612e-02 0.0
7.031214e-01 -3.872835e-02 0.0
7.119467e-01 -2.278009e-02 0.0
7.178515e-01 -9.871198e-03 0.0
7.212614e-01 2.924032e-04 0.0
7.226472e-01 8.238452e-03 0.0
7.223326e-01 1.435957e-02 0.0
7.205768e-01 1.899347e-02 0.0
7.176006e-01 2.242115e-02 0.0
7.135959e-01 2.487518e-02 0.0
7.087384e-01 2.654782e-02 0.0
7.031595e-01 2.758843e-02 0.0
6.969713e-01 2.812180e-02 0.0
6.903146e-01 2.822716e-02 0.0
6.833149e-01 2.799780e-02 0.0
6.760803e-01 2.751317e-02 0.0
6.687042e-01 2.683660e-02 0.0
6.612658e-01 2.601806e-02 0.0
6.538309e-01 2.509687e-02 0.0
6.464546e-01 2.410440e-02 0.0
6.391833e-01 2.306658e-02 0.0
6.320553e-01 2.200506e-02 0.0
6.251006e-01 2.093747e-02 0.0
6.183422e-01 1.987765e-02 0.0
6.117967e-01 1.883636e-02 0.0
6.054763e-01 1.782210e-02 0.0
5.993891e-01 1.684145e-02 0.0
5.935393e-01 1.589920e-02 0.0
5.879279e-01 1.499858e-02 0.0
5.825536e-01 1.414154e-02 0.0
5.774129e-01 1.332899e-02 0.0
5.725008e-01 1.256101e-02 0.0
5.678112e-01 1.183700e-02 0.0
5.633369e-01 1.115584e-02 0.0
5.590704e-01 1.051597e-02 0.0
5.550035e-01 9.915461e-03 0.0
5.511280e-01 9.352113e-03 0.0
5.474357e-01 8.823538e-03 0.0
5.439185e-01 8.327206e-03 0.0
5.405687e-01 7.860477e-03 0.0
5.373788e-01 7.420619e-03 0.0
5.343419e-01 7.004832e-03 0.0
5.314516e-01 6.610251e-03 0.0
5.287022e-01 6.233947e-03 0.0
5.260885e-01 5.872923e-03 0.0
5.236064e-01 5.524105e-03 0.0
5.212523e-01 5.184318e-03 0.0
5.190237e-01 4.850262e-03 0.0
5.169188e-01 4.518469e-03 0.0
5.149372e-01 4.185294e-03 0.0
5.130795e-01 3.846914e-03 0.0
5.113474e-01 3.499364e-03 0.0
5.097441e-01 3.138657e-03 0.0
5.082744e-01 2.761078e-03 0.0
5.069448e-01 2.363827e-03 0.0
5.057641e-01 1.945994e-03 0.0
5.047434e-01 1.510329e-03 0.0
5.038985e-01 1.067406e-03 0.0
5.032484e-01 6.401662e-04 0.0
5.028149e-01 2.740573e-04 0.0
5.026032e-01 4.052694e-05 0.0
5.026030e-01 5.030839e-07 0.0
0.000000e+00 5.075594e-07 0.0
0.000000e+00 0.000000e+00 0.0
0.000000e+00 0.000000e+00 0.0
0.000000e+00 0.000000e+00 0.0
0.000000e+00 0.000000e+00 0.0
0.000000e+00 0.000000e+00 0.0
0.000000e+00 0.000000e+00 0.0
0.000000e+00 0.000000e+00 0.0
0.000000e+00 0.000000e+00 0.0
0.000000e+00 0.000000e+00 0.0
0.000000e+00 0.000000e+00 0.0
0.000000e+00 -4.361014e-02 0.0
-1.350600e-02 4.360878e-02 0.0
-3.553932e-02 8.433676e-02 0.0
-5.694664e-02 9.652131e-02 0.0
-7.478269e-02 9.612464e-02 0.0
-8.837154e-02 9.164975e-02 0.0
-9.746881e-02 8.613526e-02 0.0
-1.018081e-01 8.018614e-02 0.0
-1.008912e-01 7.337213e-02 0.0
-9.421942e-02 6.508328e-02 0.0
-8.008449e-02 5.284990e-02 0.0
-5.624568e-02 3.465684e-02 0.0
-1.558832e-02 3.085283e-03 0.0
4.635269e-02 -4.233702e-02 0.0
1.221926e-01 -9.693787e-02 0.0
2.054872e-01 -1.568017e-01 0.0
2.901459e-01 -2.151439e-01 0.0
3.716038e-01 -2.649407e-01 0.0
4.453750e-01 -3.019197e-01 0.0
5.091259e-01 -3.231531e-01 0.0
5.621324e-01 -3.274256e-01 0.0
6.042496e-01 -3.149803e-01 0.0
6.387814e-01 -2.907601e-01 0.0
6.678617e-01 -2.593338e-01 0.0
6.928306e-01 -2.244154e-01 0.0
7.144720e-01 -1.888176e-01 0.0
7.332224e-01 -1.545148e-01 0.0
7.493221e-01 -1.227488e-01 0.0
7.629192e-01 -9.420229e-02 0.0
7.741322e-01 -6.916714e-02 0.0
7.830873e-01 -4.768298e-02 0.0
7.899320e-01 -2.962598e-02 0.0
7.948317e-01 -1.477210e-02 0.0
7.979732e-01 -2.849160e-03 0.0
7.996667e-01 6.545909e-03 0.0
8.001243e-01 1.390291e-02 0.0
7.995108e-01 1.960726e-02 0.0
7.979655e-01 2.396576e-02 0.0
7.956126e-01 2.722688e-02 0.0
7.925664e-01 2.959355e-02 0.0
7.889252e-01 3.123041e-02 0.0
7.847752e-01 3.227317e-02 0.0
7.801720e-01 3.283072e-02 0.0
7.751871e-01 3.298160e-02 0.0
7.698970e-01 3.280217e-02 0.0
7.643700e-01 3.236370e-02 0.0
7.586668e-01 3.172238e-02 0.0
7.528408e-01 3.092346e-02 0.0
7.469402e-01 3.000462e-02 0.0
7.410080e-01 2.899806e-02 0.0
7.350817e-01 2.793121e-02 0.0
7.291929e-01 2.682671e-02 0.0
7.233678e-01 2.570303e-02 0.0
7.176287e-01 2.457541e-02 0.0
7.119942e-01 2.345642e-02 0.0
7.064793e-01 2.235618e-02 0.0
7.010960e-01 2.128258e-02 0.0
6.958531e-01 2.024156e-02 0.0
6.907572e-01 1.923748e-02 0.0
6.858129e-01 1.827334e-02 0.0
6.810228e-01 1.735102e-02 0.0
6.763884e-01 1.647143e-02 0.0
6.719095e-01 1.563471e-02 0.0
6.675852e-01 1.484030e-02 0.0
6.634136e-01 1.408710e-02 0.0
6.593922e-01 1.337353e-02 0.0
6.555180e-01 1.269769e-02 0.0
6.517878e-01 1.205737e-02 0.0
6.481982e-01 1.145012e-02 0.0
6.447456e-01 1.087326e-02 0.0
6.414264e-01 1.032396e-02 0.0
6.382375e-01 9.799216e-03 0.0
6.351756e-01 9.295851e-03 0.0
6.322380e-01 8.810546e-03 0.0
6.294223e-01 8.339820e-03 0.0
6.267266e-01 7.880015e-03 0.0
6.241496e-01 7.427252e-03 0.0
6.216907e-01 6.977375e-03 0.0
6.193501e-01 6.525931e-03 0.0
6.171288e-01 6.068158e-03 0.0
6.150292e-01 5.598989e-03 0.0
6.130547e-01 5.113113e-03 0.0
6.112107e-01 4.605155e-03 0.0
6.095045e-01 4.070053e-03 0.0
6.079467e-01 3.503727e-03 0.0
6.065527e-01 2.904332e-03 0.0
6.053454e-01 2.274788e-03 0.0
6.043590e-01 1.626526e-03 0.0
6.036461e-01 9.869300e-04 0.0
6.032764e-01 4.103060e-04 0.0
6.032762e-01 6.503986e-07 0.0
0.000000e+00 6.566443e-07 0.0
0.000000e+00 0.000000e+00 0.0
0.000000e+00 0.000000e+00 0.0
0.000000e+00 0.000000e+00 0.0
0.000000e+00 0.000000e+00 0.0
0.000000e+00 0.000000e+00 0.0
0.000000e+00 0.000000e+00 0.0
0.000000e+00 0.000000e+00 0.0
0.000000e+00 0.000000e+00 0.0
0.000000e+00 0.000000e+00 0.0
0.000000e+00 0.000000e+00 0.0
0.000000e+00 -5.675175e-02 0.0
-1.314521e-02 5.674984e-02 0.0
-3.053559e-02 1.017282e-01 0.0
-4.348184e-02 1.094712e-01 0.0
-5.066703e-02 1.033136e-01 0.0
-5.208737e-02 9.307091e-02 0.0
-4.780522e-02 8.184950e-02 0.0
-3.758741e-02 6.996204e-02 0.0
-2.002489e-02 5.580541e-02 0.0
6.374553e-03 3.868598e-02 0.0
4.615956e-02 1.307268e-02 0.0
1.045892e-01 -2.376563e-02 0.0
1.779769e-01 -7.030265e-02 0.0
2.607827e-01 -1.251510e-01 0.0
3.477361e-01 -1.839000e-01 0.0
4.326541e-01 -2.417212e-01 0.0
5.105483e-01 -2.930309e-01 0.0
5.784114e-01 -3.327954e-01 0.0
6.344702e-01 -3.579761e-01 0.0
6.784379e-01 -3.671262e-01 0.0
7.108251e-01 -3.598200e-01 0.0
7.349811e-01 -3.391385e-01 0.0
7.536926e-01 -3.094679e-01 0.0
7.688961e-01 -2.745323e-01 0.0
7.818078e-01 -2.373256e-01 0.0
7.931240e-01 -2.001362e-01 0.0
8.032059e-01 -1.645997e-01 0.0
8.121926e-01 -1.317359e-01 0.0
8.201029e-01 -1.021107e-01 0.0
8.269070e-01 -7.596977e-02 0.0
8.325815e-01 -5.335779e-02 0.0
8.371261e-01 -3.417202e-02 0.0
8.405538e-01 -1.820051e-02 0.0
8.428982e-01 -5.193050e-03 0.0
8.442942e-01 5.150992e-03 0.0
8.448501e-01 1.334768e-02 0.0
8.446564e-01 1.980070e-02 0.0
8.437954e-01 2.482567e-02 0.0
8.423452e-01 2.867623e-02 0.0
8.403793e-01 3.155959e-02 0.0
8.379650e-01 3.364599e-02 0.0
8.351626e-01 3.507650e-02 0.0
8.320247e-01 3.596819e-02 0.0
8.285879e-01 3.641708e-02 0.0
8.248910e-01 3.649854e-02 0.0
8.209756e-01 3.627984e-02 0.0
8.168804e-01 3.581853e-02 0.0
8.126415e-01 3.516239e-02 0.0
8.082930e-01 3.435244e-02 0.0
8.038663e-01 3.342435e-02 0.0
7.993888e-01 3.240892e-02 0.0
7.948842e-01 3.133167e-02 0.0
7.903734e-01 3.021400e-02 0.0
7.858746e-01 2.907398e-02 0.0
7.814042e-01 2.792671e-02 0.0
7.769758e-01 2.678451e-02 0.0
7.726012e-01 2.565726e-02 0.0
7.682901e-01 2.455274e-02 0.0
7.640507e-01 2.347696e-02 0.0
7.598896e-01 2.243438e-02 0.0
7.558124e-01 2.142818e-02 0.0
7.518233e-01 2.046045e-02 0.0
7.479258e-01 1.953229e-02 0.0
7.441221e-01 1.864400e-02 0.0
7.404140e-01 1.779519e-02 0.0
7.368026e-01 1.698494e-02 0.0
7.332885e-01 1.621183e-02 0.0
7.298718e-01 1.547406e-02 0.0
7.265524e-01 1.476950e-02 0.0
7.233300e-01 1.409569e-02 0.0
7.202041e-01 1.344993e-02 0.0
7.171740e-01 1.282926e-02 0.0
7.142394e-01 1.223050e-02 0.0
7.113997e-01 1.165022e-02 0.0
7.086548e-01 1.108475e-02 0.0
7.060046e-01 1.053021e-02 0.0
7.034494e-01 9.982410e-03 0.0
7.009901e-01 9.436730e-03 0.0
6.986279e-01 8.888152e-03 0.0
6.963648e-01 8.331202e-03 0.0
6.942039e-01 7.759910e-03 0.0
6.921493e-01 7.167787e-03 0.0
6.902066e-01 6.547837e-03 0.0
6.883840e-01 5.892651e-03 0.0
6.866931e-01 5.194596e-03 0.0
6.851512e-01 4.446221e-03 0.0
6.837850e-01 3.641078e-03 0.0
6.826364e-01 2.775077e-03 0.0
6.817734e-01 1.849958e-03 0.0
6.812978e-01 8.859399e-04 0.0
6.812977e-01 7.524973e-07 0.0
0.000000e+00 7.601188e-07 0.0
0.000000e+00 0.000000e+00 0.0
0.000000e+00 0.000000e+00 0.0
0.000000e+00 0.000000e+00 0.0
0.000000e+00 0.000000e+00 0.0
0.000000e+00 0.000000e+00 0.0
0.000000e+00 0.000000e+00 0.0
0.000000e+00 0.000000e+00 0.0
0.000000e+00 0.000000e+00 0.0
0.000000e+00 0.000000e+00 0.0
0.000000e+00 0.000000e+00 0.0
0.000000e+00 -7.039710e-02 0.0
-1.364917e-02 7.039469e-02 0.0
-2.291523e-02 1.109958e-01 0.0
-2.230348e-02 1.088628e-01 0.0
-1.383170e-02 9.484440e-02 0.0
1.886397e-03 7.735234e-02 0.0
2.497374e-02 5.875761e-02 0.0
5.572213e-02 3.920753e-02 0.0
9.775394e-02 1.377072e-02 0.0
1.559174e-01 -1.947368e-02 0.0
2.282998e-01 -5.930138e-02 0.0
3.105380e-01 -1.059985e-01 0.0
3.982701e-01 -1.580379e-01 0.0
4.860088e-01 -2.128992e-01 0.0
5.687835e-01 -2.666815e-01 0.0
6.422149e-01 -3.151503e-01 0.0
7.033775e-01 -3.541847e-01 0.0
7.511369e-01 -3.805480e-01 0.0
7.857049e-01 -3.925453e-01 0.0
8.081927e-01 -3.896210e-01 0.0
8.215161e-01 -3.731488e-01 0.0
8.291096e-01 -3.467314e-01 0.0
8.334611e-01 -3.138145e-01 0.0
8.362399e-01 -2.773073e-01 0.0
8.384534e-01 -2.395397e-01 0.0
8.406452e-01 -2.023312e-01 0.0
8.430708e-01 -1.670273e-01 0.0
8.457500e-01 -1.344143e-01 0.0
8.485761e-01 -1.049348e-01 0.0
8.513874e-01 -7.878034e-02 0.0
8.540341e-01 -5.600544e-02 0.0
8.563945e-01 -3.653368e-02 0.0
8.583515e-01 -2.015770e-02 0.0
8.598196e-01 -6.660319e-03 0.0
8.607668e-01 4.204697e-03 0.0
8.612038e-01 1.291101e-02 0.0
8.611534e-01 1.985038e-02 0.0
8.606500e-01 2.532802e-02 0.0
8.597350e-01 2.959089e-02 0.0
8.584525e-01 3.284283e-02 0.0
8.568461e-01 3.525359e-02 0.0
8.549571e-01 3.696571e-02 0.0
8.528246e-01 3.809972e-02 0.0
8.504831e-01 3.875766e-02 0.0
8.479567e-01 3.902506e-02 0.0
8.452672e-01 3.897022e-02 0.0
8.424377e-01 3.864853e-02 0.0
8.394914e-01 3.810834e-02 0.0
8.364508e-01 3.739240e-02 0.0
8.333368e-01 3.653831e-02 0.0
8.301668e-01 3.557926e-02 0.0
8.269563e-01 3.454250e-02 0.0
8.237189e-01 3.345133e-02 0.0
8.204671e-01 3.232557e-02 0.0
8.172119e-01 3.118178e-02 0.0
8.139629e-01 3.003359e-02 0.0
8.107282e-01 2.889203e-02 0.0
8.075151e-01 2.776595e-02 0.0
8.043298e-01 2.666230e-02 0.0
8.011777e-01 2.558640e-02 0.0
7.980636e-01 2.454221e-02 0.0
7.949916e-01 2.353245e-02 0.0
7.919651e-01 2.255882e-02 0.0
7.889870e-01 2.162211e-02 0.0
7.860598e-01 2.072242e-02 0.0
7.831856e-01 1.985918e-02 0.0
7.803661e-01 1.903134e-02 0.0
7.776028e-01 1.823737e-02 0.0
7.748969e-01 1.747534e-02 0.0
7.722496e-01 1.674299e-02 0.0
7.696618e-01 1.603772e-02 0.0
7.671345e-01 1.535665e-02 0.0
7.646684e-01 1.469661e-02 0.0
7.622645e-01 1.405413e-02 0.0
7.599238e-01 1.342543e-02 0.0
7.576475e-01 1.280652e-02 0.0
7.554368e-01 1.219307e-02 0.0
7.532934e-01 1.158014e-02 0.0
7.512193e-01 1.096227e-02 0.0
7.492171e-01 1.033346e-02 0.0
7.472900e-01 9.687010e-03 0.0
7.454423e-01 9.015440e-03 0.0
7.436799e-01 8.310304e-03 0.0
7.420105e-01 7.562006e-03 0.0
7.404456e-01 6.759483e-03 0.0
7.390022e-01 5.889703e-03 0.0
7.377064e-01 4.936822e-03 0.0
7.366007e-01 3.880757e-03 0.0
7.357545e-01 2.696169e-03 0.0
7.352767e-01 1.363751e-03 0.0
7.352767e-01 7.954056e-07 0.0
0.000000e+00 8.038593e-07 0.0
0.000000e+00 0.000000e+00 0.0
0.000000e+00 0.000000e+00 0.0
0.000000e+00 0.000000e+00 0.0
0.000000e+00 0.000000e+00 0.0
0.000000e+00 0.000000e+00 0.0
0.000000e+00 0.000000e+00 0.0
0.000000e+00 0.000000e+00 0.0
0.000000e+00 0.000000e+00 0.0
0.000000e+00 0.000000e+00 0.0
0.000000e+00 0.000000e+00 0.0
0.000000e+00 -8.412490e-02 0.0
-1.373169e-02 8.412217e-02 0.0
-5.680303e-03 1.029467e-01 0.0
1.885670e-02 8.432906e-02 0.0
5.211158e-02 6.159172e-02 0.0
9.299463e-02 3.646822e-02 0.0
1.442116e-01 7.535874e-03 0.0
2.087777e-01 -2.536424e-02 0.0
2.841762e-01 -6.162925e-02 0.0
3.669603e-01 -1.022525e-01 0.0
4.543459e-01 -1.466787e-01 0.0
5.423685e-01 -1.940178e-01 0.0
6.268195e-01 -2.424947e-01 0.0
7.035259e-01 -2.896154e-01 0.0
7.691092e-01 -3.322689e-01 0.0
8.212770e-01 -3.673128e-01 0.0
8.591512e-01 -3.920499e-01 0.0
8.832825e-01 -4.046755e-01 0.0
8.952229e-01 -4.044899e-01 0.0
8.974830e-01 -3.918881e-01 0.0
8.937865e-01 -3.694553e-01 0.0
8.869393e-01 -3.398813e-01 0.0
8.789875e-01 -3.058580e-01 0.0
8.712516e-01 -2.695695e-01 0.0
8.644751e-01 -2.327652e-01 0.0
8.590133e-01 -1.968722e-01 0.0
8.550034e-01 -1.630181e-01 0.0
8.523370e-01 -1.317465e-01 0.0
8.508066e-01 -1.034028e-01 0.0
8.501728e-01 -7.814650e-02 0.0
8.501758e-01 -5.600968e-02 0.0
8.505623e-01 -3.692107e-02 0.0
8.511294e-01 -2.072444e-02 0.0
8.517057e-01 -7.235655e-03 0.0
8.521530e-01 3.758049e-03 0.0
8.523847e-01 1.267912e-02 0.0
8.523619e-01 1.987226e-02 0.0
8.520750e-01 2.561419e-02 0.0
8.515318e-01 3.013428e-02 0.0
8.507499e-01 3.362571e-02 0.0
8.497516e-01 3.625258e-02 0.0
8.485617e-01 3.815529e-02 0.0
8.472058e-01 3.945465e-02 0.0
8.457086e-01 4.025447e-02 0.0
8.440908e-01 4.064339e-02 0.0
8.423656e-01 4.069605e-02 0.0
8.405464e-01 4.046789e-02 0.0
8.386474e-01 4.000677e-02 0.0
8.366830e-01 3.935645e-02 0.0
8.346657e-01 3.855578e-02 0.0
8.326065e-01 3.763879e-02 0.0
8.305147e-01 3.663440e-02 0.0
8.283986e-01 3.556733e-02 0.0
8.262655e-01 3.445848e-02 0.0
8.241219e-01 3.332532e-02 0.0
8.219734e-01 3.218224e-02 0.0
8.198245e-01 3.104096e-02 0.0
8.176796e-01 2.991091e-02 0.0
8.155423e-01 2.879955e-02 0.0
8.134160e-01 2.771264e-02 0.0
8.113037e-01 2.665451e-02 0.0
8.092080e-01 2.562819e-02 0.0
8.071312e-01 2.463566e-02 0.0
8.050754e-01 2.367796e-02 0.0
8.030424e-01 2.275539e-02 0.0
8.010340e-01 2.186760e-02 0.0
7.990516e-01 2.101366e-02 0.0
7.970968e-01 2.019218e-02 0.0
7.951708e-01 1.940134e-02 0.0
7.932749e-01 1.863894e-02 0.0
7.914102e-01 1.790244e-02 0.0
7.895778e-01 1.718900e-02 0.0
7.877790e-01 1.649542e-02 0.0
7.860150e-01 1.581818e-02 0.0
7.842870e-01 1.515340e-02 0.0
7.825965e-01 1.449704e-02 0.0
7.809448e-01 1.384477e-02 0.0
7.793336e-01 1.319130e-02 0.0
7.777650e-01 1.253087e-02 0.0
7.762414e-01 1.185707e-02 0.0
7.747658e-01 1.116266e-02 0.0
7.733419e-01 1.043936e-02 0.0
7.719746e-01 9.677547e-03 0.0
7.706708e-01 8.865806e-03 0.0
7.694401e-01 7.990183e-03 0.0
7.682969e-01 7.032918e-03 0.0
7.672635e-01 5.970230e-03 0.0
7.663757e-01 4.768547e-03 0.0
7.656921e-01 3.379788e-03 0.0
7.653045e-01 1.751428e-03 0.0
7.653045e-01 7.760891e-07 0.0
0.000000e+00 7.847697e-07 0.0
0.000000e+00 0.000000e+00 0.0
0.000000e+00 0.000000e+00 0.0
0.000000e+00 0.000000e+00 0.0
0.000000e+00 0.000000e+00 0.0
0.000000e+00 0.000000e+00 0.0
0.000000e+00 0.000000e+00 0.0
0.000000e+00 0.000000e+00 0.0
0.000000e+00 0.000000e+00 0.0
0.000000e+00 0.000000e+00 0.0
0.000000e+00 0.000000e+00 0.0
0.000000e+00 -7.896808e-02 0.0
5.153101e-03 7.896564e-02 0.0
5.423707e-02 5.386524e-02 0.0
1.182726e-01 2.029660e-02 0.0
1.921867e-01 -1.232064e-02 0.0
2.730109e-01 -4.435766e-02 0.0
3.575805e-01 -7.703882e-02 0.0
4.441923e-01 -1.119812e-01 0.0
5.316256e-01 -1.490625e-01 0.0
6.175288e-01 -1.881489e-01 0.0
6.993336e-01 -2.284758e-01 0.0
7.741752e-01 -2.688586e-01 0.0
8.392800e-01 -3.076073e-01 0.0
8.923075e-01 -3.426517e-01 0.0
9.317671e-01 -3.717293e-01 0.0