# vtk DataFile Version 3.0
Vector Field
ASCII
DATASET RECTILINEAR_GRID
DIMENSIONS 102 22 1
X_COORDINATES 102 double
0.000000 0.100000 0.200000 0.300000 0.400000 0.500000 0.600000 0.700000 0.800000 0.900000 1.000000 1.100000 1.200000 1.300000 1.400000 1.500000 1.600000 1.700000 1.800000 1.900000 2.000000 2.100000 2.200000 2.300000 2.400000 2.500000 2.600000 2.700000 2.800000 2.900000 3.000000 3.100000 3.200000 3.300000 3.400000 3.500000 3.600000 3.700000 3.800000 3.900000 4.000000 4.100000 4.200000 4.300000 4.400000 4.500000 4.600000 4.700000 4.800000 4.900000 5.000000 5.100000 5.200000 5.300000 5.400000 5.500000 5.600000 5.700000 5.800000 5.900000 6.000000 6.100000 6.200000 6.300000 6.400000 6.500000 6.600000 6.700000 6.800000 6.900000 7.000000 7.100000 7.200000 7.300000 7.400000 7.500000 7.600000 7.700000 7.800000 7.900000 8.000000 8.100000 8.200000 8.300000 8.400000 8.500000 8.600000 8.700000 8.800000 8.900000 9.000000 9.100000 9.200000 9.300000 9.400000 9.500000 9.600000 9.700000 9.800000 9.900000 10.000000 10.100000 
Y_COORDINATES 22 double
0.000000 0.100000 0.200000 0.300000 0.400000 0.500000 0.600000 0.700000 0.800000 0.900000 1.000000 1.100000 1.200000 1.300000 1.400000 1.500000 1.600000 1.700000 1.800000 1.900000 2.000000 2.100000 
Z_COORDINATES 1 double
0.0
POINT_DATA 2244
VECTORS Velocity double
0.000000e+00 0.000000e+00 0.0
-0.000000e+00 0.000000e+00 0.0
-0.000000e+00 0.000000e+00 0.0
-0.000000e+00 0.000000e+00 0.0
-0.000000e+00 0.000000e+00 0.0
-0.000000e+00 0.000000e+00 0.0
-0.000000e+00 0.000000e+00 0.0
-0.000000e+00 0.000000e+00 0.0
-0.000000e+00 0.000000e+00 0.0
-0.000000e+00 0.000000e+00 0.0
-0.000000e+00 0.000000e+00 0.0
5.093183e-04 0.000000e+00 0.0
4.879854e-03 0.000000e+00 0.0
1.165112e-02 0.000000e+00 0.0
1.962864e-02 0.000000e+00 0.0
2.841637e-02 0.000000e+00 0.0
3.810069e-02 0.000000e+00 0.0
4.896922e-02 0.000000e+00 0.0
6.137697e-02 0.000000e+00 0.0
7.567591e-02 0.000000e+00 0.0
9.213748e-02 0.000000e+00 0.0
1.108449e-01 0.000000e+00 0.0
1.315262e-01 0.000000e+00 0.0
1.533722e-01 0.000000e+00 0.0
1.748002e-01 0.000000e+00 0.0
1.931141e-01 0.000000e+00 0.0
2.048289e-01 0.000000e+00 0.0
2.059946e-01 0.000000e+00 0.0
1.934917e-01 0.000000e+00 0.0
1.663709e-01 0.000000e+00 0.0
1.262557e-01 0.000000e+00 0.0
7.717178e-02 0.000000e+00 0.0
2.187298e-02 0.000000e+00 0.0
-3.289589e-02 0.000000e+00 0.0
-7.985339e-02 0.000000e+00 0.0
-1.170020e-01 0.000000e+00 0.0
-1.445402e-01 0.000000e+00 0.0
-1.635838e-01 0.000000e+00 0.0
-1.755817e-01 0.000000e+00 0.0
-1.820323e-01 0.000000e+00 0.0
-1.843515e-01 0.000000e+00 0.0
-1.838124e-01 0.000000e+00 0.0
-1.811720e-01 0.000000e+00 0.0
-1.769825e-01 0.000000e+00 0.0
-1.718068e-01 0.000000e+00 0.0
-1.661107e-01 0.000000e+00 0.0
-1.602447e-01 0.000000e+00 0.0
-1.544447e-01 0.000000e+00 0.0
-1.488490e-01 0.000000e+00 0.0
-1.435456e-01 0.000000e+00 0.0
-1.385776e-01 0.000000e+00 0.0
-1.339615e-01 0.000000e+00 0.0
-1.296962e-01 0.000000e+00 0.0
-1.257708e-01 0.000000e+00 0.0
-1.221681e-01 0.000000e+00 0.0
-1.188683e-01 0.000000e+00 0.0
-1.158504e-01 0.000000e+00 0.0
-1.130937e-01 0.000000e+00 0.0
-1.105779e-01 0.000000e+00 0.0
-1.082836e-01 0.000000e+00 0.0
-1.061926e-01 0.000000e+00 0.0
-1.042875e-01 0.000000e+00 0.0
-1.025522e-01 0.000000e+00 0.0
-1.009717e-01 0.000000e+00 0.0
-9.953196e-02 0.000000e+00 0.0
-9.822008e-02 0.000000e+00 0.0
-9.702411e-02 0.000000e+00 0.0
-9.593308e-02 0.000000e+00 0.0
-9.493695e-02 0.000000e+00 0.0
-9.402657e-02 0.000000e+00 0.0
-9.319364e-02 0.000000e+00 0.0
-9.243064e-02 0.000000e+00 0.0
-9.173080e-02 0.000000e+00 0.0
-9.108806e-02 0.000000e+00 0.0
-9.049700e-02 0.000000e+00 0.0
-8.995282e-02 0.000000e+00 0.0
-8.945131e-02 0.000000e+00 0.0
-8.898878e-02 0.000000e+00 0.0
-8.856206e-02 0.000000e+00 0.0
-8.816847e-02 0.000000e+00 0.0
-8.780576e-02 0.000000e+00 0.0
-8.747214e-02 0.000000e+00 0.0
-8.716624e-02 0.000000e+00 0.0
-8.688713e-02 0.000000e+00 0.0
-8.663428e-02 0.000000e+00 0.0
-8.640758e-02 0.000000e+00 0.0
-8.620736e-02 0.000000e+00 0.0
-8.603436e-02 0.000000e+00 0.0
-8.588978e-02 0.000000e+00 0.0
-8.577532e-02 0.000000e+00 0.0
-8.569319e-02 0.000000e+00 0.0
-8.564625e-02 0.000000e+00 0.0
-8.563820e-02 0.000000e+00 0.0
-8.567199e-02 0.000000e+00 0.0
-8.574576e-02 0.000000e+00 0.0
-8.585320e-02 0.000000e+00 0.0
-8.598804e-02 0.000000e+00 0.0
-8.613907e-02 0.000000e+00 0.0
-8.628466e-02 0.000000e+00 0.0
-8.638103e-02 0.000000e+00 0.0
-8.638103e-02 0.000000e+00 0.0
0.000000e+00 0.000000e+00 0.0
0.000000e+00 0.000000e+00 0.0
0.000000e+00 0.000000e+00 0.0
0.000000e+00 0.000000e+00 0.0
0.000000e+00 0.000000e+00 0.0
0.000000e+00 0.000000e+00 0.0
0.000000e+00 0.000000e+00 0.0
0.000000e+00 0.000000e+00 0.0
0.000000e+00 0.000000e+00 0.0
0.000000e+00 0.000000e+00 0.0
0.000000e+00 0.000000e+00 0.0
0.000000e+00 -5.257500e-04 0.0
-5.248501e-04 5.194558e-04 0.0
-4.903450e-03 4.371151e-03 0.0
-1.166590e-02 6.764768e-03 0.0
-1.962604e-02 7.971837e-03 0.0
-2.840145e-02 8.789417e-03 0.0
-3.808618e-02 9.693590e-03 0.0
-4.896518e-02 1.088026e-02 0.0
-6.138439e-02 1.241591e-02 0.0
-7.568828e-02 1.430094e-02 0.0
-9.214742e-02 1.645963e-02 0.0
-1.108492e-01 1.870550e-02 0.0
-1.315267e-01 2.068199e-02 0.0
-1.533726e-01 2.184951e-02 0.0
-1.748029e-01 2.143250e-02 0.0
-1.931186e-01 1.831706e-02 0.0
-2.048332e-01 1.171584e-02 0.0
-2.059971e-01 1.164452e-03 0.0
-1.934915e-01 -1.250579e-02 0.0
-1.663681e-01 -2.712435e-02 0.0
-1.262499e-01 -4.011894e-02 0.0
-7.716234e-02 -4.908689e-02 0.0
-2.185935e-02 -5.530060e-02 0.0
3.291102e-02 -5.476725e-02 0.0
7.986717e-02 -4.695358e-02 0.0
1.170124e-01 -3.714373e-02 0.0
1.445470e-01 -2.753378e-02 0.0
1.635882e-01 -1.904014e-02 0.0
1.755853e-01 -1.199544e-02 0.0
1.820357e-01 -6.448142e-03 0.0
1.843548e-01 -2.316493e-03 0.0
1.838153e-01 5.422548e-04 0.0
1.811741e-01 2.643797e-03 0.0
1.769837e-01 4.192669e-03 0.0
1.718072e-01 5.178487e-03 0.0
1.661105e-01 5.698447e-03 0.0
1.602444e-01 5.868041e-03 0.0
1.544446e-01 5.801878e-03 0.0
1.488492e-01 5.597609e-03 0.0
1.435459e-01 5.305427e-03 0.0
1.385779e-01 4.970152e-03 0.0
1.339617e-01 4.618335e-03 0.0
1.296964e-01 4.267328e-03 0.0
1.257709e-01 3.927500e-03 0.0
1.221681e-01 3.604665e-03 0.0
1.188683e-01 3.301717e-03 0.0
1.158506e-01 3.019717e-03 0.0
1.130940e-01 2.758620e-03 0.0
1.105783e-01 2.517773e-03 0.0
1.082840e-01 2.296251e-03 0.0
1.061930e-01 2.093028e-03 0.0
1.042879e-01 1.907041e-03 0.0
1.025526e-01 1.737210e-03 0.0
1.009722e-01 1.582443e-03 0.0
9.953248e-02 1.441662e-03 0.0
9.822064e-02 1.313822e-03 0.0
9.702470e-02 1.197917e-03 0.0
9.593370e-02 1.092978e-03 0.0
9.493760e-02 9.980768e-04 0.0
9.402725e-02 9.123245e-04 0.0
9.319435e-02 8.348796e-04 0.0
9.243138e-02 7.649483e-04 0.0
9.173158e-02 7.017847e-04 0.0
9.108887e-02 6.446893e-04 0.0
9.049784e-02 5.930076e-04 0.0
8.995371e-02 5.461265e-04 0.0
8.945224e-02 5.034703e-04 0.0
8.898976e-02 4.644960e-04 0.0
8.856308e-02 4.286911e-04 0.0
8.816950e-02 3.955720e-04 0.0
8.780681e-02 3.646812e-04 0.0
8.747322e-02 3.355820e-04 0.0
8.716736e-02 3.078506e-04 0.0
8.688830e-02 2.810681e-04 0.0
8.663549e-02 2.548157e-04 0.0
8.640884e-02 2.286713e-04 0.0
8.620866e-02 2.022076e-04 0.0
8.603568e-02 1.749875e-04 0.0
8.589114e-02 1.465592e-04 0.0
8.577670e-02 1.164460e-04 0.0
8.569459e-02 8.411630e-05 0.0
8.564769e-02 4.891069e-05 0.0
8.563967e-02 1.002438e-05 0.0
8.567348e-02 -3.180459e-05 0.0
8.574728e-02 -7.178231e-05 0.0
8.585473e-02 -1.054400e-04 0.0
8.598957e-02 -1.328368e-04 0.0
8.614061e-02 -1.490334e-04 0.0
8.628620e-02 -1.435927e-04 0.0
8.638257e-02 -9.437648e-05 0.0
8.638103e-02 3.534343e-06 0.0
0.000000e+00 3.572883e-06 0.0
0.000000e+00 0.000000e+00 0.0
0.000000e+00 0.000000e+00 0.0
0.000000e+00 0.000000e+00 0.0
0.000000e+00 0.000000e+00 0.0
0.000000e+00 0.000000e+00 0.0
0.000000e+00 0.000000e+00 0.0
0.000000e+00 0.000000e+00 0.0
0.000000e+00 0.000000e+00 0.0
0.000000e+00 0.000000e+00 0.0
0.000000e+00 0.000000e+00 0.0
0.000000e+00 -6.337394e-03 0.0
-5.816505e-03 6.326693e-03 0.0
-1.942039e-02 1.797848e-02 0.0
-3.728639e-02 2.464037e-02 0.0
-5.727790e-02 2.797146e-02 0.0
-7.858227e-02 3.009542e-02 0.0
-1.011091e-01 3.221605e-02 0.0
-1.249889e-01 3.475429e-02 0.0
-1.502978e-01 3.772202e-02 0.0
-1.768867e-01 4.089119e-02 0.0
-2.042302e-01 4.380664e-02 0.0
-2.313105e-01 4.578880e-02 0.0
-2.564459e-01 4.581864e-02 0.0
-2.771983e-01 4.260181e-02 0.0
-2.904420e-01 3.467539e-02 0.0
-2.923704e-01 2.024571e-02 0.0
-2.783217e-01 -2.332973e-03 0.0
-2.455081e-01 -3.164939e-02 0.0
-1.950892e-01 -6.292537e-02 0.0
-1.299518e-01 -9.226228e-02 0.0
-5.269188e-02 -1.173779e-01 0.0
3.160757e-02 -1.333845e-01 0.0
1.121277e-01 -1.358190e-01 0.0
1.835773e-01 -1.262161e-01 0.0
2.459596e-01 -1.093361e-01 0.0
2.984833e-01 -8.966803e-02 0.0
3.410562e-01 -7.010667e-02 0.0
3.742165e-01 -5.219984e-02 0.0
3.988685e-01 -3.664635e-02 0.0
4.160856e-01 -2.366413e-02 0.0
4.269801e-01 -1.321011e-02 0.0
4.326140e-01 -5.090991e-03 0.0
4.342706e-01 9.875596e-04 0.0
4.328095e-01 5.653934e-03 0.0
4.289089e-01 9.079354e-03 0.0
4.231579e-01 1.144995e-02 0.0
4.160432e-01 1.298335e-02 0.0
4.079784e-01 1.386741e-02 0.0
3.993376e-01 1.423902e-02 0.0
3.904265e-01 1.421705e-02 0.0
3.814611e-01 1.393609e-02 0.0
3.726048e-01 1.347512e-02 0.0
3.639744e-01 1.289825e-02 0.0
3.556507e-01 1.225157e-02 0.0
3.476874e-01 1.156842e-02 0.0
3.401171e-01 1.087253e-02 0.0
3.329570e-01 1.018046e-02 0.0
3.262126e-01 9.503620e-03 0.0
3.198811e-01 8.849766e-03 0.0
3.139537e-01 8.224092e-03 0.0
3.084173e-01 7.629947e-03 0.0
3.032555e-01 7.069301e-03 0.0
2.984502e-01 6.543071e-03 0.0
2.939818e-01 6.051383e-03 0.0
2.898302e-01 5.593774e-03 0.0
2.859752e-01 5.169337e-03 0.0
2.823968e-01 4.776835e-03 0.0
2.790755e-01 4.414789e-03 0.0
2.759926e-01 4.081547e-03 0.0
2.731300e-01 3.775353e-03 0.0
2.704710e-01 3.494392e-03 0.0
2.679997e-01 3.236832e-03 0.0
2.657011e-01 3.000847e-03 0.0
2.635617e-01 2.784643e-03 0.0
2.615688e-01 2.586470e-03 0.0
2.597108e-01 2.404632e-03 0.0
2.579773e-01 2.237490e-03 0.0
2.563589e-01 2.083463e-03 0.0
2.548470e-01 1.941029e-03 0.0
2.534344e-01 1.808723e-03 0.0
2.521145e-01 1.685129e-03 0.0
2.508817e-01 1.568875e-03 0.0
2.497314e-01 1.458612e-03 0.0
2.486600e-01 1.353007e-03 0.0
2.476647e-01 1.250730e-03 0.0
2.467434e-01 1.150443e-03 0.0
2.458954e-01 1.050786e-03 0.0
2.451205e-01 9.503684e-04 0.0
2.444198e-01 8.477574e-04 0.0
2.437953e-01 7.414826e-04 0.0
2.432499e-01 6.300454e-04 0.0
2.427874e-01 5.119658e-04 0.0
2.424119e-01 3.860250e-04 0.0
2.421283e-01 2.523664e-04 0.0
2.419432e-01 1.137735e-04 0.0
2.418638e-01 -2.544474e-05 0.0
2.418813e-01 -1.498675e-04 0.0
2.419696e-01 -2.368191e-04 0.0
2.420885e-01 -2.619310e-04 0.0
2.421824e-01 -1.877267e-04 0.0
2.421779e-01 8.503869e-06 0.0
0.000000e+00 8.593493e-06 0.0
0.000000e+00 0.000000e+00 0.0
0.000000e+00 0.000000e+00 0.0
0.000000e+00 0.000000e+00 0.0
0.000000e+00 0.000000e+00 0.0
0.000000e+00 0.000000e+00 0.0
0.000000e+00 0.000000e+00 0.0
0.000000e+00 0.000000e+00 0.0
0.000000e+00 0.000000e+00 0.0
0.000000e+00 0.000000e+00 0.0
0.000000e+00 0.000000e+00 0.0
0.000000e+00 -1.694429e-02 0.0
-1.061390e-02 1.693375e-02 0.0
-3.132673e-02 3.869805e-02 0.0
-5.599961e-02 4.932163e-02 0.0
-8.169724e-02 5.367318e-02 0.0
-1.073181e-01 5.571403e-02 0.0
-1.324953e-01 5.738784e-02 0.0
-1.569921e-01 5.924707e-02 0.0
-1.804552e-01 6.118481e-02 0.0
-2.022841e-01 6.272303e-02 0.0
-2.214908e-01 6.301699e-02 0.0
-2.367356e-01 6.103539e-02 0.0
-2.462024e-01 5.528584e-02 0.0
-2.474250e-01 4.382358e-02 0.0
-2.366198e-01 2.387016e-02 0.0
-2.073315e-01 -9.042383e-03 0.0
-1.593496e-01 -5.031499e-02 0.0
-9.398526e-02 -9.701415e-02 0.0
-1.446514e-02 -1.424461e-01 0.0
7.236393e-02 -1.790910e-01 0.0
1.570575e-01 -2.020700e-01 0.0
2.348834e-01 -2.112086e-01 0.0
3.036105e-01 -2.045449e-01 0.0
3.636873e-01 -1.862929e-01 0.0
4.160352e-01 -1.616846e-01 0.0
4.610808e-01 -1.347139e-01 0.0
4.990614e-01 -1.080868e-01 0.0
5.302777e-01 -8.341519e-02 0.0
5.551563e-01 -6.152383e-02 0.0
5.742240e-01 -4.273091e-02 0.0
5.880651e-01 -2.705048e-02 0.0
5.972927e-01 -1.431817e-02 0.0
6.025482e-01 -4.267723e-03 0.0
6.047479e-01 3.454463e-03 0.0
6.044061e-01 9.421476e-03 0.0
6.019760e-01 1.388070e-02 0.0
5.978537e-01 1.710641e-02 0.0
5.923799e-01 1.934180e-02 0.0
5.858290e-01 2.079045e-02 0.0
5.784158e-01 2.163074e-02 0.0
5.703860e-01 2.196639e-02 0.0
5.619589e-01 2.190277e-02 0.0
5.533073e-01 2.155026e-02 0.0
5.445718e-01 2.098752e-02 0.0
5.358645e-01 2.027622e-02 0.0
5.272738e-01 1.946381e-02 0.0
5.188683e-01 1.858650e-02 0.0
5.107005e-01 1.767199e-02 0.0
5.028091e-01 1.674164e-02 0.0
4.952217e-01 1.581200e-02 0.0
4.879563e-01 1.489581e-02 0.0
4.810234e-01 1.400275e-02 0.0
4.744270e-01 1.314004e-02 0.0
4.681660e-01 1.231286e-02 0.0
4.622355e-01 1.152477e-02 0.0
4.566274e-01 1.077796e-02 0.0
4.513312e-01 1.007356e-02 0.0
4.463347e-01 9.411761e-03 0.0
4.416247e-01 8.792077e-03 0.0
4.371871e-01 8.213455e-03 0.0
4.330076e-01 7.674424e-03 0.0
4.290718e-01 7.173189e-03 0.0
4.253654e-01 6.707728e-03 0.0
4.218747e-01 6.275858e-03 0.0
4.185864e-01 5.875293e-03 0.0
4.154879e-01 5.503685e-03 0.0
4.125673e-01 5.158654e-03 0.0
4.098134e-01 4.837817e-03 0.0
4.072162e-01 4.538797e-03 0.0
4.047662e-01 4.259242e-03 0.0
4.024550e-01 3.996823e-03 0.0
4.002752e-01 3.749223e-03 0.0
3.982202e-01 3.514130e-03 0.0
3.962845e-01 3.289228e-03 0.0
3.944636e-01 3.072179e-03 0.0
3.927539e-01 2.860609e-03 0.0
3.911532e-01 2.652086e-03 0.0
3.896600e-01 2.444093e-03 0.0
3.882742e-01 2.234025e-03 0.0
3.869970e-01 2.019191e-03 0.0
3.858307e-01 1.796858e-03 0.0
3.847789e-01 1.564364e-03 0.0
3.838460e-01 1.319449e-03 0.0
3.830378e-01 1.061084e-03 0.0
3.823614e-01 7.906642e-04 0.0
3.818232e-01 5.133510e-04 0.0
3.814298e-01 2.440077e-04 0.0
3.811841e-01 9.443384e-06 0.0
3.810652e-01 -1.425223e-04 0.0
3.810341e-01 -1.561243e-04 0.0
3.810276e-01 1.549910e-05 0.0
0.000000e+00 1.566166e-05 0.0
0.000000e+00 0.000000e+00 0.0
0.000000e+00 0.000000e+00 0.0
0.000000e+00 0.000000e+00 0.0
0.000000e+00 0.000000e+00 0.0
0.000000e+00 0.000000e+00 0.0
0.000000e+00 0.000000e+00 0.0
0.000000e+00 0.000000e+00 0.0
0.000000e+00 0.000000e+00 0.0
0.000000e+00 0.000000e+00 0.0
0.000000e+00 0.000000e+00 0.0
0.000000e+00 -3.006985e-02 0.0
-1.313145e-02 3.006105e-02 0.0
-3.663832e-02 6.221298e-02 0.0
-6.230105e-02 7.499051e-02 0.0
-8.676334e-02 7.813544e-02 0.0
-1.089371e-01 7.788250e-02 0.0
-1.283976e-01 7.684233e-02 0.0
-1.447981e-01 7.564490e-02 0.0
-1.577036e-01 7.409169e-02 0.0
-1.665563e-01 7.157903e-02 0.0
-1.703968e-01 6.686009e-02 0.0
-1.678355e-01 5.847485e-02 0.0
-1.564380e-01 4.388787e-02 0.0
-1.327068e-01 2.009168e-02 0.0
-8.863404e-02 -2.020239e-02 0.0
-2.541157e-02 -7.226465e-02 0.0
5.334774e-02 -1.290744e-01 0.0
1.383476e-01 -1.820146e-01 0.0
2.226897e-01 -2.267885e-01 0.0
3.019191e-01 -2.583194e-01 0.0
3.735432e-01 -2.736924e-01 0.0
4.349372e-01 -2.726010e-01 0.0
4.867380e-01 -2.563453e-01 0.0
5.310871e-01 -2.306426e-01 0.0
5.694076e-01 -2.000056e-01 0.0
6.025149e-01 -1.678210e-01 0.0
6.308637e-01 -1.364346e-01 0.0
6.547558e-01 -1.073061e-01 0.0
6.744575e-01 -8.122452e-02 0.0
6.902465e-01 -5.851917e-02 0.0
7.024245e-01 -3.922800e-02 0.0
7.113193e-01 -2.321272e-02 0.0
7.172883e-01 -1.023661e-02 0.0
7.207521e-01 -8.988808e-06 0.0
7.221840e-01 7.990113e-03 0.0
7.219099e-01 1.415552e-02 0.0
7.201905e-01 1.882656e-02 0.0
7.172472e-01 2.228564e-02 0.0
7.132718e-01 2.476627e-02 0.0
7.084411e-01 2.646195e-02 0.0
7.028865e-01 2.752150e-02 0.0
6.967184e-01 2.807139e-02 0.0
6.900781e-01 2.819097e-02 0.0
6.830925e-01 2.797358e-02 0.0
6.758698e-01 2.749944e-02 0.0
6.685026e-01 2.683168e-02 0.0
6.610696e-01 2.602008e-02 0.0
6.536377e-01 2.510434e-02 0.0
6.462632e-01 2.411663e-02 0.0
6.389924e-01 2.308321e-02 0.0
6.318632e-01 2.202553e-02 0.0
6.249056e-01 2.096096e-02 0.0
6.181426e-01 1.990349e-02 0.0
6.115918e-01 1.886420e-02 0.0
6.052653e-01 1.785175e-02 0.0
5.991711e-01 1.687268e-02 0.0
5.933135e-01 1.593176e-02 0.0
5.876935e-01 1.503226e-02 0.0
5.823099e-01 1.417619e-02 0.0
5.771593e-01 1.336453e-02 0.0
5.722369e-01 1.259740e-02 0.0
5.675363e-01 1.187422e-02 0.0
5.630507e-01 1.119387e-02 0.0
5.587723e-01 1.055478e-02 0.0
5.546931e-01 9.955037e-03 0.0
5.508049e-01 9.392469e-03 0.0
5.470994e-01 8.864689e-03 0.0
5.435685e-01 8.369160e-03 0.0
5.402046e-01 7.903233e-03 0.0
5.370002e-01 7.464176e-03 0.0
5.339483e-01 7.049181e-03 0.0
5.310427e-01 6.655375e-03 0.0
5.282776e-01 6.279814e-03 0.0
5.256479e-01 5.919483e-03 0.0
5.231493e-01 5.571287e-03 0.0
5.207784e-01 5.232028e-03 0.0
5.185326e-01 4.898377e-03 0.0
5.164104e-01 4.566834e-03 0.0
5.144112e-01 4.233718e-03 0.0
5.125358e-01 3.895171e-03 0.0
5.107860e-01 3.547187e-03 0.0
5.091651e-01 3.185732e-03 0.0
5.076781e-01 2.807030e-03 0.0
5.063315e-01 2.408200e-03 0.0
5.051344e-01 1.988301e-03 0.0
5.040982e-01 1.550071e-03 0.0
5.032387e-01 1.104020e-03 0.0
5.025754e-01 6.732402e-04 0.0
5.021304e-01 3.030387e-04 0.0
5.019092e-01 6.561100e-05 0.0
5.019020e-01 2.325890e-05 0.0
0.000000e+00 2.350301e-05 0.0
0.000000e+00 0.000000e+00 0.0
0.000000e+00 0.000000e+00 0.0
0.000000e+00 0.000000e+00 0.0
0.000000e+00 0.000000e+00 0.0
0.000000e+00 0.000000e+00 0.0
0.000000e+00 0.000000e+00 0.0
0.000000e+00 0.000000e+00 0.0
0.000000e+00 0.000000e+00 0.0
0.000000e+00 0.000000e+00 0.0
0.000000e+00 0.000000e+00 0.0
0.000000e+00 -4.356694e-02 0.0
-1.350054e-02 4.355989e-02 0.0
-3.552147e-02 8.424129e-02 0.0
-5.692502e-02 9.639787e-02 0.0
-7.477081e-02 9.597919e-02 0.0
-8.838038e-02 9.148689e-02 0.0
-9.750689e-02 8.596502e-02 0.0
-1.018856e-01 8.002351e-02 0.0
-1.010246e-01 7.323374e-02 0.0
-9.443642e-02 6.499456e-02 0.0
-8.043185e-02 5.285741e-02 0.0
-5.681203e-02 3.485501e-02 0.0
-1.653351e-02 3.608326e-03 0.0
4.505963e-02 -4.150192e-02 0.0
1.206300e-01 -9.577234e-02 0.0
2.037579e-01 -1.553923e-01 0.0
2.883371e-01 -2.136537e-01 0.0
3.698384e-01 -2.635164e-01 0.0
4.437576e-01 -3.007074e-01 0.0
5.077192e-01 -3.222796e-01 0.0
5.609978e-01 -3.269693e-01 0.0
6.033105e-01 -3.149128e-01 0.0
6.379711e-01 -2.910061e-01 0.0
6.671349e-01 -2.598071e-01 0.0
6.921633e-01 -2.250342e-01 0.0
7.138538e-01 -1.895108e-01 0.0
7.326486e-01 -1.552282e-01 0.0
7.487887e-01 -1.234451e-01 0.0
7.624231e-01 -9.485812e-02 0.0
7.736724e-01 -6.976796e-02 0.0
7.826639e-01 -4.821924e-02 0.0
7.895447e-01 -3.009330e-02 0.0
7.944779e-01 -1.516956e-02 0.0
7.976473e-01 -3.177952e-03 0.0
7.993655e-01 6.272680e-03 0.0
7.998449e-01 1.367681e-02 0.0
7.992512e-01 1.942090e-02 0.0
7.977241e-01 2.381321e-02 0.0
7.953875e-01 2.710325e-02 0.0
7.923554e-01 2.949459e-02 0.0
7.887255e-01 3.115196e-02 0.0
7.845852e-01 3.221212e-02 0.0
7.799919e-01 3.278464e-02 0.0
7.750164e-01 3.294966e-02 0.0
7.697339e-01 3.278248e-02 0.0
7.642121e-01 3.235412e-02 0.0
7.585117e-01 3.172096e-02 0.0
7.526875e-01 3.092902e-02 0.0
7.467880e-01 3.001655e-02 0.0
7.408560e-01 2.901576e-02 0.0
7.349283e-01 2.795378e-02 0.0
7.290365e-01 2.685324e-02 0.0
7.232076e-01 2.573291e-02 0.0
7.174641e-01 2.460829e-02 0.0
7.118243e-01 2.349198e-02 0.0
7.063035e-01 2.239408e-02 0.0
7.009132e-01 2.132249e-02 0.0
6.956628e-01 2.028325e-02 0.0
6.905587e-01 1.928077e-02 0.0
6.856056e-01 1.831814e-02 0.0
6.808063e-01 1.739725e-02 0.0
6.761620e-01 1.651905e-02 0.0
6.716727e-01 1.568366e-02 0.0
6.673374e-01 1.489055e-02 0.0
6.631544e-01 1.413863e-02 0.0
6.591210e-01 1.342636e-02 0.0
6.552344e-01 1.275183e-02 0.0
6.514912e-01 1.211282e-02 0.0
6.478881e-01 1.150687e-02 0.0
6.444215e-01 1.093131e-02 0.0
6.410879e-01 1.038331e-02 0.0
6.378840e-01 9.859829e-03 0.0
6.348066e-01 9.357691e-03 0.0
6.318531e-01 8.873549e-03 0.0
6.290210e-01 8.403900e-03 0.0
6.263085e-01 7.945061e-03 0.0
6.237143e-01 7.493113e-03 0.0
6.212378e-01 7.043857e-03 0.0
6.188792e-01 6.592794e-03 0.0
6.166398e-01 6.135108e-03 0.0
6.145219e-01 5.665673e-03 0.0
6.125290e-01 5.179109e-03 0.0
6.106666e-01 4.669954e-03 0.0
6.089423e-01 4.133053e-03 0.0
6.073669e-01 3.564240e-03 0.0
6.059559e-01 2.961589e-03 0.0
6.047325e-01 2.327927e-03 0.0
6.037316e-01 1.674664e-03 0.0
6.030061e-01 1.029140e-03 0.0
6.026261e-01 4.460814e-04 0.0
6.026192e-01 3.066960e-05 0.0
0.000000e+00 3.099168e-05 0.0
0.000000e+00 0.000000e+00 0.0
0.000000e+00 0.000000e+00 0.0
0.000000e+00 0.000000e+00 0.0
0.000000e+00 0.000000e+00 0.0
0.000000e+00 0.000000e+00 0.0
0.000000e+00 0.000000e+00 0.0
0.000000e+00 0.000000e+00 0.0
0.000000e+00 0.000000e+00 0.0
0.000000e+00 0.000000e+00 0.0
0.000000e+00 0.000000e+00 0.0
0.000000e+00 -5.671268e-02 0.0
-1.314637e-02 5.670730e-02 0.0
-3.054273e-02 1.016450e-01 0.0
-4.350934e-02 1.093666e-01 0.0
-5.072937e-02 1.031957e-01 0.0
-5.219580e-02 9.294801e-02 0.0
-4.796842e-02 8.173482e-02 0.0
-3.782185e-02 6.987820e-02 0.0
-2.036008e-02 5.577570e-02 0.0
5.873297e-03 3.876466e-02 0.0
4.540128e-02 1.333072e-02 0.0
1.035221e-01 -2.326638e-02 0.0
1.766519e-01 -6.952250e-02 0.0
2.592516e-01 -1.241017e-01 0.0
3.461035e-01 -1.826237e-01 0.0
4.310306e-01 -2.403192e-01 0.0
5.090218e-01 -2.916454e-01 0.0
5.770643e-01 -3.315591e-01 0.0
6.333590e-01 -3.570013e-01 0.0
6.775802e-01 -3.664992e-01 0.0
7.102084e-01 -3.595961e-01 0.0
7.345354e-01 -3.392395e-01 0.0
7.533517e-01 -3.098231e-01 0.0
7.686150e-01 -2.750710e-01 0.0
7.815619e-01 -2.379807e-01 0.0
7.929000e-01 -2.008479e-01 0.0
8.029963e-01 -1.653233e-01 0.0
8.119925e-01 -1.324405e-01 0.0
8.199108e-01 -1.027758e-01 0.0
8.267250e-01 -7.658178e-02 0.0
8.324116e-01 -5.390560e-02 0.0
8.369702e-01 -3.465168e-02 0.0
8.404124e-01 -1.861146e-02 0.0
8.427724e-01 -5.537369e-03 0.0
8.441795e-01 4.866351e-03 0.0
8.447452e-01 1.311174e-02 0.0
8.445609e-01 1.960575e-02 0.0
8.437088e-01 2.466577e-02 0.0
8.422661e-01 2.854639e-02 0.0
8.403060e-01 3.145525e-02 0.0
8.378953e-01 3.356306e-02 0.0
8.350960e-01 3.501193e-02 0.0
8.319613e-01 3.591981e-02 0.0
8.285283e-01 3.638321e-02 0.0
8.248338e-01 3.647756e-02 0.0
8.209190e-01 3.626945e-02 0.0
8.168234e-01 3.581710e-02 0.0
8.125839e-01 3.516899e-02 0.0
8.082345e-01 3.436638e-02 0.0
8.038060e-01 3.344478e-02 0.0
7.993255e-01 3.243478e-02 0.0
7.948172e-01 3.136212e-02 0.0
7.903021e-01 3.024850e-02 0.0
7.857988e-01 2.911213e-02 0.0
7.813232e-01 2.796808e-02 0.0
7.768891e-01 2.682871e-02 0.0
7.725081e-01 2.570396e-02 0.0
7.681902e-01 2.460169e-02 0.0
7.639435e-01 2.352798e-02 0.0
7.597748e-01 2.248738e-02 0.0
7.556895e-01 2.148308e-02 0.0
7.516919e-01 2.051716e-02 0.0
7.477853e-01 1.959077e-02 0.0
7.439722e-01 1.870421e-02 0.0
7.402542e-01 1.785714e-02 0.0
7.366324e-01 1.704864e-02 0.0
7.331075e-01 1.627729e-02 0.0
7.296795e-01 1.554129e-02 0.0
7.263484e-01 1.483850e-02 0.0
7.231138e-01 1.416646e-02 0.0
7.199752e-01 1.352247e-02 0.0
7.169320e-01 1.290356e-02 0.0
7.139837e-01 1.230650e-02 0.0
7.111299e-01 1.172784e-02 0.0
7.083704e-01 1.116392e-02 0.0
7.057052e-01 1.061080e-02 0.0
7.031346e-01 1.006425e-02 0.0
7.006594e-01 9.519601e-03 0.0
6.982809e-01 8.971773e-03 0.0
6.960013e-01 8.415227e-03 0.0
6.938236e-01 7.843918e-03 0.0
6.917520e-01 7.251266e-03 0.0
6.897923e-01 6.630171e-03 0.0
6.879528e-01 5.973101e-03 0.0
6.862453e-01 5.272291e-03 0.0
6.846873e-01 4.520145e-03 0.0
6.833057e-01 3.710052e-03 0.0
6.821431e-01 2.837762e-03 0.0
6.812679e-01 1.904876e-03 0.0
6.807828e-01 9.317113e-04 0.0
6.807772e-01 3.681017e-05 0.0
0.000000e+00 3.719866e-05 0.0
0.000000e+00 0.000000e+00 0.0
0.000000e+00 0.000000e+00 0.0
0.000000e+00 0.000000e+00 0.0
0.000000e+00 0.000000e+00 0.0
0.000000e+00 0.000000e+00 0.0
0.000000e+00 0.000000e+00 0.0
0.000000e+00 0.000000e+00 0.0
0.000000e+00 0.000000e+00 0.0
0.000000e+00 0.000000e+00 0.0
0.000000e+00 0.000000e+00 0.0
0.000000e+00 -7.036388e-02 0.0
-1.364995e-02 7.036127e-02 0.0
-2.293346e-02 1.109351e-01 0.0
-2.235799e-02 1.087923e-01 0.0
-1.393952e-02 9.477400e-02 0.0
1.705685e-03 7.729870e-02 0.0
2.470861e-02 5.873054e-02 0.0
5.534302e-02 3.924604e-02 0.0
9.719547e-02 1.392732e-02 0.0
1.551266e-01 -1.916368e-02 0.0
2.272656e-01 -5.880791e-02 0.0
3.092874e-01 -1.052893e-01 0.0
3.968726e-01 -1.571085e-01 0.0
4.845525e-01 -2.117813e-01 0.0
5.673688e-01 -2.654393e-01 0.0
6.409328e-01 -3.138832e-01 0.0
7.022965e-01 -3.530095e-01 0.0
7.503063e-01 -3.795687e-01 0.0
7.851491e-01 -3.918429e-01 0.0
8.079132e-01 -3.892617e-01 0.0
8.214210e-01 -3.731029e-01 0.0
8.291289e-01 -3.469475e-01 0.0
8.335401e-01 -3.142349e-01 0.0
8.363435e-01 -2.778746e-01 0.0
8.385628e-01 -2.401994e-01 0.0
8.407481e-01 -2.030320e-01 0.0
8.431598e-01 -1.677340e-01 0.0
8.458219e-01 -1.351018e-01 0.0
8.486322e-01 -1.055856e-01 0.0
8.514330e-01 -7.938234e-02 0.0
8.540726e-01 -5.654495e-02 0.0
8.564299e-01 -3.700875e-02 0.0
8.583869e-01 -2.056790e-02 0.0
8.598575e-01 -7.007378e-03 0.0
8.608083e-01 3.916324e-03 0.0
8.612496e-01 1.267102e-02 0.0
8.612042e-01 1.965155e-02 0.0
8.607058e-01 2.516467e-02 0.0
8.597946e-01 2.945804e-02 0.0
8.585144e-01 3.273594e-02 0.0
8.569091e-01 3.516886e-02 0.0
8.550211e-01 3.690040e-02 0.0
8.528897e-01 3.805168e-02 0.0
8.505488e-01 3.872474e-02 0.0
8.480219e-01 3.900496e-02 0.0
8.453309e-01 3.896099e-02 0.0
8.424995e-01 3.864892e-02 0.0
8.395515e-01 3.811753e-02 0.0
8.365089e-01 3.740947e-02 0.0
8.333920e-01 3.656225e-02 0.0
8.302183e-01 3.560901e-02 0.0
8.270036e-01 3.457728e-02 0.0
8.237620e-01 3.349062e-02 0.0
8.205058e-01 3.236888e-02 0.0
8.172457e-01 3.122863e-02 0.0
8.139914e-01 3.008355e-02 0.0
8.107511e-01 2.894478e-02 0.0
8.075321e-01 2.782124e-02 0.0
8.043406e-01 2.671998e-02 0.0
8.011821e-01 2.564636e-02 0.0
7.980614e-01 2.460434e-02 0.0
7.949824e-01 2.359669e-02 0.0
7.919485e-01 2.262511e-02 0.0
7.889628e-01 2.169046e-02 0.0
7.860277e-01 2.079283e-02 0.0
7.831452e-01 1.993167e-02 0.0
7.803170e-01 1.910593e-02 0.0
7.775447e-01 1.831408e-02 0.0
7.748296e-01 1.755419e-02 0.0
7.721726e-01 1.682399e-02 0.0
7.695747e-01 1.612088e-02 0.0
7.670368e-01 1.544195e-02 0.0
7.645599e-01 1.478400e-02 0.0
7.621447e-01 1.414354e-02 0.0
7.597924e-01 1.351676e-02 0.0
7.575040e-01 1.289969e-02 0.0
7.552809e-01 1.228789e-02 0.0
7.531246e-01 1.167636e-02 0.0
7.510374e-01 1.105958e-02 0.0
7.490216e-01 1.043148e-02 0.0
7.470808e-01 9.785272e-03 0.0
7.452193e-01 9.113362e-03 0.0
7.434428e-01 8.407184e-03 0.0
7.417594e-01 7.656993e-03 0.0
7.401807e-01 6.851554e-03 0.0
7.387237e-01 5.977633e-03 0.0
7.374152e-01 5.019146e-03 0.0
7.362978e-01 3.955720e-03 0.0
7.354415e-01 2.761705e-03 0.0
7.349561e-01 1.417569e-03 0.0
7.349524e-01 4.107923e-05 0.0
0.000000e+00 4.151480e-05 0.0
0.000000e+00 0.000000e+00 0.0
0.000000e+00 0.000000e+00 0.0
0.000000e+00 0.000000e+00 0.0
0.000000e+00 0.000000e+00 0.0
0.000000e+00 0.000000e+00 0.0
0.000000e+00 0.000000e+00 0.0
0.000000e+00 0.000000e+00 0.0
0.000000e+00 0.000000e+00 0.0
0.000000e+00 0.000000e+00 0.0
0.000000e+00 0.000000e+00 0.0
0.000000e+00 -8.409370e-02 0.0
-1.372763e-02 8.409531e-02 0.0
-5.704494e-03 1.029171e-01 0.0
1.877754e-02 8.430995e-02 0.0
5.196084e-02 6.158626e-02 0.0
9.274299e-02 3.651220e-02 0.0
1.438181e-01 7.654780e-03 0.0
2.082132e-01 -2.514595e-02 0.0
2.834321e-01 -6.128728e-02 0.0
3.660334e-01 -1.017628e-01 0.0
4.532545e-01 -1.460295e-01 0.0
5.411690e-01 -1.932053e-01 0.0
6.255947e-01 -2.415348e-01 0.0
7.023641e-01 -2.885499e-01 0.0
7.680903e-01 -3.311647e-01 0.0
8.204633e-01 -3.662562e-01 0.0
8.585844e-01 -3.911308e-01 0.0
8.829840e-01 -4.039678e-01 0.0
8.951961e-01 -4.040536e-01 0.0
8.976572e-01 -3.917215e-01 0.0
8.940903e-01 -3.695356e-01 0.0
8.873138e-01 -3.401714e-01 0.0
8.793877e-01 -3.063093e-01 0.0
8.716498e-01 -2.701364e-01 0.0
8.648566e-01 -2.334052e-01 0.0
8.593656e-01 -1.975398e-01 0.0
8.553204e-01 -1.636879e-01 0.0
8.526174e-01 -1.323983e-01 0.0
8.510532e-01 -1.040211e-01 0.0
8.503906e-01 -7.871951e-02 0.0
8.503734e-01 -5.652756e-02 0.0
8.507452e-01 -3.738014e-02 0.0
8.513016e-01 -2.112372e-02 0.0
8.518712e-01 -7.576281e-03 0.0
8.523162e-01 3.471945e-03 0.0
8.525486e-01 1.243913e-02 0.0
8.525283e-01 1.967229e-02 0.0
8.522443e-01 2.544915e-02 0.0
8.517034e-01 2.999949e-02 0.0
8.509228e-01 3.351701e-02 0.0
8.499254e-01 3.616666e-02 0.0
8.487367e-01 3.808963e-02 0.0
8.473819e-01 3.940695e-02 0.0
8.458850e-01 4.022229e-02 0.0
8.442662e-01 4.062430e-02 0.0
8.425395e-01 4.068809e-02 0.0
8.407188e-01 4.047015e-02 0.0
8.388184e-01 4.001837e-02 0.0
8.368521e-01 3.937628e-02 0.0
8.348322e-01 3.858270e-02 0.0
8.327699e-01 3.767184e-02 0.0
8.306749e-01 3.667284e-02 0.0
8.285554e-01 3.561056e-02 0.0
8.264189e-01 3.450594e-02 0.0
8.242715e-01 3.337651e-02 0.0
8.221188e-01 3.223673e-02 0.0
8.199657e-01 3.109841e-02 0.0
8.178164e-01 2.997109e-02 0.0
8.156746e-01 2.886229e-02 0.0
8.135436e-01 2.777783e-02 0.0
8.114265e-01 2.672203e-02 0.0
8.093257e-01 2.569799e-02 0.0
8.072436e-01 2.470769e-02 0.0
8.051824e-01 2.375224e-02 0.0
8.031438e-01 2.283194e-02 0.0
8.011295e-01 2.194644e-02 0.0
7.991412e-01 2.109482e-02 0.0
7.971801e-01 2.027569e-02 0.0
7.952476e-01 1.948723e-02 0.0
7.933449e-01 1.872724e-02 0.0
7.914731e-01 1.799317e-02 0.0
7.896334e-01 1.728213e-02 0.0
7.878270e-01 1.659093e-02 0.0
7.860551e-01 1.591599e-02 0.0
7.843190e-01 1.525338e-02 0.0
7.826200e-01 1.459920e-02 0.0
7.809596e-01 1.394887e-02 0.0
7.793394e-01 1.329708e-02 0.0
7.777615e-01 1.263800e-02 0.0
7.762284e-01 1.196515e-02 0.0
7.747430e-01 1.127119e-02 0.0
7.733092e-01 1.054771e-02 0.0
7.719320e-01 9.784948e-03 0.0
7.706182e-01 8.971329e-03 0.0
7.693776e-01 8.092690e-03 0.0
7.682247e-01 7.131023e-03 0.0
7.671821e-01 6.062234e-03 0.0
7.662861e-01 4.852351e-03 0.0
7.655955e-01 3.452802e-03 0.0
7.652031e-01 1.810541e-03 0.0
7.652015e-01 4.320220e-05 0.0
0.000000e+00 4.366294e-05 0.0
0.000000e+00 0.000000e+00 0.0
0.000000e+00 0.000000e+00 0.0
0.000000e+00 0.000000e+00 0.0
0.000000e+00 0.000000e+00 0.0
0.000000e+00 0.000000e+00 0.0
0.000000e+00 0.000000e+00 0.0
0.000000e+00 0.000000e+00 0.0
0.000000e+00 0.000000e+00 0.0
0.000000e+00 0.000000e+00 0.0
0.000000e+00 0.000000e+00 0.0
0.000000e+00 -7.894710e-02 0.0
5.150355e-03 7.895185e-02 0.0
5.418717e-02 5.388511e-02 0.0
1.181393e-01 2.035697e-02 0.0
1.919257e-01 -1.220524e-02 0.0
2.726137e-01 -4.418007e-02 0.0
3.570488e-01 -7.678003e-02 0.0
4.435305e-01 -1.116237e-01 0.0
5.308409e-01 -1.485935e-01 0.0
6.166402e-01 -1.875609e-01 0.0
6.983804e-01 -2.277709e-01 0.0
7.732217e-01 -2.680479e-01 0.0
8.384023e-01 -3.067154e-01 0.0
8.915745e-01 -3.417212e-01 0.0
9.312304e-01 -3.708200e-01 0.0