# vtk DataFile Version 3.0
Vector Field
ASCII
DATASET RECTILINEAR_GRID
DIMENSIONS 102 22 1
X_COORDINATES 102 double
0.000000 0.100000 0.200000 0.300000 0.400000 0.500000 0.600000 0.700000 0.800000 0.900000 1.000000 1.100000 1.200000 1.300000 1.400000 1.500000 1.600000 1.700000 1.800000 1.900000 2.000000 2.100000 2.200000 2.300000 2.400000 2.500000 2.600000 2.700000 2.800000 2.900000 3.000000 3.100000 3.200000 3.300000 3.400000 3.500000 3.600000 3.700000 3.800000 3.900000 4.000000 4.100000 4.200000 4.300000 4.400000 4.500000 4.600000 4.700000 4.800000 4.900000 5.000000 5.100000 5.200000 5.300000 5.400000 5.500000 5.600000 5.700000 5.800000 5.900000 6.000000 6.100000 6.200000 6.300000 6.400000 6.500000 6.600000 6.700000 6.800000 6.900000 7.000000 7.100000 7.200000 7.300000 7.400000 7.500000 7.600000 7.700000 7.800000 7.900000 8.000000 8.100000 8.200000 8.300000 8.400000 8.500000 8.600000 8.700000 8.800000 8.900000 9.000000 9.100000 9.200000 9.300000 9.400000 9.500000 9.600000 9.700000 9.800000 9.900000 10.000000 10.100000 
Y_COORDINATES 22 double
0.000000 0.100000 0.200000 0.300000 0.400000 0.500000 0.600000 0.700000 0.800000 0.900000 1.000000 1.100000 1.200000 1.300000 1.400000 1.500000 1.600000 1.700000 1.800000 1.900000 2.000000 2.100000 
Z_COORDINATES 1 double
0.0
POINT_DATA 2244
VECTORS Velocity double
0.000000e+00 0.000000e+00 0.0
-0.000000e+00 0.000000e+00 0.0
-0.000000e+00 0.000000e+00 0.0
-0.000000e+00 0.000000e+00 0.0
-0.000000e+00 0.000000e+00 0.0
-0.000000e+00 0.000000e+00 0.0
-0.000000e+00 0.000000e+00 0.0
-0.000000e+00 0.000000e+00 0.0
-0.000000e+00 0.000000e+00 0.0
-0.000000e+00 0.000000e+00 0.0
-0.000000e+00 0.000000e+00 0.0
5.208952e-04 0.000000e+00 0.0
4.901566e-03 0.000000e+00 0.0
1.167928e-02 0.000000e+00 0.0
1.966592e-02 0.000000e+00 0.0
2.847624e-02 0.000000e+00 0.0
3.820325e-02 0.000000e+00 0.0
4.913438e-02 0.000000e+00 0.0
6.162066e-02 0.000000e+00 0.0
7.601077e-02 0.000000e+00 0.0
9.257526e-02 0.000000e+00 0.0
1.113948e-01 0.000000e+00 0.0
1.321877e-01 0.000000e+00 0.0
1.541250e-01 0.000000e+00 0.0
1.755922e-01 0.000000e+00 0.0
1.938625e-01 0.000000e+00 0.0
2.054069e-01 0.000000e+00 0.0
2.062492e-01 0.000000e+00 0.0
1.933056e-01 0.000000e+00 0.0
1.656686e-01 0.000000e+00 0.0
1.250904e-01 0.000000e+00 0.0
7.565523e-02 0.000000e+00 0.0
2.006353e-02 0.000000e+00 0.0
-3.468258e-02 0.000000e+00 0.0
-8.146181e-02 0.000000e+00 0.0
-1.183690e-01 0.000000e+00 0.0
-1.456546e-01 0.000000e+00 0.0
-1.644617e-01 0.000000e+00 0.0
-1.762530e-01 0.000000e+00 0.0
-1.825314e-01 0.000000e+00 0.0
-1.847148e-01 0.000000e+00 0.0
-1.840760e-01 0.000000e+00 0.0
-1.813505e-01 0.000000e+00 0.0
-1.770938e-01 0.000000e+00 0.0
-1.718691e-01 0.000000e+00 0.0
-1.661397e-01 0.000000e+00 0.0
-1.602534e-01 0.000000e+00 0.0
-1.544415e-01 0.000000e+00 0.0
-1.488402e-01 0.000000e+00 0.0
-1.435352e-01 0.000000e+00 0.0
-1.385680e-01 0.000000e+00 0.0
-1.339544e-01 0.000000e+00 0.0
-1.296927e-01 0.000000e+00 0.0
-1.257716e-01 0.000000e+00 0.0
-1.221737e-01 0.000000e+00 0.0
-1.188790e-01 0.000000e+00 0.0
-1.158663e-01 0.000000e+00 0.0
-1.131146e-01 0.000000e+00 0.0
-1.106038e-01 0.000000e+00 0.0
-1.083145e-01 0.000000e+00 0.0
-1.062282e-01 0.000000e+00 0.0
-1.043278e-01 0.000000e+00 0.0
-1.025971e-01 0.000000e+00 0.0
-1.010210e-01 0.000000e+00 0.0
-9.958557e-02 0.000000e+00 0.0
-9.827785e-02 0.000000e+00 0.0
-9.708591e-02 0.000000e+00 0.0
-9.599879e-02 0.000000e+00 0.0
-9.500648e-02 0.000000e+00 0.0
-9.409982e-02 0.000000e+00 0.0
-9.327054e-02 0.000000e+00 0.0
-9.251113e-02 0.000000e+00 0.0
-9.181483e-02 0.000000e+00 0.0
-9.117558e-02 0.000000e+00 0.0
-9.058799e-02 0.000000e+00 0.0
-9.004726e-02 0.000000e+00 0.0
-8.954918e-02 0.000000e+00 0.0
-8.909008e-02 0.000000e+00 0.0
-8.866678e-02 0.000000e+00 0.0
-8.827660e-02 0.000000e+00 0.0
-8.791730e-02 0.000000e+00 0.0
-8.758710e-02 0.000000e+00 0.0
-8.728463e-02 0.000000e+00 0.0
-8.700894e-02 0.000000e+00 0.0
-8.675948e-02 0.000000e+00 0.0
-8.653615e-02 0.000000e+00 0.0
-8.633923e-02 0.000000e+00 0.0
-8.616947e-02 0.000000e+00 0.0
-8.602804e-02 0.000000e+00 0.0
-8.591664e-02 0.000000e+00 0.0
-8.583746e-02 0.000000e+00 0.0
-8.579344e-02 0.000000e+00 0.0
-8.578834e-02 0.000000e+00 0.0
-8.582459e-02 0.000000e+00 0.0
-8.590018e-02 0.000000e+00 0.0
-8.600858e-02 0.000000e+00 0.0
-8.614409e-02 0.000000e+00 0.0
-8.629535e-02 0.000000e+00 0.0
-8.644103e-02 0.000000e+00 0.0
-8.653775e-02 0.000000e+00 0.0
-8.653775e-02 0.000000e+00 0.0
0.000000e+00 0.000000e+00 0.0
0.000000e+00 0.000000e+00 0.0
0.000000e+00 0.000000e+00 0.0
0.000000e+00 0.000000e+00 0.0
0.000000e+00 0.000000e+00 0.0
0.000000e+00 0.000000e+00 0.0
0.000000e+00 0.000000e+00 0.0
0.000000e+00 0.000000e+00 0.0
0.000000e+00 0.000000e+00 0.0
0.000000e+00 0.000000e+00 0.0
0.000000e+00 0.000000e+00 0.0
0.000000e+00 -5.171839e-04 0.0
-5.193055e-04 5.204362e-04 0.0
-4.898096e-03 4.383009e-03 0.0
-1.167621e-02 6.781488e-03 0.0
-1.966518e-02 7.989816e-03 0.0
-2.847754e-02 8.811241e-03 0.0
-3.820472e-02 9.725995e-03 0.0
-4.913454e-02 1.092995e-02 0.0
-6.161976e-02 1.248631e-02 0.0
-7.601019e-02 1.439110e-02 0.0
-9.257584e-02 1.656513e-02 0.0
-1.113960e-01 1.881909e-02 0.0
-1.321884e-01 2.079174e-02 0.0
-1.541249e-01 2.193664e-02 0.0
-1.755919e-01 2.146724e-02 0.0
-1.938625e-01 1.827050e-02 0.0
-2.054073e-01 1.154443e-02 0.0
-2.062494e-01 8.420895e-04 0.0
-1.933053e-01 -1.294369e-02 0.0
-1.656682e-01 -2.763669e-02 0.0
-1.250904e-01 -4.057779e-02 0.0
-7.565565e-02 -4.943517e-02 0.0
-2.006405e-02 -5.559206e-02 0.0
3.468234e-02 -5.474655e-02 0.0
8.146195e-02 -4.677940e-02 0.0
1.183694e-01 -3.690703e-02 0.0
1.456549e-01 -2.728511e-02 0.0
1.644619e-01 -1.880674e-02 0.0
1.762527e-01 -1.179103e-02 0.0
1.825309e-01 -6.278663e-03 0.0
1.847144e-01 -2.183871e-03 0.0
1.840761e-01 6.384672e-04 0.0
1.813509e-01 2.725689e-03 0.0
1.770941e-01 4.257209e-03 0.0
1.718690e-01 5.225021e-03 0.0
1.661394e-01 5.729234e-03 0.0
1.602532e-01 5.885994e-03 0.0
1.544416e-01 5.811695e-03 0.0
1.488404e-01 5.601405e-03 0.0
1.435353e-01 5.305233e-03 0.0
1.385680e-01 4.967221e-03 0.0
1.339542e-01 4.613626e-03 0.0
1.296927e-01 4.261525e-03 0.0
1.257717e-01 3.921086e-03 0.0
1.221738e-01 3.597935e-03 0.0
1.188790e-01 3.294815e-03 0.0
1.158662e-01 3.012714e-03 0.0
1.131146e-01 2.751583e-03 0.0
1.106039e-01 2.510780e-03 0.0
1.083145e-01 2.289364e-03 0.0
1.062283e-01 2.086274e-03 0.0
1.043278e-01 1.900422e-03 0.0
1.025971e-01 1.730721e-03 0.0
1.010210e-01 1.576086e-03 0.0
9.958558e-02 1.435438e-03 0.0
9.827785e-02 1.307729e-03 0.0
9.708591e-02 1.191946e-03 0.0
9.599879e-02 1.087119e-03 0.0
9.500647e-02 9.923169e-04 0.0
9.409982e-02 9.066523e-04 0.0
9.327054e-02 8.292826e-04 0.0
9.251113e-02 7.594145e-04 0.0
9.181483e-02 6.963025e-04 0.0
9.117558e-02 6.392474e-04 0.0
9.058799e-02 5.875941e-04 0.0
9.004726e-02 5.407296e-04 0.0
8.954918e-02 4.980795e-04 0.0
8.909008e-02 4.591049e-04 0.0
8.866678e-02 4.232984e-04 0.0
8.827660e-02 3.901802e-04 0.0
8.791730e-02 3.592936e-04 0.0
8.758710e-02 3.301996e-04 0.0
8.728463e-02 3.024726e-04 0.0
8.700894e-02 2.756955e-04 0.0
8.675948e-02 2.494551e-04 0.0
8.653614e-02 2.233362e-04 0.0
8.633923e-02 1.969166e-04 0.0
8.616947e-02 1.697620e-04 0.0
8.602804e-02 1.414202e-04 0.0
8.591664e-02 1.114084e-04 0.0
8.583746e-02 7.917605e-05 0.0
8.579344e-02 4.401954e-05 0.0
8.578834e-02 5.098746e-06 0.0
8.582459e-02 -3.625298e-05 0.0
8.590018e-02 -7.558595e-05 0.0
8.600858e-02 -1.084080e-04 0.0
8.614409e-02 -1.355071e-04 0.0
8.629535e-02 -1.512613e-04 0.0
8.644103e-02 -1.456809e-04 0.0
8.653775e-02 -9.672396e-05 0.0
8.653775e-02 -8.342474e-10 0.0
0.000000e+00 -9.172344e-10 0.0
0.000000e+00 0.000000e+00 0.0
0.000000e+00 0.000000e+00 0.0
0.000000e+00 0.000000e+00 0.0
0.000000e+00 0.000000e+00 0.0
0.000000e+00 0.000000e+00 0.0
0.000000e+00 0.000000e+00 0.0
0.000000e+00 0.000000e+00 0.0
0.000000e+00 0.000000e+00 0.0
0.000000e+00 0.000000e+00 0.0
0.000000e+00 0.000000e+00 0.0
0.000000e+00 -6.339643e-03 0.0
-5.819736e-03 6.341545e-03 0.0
-1.945273e-02 1.801554e-02 0.0
-3.736770e-02 2.469418e-02 0.0
-5.742320e-02 2.804214e-02 0.0
-7.880274e-02 3.018836e-02 0.0
-1.014152e-01 3.233775e-02 0.0
-1.253926e-01 3.490779e-02 0.0
-1.508106e-01 3.790450e-02 0.0
-1.775132e-01 4.109283e-02 0.0
-2.049601e-01 4.401074e-02 0.0
-2.321127e-01 4.597105e-02 0.0
-2.572630e-01 4.594228e-02 0.0
-2.779436e-01 4.261763e-02 0.0
-2.910092e-01 3.453270e-02 0.0
-2.926341e-01 1.989515e-02 0.0
-2.780902e-01 -2.999490e-03 0.0
-2.447186e-01 -3.252927e-02 0.0
-1.937531e-01 -6.390904e-02 0.0
-1.280914e-01 -9.329862e-02 0.0
-5.038874e-02 -1.182809e-01 0.0
3.421422e-02 -1.340385e-01 0.0
1.146593e-01 -1.360371e-01 0.0
1.859877e-01 -1.260747e-01 0.0
2.481857e-01 -1.089772e-01 0.0
3.004850e-01 -8.920618e-02 0.0
3.428165e-01 -6.961662e-02 0.0
3.757354e-01 -5.172593e-02 0.0
4.001572e-01 -3.621321e-02 0.0
4.171626e-01 -2.328430e-02 0.0
4.278677e-01 -1.288877e-02 0.0
4.333349e-01 -4.828173e-03 0.0
4.348652e-01 1.195592e-03 0.0
4.332921e-01 5.830009e-03 0.0
4.292974e-01 9.219349e-03 0.0
4.234687e-01 1.155784e-02 0.0
4.162894e-01 1.306541e-02 0.0
4.081743e-01 1.392707e-02 0.0
3.994960e-01 1.427973e-02 0.0
3.905570e-01 1.424412e-02 0.0
3.815717e-01 1.395244e-02 0.0
3.727019e-01 1.348342e-02 0.0
3.640630e-01 1.290046e-02 0.0
3.557349e-01 1.224922e-02 0.0
3.477702e-01 1.156262e-02 0.0
3.402009e-01 1.086409e-02 0.0
3.330436e-01 1.017002e-02 0.0
3.263035e-01 9.491702e-03 0.0
3.199775e-01 8.836778e-03 0.0
3.140566e-01 8.210341e-03 0.0
3.085272e-01 7.615651e-03 0.0
3.033730e-01 7.054623e-03 0.0
2.985755e-01 6.528145e-03 0.0
2.941153e-01 6.036320e-03 0.0
2.899721e-01 5.578654e-03 0.0
2.861256e-01 5.154213e-03 0.0
2.825558e-01 4.761741e-03 0.0
2.792432e-01 4.399740e-03 0.0
2.761690e-01 4.066549e-03 0.0
2.733152e-01 3.760402e-03 0.0
2.706650e-01 3.479479e-03 0.0
2.682025e-01 3.221942e-03 0.0
2.659128e-01 2.985963e-03 0.0
2.637823e-01 2.769744e-03 0.0
2.617984e-01 2.571535e-03 0.0
2.599495e-01 2.389638e-03 0.0
2.582251e-01 2.222419e-03 0.0
2.566159e-01 2.068302e-03 0.0
2.551135e-01 1.925771e-03 0.0
2.537103e-01 1.793368e-03 0.0
2.523999e-01 1.669678e-03 0.0
2.511768e-01 1.553329e-03 0.0
2.500363e-01 1.442978e-03 0.0
2.489747e-01 1.337301e-03 0.0
2.479891e-01 1.234980e-03 0.0
2.470778e-01 1.134688e-03 0.0
2.462396e-01 1.035078e-03 0.0
2.454746e-01 9.347694e-04 0.0
2.447837e-01 8.323378e-04 0.0
2.441688e-01 7.263172e-04 0.0
2.436328e-01 6.152044e-04 0.0
2.431793e-01 4.975056e-04 0.0
2.428124e-01 3.720195e-04 0.0
2.425370e-01 2.391363e-04 0.0
2.423599e-01 1.014754e-04 0.0
2.422883e-01 -3.681681e-05 0.0
2.423123e-01 -1.595328e-04 0.0
2.424055e-01 -2.444411e-04 0.0
2.425286e-01 -2.687654e-04 0.0
2.426264e-01 -1.945055e-04 0.0
2.426264e-01 -8.042367e-10 0.0
0.000000e+00 -8.709158e-10 0.0
0.000000e+00 0.000000e+00 0.0
0.000000e+00 0.000000e+00 0.0
0.000000e+00 0.000000e+00 0.0
0.000000e+00 0.000000e+00 0.0
0.000000e+00 0.000000e+00 0.0
0.000000e+00 0.000000e+00 0.0
0.000000e+00 0.000000e+00 0.0
0.000000e+00 0.000000e+00 0.0
0.000000e+00 0.000000e+00 0.0
0.000000e+00 0.000000e+00 0.0
0.000000e+00 -1.696803e-02 0.0
-1.062621e-02 1.696714e-02 0.0
-3.138185e-02 3.876976e-02 0.0
-5.611134e-02 4.942087e-02 0.0
-8.187170e-02 5.379966e-02 0.0
-1.075560e-01 5.587154e-02 0.0
-1.327957e-01 5.757820e-02 0.0
-1.573524e-01 5.946573e-02 0.0
-1.808688e-01 6.142096e-02 0.0
-2.027344e-01 6.295736e-02 0.0
-2.219466e-01 6.322176e-02 0.0
-2.371526e-01 6.117696e-02 0.0
-2.465262e-01 5.531633e-02 0.0
-2.475634e-01 4.365515e-02 0.0
-2.364288e-01 2.339796e-02 0.0
-2.066292e-01 -9.904674e-03 0.0
-1.581275e-01 -5.150121e-02 0.0
-9.223610e-02 -9.842052e-02 0.0
-1.225984e-02 -1.438853e-01 0.0
7.475211e-02 -1.803109e-01 0.0
1.594755e-01 -2.030046e-01 0.0
2.371885e-01 -2.117516e-01 0.0
3.057370e-01 -2.045853e-01 0.0
3.656607e-01 -1.859982e-01 0.0
4.178682e-01 -1.611845e-01 0.0
4.627709e-01 -1.341090e-01 0.0
5.006029e-01 -1.074487e-01 0.0
5.316676e-01 -8.279099e-02 0.0
5.563961e-01 -6.094201e-02 0.0
5.753193e-01 -4.220738e-02 0.0
5.890238e-01 -2.659290e-02 0.0
5.981244e-01 -1.392843e-02 0.0
6.032633e-01 -3.943351e-03 0.0
6.053715e-01 3.721319e-03 0.0
6.049517e-01 9.638978e-03 0.0
6.024534e-01 1.405618e-02 0.0
5.982724e-01 1.724679e-02 0.0
5.927469e-01 1.945267e-02 0.0
5.861491e-01 2.087742e-02 0.0
5.786967e-01 2.169635e-02 0.0
5.706355e-01 2.201355e-02 0.0
5.621834e-01 2.193566e-02 0.0
5.535125e-01 2.157148e-02 0.0
5.447623e-01 2.099937e-02 0.0
5.360444e-01 2.028050e-02 0.0
5.274465e-01 1.946196e-02 0.0
5.190368e-01 1.857967e-02 0.0
5.108674e-01 1.766116e-02 0.0
5.029766e-01 1.672760e-02 0.0
4.953916e-01 1.579536e-02 0.0
4.881301e-01 1.487705e-02 0.0
4.812025e-01 1.398229e-02 0.0
4.746124e-01 1.311823e-02 0.0
4.683587e-01 1.228999e-02 0.0
4.624363e-01 1.150106e-02 0.0
4.568370e-01 1.075360e-02 0.0
4.515500e-01 1.004866e-02 0.0
4.465633e-01 9.386431e-03 0.0
4.418635e-01 8.766380e-03 0.0
4.374365e-01 8.187435e-03 0.0
4.332679e-01 7.648105e-03 0.0
4.293432e-01 7.146583e-03 0.0
4.256483e-01 6.680836e-03 0.0
4.221694e-01 6.248669e-03 0.0
4.188932e-01 5.847792e-03 0.0
4.158069e-01 5.475852e-03 0.0
4.128989e-01 5.130472e-03 0.0
4.101579e-01 4.809274e-03 0.0
4.075738e-01 4.509888e-03 0.0
4.051372e-01 4.229968e-03 0.0
4.028397e-01 3.967185e-03 0.0
4.006738e-01 3.719228e-03 0.0
3.986330e-01 3.483798e-03 0.0
3.967117e-01 3.258591e-03 0.0
3.949054e-01 3.041289e-03 0.0
3.932105e-01 2.829536e-03 0.0
3.916247e-01 2.620918e-03 0.0
3.901465e-01 2.412942e-03 0.0
3.887758e-01 2.203023e-03 0.0
3.875137e-01 1.988492e-03 0.0
3.863622e-01 1.766634e-03 0.0
3.853249e-01 1.534806e-03 0.0
3.844062e-01 1.290787e-03 0.0
3.836116e-01 1.033658e-03 0.0
3.829483e-01 7.647707e-04 0.0
3.824223e-01 4.892171e-04 0.0
3.820407e-01 2.220538e-04 0.0
3.818067e-01 -1.039229e-05 0.0
3.816977e-01 -1.597451e-04 0.0
3.816747e-01 -1.715206e-04 0.0
3.816747e-01 -7.419619e-10 0.0
0.000000e+00 -7.896929e-10 0.0
0.000000e+00 0.000000e+00 0.0
0.000000e+00 0.000000e+00 0.0
0.000000e+00 0.000000e+00 0.0
0.000000e+00 0.000000e+00 0.0
0.000000e+00 0.000000e+00 0.0
0.000000e+00 0.000000e+00 0.0
0.000000e+00 0.000000e+00 0.0
0.000000e+00 0.000000e+00 0.0
0.000000e+00 0.000000e+00 0.0
0.000000e+00 0.000000e+00 0.0
0.000000e+00 -3.011036e-02 0.0
-1.314244e-02 3.010807e-02 0.0
-3.668342e-02 6.230973e-02 0.0
-6.238306e-02 7.511915e-02 0.0
-8.687679e-02 7.829302e-02 0.0
-1.090716e-01 7.806785e-02 0.0
-1.285416e-01 7.705089e-02 0.0
-1.449401e-01 7.586617e-02 0.0
-1.578289e-01 7.430990e-02 0.0
-1.666425e-01 7.177031e-02 0.0
-1.704094e-01 6.698835e-02 0.0
-1.677189e-01 5.848730e-02 0.0
-1.561273e-01 4.372569e-02 0.0
-1.320434e-01 1.957178e-02 0.0
-8.749277e-02 -2.115269e-02 0.0
-2.381013e-02 -7.358748e-02 0.0
5.527378e-02 -1.305851e-01 0.0
1.404464e-01 -1.835930e-01 0.0
2.248115e-01 -2.282505e-01 0.0
3.039788e-01 -2.594785e-01 0.0
3.754379e-01 -2.744639e-01 0.0
4.365606e-01 -2.728741e-01 0.0
4.881921e-01 -2.562166e-01 0.0
5.324215e-01 -2.302274e-01 0.0
5.706463e-01 -1.994093e-01 0.0
6.036672e-01 -1.671301e-01 0.0
6.319320e-01 -1.357137e-01 0.0
6.557404e-01 -1.065996e-01 0.0
6.753591e-01 -8.056079e-02 0.0
6.910670e-01 -5.791499e-02 0.0
7.031669e-01 -3.869242e-02 0.0
7.119876e-01 -2.274905e-02 0.0
7.178885e-01 -9.844552e-03 0.0
7.212946e-01 3.148375e-04 0.0
7.226764e-01 8.257117e-03 0.0
7.223580e-01 1.437487e-02 0.0
7.205992e-01 1.900588e-02 0.0
7.176205e-01 2.243127e-02 0.0
7.136141e-01 2.488369e-02 0.0
7.087551e-01 2.655519e-02 0.0
7.031740e-01 2.759468e-02 0.0
6.969832e-01 2.812657e-02 0.0
6.903244e-01 2.823040e-02 0.0
6.833236e-01 2.800013e-02 0.0
6.760887e-01 2.751528e-02 0.0
6.687121e-01 2.683857e-02 0.0
6.612723e-01 2.601947e-02 0.0
6.538361e-01 2.509745e-02 0.0
6.464592e-01 2.410445e-02 0.0
6.391880e-01 2.306655e-02 0.0
6.320600e-01 2.200507e-02 0.0
6.251050e-01 2.093731e-02 0.0
6.183461e-01 1.987716e-02 0.0
6.118004e-01 1.883565e-02 0.0
6.054801e-01 1.782132e-02 0.0
5.993931e-01 1.684066e-02 0.0
5.935434e-01 1.589838e-02 0.0
5.879321e-01 1.499770e-02 0.0
5.825579e-01 1.414058e-02 0.0
5.774174e-01 1.332798e-02 0.0
5.725055e-01 1.255997e-02 0.0
5.678161e-01 1.183596e-02 0.0
5.633421e-01 1.115481e-02 0.0
5.590759e-01 1.051494e-02 0.0
5.550093e-01 9.914409e-03 0.0
5.511341e-01 9.351046e-03 0.0
5.474421e-01 8.822463e-03 0.0
5.439252e-01 8.326129e-03 0.0
5.405757e-01 7.859398e-03 0.0
5.373861e-01 7.419539e-03 0.0
5.343496e-01 7.003749e-03 0.0
5.314596e-01 6.609165e-03 0.0
5.287106e-01 6.232858e-03 0.0
5.260973e-01 5.871834e-03 0.0
5.236156e-01 5.523017e-03 0.0
5.212619e-01 5.183234e-03 0.0
5.190336e-01 4.849183e-03 0.0
5.169292e-01 4.517399e-03 0.0
5.149480e-01 4.184236e-03 0.0
5.130906e-01 3.845874e-03 0.0
5.113589e-01 3.498347e-03 0.0
5.097560e-01 3.137669e-03 0.0
5.082867e-01 2.760126e-03 0.0
5.069574e-01 2.362920e-03 0.0
5.057770e-01 1.945139e-03 0.0
5.047567e-01 1.509532e-03 0.0
5.039121e-01 1.066674e-03 0.0
5.032622e-01 6.395028e-04 0.0
5.028290e-01 2.734650e-04 0.0
5.026175e-01 3.999415e-05 0.0
5.026175e-01 -6.586344e-10 0.0
0.000000e+00 -6.984537e-10 0.0
0.000000e+00 0.000000e+00 0.0
0.000000e+00 0.000000e+00 0.0
0.000000e+00 0.000000e+00 0.0
0.000000e+00 0.000000e+00 0.0
0.000000e+00 0.000000e+00 0.0
0.000000e+00 0.000000e+00 0.0
0.000000e+00 0.000000e+00 0.0
0.000000e+00 0.000000e+00 0.0
0.000000e+00 0.000000e+00 0.0
0.000000e+00 0.000000e+00 0.0
0.000000e+00 -4.361158e-02 0.0
-1.350225e-02 4.361104e-02 0.0
-3.553564e-02 8.434409e-02 0.0
-5.694699e-02 9.653014e-02 0.0
-7.478726e-02 9.613350e-02 0.0
-8.837648e-02 9.165890e-02 0.0
-9.746856e-02 8.614546e-02 0.0
-1.017988e-01 8.019766e-02 0.0
-1.008733e-01 7.338391e-02 0.0
-9.419611e-02 6.509219e-02 0.0
-8.005823e-02 5.285046e-02 0.0
-5.621106e-02 3.464120e-02 0.0
-1.552913e-02 3.044891e-03 0.0
4.644164e-02 -4.239851e-02 0.0
1.223084e-01 -9.701966e-02 0.0
2.056184e-01 -1.568976e-01 0.0
2.902784e-01 -2.152450e-01 0.0
3.717252e-01 -2.650395e-01 0.0
4.454811e-01 -3.020065e-01 0.0
5.092190e-01 -3.232165e-01 0.0
5.622123e-01 -3.274571e-01 0.0
6.043197e-01 -3.149812e-01 0.0
6.388414e-01 -2.907381e-01 0.0
6.679116e-01 -2.592976e-01 0.0
6.928735e-01 -2.243713e-01 0.0
7.145123e-01 -1.887689e-01 0.0
7.332621e-01 -1.544637e-01 0.0
7.493600e-01 -1.226977e-01 0.0
7.629533e-01 -9.415403e-02 0.0
7.741622e-01 -6.912354e-02 0.0
7.831145e-01 -4.764444e-02 0.0
7.899575e-01 -2.959214e-02 0.0
7.948553e-01 -1.474277e-02 0.0
7.979945e-01 -2.824526e-03 0.0
7.996853e-01 6.566452e-03 0.0
8.001406e-01 1.391985e-02 0.0
7.995253e-01 1.962123e-02 0.0
7.979790e-01 2.397748e-02 0.0
7.956256e-01 2.723699e-02 0.0
7.925784e-01 2.960232e-02 0.0
7.889355e-01 3.123763e-02 0.0
7.847835e-01 3.227867e-02 0.0
7.801790e-01 3.283488e-02 0.0
7.751940e-01 3.298510e-02 0.0
7.699039e-01 3.280539e-02 0.0
7.643761e-01 3.236639e-02 0.0
7.586714e-01 3.172415e-02 0.0
7.528445e-01 3.092441e-02 0.0
7.469437e-01 3.000522e-02 0.0
7.410116e-01 2.899859e-02 0.0
7.350851e-01 2.793157e-02 0.0
7.291958e-01 2.682669e-02 0.0
7.233703e-01 2.570265e-02 0.0
7.176311e-01 2.457484e-02 0.0
7.119966e-01 2.345578e-02 0.0
7.064818e-01 2.235547e-02 0.0
7.010984e-01 2.128175e-02 0.0
6.958555e-01 2.024062e-02 0.0
6.907597e-01 1.923644e-02 0.0
6.858154e-01 1.827223e-02 0.0
6.810255e-01 1.734987e-02 0.0
6.763912e-01 1.647026e-02 0.0
6.719125e-01 1.563351e-02 0.0
6.675884e-01 1.483907e-02 0.0
6.634169e-01 1.408583e-02 0.0
6.593958e-01 1.337223e-02 0.0
6.555218e-01 1.269637e-02 0.0
6.517919e-01 1.205604e-02 0.0
6.482026e-01 1.144876e-02 0.0
6.447502e-01 1.087189e-02 0.0
6.414314e-01 1.032258e-02 0.0
6.382427e-01 9.797812e-03 0.0
6.351812e-01 9.294432e-03 0.0
6.322439e-01 8.809117e-03 0.0
6.294285e-01 8.338382e-03 0.0
6.267332e-01 7.878570e-03 0.0
6.241566e-01 7.425804e-03 0.0
6.216980e-01 6.975928e-03 0.0
6.193578e-01 6.524492e-03 0.0
6.171369e-01 6.066732e-03 0.0
6.150377e-01 5.597584e-03 0.0
6.130636e-01 5.111739e-03 0.0
6.112199e-01 4.603820e-03 0.0
6.095141e-01 4.068769e-03 0.0
6.079567e-01 3.502506e-03 0.0
6.065631e-01 2.903187e-03 0.0
6.053560e-01 2.273731e-03 0.0
6.043699e-01 1.625568e-03 0.0
6.036573e-01 9.860796e-04 0.0
6.032877e-01 4.095621e-04 0.0
6.032877e-01 -5.326298e-10 0.0
0.000000e+00 -5.859356e-10 0.0
0.000000e+00 0.000000e+00 0.0
0.000000e+00 0.000000e+00 0.0
0.000000e+00 0.000000e+00 0.0
0.000000e+00 0.000000e+00 0.0
0.000000e+00 0.000000e+00 0.0
0.000000e+00 0.000000e+00 0.0
0.000000e+00 0.000000e+00 0.0
0.000000e+00 0.000000e+00 0.0
0.000000e+00 0.000000e+00 0.0
0.000000e+00 0.000000e+00 0.0
0.000000e+00 -5.675108e-02 0.0
-1.313911e-02 5.675369e-02 0.0
-3.053060e-02 1.017353e-01 0.0
-4.348049e-02 1.094787e-01 0.0
-5.066760e-02 1.033207e-01 0.0
-5.208475e-02 9.307792e-02 0.0
-4.779399e-02 8.185676e-02 0.0
-3.756478e-02 6.996882e-02 0.0
-1.999197e-02 5.580974e-02 0.0
6.416236e-03 3.868246e-02 0.0
4.621182e-02 1.305464e-02 0.0
1.046570e-01 -2.380304e-02 0.0
1.780635e-01 -7.036072e-02 0.0
2.608914e-01 -1.252262e-01 0.0
3.478590e-01 -1.839879e-01 0.0
4.327768e-01 -2.418157e-01 0.0
5.106572e-01 -2.931253e-01 0.0
5.785002e-01 -3.328823e-01 0.0
6.345404e-01 -3.580467e-01 0.0
6.784950e-01 -3.671711e-01 0.0
7.108714e-01 -3.598334e-01 0.0
7.350172e-01 -3.391268e-01 0.0
7.537182e-01 -3.094390e-01 0.0
7.689134e-01 -2.744929e-01 0.0
7.818216e-01 -2.372796e-01 0.0
7.931384e-01 -2.000858e-01 0.0
8.032217e-01 -1.645471e-01 0.0
8.122079e-01 -1.316840e-01 0.0
8.201160e-01 -1.020620e-01 0.0
8.269183e-01 -7.592561e-02 0.0
8.325923e-01 -5.331832e-02 0.0
8.371370e-01 -3.413697e-02 0.0
8.405638e-01 -1.816993e-02 0.0
8.429064e-01 -5.167187e-03 0.0
8.443007e-01 5.172381e-03 0.0
8.448554e-01 1.336539e-02 0.0
8.446611e-01 1.981552e-02 0.0
8.438001e-01 2.483835e-02 0.0
8.423497e-01 2.868724e-02 0.0
8.403831e-01 3.156894e-02 0.0
8.379673e-01 3.365349e-02 0.0
8.351637e-01 3.508229e-02 0.0
8.320257e-01 3.597293e-02 0.0
8.285894e-01 3.642134e-02 0.0
8.248924e-01 3.650230e-02 0.0
8.209761e-01 3.628271e-02 0.0
8.168799e-01 3.582041e-02 0.0
8.126407e-01 3.516363e-02 0.0
8.082924e-01 3.435345e-02 0.0
8.038658e-01 3.342519e-02 0.0
7.993880e-01 3.240939e-02 0.0
7.948830e-01 3.133169e-02 0.0
7.903720e-01 3.021371e-02 0.0
7.858733e-01 2.907353e-02 0.0
7.814029e-01 2.792614e-02 0.0
7.769746e-01 2.678381e-02 0.0
7.725999e-01 2.565641e-02 0.0
7.682888e-01 2.455175e-02 0.0
7.640494e-01 2.347585e-02 0.0
7.598884e-01 2.243320e-02 0.0
7.558113e-01 2.142696e-02 0.0
7.518224e-01 2.045918e-02 0.0
7.479249e-01 1.953097e-02 0.0
7.441214e-01 1.864262e-02 0.0
7.404134e-01 1.779377e-02 0.0
7.368022e-01 1.698347e-02 0.0
7.332882e-01 1.621033e-02 0.0
7.298717e-01 1.547253e-02 0.0
7.265526e-01 1.476793e-02 0.0
7.233304e-01 1.409409e-02 0.0
7.202046e-01 1.344830e-02 0.0
7.171748e-01 1.282760e-02 0.0
7.142405e-01 1.222882e-02 0.0
7.114011e-01 1.164851e-02 0.0
7.086564e-01 1.108303e-02 0.0
7.060065e-01 1.052847e-02 0.0
7.034517e-01 9.980654e-03 0.0
7.009926e-01 9.434967e-03 0.0
6.986307e-01 8.886388e-03 0.0
6.963680e-01 8.329445e-03 0.0
6.942074e-01 7.758169e-03 0.0
6.921531e-01 7.166073e-03 0.0
6.902108e-01 6.546163e-03 0.0
6.883885e-01 5.891031e-03 0.0
6.866980e-01 5.193047e-03 0.0
6.851564e-01 4.444760e-03 0.0
6.837904e-01 3.639725e-03 0.0
6.826421e-01 2.773851e-03 0.0
6.817793e-01 1.848878e-03 0.0
6.813038e-01 8.850187e-04 0.0
6.813038e-01 -3.937815e-10 0.0
0.000000e+00 -4.509478e-10 0.0
0.000000e+00 0.000000e+00 0.0
0.000000e+00 0.000000e+00 0.0
0.000000e+00 0.000000e+00 0.0
0.000000e+00 0.000000e+00 0.0
0.000000e+00 0.000000e+00 0.0
0.000000e+00 0.000000e+00 0.0
0.000000e+00 0.000000e+00 0.0
0.000000e+00 0.000000e+00 0.0
0.000000e+00 0.000000e+00 0.0
0.000000e+00 0.000000e+00 0.0
0.000000e+00 -7.039667e-02 0.0
-1.364231e-02 7.039998e-02 0.0
-2.291061e-02 1.110022e-01 0.0
-2.230191e-02 1.088684e-01 0.0
-1.382989e-02 9.484871e-02 0.0
1.894804e-03 7.735517e-02 0.0
2.499394e-02 5.875946e-02 0.0
5.575644e-02 3.920621e-02 0.0
9.780235e-02 1.376195e-02 0.0
1.559771e-01 -1.949391e-02 0.0
2.283685e-01 -5.933664e-02 0.0
3.106177e-01 -1.060509e-01 0.0
3.983637e-01 -1.581059e-01 0.0
4.861150e-01 -2.129779e-01 0.0
5.688920e-01 -2.667658e-01 0.0
6.423113e-01 -3.152354e-01 0.0
7.034517e-01 -3.542655e-01 0.0
7.511878e-01 -3.806182e-01 0.0
7.857377e-01 -3.925965e-01 0.0
8.082122e-01 -3.896457e-01 0.0
8.215273e-01 -3.731484e-01 0.0
8.291124e-01 -3.467118e-01 0.0
8.334558e-01 -3.137823e-01 0.0
8.362298e-01 -2.772670e-01 0.0
8.384436e-01 -2.394934e-01 0.0
8.406386e-01 -2.022809e-01 0.0
8.430669e-01 -1.669754e-01 0.0
8.457466e-01 -1.343637e-01 0.0
8.485722e-01 -1.048875e-01 0.0
8.513838e-01 -7.873704e-02 0.0
8.540319e-01 -5.596637e-02 0.0
8.563934e-01 -3.649866e-02 0.0
8.583503e-01 -2.012702e-02 0.0
8.598174e-01 -6.634250e-03 0.0
8.607636e-01 4.226323e-03 0.0
8.612000e-01 1.292910e-02 0.0
8.611498e-01 1.986578e-02 0.0
8.606466e-01 2.534135e-02 0.0
8.597314e-01 2.960237e-02 0.0
8.584481e-01 3.285234e-02 0.0
8.568405e-01 3.526113e-02 0.0
8.549511e-01 3.697175e-02 0.0
8.528190e-01 3.810493e-02 0.0
8.504780e-01 3.876231e-02 0.0
8.479514e-01 3.902892e-02 0.0
8.452611e-01 3.897303e-02 0.0
8.424311e-01 3.865045e-02 0.0
8.394849e-01 3.810981e-02 0.0
8.364447e-01 3.739363e-02 0.0
8.333307e-01 3.653919e-02 0.0
8.301605e-01 3.557967e-02 0.0
8.269497e-01 3.454248e-02 0.0
8.237123e-01 3.345105e-02 0.0
8.204607e-01 3.232513e-02 0.0
8.172057e-01 3.118120e-02 0.0
8.139566e-01 3.003283e-02 0.0
8.107220e-01 2.889110e-02 0.0
8.075088e-01 2.776488e-02 0.0
8.043236e-01 2.666112e-02 0.0
8.011716e-01 2.558516e-02 0.0
7.980577e-01 2.454091e-02 0.0
7.949858e-01 2.353109e-02 0.0
7.919593e-01 2.255738e-02 0.0
7.889813e-01 2.162062e-02 0.0
7.860542e-01 2.072086e-02 0.0
7.831801e-01 1.985759e-02 0.0
7.803608e-01 1.902970e-02 0.0
7.775976e-01 1.823569e-02 0.0
7.748919e-01 1.747362e-02 0.0
7.722448e-01 1.674122e-02 0.0
7.696572e-01 1.603591e-02 0.0
7.671300e-01 1.535481e-02 0.0
7.646641e-01 1.469473e-02 0.0
7.622604e-01 1.405222e-02 0.0
7.599199e-01 1.342349e-02 0.0
7.576438e-01 1.280455e-02 0.0
7.554334e-01 1.219108e-02 0.0
7.532902e-01 1.157813e-02 0.0
7.512164e-01 1.096025e-02 0.0
7.492144e-01 1.033144e-02 0.0
7.472875e-01 9.685007e-03 0.0
7.454401e-01 9.013460e-03 0.0
7.436779e-01 8.308362e-03 0.0
7.420088e-01 7.560120e-03 0.0
7.404442e-01 6.757673e-03 0.0
7.390010e-01 5.887991e-03 0.0
7.377055e-01 4.935235e-03 0.0
7.366000e-01 3.879322e-03 0.0
7.357540e-01 2.694917e-03 0.0
7.352763e-01 1.362712e-03 0.0
7.352763e-01 -2.577109e-10 0.0
0.000000e+00 -3.091499e-10 0.0
0.000000e+00 0.000000e+00 0.0
0.000000e+00 0.000000e+00 0.0
0.000000e+00 0.000000e+00 0.0
0.000000e+00 0.000000e+00 0.0
0.000000e+00 0.000000e+00 0.0
0.000000e+00 0.000000e+00 0.0
0.000000e+00 0.000000e+00 0.0
0.000000e+00 0.000000e+00 0.0
0.000000e+00 0.000000e+00 0.0
0.000000e+00 0.000000e+00 0.0
0.000000e+00 -8.412603e-02 0.0
-1.372539e-02 8.412770e-02 0.0
-5.676806e-03 1.029504e-01 0.0
1.885839e-02 8.433047e-02 0.0
5.211575e-02 6.159110e-02 0.0
9.300882e-02 3.646398e-02 0.0
1.442425e-01 7.527418e-03 0.0
2.088260e-01 -2.537810e-02 0.0
2.842365e-01 -6.165106e-02 0.0
3.670267e-01 -1.022857e-01 0.0
4.544163e-01 -1.467255e-01 0.0
5.424448e-01 -1.940776e-01 0.0
6.269036e-01 -2.425639e-01 0.0
7.036138e-01 -2.896889e-01 0.0
7.691895e-01 -3.323427e-01 0.0
8.213376e-01 -3.673838e-01 0.0
8.591867e-01 -3.921142e-01 0.0
8.832962e-01 -4.047273e-01 0.0
8.952212e-01 -4.045215e-01 0.0
8.974731e-01 -3.918978e-01 0.0
8.937702e-01 -3.694456e-01 0.0
8.869160e-01 -3.398576e-01 0.0
8.789587e-01 -3.058250e-01 0.0
8.712215e-01 -2.695298e-01 0.0
8.644480e-01 -2.327199e-01 0.0
8.589909e-01 -1.968237e-01 0.0
8.549841e-01 -1.629687e-01 0.0
8.523192e-01 -1.316988e-01 0.0
8.507900e-01 -1.033582e-01 0.0
8.501584e-01 -7.810529e-02 0.0
8.501640e-01 -5.597195e-02 0.0
8.505522e-01 -3.688704e-02 0.0
8.511196e-01 -2.069457e-02 0.0
8.516955e-01 -7.210163e-03 0.0
8.521426e-01 3.779471e-03 0.0
8.523744e-01 1.269736e-02 0.0
8.523521e-01 1.988804e-02 0.0
8.520654e-01 2.562789e-02 0.0
8.515219e-01 3.014590e-02 0.0
8.507390e-01 3.363521e-02 0.0
8.497400e-01 3.626022e-02 0.0
8.485501e-01 3.816166e-02 0.0
8.471948e-01 3.946022e-02 0.0
8.456978e-01 4.025925e-02 0.0
8.440796e-01 4.064715e-02 0.0
8.423539e-01 4.069879e-02 0.0
8.405344e-01 4.046991e-02 0.0
8.386358e-01 4.000840e-02 0.0
8.366717e-01 3.935773e-02 0.0
8.346543e-01 3.855658e-02 0.0
8.325949e-01 3.763911e-02 0.0
8.305030e-01 3.663435e-02 0.0
8.283870e-01 3.556704e-02 0.0
8.262541e-01 3.445801e-02 0.0
8.241107e-01 3.332467e-02 0.0
8.219621e-01 3.218140e-02 0.0
8.198133e-01 3.103995e-02 0.0
8.176684e-01 2.990976e-02 0.0
8.155312e-01 2.879830e-02 0.0
8.134050e-01 2.771132e-02 0.0
8.112928e-01 2.665312e-02 0.0
8.091972e-01 2.562673e-02 0.0
8.071204e-01 2.463412e-02 0.0
8.050647e-01 2.367636e-02 0.0
8.030318e-01 2.275374e-02 0.0
8.010235e-01 2.186590e-02 0.0
7.990413e-01 2.101192e-02 0.0
7.970866e-01 2.019039e-02 0.0
7.951607e-01 1.939950e-02 0.0
7.932649e-01 1.863705e-02 0.0
7.914003e-01 1.790051e-02 0.0
7.895681e-01 1.718702e-02 0.0
7.877694e-01 1.649340e-02 0.0
7.860055e-01 1.581613e-02 0.0
7.842777e-01 1.515131e-02 0.0
7.825873e-01 1.449492e-02 0.0
7.809358e-01 1.384262e-02 0.0
7.793248e-01 1.318912e-02 0.0
7.777564e-01 1.252868e-02 0.0
7.762329e-01 1.185488e-02 0.0
7.747575e-01 1.116048e-02 0.0
7.733337e-01 1.043720e-02 0.0
7.719667e-01 9.675418e-03 0.0
7.706630e-01 8.863734e-03 0.0
7.694325e-01 7.988191e-03 0.0
7.682895e-01 7.031033e-03 0.0
7.672562e-01 5.968485e-03 0.0
7.663686e-01 4.766977e-03 0.0
7.656851e-01 3.378436e-03 0.0
7.652974e-01 1.750340e-03 0.0
7.652974e-01 -1.269849e-10 0.0
0.000000e+00 -1.814377e-10 0.0
0.000000e+00 0.000000e+00 0.0
0.000000e+00 0.000000e+00 0.0
0.000000e+00 0.000000e+00 0.0
0.000000e+00 0.000000e+00 0.0
0.000000e+00 0.000000e+00 0.0
0.000000e+00 0.000000e+00 0.0
0.000000e+00 0.000000e+00 0.0
0.000000e+00 0.000000e+00 0.0
0.000000e+00 0.000000e+00 0.0
0.000000e+00 0.000000e+00 0.0
0.000000e+00 -7.897091e-02 0.0
5.158593e-03 7.896918e-02 0.0
5.424092e-02 5.386518e-02 0.0
1.182768e-01 2.029219e-02 0.0
1.921984e-01 -1.233021e-02 0.0
2.730366e-01 -4.437167e-02 0.0
3.576229e-01 -7.705709e-02 0.0
4.442479e-01 -1.120046e-01 0.0
5.316871e-01 -1.490934e-01 0.0
6.175898e-01 -1.881898e-01 0.0
6.993930e-01 -2.285272e-01 0.0
7.742357e-01 -2.689182e-01 0.0
8.393426e-01 -3.076704e-01 0.0
8.923667e-01 -3.427142e-01 0.0