# vtk DataFile Version 3.0
Vector Field
ASCII
DATASET RECTILINEAR_GRID
DIMENSIONS 102 22 1
X_COORDINATES 102 double
0.000000 0.100000 0.200000 0.300000 0.400000 0.500000 0.600000 0.700000 0.800000 0.900000 1.000000 1.100000 1.200000 1.300000 1.400000 1.500000 1.600000 1.700000 1.800000 1.900000 2.000000 2.100000 2.200000 2.300000 2.400000 2.500000 2.600000 2.700000 2.800000 2.900000 3.000000 3.100000 3.200000 3.300000 3.400000 3.500000 3.600000 3.700000 3.800000 3.900000 4.000000 4.100000 4.200000 4.300000 4.400000 4.500000 4.600000 4.700000 4.800000 4.900000 5.000000 5.100000 5.200000 5.300000 5.400000 5.500000 5.600000 5.700000 5.800000 5.900000 6.000000 6.100000 6.200000 6.300000 6.400000 6.500000 6.600000 6.700000 6.800000 6.900000 7.000000 7.100000 7.200000 7.300000 7.400000 7.500000 7.600000 7.700000 7.800000 7.900000 8.000000 8.100000 8.200000 8.300000 8.400000 8.500000 8.600000 8.700000 8.800000 8.900000 9.000000 9.100000 9.200000 9.300000 9.400000 9.500000 9.600000 9.700000 9.800000 9.900000 10.000000 10.100000 
Y_COORDINATES 22 double
0.000000 0.100000 0.200000 0.300000 0.400000 0.500000 0.600000 0.700000 0.800000 0.900000 1.000000 1.100000 1.200000 1.300000 1.400000 1.500000 1.600000 1.700000 1.800000 1.900000 2.000000 2.100000 
Z_COORDINATES 1 double
0.0
POINT_DATA 2244
VECTORS Velocity double
0.000000e+00 0.000000e+00 0.0
-0.000000e+00 0.000000e+00 0.0
-0.000000e+00 0.000000e+00 0.0
-0.000000e+00 0.000000e+00 0.0
-0.000000e+00 0.000000e+00 0.0
-0.000000e+00 0.000000e+00 0.0
-0.000000e+00 0.000000e+00 0.0
-0.000000e+00 0.000000e+00 0.0
-0.000000e+00 0.000000e+00 0.0
-0.000000e+00 0.000000e+00 0.0
-0.000000e+00 0.000000e+00 0.0
-4.161333e-04 0.000000e+00 0.0
4.105537e-03 0.000000e+00 0.0
1.079366e-02 0.000000e+00 0.0
1.838915e-02 0.000000e+00 0.0
2.646677e-02 0.000000e+00 0.0
3.506914e-02 0.000000e+00 0.0
4.442161e-02 0.000000e+00 0.0
5.480626e-02 0.000000e+00 0.0
6.651652e-02 0.000000e+00 0.0
7.981950e-02 0.000000e+00 0.0
9.489542e-02 0.000000e+00 0.0
1.117300e-01 0.000000e+00 0.0
1.299633e-01 0.000000e+00 0.0
1.487242e-01 0.000000e+00 0.0
1.664841e-01 0.000000e+00 0.0
1.809705e-01 0.000000e+00 0.0
1.891284e-01 0.000000e+00 0.0
1.877451e-01 0.000000e+00 0.0
1.746305e-01 0.000000e+00 0.0
1.490566e-01 0.000000e+00 0.0
1.126741e-01 0.000000e+00 0.0
6.892091e-02 0.000000e+00 0.0
1.996728e-02 0.000000e+00 0.0
-2.829097e-02 0.000000e+00 0.0
-6.974125e-02 0.000000e+00 0.0
-1.026039e-01 0.000000e+00 0.0
-1.269500e-01 0.000000e+00 0.0
-1.436714e-01 0.000000e+00 0.0
-1.539964e-01 0.000000e+00 0.0
-1.592429e-01 0.000000e+00 0.0
-1.606648e-01 0.000000e+00 0.0
-1.590537e-01 0.000000e+00 0.0
-1.550396e-01 0.000000e+00 0.0
-1.493790e-01 0.000000e+00 0.0
-1.427263e-01 0.000000e+00 0.0
-1.355866e-01 0.000000e+00 0.0
-1.283416e-01 0.000000e+00 0.0
-1.212481e-01 0.000000e+00 0.0
-1.144922e-01 0.000000e+00 0.0
-1.081938e-01 0.000000e+00 0.0
-1.024241e-01 0.000000e+00 0.0
-9.721749e-02 0.000000e+00 0.0
-9.258333e-02 0.000000e+00 0.0
-8.851453e-02 0.000000e+00 0.0
-8.499373e-02 0.000000e+00 0.0
-8.199702e-02 0.000000e+00 0.0
-7.949614e-02 0.000000e+00 0.0
-7.745975e-02 0.000000e+00 0.0
-7.585408e-02 0.000000e+00 0.0
-7.464327e-02 0.000000e+00 0.0
-7.378964e-02 0.000000e+00 0.0
-7.325378e-02 0.000000e+00 0.0
-7.299473e-02 0.000000e+00 0.0
-7.297007e-02 0.000000e+00 0.0
-7.313590e-02 0.000000e+00 0.0
-7.344687e-02 0.000000e+00 0.0
-7.385751e-02 0.000000e+00 0.0
-7.432790e-02 0.000000e+00 0.0
-7.483576e-02 0.000000e+00 0.0
-7.537134e-02 0.000000e+00 0.0
-7.592859e-02 0.000000e+00 0.0
-7.649907e-02 0.000000e+00 0.0
-7.707166e-02 0.000000e+00 0.0
-7.763229e-02 0.000000e+00 0.0
-7.816829e-02 0.000000e+00 0.0
-7.866953e-02 0.000000e+00 0.0
-7.913044e-02 0.000000e+00 0.0
-7.954914e-02 0.000000e+00 0.0
-7.992429e-02 0.000000e+00 0.0
-8.025537e-02 0.000000e+00 0.0
-8.054282e-02 0.000000e+00 0.0
-8.078912e-02 0.000000e+00 0.0
-8.099789e-02 0.000000e+00 0.0
-8.117216e-02 0.000000e+00 0.0
-8.131501e-02 0.000000e+00 0.0
-8.142980e-02 0.000000e+00 0.0
-8.151969e-02 0.000000e+00 0.0
-8.158768e-02 0.000000e+00 0.0
-8.163658e-02 0.000000e+00 0.0
-8.166907e-02 0.000000e+00 0.0
-8.168772e-02 0.000000e+00 0.0
-8.169525e-02 0.000000e+00 0.0
-8.169489e-02 0.000000e+00 0.0
-8.169095e-02 0.000000e+00 0.0
-8.168876e-02 0.000000e+00 0.0
-8.169363e-02 0.000000e+00 0.0
-8.171074e-02 0.000000e+00 0.0
-8.174433e-02 0.000000e+00 0.0
-8.179766e-02 0.000000e+00 0.0
-8.179766e-02 0.000000e+00 0.0
0.000000e+00 0.000000e+00 0.0
0.000000e+00 0.000000e+00 0.0
0.000000e+00 0.000000e+00 0.0
0.000000e+00 0.000000e+00 0.0
0.000000e+00 0.000000e+00 0.0
0.000000e+00 0.000000e+00 0.0
0.000000e+00 0.000000e+00 0.0
0.000000e+00 0.000000e+00 0.0
0.000000e+00 0.000000e+00 0.0
0.000000e+00 0.000000e+00 0.0
0.000000e+00 0.000000e+00 0.0
0.000000e+00 -1.724080e-03 0.0
4.060253e-04 1.712372e-03 0.0
-4.112469e-03 5.736573e-03 0.0
-1.079748e-02 7.903094e-03 0.0
-1.839068e-02 8.811272e-03 0.0
-2.646687e-02 9.294270e-03 0.0
-3.506864e-02 9.819843e-03 0.0
-4.442129e-02 1.057073e-02 0.0
-5.480684e-02 1.160363e-02 0.0
-6.651866e-02 1.292989e-02 0.0
-7.982371e-02 1.452313e-02 0.0
-9.490199e-02 1.629636e-02 0.0
-1.117389e-01 1.805501e-02 0.0
-1.299744e-01 1.945352e-02 0.0
-1.487369e-01 1.998059e-02 0.0
-1.664974e-01 1.897866e-02 0.0
-1.809839e-01 1.570455e-02 0.0
-1.891427e-01 9.376821e-03 0.0
-1.877617e-01 -1.628763e-04 0.0
-1.746518e-01 -1.189183e-02 0.0
-1.490854e-01 -2.434835e-02 0.0
-1.127119e-01 -3.515542e-02 0.0
-6.896797e-02 -4.252584e-02 0.0
-2.002048e-02 -4.772941e-02 0.0
2.824683e-02 -4.704923e-02 0.0
6.971813e-02 -4.025323e-02 0.0
1.026104e-01 -3.167416e-02 0.0
1.269918e-01 -2.316334e-02 0.0
1.437520e-01 -1.554209e-02 0.0
1.541170e-01 -9.147003e-03 0.0
1.594027e-01 -4.067561e-03 0.0
1.608617e-01 -2.409271e-04 0.0
1.592968e-01 2.782987e-03 0.0
1.553261e-01 5.188762e-03 0.0
1.497024e-01 6.841802e-03 0.0
1.430789e-01 7.841548e-03 0.0
1.359605e-01 8.336515e-03 0.0
1.287274e-01 8.451185e-03 0.0
1.216368e-01 8.308609e-03 0.0
1.148744e-01 7.980451e-03 0.0
1.085614e-01 7.531170e-03 0.0
1.027699e-01 7.009494e-03 0.0
9.753617e-02 6.451851e-03 0.0
9.287060e-02 5.883646e-03 0.0
8.876725e-02 5.321428e-03 0.0
8.520967e-02 4.775663e-03 0.0
8.217473e-02 4.253020e-03 0.0
7.963489e-02 3.757917e-03 0.0
7.755948e-02 3.293485e-03 0.0
7.591541e-02 2.862153e-03 0.0
7.466751e-02 2.465984e-03 0.0
7.377875e-02 2.106839e-03 0.0
7.321039e-02 1.786434e-03 0.0
7.292212e-02 1.506352e-03 0.0
7.287211e-02 1.268091e-03 0.0
7.301700e-02 1.073181e-03 0.0
7.331192e-02 9.231582e-04 0.0
7.371146e-02 8.185451e-04 0.0
7.417453e-02 7.550094e-04 0.0
7.467682e-02 7.157928e-04 0.0
7.520785e-02 6.870457e-04 0.0
7.576181e-02 6.641140e-04 0.0
7.633044e-02 6.494590e-04 0.0
7.690305e-02 6.454670e-04 0.0
7.746568e-02 6.554464e-04 0.0
7.800544e-02 6.783196e-04 0.0
7.851193e-02 7.115852e-04 0.0
7.897824e-02 7.517700e-04 0.0
7.940261e-02 7.937135e-04 0.0
7.978374e-02 8.369537e-04 0.0
8.012101e-02 8.808045e-04 0.0
8.041468e-02 9.244109e-04 0.0
8.066669e-02 9.660728e-04 0.0
8.088071e-02 1.004054e-03 0.0
8.105989e-02 1.038906e-03 0.0
8.120721e-02 1.070757e-03 0.0
8.132600e-02 1.099286e-03 0.0
8.141946e-02 1.124620e-03 0.0
8.149060e-02 1.146944e-03 0.0
8.154225e-02 1.166426e-03 0.0
8.157711e-02 1.183224e-03 0.0
8.159778e-02 1.197406e-03 0.0
8.160700e-02 1.208863e-03 0.0
8.160796e-02 1.217119e-03 0.0
8.160493e-02 1.221103e-03 0.0
8.160329e-02 1.219720e-03 0.0
8.160838e-02 1.212994e-03 0.0
8.162539e-02 1.201073e-03 0.0
8.165861e-02 1.184859e-03 0.0
8.171138e-02 1.165304e-03 0.0
8.179766e-02 1.131801e-03 0.0
0.000000e+00 1.143557e-03 0.0
0.000000e+00 0.000000e+00 0.0
0.000000e+00 0.000000e+00 0.0
0.000000e+00 0.000000e+00 0.0
0.000000e+00 0.000000e+00 0.0
0.000000e+00 0.000000e+00 0.0
0.000000e+00 0.000000e+00 0.0
0.000000e+00 0.000000e+00 0.0
0.000000e+00 0.000000e+00 0.0
0.000000e+00 0.000000e+00 0.0
0.000000e+00 0.000000e+00 0.0
0.000000e+00 -7.157135e-03 0.0
-4.215457e-03 7.145907e-03 0.0
-1.705769e-02 1.889657e-02 0.0
-3.394844e-02 2.511160e-02 0.0
-5.255766e-02 2.773825e-02 0.0
-7.194460e-02 2.899897e-02 0.0
-9.196610e-02 3.015910e-02 0.0
-1.127739e-01 3.169633e-02 0.0
-1.345411e-01 3.368857e-02 0.0
-1.573191e-01 3.602563e-02 0.0
-1.809217e-01 3.844348e-02 0.0
-2.048255e-01 4.051797e-02 0.0
-2.280442e-01 4.159145e-02 0.0
-2.489811e-01 4.070812e-02 0.0
-2.652493e-01 3.656662e-02 0.0
-2.740915e-01 2.813860e-02 0.0
-2.723469e-01 1.427768e-02 0.0
-2.556244e-01 -7.027923e-03 0.0
-2.226564e-01 -3.281311e-02 0.0
-1.748183e-01 -5.941220e-02 0.0
-1.144429e-01 -8.440591e-02 0.0
-4.398138e-02 -1.052992e-01 0.0
3.224011e-02 -1.184296e-01 0.0
1.047839e-01 -1.199554e-01 0.0
1.693006e-01 -1.112482e-01 0.0
2.255172e-01 -9.615206e-02 0.0
2.725985e-01 -7.843771e-02 0.0
3.103637e-01 -6.061077e-02 0.0
3.392127e-01 -4.407335e-02 0.0
3.598959e-01 -2.951243e-02 0.0
3.733345e-01 -1.718840e-02 0.0
3.805061e-01 -7.094800e-03 0.0
3.826351e-01 9.717593e-04 0.0
3.805858e-01 7.555840e-03 0.0
3.751324e-01 1.261296e-02 0.0
3.669820e-01 1.630973e-02 0.0
3.567701e-01 1.886611e-02 0.0
3.450425e-01 2.049654e-02 0.0
3.323401e-01 2.132877e-02 0.0
3.191920e-01 2.144635e-02 0.0
3.060296e-01 2.101137e-02 0.0
2.932043e-01 2.015251e-02 0.0
2.809899e-01 1.898397e-02 0.0
2.695911e-01 1.760027e-02 0.0
2.591533e-01 1.607698e-02 0.0
2.497720e-01 1.447475e-02 0.0
2.414999e-01 1.284284e-02 0.0
2.343539e-01 1.122170e-02 0.0
2.283204e-01 9.644701e-03 0.0
2.233610e-01 8.139349e-03 0.0
2.194166e-01 6.728109e-03 0.0
2.164122e-01 5.428982e-03 0.0
2.142605e-01 4.255894e-03 0.0
2.128656e-01 3.219036e-03 0.0
2.121262e-01 2.325305e-03 0.0
2.119382e-01 1.578921e-03 0.0
2.121970e-01 9.821308e-04 0.0
2.127983e-01 5.350051e-04 0.0
2.136402e-01 2.308620e-04 0.0
2.146530e-01 2.072197e-05 0.0
2.157857e-01 -1.278696e-04 0.0
2.169896e-01 -2.220460e-04 0.0
2.182256e-01 -2.687997e-04 0.0
2.194623e-01 -2.734223e-04 0.0
2.206736e-01 -2.381405e-04 0.0
2.218403e-01 -1.706330e-04 0.0
2.229498e-01 -8.014003e-05 0.0
2.239931e-01 2.620848e-05 0.0
2.249596e-01 1.450190e-04 0.0
2.258447e-01 2.696076e-04 0.0
2.266477e-01 3.955438e-04 0.0
2.273692e-01 5.206982e-04 0.0
2.280102e-01 6.428236e-04 0.0
2.285759e-01 7.560993e-04 0.0
2.290704e-01 8.622118e-04 0.0
2.294977e-01 9.611552e-04 0.0
2.298637e-01 1.051031e-03 0.0
2.301741e-01 1.132030e-03 0.0
2.304344e-01 1.204399e-03 0.0
2.306502e-01 1.268348e-03 0.0
2.308270e-01 1.324178e-03 0.0
2.309702e-01 1.371995e-03 0.0
2.310853e-01 1.411582e-03 0.0
2.311780e-01 1.442105e-03 0.0
2.312552e-01 1.461704e-03 0.0
2.313260e-01 1.466650e-03 0.0
2.314021e-01 1.454679e-03 0.0
2.314965e-01 1.424460e-03 0.0
2.316242e-01 1.374889e-03 0.0
2.318034e-01 1.303881e-03 0.0
2.320696e-01 1.183337e-03 0.0
0.000000e+00 1.195854e-03 0.0
0.000000e+00 0.000000e+00 0.0
0.000000e+00 0.000000e+00 0.0
0.000000e+00 0.000000e+00 0.0
0.000000e+00 0.000000e+00 0.0
0.000000e+00 0.000000e+00 0.0
0.000000e+00 0.000000e+00 0.0
0.000000e+00 0.000000e+00 0.0
0.000000e+00 0.000000e+00 0.0
0.000000e+00 0.000000e+00 0.0
0.000000e+00 0.000000e+00 0.0
0.000000e+00 -1.697190e-02 0.0
-8.598493e-03 1.696248e-02 0.0
-2.783630e-02 3.845214e-02 0.0
-5.091771e-02 4.851077e-02 0.0
-7.483397e-02 5.197227e-02 0.0
-9.841914e-02 5.290190e-02 0.0
-1.213372e-01 5.339494e-02 0.0
-1.434822e-01 5.415911e-02 0.0
-1.647022e-01 5.522627e-02 0.0
-1.846763e-01 5.631749e-02 0.0
-2.027933e-01 5.687823e-02 0.0
-2.181288e-01 5.617122e-02 0.0
-2.294093e-01 5.318974e-02 0.0
-2.350966e-01 4.671318e-02 0.0
-2.323309e-01 3.411874e-02 0.0
-2.172200e-01 1.334545e-02 0.0
-1.849658e-01 -1.765878e-02 0.0
-1.368060e-01 -5.486999e-02 0.0
-7.392638e-02 -9.537494e-02 0.0
5.654823e-04 -1.335863e-01 0.0
7.999341e-02 -1.635161e-01 0.0
1.572370e-01 -1.822250e-01 0.0
2.283005e-01 -1.891754e-01 0.0
2.911015e-01 -1.824386e-01 0.0
3.458600e-01 -1.656890e-01 0.0
3.932530e-01 -1.432273e-01 0.0
4.335724e-01 -1.184394e-01 0.0
4.669656e-01 -9.368618e-02 0.0
4.936448e-01 -7.043481e-02 0.0
5.139440e-01 -4.949386e-02 0.0
5.283083e-01 -3.123494e-02 0.0
5.372855e-01 -1.575418e-02 0.0
5.415433e-01 -2.968362e-03 0.0
5.418692e-01 7.547740e-03 0.0
5.388207e-01 1.597923e-02 0.0
5.328698e-01 2.257835e-02 0.0
5.244576e-01 2.759605e-02 0.0
5.140166e-01 3.125534e-02 0.0
5.019305e-01 3.373264e-02 0.0
4.885143e-01 3.518028e-02 0.0
4.742169e-01 3.562658e-02 0.0
4.594919e-01 3.519522e-02 0.0
4.447382e-01 3.405548e-02 0.0
4.303023e-01 3.235385e-02 0.0
4.164813e-01 3.021574e-02 0.0
4.035212e-01 2.775266e-02 0.0
3.916155e-01 2.506624e-02 0.0
3.809054e-01 2.224962e-02 0.0
3.714801e-01 1.938771e-02 0.0
3.633807e-01 1.655657e-02 0.0
3.566038e-01 1.382270e-02 0.0
3.511083e-01 1.124227e-02 0.0
3.468214e-01 8.860593e-03 0.0
3.436462e-01 6.711946e-03 0.0
3.414694e-01 4.819884e-03 0.0
3.401682e-01 3.197847e-03 0.0
3.396183e-01 1.849863e-03 0.0
3.396999e-01 7.711093e-04 0.0
3.403004e-01 -5.181762e-05 0.0
3.412682e-01 -6.292995e-04 0.0
3.424803e-01 -1.022232e-03 0.0
3.438457e-01 -1.269724e-03 0.0
3.452939e-01 -1.399222e-03 0.0
3.467721e-01 -1.433845e-03 0.0
3.482431e-01 -1.391417e-03 0.0
3.496769e-01 -1.286694e-03 0.0
3.510508e-01 -1.136215e-03 0.0
3.523495e-01 -9.547919e-04 0.0
3.535672e-01 -7.548858e-04 0.0
3.547024e-01 -5.478285e-04 0.0
3.557582e-01 -3.424947e-04 0.0
3.567416e-01 -1.449929e-04 0.0
3.576589e-01 4.333410e-05 0.0
3.585046e-01 2.281294e-04 0.0
3.592764e-01 4.081523e-04 0.0
3.599739e-01 5.814702e-04 0.0
3.606008e-01 7.418549e-04 0.0
3.611609e-01 8.896575e-04 0.0
3.616586e-01 1.024543e-03 0.0
3.620988e-01 1.145845e-03 0.0
3.624871e-01 1.253665e-03 0.0
3.628290e-01 1.347807e-03 0.0
3.631306e-01 1.427828e-03 0.0
3.633978e-01 1.492596e-03 0.0
3.636375e-01 1.539835e-03 0.0
3.638566e-01 1.565274e-03 0.0
3.640680e-01 1.560998e-03 0.0
3.642884e-01 1.521821e-03 0.0
3.645405e-01 1.440630e-03 0.0
3.648558e-01 1.306317e-03 0.0
3.652746e-01 1.082289e-03 0.0
0.000000e+00 1.094199e-03 0.0
0.000000e+00 0.000000e+00 0.0
0.000000e+00 0.000000e+00 0.0
0.000000e+00 0.000000e+00 0.0
0.000000e+00 0.000000e+00 0.0
0.000000e+00 0.000000e+00 0.0
0.000000e+00 0.000000e+00 0.0
0.000000e+00 0.000000e+00 0.0
0.000000e+00 0.000000e+00 0.0
0.000000e+00 0.000000e+00 0.0
0.000000e+00 0.000000e+00 0.0
0.000000e+00 -2.918285e-02 0.0
-1.099719e-02 2.917775e-02 0.0
-3.287012e-02 6.064283e-02 0.0
-5.696618e-02 7.292459e-02 0.0
-7.998392e-02 7.530777e-02 0.0
-1.008626e-01 7.409837e-02 0.0
-1.192578e-01 7.210783e-02 0.0
-1.349517e-01 7.017080e-02 0.0
-1.476547e-01 6.824704e-02 0.0
-1.569723e-01 6.595289e-02 0.0
-1.622018e-01 6.242541e-02 0.0
-1.623320e-01 5.661923e-02 0.0
-1.555366e-01 4.671204e-02 0.0
-1.401211e-01 3.161543e-02 0.0
-1.108621e-01 5.177582e-03 0.0
-6.331065e-02 -3.388829e-02 0.0
2.917966e-04 -8.094347e-02 0.0
7.523077e-02 -1.294912e-01 0.0
1.543144e-01 -1.741408e-01 0.0
2.321573e-01 -2.111115e-01 0.0
3.053695e-01 -2.364105e-01 0.0
3.715476e-01 -2.480853e-01 0.0
4.281928e-01 -2.455029e-01 0.0
4.759770e-01 -2.299050e-01 0.0
5.166090e-01 -2.060032e-01 0.0
5.512764e-01 -1.775769e-01 0.0
5.806672e-01 -1.475124e-01 0.0
6.051543e-01 -1.178555e-01 0.0
6.249750e-01 -8.993776e-02 0.0
6.403383e-01 -6.453938e-02 0.0
6.514798e-01 -4.205867e-02 0.0
6.586920e-01 -2.264861e-02 0.0
6.623409e-01 -6.299497e-03 0.0
6.629843e-01 7.222050e-03 0.0
6.609704e-01 1.831096e-02 0.0
6.565750e-01 2.729148e-02 0.0
6.500545e-01 3.443435e-02 0.0
6.416648e-01 3.996271e-02 0.0
6.316571e-01 4.405818e-02 0.0
6.202834e-01 4.687170e-02 0.0
6.077174e-01 4.851030e-02 0.0
5.942323e-01 4.899818e-02 0.0
5.801748e-01 4.843067e-02 0.0
5.658755e-01 4.697092e-02 0.0
5.516486e-01 4.476039e-02 0.0
5.377865e-01 4.193256e-02 0.0
5.245516e-01 3.861883e-02 0.0
5.121692e-01 3.494979e-02 0.0
5.008207e-01 3.105405e-02 0.0
4.906395e-01 2.705551e-02 0.0
4.817099e-01 2.306999e-02 0.0
4.740684e-01 1.920161e-02 0.0
4.677071e-01 1.553965e-02 0.0
4.625806e-01 1.215619e-02 0.0
4.586133e-01 9.104897e-03 0.0
4.557083e-01 6.420637e-03 0.0
4.537564e-01 4.119472e-03 0.0
4.526459e-01 2.199398e-03 0.0
4.522668e-01 6.450863e-04 0.0
4.525024e-01 -5.471657e-04 0.0
4.531777e-01 -1.379753e-03 0.0
4.541567e-01 -1.931010e-03 0.0
4.553331e-01 -2.257822e-03 0.0
4.566237e-01 -2.406739e-03 0.0
4.579739e-01 -2.423863e-03 0.0
4.593428e-01 -2.337747e-03 0.0
4.606990e-01 -2.174700e-03 0.0
4.620206e-01 -1.958651e-03 0.0
4.632935e-01 -1.710045e-03 0.0
4.645090e-01 -1.445544e-03 0.0
4.656619e-01 -1.177627e-03 0.0
4.667491e-01 -9.144455e-04 0.0
4.677701e-01 -6.598679e-04 0.0
4.687314e-01 -4.154181e-04 0.0
4.696416e-01 -1.842797e-04 0.0
4.705086e-01 3.223358e-05 0.0
4.713278e-01 2.403482e-04 0.0
4.720945e-01 4.408010e-04 0.0
4.728067e-01 6.300532e-04 0.0
4.734659e-01 8.043750e-04 0.0
4.740740e-01 9.633292e-04 0.0
4.746341e-01 1.105456e-03 0.0
4.751500e-01 1.229702e-03 0.0
4.756260e-01 1.334348e-03 0.0
4.760670e-01 1.416663e-03 0.0
4.764780e-01 1.471975e-03 0.0
4.768663e-01 1.490513e-03 0.0
4.772464e-01 1.459496e-03 0.0
4.776404e-01 1.364348e-03 0.0
4.780819e-01 1.182608e-03 0.0
4.785996e-01 8.822908e-04 0.0
0.000000e+00 8.928144e-04 0.0
0.000000e+00 0.000000e+00 0.0
0.000000e+00 0.000000e+00 0.0
0.000000e+00 0.000000e+00 0.0
0.000000e+00 0.000000e+00 0.0
0.000000e+00 0.000000e+00 0.0
0.000000e+00 0.000000e+00 0.0
0.000000e+00 0.000000e+00 0.0
0.000000e+00 0.000000e+00 0.0
0.000000e+00 0.000000e+00 0.0
0.000000e+00 0.000000e+00 0.0
0.000000e+00 -4.196081e-02 0.0
-1.156630e-02 4.196212e-02 0.0
-3.230223e-02 8.169652e-02 0.0
-5.261590e-02 9.355602e-02 0.0
-6.970729e-02 9.271692e-02 0.0
-8.295904e-02 8.766788e-02 0.0
-9.220424e-02 8.167079e-02 0.0
-9.730356e-02 7.558788e-02 0.0
-9.786777e-02 6.912901e-02 0.0
-9.352161e-02 6.192448e-02 0.0
-8.315332e-02 5.237489e-02 0.0
-6.537441e-02 3.915808e-02 0.0
-3.609399e-02 1.774938e-02 0.0
1.173460e-02 -1.589539e-02 0.0
7.549976e-02 -5.826982e-02 0.0
1.494071e-01 -1.074778e-01 0.0
2.282288e-01 -1.594474e-01 0.0
3.074730e-01 -2.084176e-01 0.0
3.831040e-01 -2.494541e-01 0.0
4.515784e-01 -2.792681e-01 0.0
5.110525e-01 -2.955668e-01 0.0
5.606638e-01 -2.973789e-01 0.0
6.002935e-01 -2.848147e-01 0.0
6.326918e-01 -2.619856e-01 0.0
6.596887e-01 -2.326824e-01 0.0
6.824552e-01 -2.000257e-01 0.0
7.016733e-01 -1.664127e-01 0.0
7.177026e-01 -1.335670e-01 0.0
7.307277e-01 -1.026451e-01 0.0
7.408544e-01 -7.434833e-02 0.0
7.481761e-01 -4.906263e-02 0.0
7.528200e-01 -2.697469e-02 0.0
7.549789e-01 -8.140725e-03 0.0
7.549802e-01 7.538530e-03 0.0
7.530281e-01 2.058083e-02 0.0
7.492814e-01 3.135593e-02 0.0
7.438879e-01 4.014564e-02 0.0
7.369985e-01 4.716986e-02 0.0
7.287705e-01 5.260400e-02 0.0
7.193678e-01 5.659212e-02 0.0
7.089441e-01 5.925176e-02 0.0
6.975921e-01 6.066794e-02 0.0
6.854910e-01 6.084948e-02 0.0
6.728724e-01 5.990736e-02 0.0
6.599791e-01 5.797144e-02 0.0
6.470581e-01 5.517126e-02 0.0
6.343514e-01 5.164336e-02 0.0
6.220862e-01 4.753270e-02 0.0
6.104668e-01 4.299122e-02 0.0
5.996661e-01 3.817401e-02 0.0
5.898198e-01 3.323402e-02 0.0
5.810232e-01 2.831601e-02 0.0
5.733302e-01 2.355041e-02 0.0
5.667560e-01 1.904812e-02 0.0
5.612815e-01 1.489719e-02 0.0
5.568588e-01 1.116105e-02 0.0
5.534184e-01 7.877609e-03 0.0
5.508755e-01 5.060097e-03 0.0
5.491360e-01 2.702377e-03 0.0
5.481130e-01 7.935984e-04 0.0
5.477234e-01 -6.724777e-04 0.0
5.478114e-01 -1.701257e-03 0.0
5.482486e-01 -2.377241e-03 0.0
5.489312e-01 -2.771579e-03 0.0
5.497754e-01 -2.950302e-03 0.0
5.507290e-01 -2.973526e-03 0.0
5.517512e-01 -2.879141e-03 0.0
5.528109e-01 -2.700621e-03 0.0
5.538848e-01 -2.466146e-03 0.0
5.549552e-01 -2.198237e-03 0.0
5.560092e-01 -1.913901e-03 0.0
5.570376e-01 -1.625055e-03 0.0
5.580351e-01 -1.339549e-03 0.0
5.590000e-01 -1.062597e-03 0.0
5.599313e-01 -7.978339e-04 0.0
5.608278e-01 -5.464630e-04 0.0
5.616936e-01 -3.077420e-04 0.0
5.625353e-01 -8.312208e-05 0.0
5.633541e-01 1.290025e-04 0.0
5.641444e-01 3.317985e-04 0.0
5.649015e-01 5.240388e-04 0.0
5.656238e-01 7.009319e-04 0.0
5.663107e-01 8.605483e-04 0.0
5.669628e-01 1.000038e-03 0.0
5.675813e-01 1.115854e-03 0.0
5.681684e-01 1.202700e-03 0.0
5.687251e-01 1.251542e-03 0.0
5.692580e-01 1.244344e-03 0.0
5.697807e-01 1.159464e-03 0.0
5.703148e-01 9.662556e-04 0.0
5.708664e-01 6.484578e-04 0.0
0.000000e+00 6.573488e-04 0.0
0.000000e+00 0.000000e+00 0.0
0.000000e+00 0.000000e+00 0.0
0.000000e+00 0.000000e+00 0.0
0.000000e+00 0.000000e+00 0.0
0.000000e+00 0.000000e+00 0.0
0.000000e+00 0.000000e+00 0.0
0.000000e+00 0.000000e+00 0.0
0.000000e+00 0.000000e+00 0.0
0.000000e+00 0.000000e+00 0.0
0.000000e+00 0.000000e+00 0.0
0.000000e+00 -5.477657e-02 0.0
-1.160365e-02 5.478385e-02 0.0
-2.829303e-02 9.870366e-02 0.0
-4.080739e-02 1.063881e-01 0.0
-4.793122e-02 1.001585e-01 0.0
-4.980039e-02 8.985481e-02 0.0
-4.654882e-02 7.873698e-02 0.0
-3.820426e-02 6.756108e-02 0.0
-2.365854e-02 5.490104e-02 0.0
-1.848230e-03 4.043194e-02 0.0
3.028285e-02 2.056157e-02 0.0
7.754537e-02 -7.786681e-03 0.0
1.400275e-01 -4.441501e-02 0.0
2.131551e-01 -8.870524e-02 0.0
2.932039e-01 -1.380009e-01 0.0
3.751306e-01 -1.890867e-01 0.0
4.539502e-01 -2.379492e-01 0.0
5.259767e-01 -2.801264e-01 0.0
5.887981e-01 -3.119577e-01 0.0
6.410351e-01 -3.311874e-01 0.0
6.824574e-01 -3.366713e-01 0.0
7.132912e-01 -3.278949e-01 0.0
7.365443e-01 -3.077501e-01 0.0
7.546084e-01 -2.797319e-01 0.0
7.691564e-01 -2.469127e-01 0.0
7.812522e-01 -2.118037e-01 0.0
7.914921e-01 -1.763349e-01 0.0
8.001508e-01 -1.419079e-01 0.0
8.073201e-01 -1.094966e-01 0.0
8.129827e-01 -7.969317e-02 0.0
8.170840e-01 -5.284618e-02 0.0
8.195888e-01 -2.916174e-02 0.0
8.205229e-01 -8.757085e-03 0.0
8.199852e-01 8.394032e-03 0.0
8.180496e-01 2.283412e-02 0.0
8.147857e-01 3.493756e-02 0.0
8.102707e-01 4.497842e-02 0.0
8.045939e-01 5.316443e-02 0.0
7.978566e-01 5.965906e-02 0.0
7.901697e-01 6.459682e-02 0.0
7.816464e-01 6.809274e-02 0.0
7.723880e-01 7.024416e-02 0.0
7.624410e-01 7.111426e-02 0.0
7.519395e-01 7.072663e-02 0.0
7.410414e-01 6.918723e-02 0.0
7.299215e-01 6.660893e-02 0.0
7.187637e-01 6.311889e-02 0.0
7.077529e-01 5.886127e-02 0.0
6.970663e-01 5.399557e-02 0.0
6.868659e-01 4.869221e-02 0.0
6.772914e-01 4.312625e-02 0.0
6.684552e-01 3.747002e-02 0.0
6.604387e-01 3.188465e-02 0.0
6.532928e-01 2.651176e-02 0.0
6.470393e-01 2.146851e-02 0.0
6.416732e-01 1.684489e-02 0.0
6.371664e-01 1.270215e-02 0.0
6.334710e-01 9.073246e-03 0.0
6.305238e-01 5.967392e-03 0.0
6.282561e-01 3.378991e-03 0.0
6.266067e-01 1.294737e-03 0.0
6.255343e-01 -3.111802e-04 0.0
6.249351e-01 -1.460213e-03 0.0
6.247019e-01 -2.220601e-03 0.0
6.247481e-01 -2.678819e-03 0.0
6.249990e-01 -2.906660e-03 0.0
6.254077e-01 -2.970069e-03 0.0
6.259376e-01 -2.912694e-03 0.0
6.265591e-01 -2.769897e-03 0.0
6.272485e-01 -2.569940e-03 0.0
6.279870e-01 -2.334629e-03 0.0
6.287595e-01 -2.079828e-03 0.0
6.295545e-01 -1.816716e-03 0.0
6.303626e-01 -1.553008e-03 0.0
6.311764e-01 -1.293834e-03 0.0
6.319900e-01 -1.042271e-03 0.0
6.328002e-01 -8.002303e-04 0.0
6.336041e-01 -5.692239e-04 0.0
6.344000e-01 -3.491348e-04 0.0
6.351897e-01 -1.401708e-04 0.0
6.359750e-01 5.654146e-05 0.0
6.367507e-01 2.430040e-04 0.0
6.375111e-01 4.178303e-04 0.0
6.382524e-01 5.765207e-04 0.0
6.389714e-01 7.146570e-04 0.0
6.396653e-01 8.265395e-04 0.0
6.403313e-01 9.032633e-04 0.0
6.409653e-01 9.281436e-04 0.0
6.415677e-01 8.748012e-04 0.0
6.421404e-01 7.112943e-04 0.0
6.426650e-01 4.416693e-04 0.0
0.000000e+00 4.490246e-04 0.0
0.000000e+00 0.000000e+00 0.0
0.000000e+00 0.000000e+00 0.0
0.000000e+00 0.000000e+00 0.0
0.000000e+00 0.000000e+00 0.0
0.000000e+00 0.000000e+00 0.0
0.000000e+00 0.000000e+00 0.0
0.000000e+00 0.000000e+00 0.0
0.000000e+00 0.000000e+00 0.0
0.000000e+00 0.000000e+00 0.0
0.000000e+00 0.000000e+00 0.0
0.000000e+00 -6.846202e-02 0.0
-1.247011e-02 6.847204e-02 0.0
-2.170850e-02 1.082598e-01 0.0
-2.132951e-02 1.063269e-01 0.0
-1.345522e-02 9.260198e-02 0.0
9.538884e-04 7.576346e-02 0.0
2.195803e-02 5.805059e-02 0.0
4.935496e-02 4.048192e-02 0.0
8.585232e-02 1.872144e-02 0.0
1.357471e-01 -9.145055e-03 0.0
1.990830e-01 -4.245656e-02 0.0
2.726951e-01 -8.108105e-02 0.0
3.532231e-01 -1.246252e-01 0.0
4.364018e-01 -1.715662e-01 0.0
5.180245e-01 -2.193059e-01 0.0
5.940065e-01 -2.647510e-01 0.0
6.609567e-01 -3.045817e-01 0.0
7.167899e-01 -3.356417e-01 0.0
7.607314e-01 -3.555816e-01 0.0
7.930065e-01 -3.631447e-01 0.0
8.144399e-01 -3.577870e-01 0.0
8.278334e-01 -3.409706e-01 0.0
8.360154e-01 -3.156144e-01 0.0
8.410967e-01 -2.844954e-01 0.0
8.445353e-01 -2.500336e-01 0.0
8.472330e-01 -2.141836e-01 0.0
8.496592e-01 -1.784433e-01 0.0
8.519767e-01 -1.439077e-01 0.0
8.541887e-01 -1.113909e-01 0.0
8.561612e-01 -8.134784e-02 0.0
8.577015e-01 -5.406880e-02 0.0
8.586204e-01 -2.976283e-02 0.0
8.587750e-01 -8.593980e-03 0.0
8.580592e-01 9.427681e-03 0.0
8.564172e-01 2.479383e-02 0.0
8.538308e-01 3.784175e-02 0.0
8.503127e-01 4.881422e-02 0.0
8.459018e-01 5.789316e-02 0.0
8.406569e-01 6.522169e-02 0.0
8.346520e-01 7.091952e-02 0.0
8.279692e-01 7.509330e-02 0.0
8.206896e-01 7.784146e-02 0.0
8.128729e-01 7.924879e-02 0.0
8.045666e-01 7.935062e-02 0.0
7.958619e-01 7.820971e-02 0.0
7.868737e-01 7.591489e-02 0.0
7.777307e-01 7.257972e-02 0.0
7.685676e-01 6.834214e-02 0.0
7.595193e-01 6.336163e-02 0.0
7.507148e-01 5.781439e-02 0.0
7.422719e-01 5.188697e-02 0.0
7.342911e-01 4.576855e-02 0.0
7.268521e-01 3.964144e-02 0.0
7.200130e-01 3.366863e-02 0.0
7.138117e-01 2.798748e-02 0.0
7.082666e-01 2.270784e-02 0.0
7.033767e-01 1.790975e-02 0.0
6.991243e-01 1.364341e-02 0.0
6.954771e-01 9.932373e-03 0.0
6.923943e-01 6.779493e-03 0.0
6.898349e-01 4.171982e-03 0.0
6.877585e-01 2.082947e-03 0.0
6.861419e-01 4.741681e-04 0.0
6.849456e-01 -7.066024e-04 0.0
6.841000e-01 -1.515464e-03 0.0
6.835400e-01 -2.028839e-03 0.0
6.832088e-01 -2.321094e-03 0.0
6.830660e-01 -2.452170e-03 0.0
6.830825e-01 -2.468633e-03 0.0
6.832331e-01 -2.402834e-03 0.0
6.834969e-01 -2.280672e-03 0.0
6.838560e-01 -2.121103e-03 0.0
6.842948e-01 -1.937746e-03 0.0
6.847997e-01 -1.740228e-03 0.0
6.853589e-01 -1.535211e-03 0.0
6.859617e-01 -1.327363e-03 0.0
6.865994e-01 -1.120128e-03 0.0
6.872640e-01 -9.160277e-04 0.0
6.879493e-01 -7.166915e-04 0.0
6.886504e-01 -5.235824e-04 0.0
6.893625e-01 -3.377818e-04 0.0
6.900831e-01 -1.598251e-04 0.0
6.908106e-01 8.159950e-06 0.0
6.915396e-01 1.652799e-04 0.0
6.922631e-01 3.088767e-04 0.0
6.929741e-01 4.333272e-04 0.0
6.936649e-01 5.302269e-04 0.0
6.943242e-01 5.865800e-04 0.0
6.949385e-01 5.782410e-04 0.0
6.954897e-01 4.778555e-04 0.0
6.959435e-01 3.056005e-04 0.0
0.000000e+00 3.116901e-04 0.0
0.000000e+00 0.000000e+00 0.0
0.000000e+00 0.000000e+00 0.0
0.000000e+00 0.000000e+00 0.0
0.000000e+00 0.000000e+00 0.0
0.000000e+00 0.000000e+00 0.0
0.000000e+00 0.000000e+00 0.0
0.000000e+00 0.000000e+00 0.0
0.000000e+00 0.000000e+00 0.0
0.000000e+00 0.000000e+00 0.0
0.000000e+00 0.000000e+00 0.0
0.000000e+00 -8.246516e-02 0.0
-1.278378e-02 8.247390e-02 0.0
-5.397047e-03 1.011908e-01 0.0
1.803006e-02 8.321756e-02 0.0
4.977002e-02 6.117978e-02 0.0
8.801665e-02 3.783459e-02 0.0
1.348372e-01 1.154779e-02 0.0
1.935363e-01 -1.789943e-02 0.0
2.623858e-01 -4.981025e-02 0.0
3.384822e-01 -8.492373e-02 0.0
4.195424e-01 -1.231990e-01 0.0
5.027567e-01 -1.639776e-01 0.0
5.846999e-01 -2.062507e-01 0.0
6.618258e-01 -2.483743e-01 0.0
7.309648e-01 -2.881271e-01 0.0
7.895814e-01 -3.230499e-01 0.0
8.360693e-01 -3.507518e-01 0.0
8.699786e-01 -3.692333e-01 0.0
8.919097e-01 -3.771949e-01 0.0
9.031225e-01 -3.740397e-01 0.0
9.060745e-01 -3.604213e-01 0.0
9.038502e-01 -3.384285e-01 0.0
8.988079e-01 -3.102544e-01 0.0
8.926880e-01 -2.780577e-01 0.0
8.866716e-01 -2.436994e-01 0.0
8.814522e-01 -2.086465e-01 0.0
8.773484e-01 -1.740218e-01 0.0
8.744020e-01 -1.406436e-01 0.0
8.725462e-01 -1.092172e-01 0.0
8.715410e-01 -8.002491e-02 0.0
8.710822e-01 -5.329228e-02 0.0
8.708543e-01 -2.921712e-02 0.0
8.705679e-01 -7.989771e-03 0.0
8.699512e-01 1.036211e-02 0.0
8.688352e-01 2.622761e-02 0.0
8.671205e-01 3.987420e-02 0.0
8.647593e-01 5.149313e-02 0.0
8.617428e-01 6.122745e-02 0.0
8.580910e-01 6.919121e-02 0.0
8.538451e-01 7.548315e-02 0.0
8.490600e-01 8.019622e-02 0.0
8.437966e-01 8.342265e-02 0.0
8.381118e-01 8.525135e-02 0.0
8.320306e-01 8.574951e-02 0.0
8.256016e-01 8.495648e-02 0.0
8.188942e-01 8.294004e-02 0.0
8.119919e-01 7.979980e-02 0.0
8.049860e-01 7.566582e-02 0.0
7.979708e-01 7.069452e-02 0.0
7.910398e-01 6.506320e-02 0.0
7.842809e-01 5.896356e-02 0.0
7.777729e-01 5.259437e-02 0.0
7.715785e-01 4.615356e-02 0.0
7.657462e-01 3.981871e-02 0.0
7.603130e-01 3.373847e-02 0.0
7.553034e-01 2.803520e-02 0.0
7.507292e-01 2.280171e-02 0.0
7.465900e-01 1.810032e-02 0.0
7.428753e-01 1.396490e-02 0.0
7.395674e-01 1.040513e-02 0.0
7.366464e-01 7.410688e-03 0.0
7.340927e-01 4.954439e-03 0.0
7.318896e-01 2.994992e-03 0.0
7.300204e-01 1.480399e-03 0.0
7.284736e-01 3.490772e-04 0.0
7.272267e-01 -4.642029e-04 0.0
7.262432e-01 -1.019802e-03 0.0
7.254867e-01 -1.377860e-03 0.0
7.249258e-01 -1.589993e-03 0.0
7.245389e-01 -1.698205e-03 0.0
7.243078e-01 -1.731773e-03 0.0
7.242157e-01 -1.711305e-03 0.0
7.242475e-01 -1.651704e-03 0.0
7.243887e-01 -1.563697e-03 0.0
7.246260e-01 -1.454731e-03 0.0
7.249466e-01 -1.330258e-03 0.0
7.253389e-01 -1.194657e-03 0.0
7.257921e-01 -1.051438e-03 0.0
7.262965e-01 -9.033754e-04 0.0
7.268435e-01 -7.527801e-04 0.0
7.274250e-01 -6.015392e-04 0.0
7.280343e-01 -4.513877e-04 0.0
7.286645e-01 -3.042862e-04 0.0
7.293094e-01 -1.618704e-04 0.0
7.299630e-01 -2.694732e-05 0.0
7.306171e-01 9.702066e-05 0.0
7.312601e-01 2.049215e-04 0.0
7.318768e-01 2.876598e-04 0.0
7.324433e-01 3.295066e-04 0.0
7.329275e-01 3.114407e-04 0.0
7.332922e-01 2.586456e-04 0.0
0.000000e+00 2.637996e-04 0.0
0.000000e+00 0.000000e+00 0.0
0.000000e+00 0.000000e+00 0.0
0.000000e+00 0.000000e+00 0.0
0.000000e+00 0.000000e+00 0.0
0.000000e+00 0.000000e+00 0.0
0.000000e+00 0.000000e+00 0.0
0.000000e+00 0.000000e+00 0.0
0.000000e+00 0.000000e+00 0.0
0.000000e+00 0.000000e+00 0.0
0.000000e+00 0.000000e+00 0.0
0.000000e+00 -7.798993e-02 0.0
5.697161e-03 7.799482e-02 0.0
5.321088e-02 5.399487e-02 0.0
1.149037e-01 2.184253e-02 0.0
1.851795e-01 -8.778299e-03 0.0
2.618030e-01 -3.847114e-02 0.0
3.417888e-01 -6.812024e-02 0.0
4.236057e-01 -9.939855e-02 0.0
5.063776e-01 -1.322644e-01 0.0
5.884035e-01 -1.666319e-01 0.0
6.676082e-01 -2.020859e-01 0.0
7.417610e-01 -2.378126e-01 0.0