# vtk DataFile Version 3.0
Vector Field
ASCII
DATASET RECTILINEAR_GRID
DIMENSIONS 102 22 1
X_COORDINATES 102 double
0.000000 0.100000 0.200000 0.300000 0.400000 0.500000 0.600000 0.700000 0.800000 0.900000 1.000000 1.100000 1.200000 1.300000 1.400000 1.500000 1.600000 1.700000 1.800000 1.900000 2.000000 2.100000 2.200000 2.300000 2.400000 2.500000 2.600000 2.700000 2.800000 2.900000 3.000000 3.100000 3.200000 3.300000 3.400000 3.500000 3.600000 3.700000 3.800000 3.900000 4.000000 4.100000 4.200000 4.300000 4.400000 4.500000 4.600000 4.700000 4.800000 4.900000 5.000000 5.100000 5.200000 5.300000 5.400000 5.500000 5.600000 5.700000 5.800000 5.900000 6.000000 6.100000 6.200000 6.300000 6.400000 6.500000 6.600000 6.700000 6.800000 6.900000 7.000000 7.100000 7.200000 7.300000 7.400000 7.500000 7.600000 7.700000 7.800000 7.900000 8.000000 8.100000 8.200000 8.300000 8.400000 8.500000 8.600000 8.700000 8.800000 8.900000 9.000000 9.100000 9.200000 9.300000 9.400000 9.500000 9.600000 9.700000 9.800000 9.900000 10.000000 10.100000 
Y_COORDINATES 22 double
0.000000 0.100000 0.200000 0.300000 0.400000 0.500000 0.600000 0.700000 0.800000 0.900000 1.000000 1.100000 1.200000 1.300000 1.400000 1.500000 1.600000 1.700000 1.800000 1.900000 2.000000 2.100000 
Z_COORDINATES 1 double
0.0
POINT_DATA 2244
VECTORS Velocity double
0.000000e+00 0.000000e+00 0.0
-0.000000e+00 0.000000e+00 0.0
-0.000000e+00 0.000000e+00 0.0
-0.000000e+00 0.000000e+00 0.0
-0.000000e+00 0.000000e+00 0.0
-0.000000e+00 0.000000e+00 0.0
-0.000000e+00 0.000000e+00 0.0
-0.000000e+00 0.000000e+00 0.0
-0.000000e+00 0.000000e+00 0.0
-0.000000e+00 0.000000e+00 0.0
-0.000000e+00 0.000000e+00 0.0
5.138285e-04 0.000000e+00 0.0
4.898030e-03 0.000000e+00 0.0
1.167920e-02 0.000000e+00 0.0
1.966755e-02 0.000000e+00 0.0
2.847768e-02 0.000000e+00 0.0
3.820353e-02 0.000000e+00 0.0
4.913378e-02 0.000000e+00 0.0
6.162022e-02 0.000000e+00 0.0
7.601126e-02 0.000000e+00 0.0
9.257656e-02 0.000000e+00 0.0
1.113961e-01 0.000000e+00 0.0
1.321882e-01 0.000000e+00 0.0
1.541248e-01 0.000000e+00 0.0
1.755919e-01 0.000000e+00 0.0
1.938624e-01 0.000000e+00 0.0
2.054071e-01 0.000000e+00 0.0
2.062496e-01 0.000000e+00 0.0
1.933060e-01 0.000000e+00 0.0
1.656690e-01 0.000000e+00 0.0
1.250907e-01 0.000000e+00 0.0
7.565520e-02 0.000000e+00 0.0
2.006324e-02 0.000000e+00 0.0
-3.468292e-02 0.000000e+00 0.0
-8.146198e-02 0.000000e+00 0.0
-1.183690e-01 0.000000e+00 0.0
-1.456545e-01 0.000000e+00 0.0
-1.644618e-01 0.000000e+00 0.0
-1.762530e-01 0.000000e+00 0.0
-1.825314e-01 0.000000e+00 0.0
-1.847148e-01 0.000000e+00 0.0
-1.840761e-01 0.000000e+00 0.0
-1.813506e-01 0.000000e+00 0.0
-1.770938e-01 0.000000e+00 0.0
-1.718690e-01 0.000000e+00 0.0
-1.661396e-01 0.000000e+00 0.0
-1.602533e-01 0.000000e+00 0.0
-1.544415e-01 0.000000e+00 0.0
-1.488403e-01 0.000000e+00 0.0
-1.435352e-01 0.000000e+00 0.0
-1.385680e-01 0.000000e+00 0.0
-1.339543e-01 0.000000e+00 0.0
-1.296927e-01 0.000000e+00 0.0
-1.257716e-01 0.000000e+00 0.0
-1.221737e-01 0.000000e+00 0.0
-1.188790e-01 0.000000e+00 0.0
-1.158662e-01 0.000000e+00 0.0
-1.131146e-01 0.000000e+00 0.0
-1.106039e-01 0.000000e+00 0.0
-1.083145e-01 0.000000e+00 0.0
-1.062282e-01 0.000000e+00 0.0
-1.043278e-01 0.000000e+00 0.0
-1.025971e-01 0.000000e+00 0.0
-1.010210e-01 0.000000e+00 0.0
-9.958557e-02 0.000000e+00 0.0
-9.827785e-02 0.000000e+00 0.0
-9.708591e-02 0.000000e+00 0.0
-9.599879e-02 0.000000e+00 0.0
-9.500648e-02 0.000000e+00 0.0
-9.409983e-02 0.000000e+00 0.0
-9.327054e-02 0.000000e+00 0.0
-9.251113e-02 0.000000e+00 0.0
-9.181483e-02 0.000000e+00 0.0
-9.117558e-02 0.000000e+00 0.0
-9.058799e-02 0.000000e+00 0.0
-9.004726e-02 0.000000e+00 0.0
-8.954918e-02 0.000000e+00 0.0
-8.909008e-02 0.000000e+00 0.0
-8.866678e-02 0.000000e+00 0.0
-8.827660e-02 0.000000e+00 0.0
-8.791731e-02 0.000000e+00 0.0
-8.758711e-02 0.000000e+00 0.0
-8.728464e-02 0.000000e+00 0.0
-8.700894e-02 0.000000e+00 0.0
-8.675948e-02 0.000000e+00 0.0
-8.653615e-02 0.000000e+00 0.0
-8.633923e-02 0.000000e+00 0.0
-8.616947e-02 0.000000e+00 0.0
-8.602805e-02 0.000000e+00 0.0
-8.591664e-02 0.000000e+00 0.0
-8.583746e-02 0.000000e+00 0.0
-8.579344e-02 0.000000e+00 0.0
-8.578834e-02 0.000000e+00 0.0
-8.582459e-02 0.000000e+00 0.0
-8.590018e-02 0.000000e+00 0.0
-8.600859e-02 0.000000e+00 0.0
-8.614409e-02 0.000000e+00 0.0
-8.629535e-02 0.000000e+00 0.0
-8.644103e-02 0.000000e+00 0.0
-8.653775e-02 0.000000e+00 0.0
-8.653775e-02 0.000000e+00 0.0
0.000000e+00 0.000000e+00 0.0
0.000000e+00 0.000000e+00 0.0
0.000000e+00 0.000000e+00 0.0
0.000000e+00 0.000000e+00 0.0
0.000000e+00 0.000000e+00 0.0
0.000000e+00 0.000000e+00 0.0
0.000000e+00 0.000000e+00 0.0
0.000000e+00 0.000000e+00 0.0
0.000000e+00 0.000000e+00 0.0
0.000000e+00 0.000000e+00 0.0
0.000000e+00 0.000000e+00 0.0
0.000000e+00 -5.249894e-04 0.0
-5.223408e-04 5.150977e-04 0.0
-4.902986e-03 4.376519e-03 0.0
-1.168004e-02 6.776594e-03 0.0
-1.966656e-02 7.987584e-03 0.0
-2.847679e-02 8.811212e-03 0.0
-3.820336e-02 9.726943e-03 0.0
-4.913408e-02 1.093065e-02 0.0
-6.162055e-02 1.248628e-02 0.0
-7.601133e-02 1.439074e-02 0.0
-9.257623e-02 1.656520e-02 0.0
-1.113954e-01 1.881985e-02 0.0
-1.321874e-01 2.079279e-02 0.0
-1.541243e-01 2.193741e-02 0.0
-1.755918e-01 2.146757e-02 0.0
-1.938628e-01 1.827051e-02 0.0
-2.054076e-01 1.154429e-02 0.0
-2.062498e-01 8.418701e-04 0.0
-1.933056e-01 -1.294390e-02 0.0
-1.656682e-01 -2.763676e-02 0.0
-1.250901e-01 -4.057765e-02 0.0
-7.565515e-02 -4.943492e-02 0.0
-2.006370e-02 -5.559195e-02 0.0
3.468238e-02 -5.474670e-02 0.0
8.146185e-02 -4.677972e-02 0.0
1.183694e-01 -3.690728e-02 0.0
1.456550e-01 -2.728518e-02 0.0
1.644620e-01 -1.880671e-02 0.0
1.762528e-01 -1.179102e-02 0.0
1.825310e-01 -6.278668e-03 0.0
1.847146e-01 -2.183824e-03 0.0
1.840763e-01 6.385384e-04 0.0
1.813509e-01 2.725681e-03 0.0
1.770939e-01 4.257095e-03 0.0
1.718688e-01 5.224896e-03 0.0
1.661394e-01 5.729209e-03 0.0
1.602533e-01 5.886065e-03 0.0
1.544417e-01 5.811771e-03 0.0
1.488404e-01 5.601409e-03 0.0
1.435352e-01 5.305173e-03 0.0
1.385679e-01 4.967168e-03 0.0
1.339543e-01 4.613625e-03 0.0
1.296927e-01 4.261555e-03 0.0
1.257717e-01 3.921101e-03 0.0
1.221738e-01 3.597921e-03 0.0
1.188790e-01 3.294800e-03 0.0
1.158662e-01 3.012716e-03 0.0
1.131146e-01 2.751590e-03 0.0
1.106038e-01 2.510777e-03 0.0
1.083145e-01 2.289354e-03 0.0
1.062282e-01 2.086270e-03 0.0
1.043278e-01 1.900427e-03 0.0
1.025971e-01 1.730725e-03 0.0
1.010210e-01 1.576082e-03 0.0
9.958557e-02 1.435431e-03 0.0
9.827785e-02 1.307724e-03 0.0
9.708591e-02 1.191947e-03 0.0
9.599879e-02 1.087121e-03 0.0
9.500647e-02 9.923166e-04 0.0
9.409982e-02 9.066494e-04 0.0
9.327054e-02 8.292802e-04 0.0
9.251113e-02 7.594138e-04 0.0
9.181483e-02 6.963026e-04 0.0
9.117558e-02 6.392473e-04 0.0
9.058799e-02 5.875938e-04 0.0
9.004726e-02 5.407293e-04 0.0
8.954918e-02 4.980792e-04 0.0
8.909008e-02 4.591045e-04 0.0
8.866678e-02 4.232981e-04 0.0
8.827660e-02 3.901804e-04 0.0
8.791731e-02 3.592941e-04 0.0
8.758711e-02 3.302000e-04 0.0
8.728463e-02 3.024727e-04 0.0
8.700894e-02 2.756955e-04 0.0
8.675948e-02 2.494551e-04 0.0
8.653615e-02 2.233364e-04 0.0
8.633923e-02 1.969168e-04 0.0
8.616947e-02 1.697621e-04 0.0
8.602805e-02 1.414202e-04 0.0
8.591664e-02 1.114084e-04 0.0
8.583746e-02 7.917600e-05 0.0
8.579344e-02 4.401950e-05 0.0
8.578834e-02 5.098720e-06 0.0
8.582459e-02 -3.625299e-05 0.0
8.590018e-02 -7.558595e-05 0.0
8.600859e-02 -1.084080e-04 0.0
8.614409e-02 -1.355071e-04 0.0
8.629535e-02 -1.512613e-04 0.0
8.644103e-02 -1.456810e-04 0.0
8.653775e-02 -9.672409e-05 0.0
8.653775e-02 -1.003372e-09 0.0
0.000000e+00 -1.105675e-09 0.0
0.000000e+00 0.000000e+00 0.0
0.000000e+00 0.000000e+00 0.0
0.000000e+00 0.000000e+00 0.0
0.000000e+00 0.000000e+00 0.0
0.000000e+00 0.000000e+00 0.0
0.000000e+00 0.000000e+00 0.0
0.000000e+00 0.000000e+00 0.0
0.000000e+00 0.000000e+00 0.0
0.000000e+00 0.000000e+00 0.0
0.000000e+00 0.000000e+00 0.0
0.000000e+00 -6.341213e-03 0.0
-5.824070e-03 6.335556e-03 0.0
-1.945581e-02 1.801218e-02 0.0
-3.736886e-02 2.469331e-02 0.0
-5.742242e-02 2.804335e-02 0.0
-7.880102e-02 3.019091e-02 0.0
-1.014140e-01 3.234053e-02 0.0
-1.253928e-01 3.490984e-02 0.0
-1.508117e-01 3.790561e-02 0.0
-1.775140e-01 4.109357e-02 0.0
-2.049598e-01 4.401177e-02 0.0
-2.321117e-01 4.597247e-02 0.0
-2.572622e-01 4.594368e-02 0.0
-2.779434e-01 4.261863e-02 0.0
-2.910094e-01 3.453321e-02 0.0
-2.926344e-01 1.989531e-02 0.0
-2.780906e-01 -2.999494e-03 0.0
-2.447189e-01 -3.252933e-02 0.0
-1.937532e-01 -6.390905e-02 0.0
-1.280911e-01 -9.329849e-02 0.0
-5.038821e-02 -1.182806e-01 0.0
3.421466e-02 -1.340382e-01 0.0
1.146594e-01 -1.360371e-01 0.0
1.859876e-01 -1.260749e-01 0.0
2.481858e-01 -1.089774e-01 0.0
3.004853e-01 -8.920624e-02 0.0
3.428167e-01 -6.961650e-02 0.0
3.757355e-01 -5.172580e-02 0.0
4.001572e-01 -3.621317e-02 0.0
4.171628e-01 -2.328429e-02 0.0
4.278680e-01 -1.288872e-02 0.0
4.333350e-01 -4.828114e-03 0.0
4.348651e-01 1.195569e-03 0.0
4.332920e-01 5.829920e-03 0.0
4.292974e-01 9.219290e-03 0.0
4.234688e-01 1.155787e-02 0.0
4.162896e-01 1.306549e-02 0.0
4.081743e-01 1.392712e-02 0.0
3.994959e-01 1.427971e-02 0.0
3.905569e-01 1.424406e-02 0.0
3.815717e-01 1.395241e-02 0.0
3.727019e-01 1.348344e-02 0.0
3.640630e-01 1.290049e-02 0.0
3.557349e-01 1.224921e-02 0.0
3.477702e-01 1.156260e-02 0.0
3.402009e-01 1.086408e-02 0.0
3.330436e-01 1.017003e-02 0.0
3.263035e-01 9.491701e-03 0.0
3.199775e-01 8.836768e-03 0.0
3.140565e-01 8.210331e-03 0.0
3.085272e-01 7.615650e-03 0.0
3.033729e-01 7.054625e-03 0.0
2.985755e-01 6.528142e-03 0.0
2.941153e-01 6.036311e-03 0.0
2.899721e-01 5.578646e-03 0.0
2.861256e-01 5.154211e-03 0.0
2.825558e-01 4.761742e-03 0.0
2.792432e-01 4.399739e-03 0.0
2.761690e-01 4.066546e-03 0.0
2.733152e-01 3.760398e-03 0.0
2.706650e-01 3.479477e-03 0.0
2.682025e-01 3.221941e-03 0.0
2.659128e-01 2.985962e-03 0.0
2.637823e-01 2.769743e-03 0.0
2.617984e-01 2.571533e-03 0.0
2.599495e-01 2.389637e-03 0.0
2.582251e-01 2.222418e-03 0.0
2.566159e-01 2.068301e-03 0.0
2.551135e-01 1.925771e-03 0.0
2.537103e-01 1.793367e-03 0.0
2.523999e-01 1.669678e-03 0.0
2.511768e-01 1.553329e-03 0.0
2.500363e-01 1.442978e-03 0.0
2.489747e-01 1.337301e-03 0.0
2.479891e-01 1.234980e-03 0.0
2.470778e-01 1.134688e-03 0.0
2.462396e-01 1.035078e-03 0.0
2.454746e-01 9.347693e-04 0.0
2.447837e-01 8.323376e-04 0.0
2.441688e-01 7.263170e-04 0.0
2.436328e-01 6.152042e-04 0.0
2.431793e-01 4.975055e-04 0.0
2.428124e-01 3.720194e-04 0.0
2.425370e-01 2.391363e-04 0.0
2.423599e-01 1.014755e-04 0.0
2.422883e-01 -3.681672e-05 0.0
2.423123e-01 -1.595328e-04 0.0
2.424055e-01 -2.444410e-04 0.0
2.425286e-01 -2.687654e-04 0.0
2.426264e-01 -1.945055e-04 0.0
2.426264e-01 -9.638178e-10 0.0
0.000000e+00 -1.036449e-09 0.0
0.000000e+00 0.000000e+00 0.0
0.000000e+00 0.000000e+00 0.0
0.000000e+00 0.000000e+00 0.0
0.000000e+00 0.000000e+00 0.0
0.000000e+00 0.000000e+00 0.0
0.000000e+00 0.000000e+00 0.0
0.000000e+00 0.000000e+00 0.0
0.000000e+00 0.000000e+00 0.0
0.000000e+00 0.000000e+00 0.0
0.000000e+00 0.000000e+00 0.0
0.000000e+00 -1.696476e-02 0.0
-1.062822e-02 1.696530e-02 0.0
-3.138241e-02 3.877047e-02 0.0
-5.611026e-02 4.942328e-02 0.0
-8.186943e-02 5.380303e-02 0.0
-1.075539e-01 5.587505e-02 0.0
-1.327952e-01 5.758102e-02 0.0
-1.573535e-01 5.946746e-02 0.0
-1.808702e-01 6.142190e-02 0.0
-2.027349e-01 6.295826e-02 0.0
-2.219458e-01 6.322306e-02 0.0
-2.371517e-01 6.117853e-02 0.0
-2.465258e-01 5.531771e-02 0.0
-2.475637e-01 4.365605e-02 0.0
-2.364293e-01 2.339838e-02 0.0
-2.066297e-01 -9.904528e-03 0.0
-1.581278e-01 -5.150117e-02 0.0
-9.223618e-02 -9.842048e-02 0.0
-1.225964e-02 -1.438852e-01 0.0
7.475261e-02 -1.803106e-01 0.0
1.594760e-01 -2.030043e-01 0.0
2.371887e-01 -2.117515e-01 0.0
3.057368e-01 -2.045855e-01 0.0
3.656606e-01 -1.859985e-01 0.0
4.178684e-01 -1.611847e-01 0.0
4.627713e-01 -1.341088e-01 0.0
5.006031e-01 -1.074484e-01 0.0
5.316677e-01 -8.279086e-02 0.0
5.563962e-01 -6.094201e-02 0.0
5.753195e-01 -4.220737e-02 0.0
5.890240e-01 -2.659282e-02 0.0
5.981245e-01 -1.392836e-02 0.0
6.032632e-01 -3.943359e-03 0.0
6.053715e-01 3.721266e-03 0.0
6.049518e-01 9.638972e-03 0.0
6.024536e-01 1.405625e-02 0.0
5.982724e-01 1.724687e-02 0.0
5.927468e-01 1.945269e-02 0.0
5.861490e-01 2.087738e-02 0.0
5.786967e-01 2.169631e-02 0.0
5.706356e-01 2.201355e-02 0.0
5.621834e-01 2.193569e-02 0.0
5.535124e-01 2.157149e-02 0.0
5.447622e-01 2.099935e-02 0.0
5.360443e-01 2.028049e-02 0.0
5.274465e-01 1.946196e-02 0.0
5.190368e-01 1.857967e-02 0.0
5.108674e-01 1.766116e-02 0.0
5.029766e-01 1.672759e-02 0.0
4.953915e-01 1.579535e-02 0.0
4.881301e-01 1.487705e-02 0.0
4.812025e-01 1.398229e-02 0.0
4.746124e-01 1.311822e-02 0.0
4.683587e-01 1.228998e-02 0.0
4.624363e-01 1.150105e-02 0.0
4.568369e-01 1.075360e-02 0.0
4.515500e-01 1.004866e-02 0.0
4.465633e-01 9.386427e-03 0.0
4.418635e-01 8.766374e-03 0.0
4.374365e-01 8.187430e-03 0.0
4.332678e-01 7.648102e-03 0.0
4.293432e-01 7.146581e-03 0.0
4.256483e-01 6.680833e-03 0.0
4.221694e-01 6.248667e-03 0.0
4.188932e-01 5.847789e-03 0.0
4.158069e-01 5.475849e-03 0.0
4.128989e-01 5.130470e-03 0.0
4.101579e-01 4.809272e-03 0.0
4.075738e-01 4.509887e-03 0.0
4.051372e-01 4.229967e-03 0.0
4.028397e-01 3.967184e-03 0.0
4.006738e-01 3.719227e-03 0.0
3.986330e-01 3.483797e-03 0.0
3.967117e-01 3.258591e-03 0.0
3.949054e-01 3.041288e-03 0.0
3.932105e-01 2.829535e-03 0.0
3.916247e-01 2.620918e-03 0.0
3.901465e-01 2.412941e-03 0.0
3.887758e-01 2.203022e-03 0.0
3.875137e-01 1.988492e-03 0.0
3.863622e-01 1.766633e-03 0.0
3.853249e-01 1.534805e-03 0.0
3.844062e-01 1.290787e-03 0.0
3.836116e-01 1.033658e-03 0.0
3.829483e-01 7.647706e-04 0.0
3.824223e-01 4.892171e-04 0.0
3.820407e-01 2.220538e-04 0.0
3.818067e-01 -1.039220e-05 0.0
3.816977e-01 -1.597450e-04 0.0
3.816747e-01 -1.715206e-04 0.0
3.816747e-01 -8.926463e-10 0.0
0.000000e+00 -9.580637e-10 0.0
0.000000e+00 0.000000e+00 0.0
0.000000e+00 0.000000e+00 0.0
0.000000e+00 0.000000e+00 0.0
0.000000e+00 0.000000e+00 0.0
0.000000e+00 0.000000e+00 0.0
0.000000e+00 0.000000e+00 0.0
0.000000e+00 0.000000e+00 0.0
0.000000e+00 0.000000e+00 0.0
0.000000e+00 0.000000e+00 0.0
0.000000e+00 0.000000e+00 0.0
0.000000e+00 -3.010729e-02 0.0
-1.314173e-02 3.011085e-02 0.0
-3.668217e-02 6.231248e-02 0.0
-6.238089e-02 7.512144e-02 0.0
-8.687428e-02 7.829496e-02 0.0
-1.090702e-01 7.806938e-02 0.0
-1.285423e-01 7.705171e-02 0.0
-1.449422e-01 7.586618e-02 0.0
-1.578304e-01 7.430955e-02 0.0
-1.666425e-01 7.177023e-02 0.0
-1.704083e-01 6.698885e-02 0.0
-1.677181e-01 5.848811e-02 0.0
-1.561274e-01 4.372636e-02 0.0
-1.320442e-01 1.957209e-02 0.0
-8.749351e-02 -2.115270e-02 0.0
-2.381055e-02 -7.358760e-02 0.0
5.527364e-02 -1.305851e-01 0.0
1.404464e-01 -1.835929e-01 0.0
2.248119e-01 -2.282504e-01 0.0
3.039793e-01 -2.594782e-01 0.0
3.754382e-01 -2.744637e-01 0.0
4.365604e-01 -2.728742e-01 0.0
4.881918e-01 -2.562169e-01 0.0
5.324215e-01 -2.302277e-01 0.0
5.706467e-01 -1.994092e-01 0.0
6.036676e-01 -1.671297e-01 0.0
6.319321e-01 -1.357134e-01 0.0
6.557403e-01 -1.065996e-01 0.0
6.753592e-01 -8.056084e-02 0.0
6.910672e-01 -5.791494e-02 0.0
7.031671e-01 -3.869228e-02 0.0
7.119876e-01 -2.274895e-02 0.0
7.178884e-01 -9.844552e-03 0.0
7.212946e-01 3.148097e-04 0.0
7.226766e-01 8.257152e-03 0.0
7.223582e-01 1.437496e-02 0.0
7.205992e-01 1.900595e-02 0.0
7.176204e-01 2.243127e-02 0.0
7.136140e-01 2.488366e-02 0.0
7.087552e-01 2.655519e-02 0.0
7.031741e-01 2.759472e-02 0.0
6.969832e-01 2.812660e-02 0.0
6.903243e-01 2.823040e-02 0.0
6.833235e-01 2.800012e-02 0.0
6.760887e-01 2.751528e-02 0.0
6.687121e-01 2.683858e-02 0.0
6.612723e-01 2.601947e-02 0.0
6.538360e-01 2.509744e-02 0.0
6.464592e-01 2.410444e-02 0.0
6.391880e-01 2.306654e-02 0.0
6.320600e-01 2.200506e-02 0.0
6.251049e-01 2.093730e-02 0.0
6.183460e-01 1.987715e-02 0.0
6.118004e-01 1.883563e-02 0.0
6.054801e-01 1.782131e-02 0.0
5.993931e-01 1.684065e-02 0.0
5.935433e-01 1.589837e-02 0.0
5.879321e-01 1.499769e-02 0.0
5.825579e-01 1.414058e-02 0.0
5.774173e-01 1.332797e-02 0.0
5.725055e-01 1.255996e-02 0.0
5.678161e-01 1.183596e-02 0.0
5.633421e-01 1.115481e-02 0.0
5.590759e-01 1.051493e-02 0.0
5.550092e-01 9.914405e-03 0.0
5.511341e-01 9.351042e-03 0.0
5.474421e-01 8.822460e-03 0.0
5.439252e-01 8.326126e-03 0.0
5.405757e-01 7.859396e-03 0.0
5.373861e-01 7.419537e-03 0.0
5.343496e-01 7.003747e-03 0.0
5.314596e-01 6.609163e-03 0.0
5.287106e-01 6.232857e-03 0.0
5.260973e-01 5.871832e-03 0.0
5.236156e-01 5.523015e-03 0.0
5.212619e-01 5.183233e-03 0.0
5.190336e-01 4.849182e-03 0.0
5.169292e-01 4.517398e-03 0.0
5.149480e-01 4.184235e-03 0.0
5.130906e-01 3.845873e-03 0.0
5.113589e-01 3.498346e-03 0.0
5.097560e-01 3.137668e-03 0.0
5.082867e-01 2.760125e-03 0.0
5.069574e-01 2.362919e-03 0.0
5.057770e-01 1.945138e-03 0.0
5.047567e-01 1.509532e-03 0.0
5.039121e-01 1.066674e-03 0.0
5.032622e-01 6.395028e-04 0.0
5.028290e-01 2.734651e-04 0.0
5.026175e-01 3.999415e-05 0.0
5.026175e-01 -8.159857e-10 0.0
0.000000e+00 -9.013049e-10 0.0
0.000000e+00 0.000000e+00 0.0
0.000000e+00 0.000000e+00 0.0
0.000000e+00 0.000000e+00 0.0
0.000000e+00 0.000000e+00 0.0
0.000000e+00 0.000000e+00 0.0
0.000000e+00 0.000000e+00 0.0
0.000000e+00 0.000000e+00 0.0
0.000000e+00 0.000000e+00 0.0
0.000000e+00 0.000000e+00 0.0
0.000000e+00 0.000000e+00 0.0
0.000000e+00 -4.361214e-02 0.0
-1.350121e-02 4.361412e-02 0.0
-3.553477e-02 8.434481e-02 0.0
-5.694515e-02 9.652998e-02 0.0
-7.478522e-02 9.613320e-02 0.0
-8.837596e-02 9.165845e-02 0.0
-9.747024e-02 8.614454e-02 0.0
-1.018013e-01 8.019628e-02 0.0
-1.008745e-01 7.338253e-02 0.0
-9.419545e-02 6.509137e-02 0.0
-8.005683e-02 5.285035e-02 0.0
-5.621052e-02 3.464142e-02 0.0
-1.552981e-02 3.044969e-03 0.0
4.644052e-02 -4.239881e-02 0.0
1.223077e-01 -9.702015e-02 0.0
2.056182e-01 -1.568980e-01 0.0
2.902785e-01 -2.152452e-01 0.0
3.717254e-01 -2.650396e-01 0.0
4.454815e-01 -3.020063e-01 0.0
5.092194e-01 -3.232164e-01 0.0
5.622122e-01 -3.274572e-01 0.0
6.043193e-01 -3.149816e-01 0.0
6.388411e-01 -2.907385e-01 0.0
6.679118e-01 -2.592977e-01 0.0
6.928740e-01 -2.243710e-01 0.0
7.145126e-01 -1.887686e-01 0.0
7.332620e-01 -1.544635e-01 0.0
7.493599e-01 -1.226978e-01 0.0
7.629535e-01 -9.415407e-02 0.0
7.741625e-01 -6.912341e-02 0.0
7.831146e-01 -4.764425e-02 0.0
7.899574e-01 -2.959205e-02 0.0
7.948553e-01 -1.474279e-02 0.0
7.979946e-01 -2.824533e-03 0.0
7.996855e-01 6.566527e-03 0.0
8.001407e-01 1.391996e-02 0.0
7.995253e-01 1.962128e-02 0.0
7.979789e-01 2.397746e-02 0.0
7.956256e-01 2.723697e-02 0.0
7.925785e-01 2.960234e-02 0.0
7.889356e-01 3.123769e-02 0.0
7.847835e-01 3.227869e-02 0.0
7.801790e-01 3.283488e-02 0.0
7.751940e-01 3.298510e-02 0.0
7.699039e-01 3.280540e-02 0.0
7.643761e-01 3.236640e-02 0.0
7.586714e-01 3.172415e-02 0.0
7.528444e-01 3.092440e-02 0.0
7.469437e-01 3.000521e-02 0.0
7.410116e-01 2.899859e-02 0.0
7.350851e-01 2.793157e-02 0.0
7.291957e-01 2.682668e-02 0.0
7.233702e-01 2.570264e-02 0.0
7.176310e-01 2.457483e-02 0.0
7.119966e-01 2.345577e-02 0.0
7.064818e-01 2.235546e-02 0.0
7.010984e-01 2.128174e-02 0.0
6.958555e-01 2.024061e-02 0.0
6.907596e-01 1.923643e-02 0.0
6.858154e-01 1.827222e-02 0.0
6.810255e-01 1.734986e-02 0.0
6.763912e-01 1.647025e-02 0.0
6.719125e-01 1.563351e-02 0.0
6.675883e-01 1.483907e-02 0.0
6.634169e-01 1.408582e-02 0.0
6.593957e-01 1.337223e-02 0.0
6.555218e-01 1.269637e-02 0.0
6.517919e-01 1.205603e-02 0.0
6.482026e-01 1.144876e-02 0.0
6.447502e-01 1.087189e-02 0.0
6.414314e-01 1.032257e-02 0.0
6.382427e-01 9.797809e-03 0.0
6.351812e-01 9.294430e-03 0.0
6.322439e-01 8.809114e-03 0.0
6.294285e-01 8.338380e-03 0.0
6.267332e-01 7.878568e-03 0.0
6.241566e-01 7.425802e-03 0.0
6.216980e-01 6.975926e-03 0.0
6.193578e-01 6.524489e-03 0.0
6.171369e-01 6.066730e-03 0.0
6.150377e-01 5.597583e-03 0.0
6.130636e-01 5.111737e-03 0.0
6.112199e-01 4.603819e-03 0.0
6.095141e-01 4.068768e-03 0.0
6.079567e-01 3.502505e-03 0.0
6.065631e-01 2.903186e-03 0.0
6.053560e-01 2.273730e-03 0.0
6.043699e-01 1.625568e-03 0.0
6.036573e-01 9.860795e-04 0.0
6.032878e-01 4.095620e-04 0.0
6.032878e-01 -7.506973e-10 0.0
0.000000e+00 -8.321171e-10 0.0
0.000000e+00 0.000000e+00 0.0
0.000000e+00 0.000000e+00 0.0
0.000000e+00 0.000000e+00 0.0
0.000000e+00 0.000000e+00 0.0
0.000000e+00 0.000000e+00 0.0
0.000000e+00 0.000000e+00 0.0
0.000000e+00 0.000000e+00 0.0
0.000000e+00 0.000000e+00 0.0
0.000000e+00 0.000000e+00 0.0
0.000000e+00 0.000000e+00 0.0
0.000000e+00 -5.675478e-02 0.0
-1.314030e-02 5.675356e-02 0.0
-3.053071e-02 1.017339e-01 0.0
-4.347884e-02 1.094773e-01 0.0
-5.066580e-02 1.033197e-01 0.0
-5.208486e-02 9.307719e-02 0.0
-4.779631e-02 8.185580e-02 0.0
-3.756735e-02 6.996752e-02 0.0
-1.999264e-02 5.580850e-02 0.0
6.417617e-03 3.868187e-02 0.0
4.621345e-02 1.305475e-02 0.0
1.046572e-01 -2.380271e-02 0.0
1.780624e-01 -7.036078e-02 0.0
2.608902e-01 -1.252268e-01 0.0
3.478586e-01 -1.839886e-01 0.0
4.327769e-01 -2.418162e-01 0.0
5.106575e-01 -2.931255e-01 0.0
5.785005e-01 -3.328823e-01 0.0
6.345408e-01 -3.580466e-01 0.0
6.784951e-01 -3.671712e-01 0.0
7.108711e-01 -3.598338e-01 0.0
7.350167e-01 -3.391274e-01 0.0
7.537182e-01 -3.094394e-01 0.0
7.689139e-01 -2.744928e-01 0.0
7.818221e-01 -2.372792e-01 0.0
7.931384e-01 -2.000855e-01 0.0
8.032214e-01 -1.645471e-01 0.0
8.122078e-01 -1.316841e-01 0.0
8.201163e-01 -1.020619e-01 0.0
8.269186e-01 -7.592538e-02 0.0
8.325924e-01 -5.331813e-02 0.0
8.371368e-01 -3.413693e-02 0.0
8.405638e-01 -1.816997e-02 0.0
8.429066e-01 -5.167158e-03 0.0
8.443009e-01 5.172494e-03 0.0
8.448554e-01 1.336550e-02 0.0
8.446610e-01 1.981555e-02 0.0
8.438000e-01 2.483833e-02 0.0
8.423497e-01 2.868725e-02 0.0
8.403832e-01 3.156900e-02 0.0
8.379674e-01 3.365354e-02 0.0
8.351637e-01 3.508230e-02 0.0
8.320256e-01 3.597293e-02 0.0
8.285894e-01 3.642136e-02 0.0
8.248925e-01 3.650233e-02 0.0
8.209761e-01 3.628273e-02 0.0
8.168799e-01 3.582041e-02 0.0
8.126407e-01 3.516363e-02 0.0
8.082924e-01 3.435346e-02 0.0
8.038658e-01 3.342519e-02 0.0
7.993880e-01 3.240938e-02 0.0
7.948830e-01 3.133168e-02 0.0
7.903719e-01 3.021369e-02 0.0
7.858733e-01 2.907352e-02 0.0
7.814029e-01 2.792614e-02 0.0
7.769745e-01 2.678380e-02 0.0
7.725999e-01 2.565640e-02 0.0
7.682887e-01 2.455174e-02 0.0
7.640493e-01 2.347584e-02 0.0
7.598884e-01 2.243319e-02 0.0
7.558113e-01 2.142695e-02 0.0
7.518223e-01 2.045918e-02 0.0
7.479249e-01 1.953096e-02 0.0
7.441213e-01 1.864261e-02 0.0
7.404134e-01 1.779376e-02 0.0
7.368022e-01 1.698346e-02 0.0
7.332882e-01 1.621032e-02 0.0
7.298717e-01 1.547253e-02 0.0
7.265526e-01 1.476793e-02 0.0
7.233304e-01 1.409409e-02 0.0
7.202046e-01 1.344830e-02 0.0
7.171748e-01 1.282760e-02 0.0
7.142405e-01 1.222881e-02 0.0
7.114011e-01 1.164851e-02 0.0
7.086564e-01 1.108303e-02 0.0
7.060065e-01 1.052847e-02 0.0
7.034517e-01 9.980651e-03 0.0
7.009926e-01 9.434964e-03 0.0
6.986307e-01 8.886385e-03 0.0
6.963680e-01 8.329442e-03 0.0
6.942074e-01 7.758167e-03 0.0
6.921531e-01 7.166071e-03 0.0
6.902108e-01 6.546161e-03 0.0
6.883885e-01 5.891029e-03 0.0
6.866980e-01 5.193045e-03 0.0
6.851564e-01 4.444759e-03 0.0
6.837904e-01 3.639725e-03 0.0
6.826421e-01 2.773850e-03 0.0
6.817793e-01 1.848878e-03 0.0
6.813038e-01 8.850184e-04 0.0
6.813038e-01 -7.012468e-10 0.0
0.000000e+00 -7.617649e-10 0.0
0.000000e+00 0.000000e+00 0.0
0.000000e+00 0.000000e+00 0.0
0.000000e+00 0.000000e+00 0.0
0.000000e+00 0.000000e+00 0.0
0.000000e+00 0.000000e+00 0.0
0.000000e+00 0.000000e+00 0.0
0.000000e+00 0.000000e+00 0.0
0.000000e+00 0.000000e+00 0.0
0.000000e+00 0.000000e+00 0.0
0.000000e+00 0.000000e+00 0.0
0.000000e+00 -7.039927e-02 0.0
-1.364514e-02 7.039718e-02 0.0
-2.291074e-02 1.109997e-01 0.0
-2.229978e-02 1.088667e-01 0.0
-1.382788e-02 9.484788e-02 0.0
1.894360e-03 7.735473e-02 0.0
2.499117e-02 5.875879e-02 0.0
5.575392e-02 3.920511e-02 0.0
9.780238e-02 1.376095e-02 0.0
1.559792e-01 -1.949415e-02 0.0
2.283702e-01 -5.933613e-02 0.0
3.106174e-01 -1.060504e-01 0.0
3.983623e-01 -1.581060e-01 0.0
4.861141e-01 -2.129786e-01 0.0
5.688920e-01 -2.667664e-01 0.0
6.423117e-01 -3.152357e-01 0.0
7.034521e-01 -3.542656e-01 0.0
7.511883e-01 -3.806182e-01 0.0
7.857381e-01 -3.925966e-01 0.0
8.082122e-01 -3.896460e-01 0.0
8.215269e-01 -3.731490e-01 0.0
8.291121e-01 -3.467124e-01 0.0
8.334560e-01 -3.137825e-01 0.0
8.362304e-01 -2.772667e-01 0.0
8.384439e-01 -2.394931e-01 0.0
8.406385e-01 -2.022808e-01 0.0
8.430666e-01 -1.669756e-01 0.0
8.457467e-01 -1.343638e-01 0.0
8.485726e-01 -1.048873e-01 0.0
8.513841e-01 -7.873677e-02 0.0
8.540318e-01 -5.596624e-02 0.0
8.563933e-01 -3.649869e-02 0.0
8.583503e-01 -2.012705e-02 0.0
8.598176e-01 -6.634169e-03 0.0
8.607638e-01 4.226459e-03 0.0
8.612001e-01 1.292918e-02 0.0
8.611497e-01 1.986578e-02 0.0
8.606466e-01 2.534134e-02 0.0
8.597315e-01 2.960240e-02 0.0
8.584482e-01 3.285240e-02 0.0
8.568405e-01 3.526118e-02 0.0
8.549511e-01 3.697177e-02 0.0
8.528190e-01 3.810494e-02 0.0
8.504781e-01 3.876234e-02 0.0
8.479514e-01 3.902895e-02 0.0
8.452611e-01 3.897304e-02 0.0
8.424311e-01 3.865046e-02 0.0
8.394849e-01 3.810981e-02 0.0
8.364447e-01 3.739363e-02 0.0
8.333307e-01 3.653919e-02 0.0
8.301604e-01 3.557966e-02 0.0
8.269497e-01 3.454247e-02 0.0
8.237123e-01 3.345105e-02 0.0
8.204607e-01 3.232513e-02 0.0
8.172056e-01 3.118119e-02 0.0
8.139566e-01 3.003282e-02 0.0
8.107219e-01 2.889109e-02 0.0
8.075088e-01 2.776487e-02 0.0
8.043235e-01 2.666111e-02 0.0
8.011716e-01 2.558515e-02 0.0
7.980576e-01 2.454090e-02 0.0
7.949857e-01 2.353108e-02 0.0
7.919593e-01 2.255737e-02 0.0
7.889813e-01 2.162061e-02 0.0
7.860542e-01 2.072086e-02 0.0
7.831801e-01 1.985758e-02 0.0
7.803607e-01 1.902970e-02 0.0
7.775976e-01 1.823568e-02 0.0
7.748919e-01 1.747361e-02 0.0
7.722448e-01 1.674122e-02 0.0
7.696572e-01 1.603591e-02 0.0
7.671300e-01 1.535480e-02 0.0
7.646640e-01 1.469473e-02 0.0
7.622603e-01 1.405221e-02 0.0
7.599199e-01 1.342348e-02 0.0
7.576438e-01 1.280455e-02 0.0
7.554334e-01 1.219108e-02 0.0
7.532902e-01 1.157812e-02 0.0
7.512164e-01 1.096025e-02 0.0
7.492144e-01 1.033144e-02 0.0
7.472875e-01 9.685003e-03 0.0
7.454401e-01 9.013456e-03 0.0
7.436779e-01 8.308359e-03 0.0
7.420088e-01 7.560118e-03 0.0
7.404442e-01 6.757670e-03 0.0
7.390010e-01 5.887989e-03 0.0
7.377055e-01 4.935233e-03 0.0
7.366000e-01 3.879321e-03 0.0
7.357540e-01 2.694916e-03 0.0
7.352763e-01 1.362711e-03 0.0
7.352763e-01 -6.499366e-10 0.0
0.000000e+00 -7.038921e-10 0.0
0.000000e+00 0.000000e+00 0.0
0.000000e+00 0.000000e+00 0.0
0.000000e+00 0.000000e+00 0.0
0.000000e+00 0.000000e+00 0.0
0.000000e+00 0.000000e+00 0.0
0.000000e+00 0.000000e+00 0.0
0.000000e+00 0.000000e+00 0.0
0.000000e+00 0.000000e+00 0.0
0.000000e+00 0.000000e+00 0.0
0.000000e+00 0.000000e+00 0.0
0.000000e+00 -8.412567e-02 0.0
-1.372827e-02 8.412508e-02 0.0
-5.676128e-03 1.029492e-01 0.0
1.886150e-02 8.433019e-02 0.0
5.211817e-02 6.159158e-02 0.0
9.300804e-02 3.646458e-02 0.0
1.442392e-01 7.527338e-03 0.0
2.088237e-01 -2.537900e-02 0.0
2.842375e-01 -6.165183e-02 0.0
3.670294e-01 -1.022855e-01 0.0
4.544177e-01 -1.467246e-01 0.0
5.424438e-01 -1.940771e-01 0.0
6.269020e-01 -2.425643e-01 0.0
7.036132e-01 -2.896896e-01 0.0
7.691900e-01 -3.323430e-01 0.0
8.213382e-01 -3.673838e-01 0.0
8.591872e-01 -3.921142e-01 0.0
8.832966e-01 -4.047273e-01 0.0
8.952214e-01 -4.045217e-01 0.0
8.974729e-01 -3.918982e-01 0.0
8.937699e-01 -3.694462e-01 0.0
8.869160e-01 -3.398579e-01 0.0
8.789591e-01 -3.058249e-01 0.0
8.712220e-01 -2.695295e-01 0.0
8.644481e-01 -2.327198e-01 0.0
8.589906e-01 -1.968239e-01 0.0
8.549840e-01 -1.629689e-01 0.0
8.523194e-01 -1.316987e-01 0.0
8.507904e-01 -1.033579e-01 0.0
8.501585e-01 -7.810506e-02 0.0
8.501638e-01 -5.597191e-02 0.0
8.505521e-01 -3.688709e-02 0.0
8.511197e-01 -2.069454e-02 0.0
8.516958e-01 -7.210033e-03 0.0
8.521427e-01 3.779601e-03 0.0
8.523744e-01 1.269741e-02 0.0
8.523520e-01 1.988803e-02 0.0
8.520655e-01 2.562790e-02 0.0
8.515220e-01 3.014596e-02 0.0
8.507391e-01 3.363527e-02 0.0
8.497400e-01 3.626026e-02 0.0
8.485501e-01 3.816168e-02 0.0
8.471948e-01 3.946024e-02 0.0
8.456978e-01 4.025929e-02 0.0
8.440796e-01 4.064718e-02 0.0
8.423539e-01 4.069880e-02 0.0
8.405344e-01 4.046992e-02 0.0
8.386358e-01 4.000841e-02 0.0
8.366717e-01 3.935773e-02 0.0
8.346543e-01 3.855658e-02 0.0
8.325949e-01 3.763910e-02 0.0
8.305030e-01 3.663435e-02 0.0
8.283870e-01 3.556703e-02 0.0
8.262541e-01 3.445800e-02 0.0
8.241107e-01 3.332466e-02 0.0
8.219621e-01 3.218139e-02 0.0
8.198132e-01 3.103994e-02 0.0
8.176684e-01 2.990975e-02 0.0
8.155312e-01 2.879829e-02 0.0
8.134050e-01 2.771131e-02 0.0
8.112928e-01 2.665311e-02 0.0
8.091972e-01 2.562672e-02 0.0
8.071204e-01 2.463411e-02 0.0
8.050647e-01 2.367635e-02 0.0
8.030318e-01 2.275373e-02 0.0
8.010235e-01 2.186589e-02 0.0
7.990413e-01 2.101191e-02 0.0
7.970866e-01 2.019038e-02 0.0
7.951607e-01 1.939949e-02 0.0
7.932649e-01 1.863704e-02 0.0
7.914003e-01 1.790050e-02 0.0
7.895681e-01 1.718701e-02 0.0
7.877694e-01 1.649339e-02 0.0
7.860055e-01 1.581612e-02 0.0
7.842777e-01 1.515130e-02 0.0
7.825873e-01 1.449491e-02 0.0
7.809358e-01 1.384261e-02 0.0
7.793248e-01 1.318912e-02 0.0
7.777563e-01 1.252867e-02 0.0
7.762329e-01 1.185487e-02 0.0
7.747574e-01 1.116047e-02 0.0
7.733337e-01 1.043719e-02 0.0
7.719667e-01 9.675414e-03 0.0
7.706630e-01 8.863730e-03 0.0
7.694325e-01 7.988188e-03 0.0
7.682895e-01 7.031031e-03 0.0
7.672562e-01 5.968483e-03 0.0
7.663686e-01 4.766975e-03 0.0
7.656851e-01 3.378435e-03 0.0
7.652974e-01 1.750339e-03 0.0
7.652974e-01 -5.907517e-10 0.0
0.000000e+00 -6.531534e-10 0.0
0.000000e+00 0.000000e+00 0.0
0.000000e+00 0.000000e+00 0.0
0.000000e+00 0.000000e+00 0.0
0.000000e+00 0.000000e+00 0.0
0.000000e+00 0.000000e+00 0.0
0.000000e+00 0.000000e+00 0.0
0.000000e+00 0.000000e+00 0.0
0.000000e+00 0.000000e+00 0.0
0.000000e+00 0.000000e+00 0.0
0.000000e+00 0.000000e+00 0.0
0.000000e+00 -7.896777e-02 0.0
5.157028e-03 7.897044e-02 0.0
5.424267e-02 5.386567e-02 0.0
1.182808e-01 2.029313e-02 0.0
1.922009e-01 -1.232847e-02 0.0
2.730349e-01 -4.437002e-02 0.0
3.576189e-01 -7.705682e-02 0.0
4.442460e-01 -1.120055e-01 0.0
5.316891e-01 -1.490938e-01 0.0
6.175928e-01 -1.881889e-01 0.0
6.993937e-01 -2.285260e-01 0.0
7.742342e-01 -2.689180e-01 0.0
8.393411e-01 -3.076711e-01 0.0
8.923666e-01 -3.427149e-01 0.0