# vtk DataFile Version 3.0
Vector Field
ASCII
DATASET RECTILINEAR_GRID
DIMENSIONS 102 22 1
X_COORDINATES 102 double
0.000000 0.100000 0.200000 0.300000 0.400000 0.500000 0.600000 0.700000 0.800000 0.900000 1.000000 1.100000 1.200000 1.300000 1.400000 1.500000 1.600000 1.700000 1.800000 1.900000 2.000000 2.100000 2.200000 2.300000 2.400000 2.500000 2.600000 2.700000 2.800000 2.900000 3.000000 3.100000 3.200000 3.300000 3.400000 3.500000 3.600000 3.700000 3.800000 3.900000 4.000000 4.100000 4.200000 4.300000 4.400000 4.500000 4.600000 4.700000 4.800000 4.900000 5.000000 5.100000 5.200000 5.300000 5.400000 5.500000 5.600000 5.700000 5.800000 5.900000 6.000000 6.100000 6.200000 6.300000 6.400000 6.500000 6.600000 6.700000 6.800000 6.900000 7.000000 7.100000 7.200000 7.300000 7.400000 7.500000 7.600000 7.700000 7.800000 7.900000 8.000000 8.100000 8.200000 8.300000 8.400000 8.500000 8.600000 8.700000 8.800000 8.900000 9.000000 9.100000 9.200000 9.300000 9.400000 9.500000 9.600000 9.700000 9.800000 9.900000 10.000000 10.100000 
Y_COORDINATES 22 double
0.000000 0.100000 0.200000 0.300000 0.400000 0.500000 0.600000 0.700000 0.800000 0.900000 1.000000 1.100000 1.200000 1.300000 1.400000 1.500000 1.600000 1.700000 1.800000 1.900000 2.000000 2.100000 
Z_COORDINATES 1 double
0.0
POINT_DATA 2244
VECTORS Velocity double
0.000000e+00 0.000000e+00 0.0
-0.000000e+00 0.000000e+00 0.0
-0.000000e+00 0.000000e+00 0.0
-0.000000e+00 0.000000e+00 0.0
-0.000000e+00 0.000000e+00 0.0
-0.000000e+00 0.000000e+00 0.0
-0.000000e+00 0.000000e+00 0.0
-0.000000e+00 0.000000e+00 0.0
-0.000000e+00 0.000000e+00 0.0
-0.000000e+00 0.000000e+00 0.0
-0.000000e+00 0.000000e+00 0.0
5.207672e-04 0.000000e+00 0.0
4.900927e-03 0.000000e+00 0.0
1.167634e-02 0.000000e+00 0.0
1.966025e-02 0.000000e+00 0.0
2.846861e-02 0.000000e+00 0.0
3.819391e-02 0.000000e+00 0.0
4.912140e-02 0.000000e+00 0.0
6.160003e-02 0.000000e+00 0.0
7.597882e-02 0.000000e+00 0.0
9.253082e-02 0.000000e+00 0.0
1.113395e-01 0.000000e+00 0.0
1.321242e-01 0.000000e+00 0.0
1.540560e-01 0.000000e+00 0.0
1.755206e-01 0.000000e+00 0.0
1.937936e-01 0.000000e+00 0.0
2.053521e-01 0.000000e+00 0.0
2.062244e-01 0.000000e+00 0.0
1.933238e-01 0.000000e+00 0.0
1.657376e-01 0.000000e+00 0.0
1.252039e-01 0.000000e+00 0.0
7.580137e-02 0.000000e+00 0.0
2.023662e-02 0.000000e+00 0.0
-3.451247e-02 0.000000e+00 0.0
-8.130996e-02 0.000000e+00 0.0
-1.182420e-01 0.000000e+00 0.0
-1.455524e-01 0.000000e+00 0.0
-1.643809e-01 0.000000e+00 0.0
-1.761897e-01 0.000000e+00 0.0
-1.824841e-01 0.000000e+00 0.0
-1.846823e-01 0.000000e+00 0.0
-1.840548e-01 0.000000e+00 0.0
-1.813373e-01 0.000000e+00 0.0
-1.770857e-01 0.000000e+00 0.0
-1.718649e-01 0.000000e+00 0.0
-1.661391e-01 0.000000e+00 0.0
-1.602552e-01 0.000000e+00 0.0
-1.544443e-01 0.000000e+00 0.0
-1.488432e-01 0.000000e+00 0.0
-1.435386e-01 0.000000e+00 0.0
-1.385720e-01 0.000000e+00 0.0
-1.339584e-01 0.000000e+00 0.0
-1.296961e-01 0.000000e+00 0.0
-1.257741e-01 0.000000e+00 0.0
-1.221757e-01 0.000000e+00 0.0
-1.188808e-01 0.000000e+00 0.0
-1.158680e-01 0.000000e+00 0.0
-1.131161e-01 0.000000e+00 0.0
-1.106048e-01 0.000000e+00 0.0
-1.083149e-01 0.000000e+00 0.0
-1.062283e-01 0.000000e+00 0.0
-1.043275e-01 0.000000e+00 0.0
-1.025965e-01 0.000000e+00 0.0
-1.010201e-01 0.000000e+00 0.0
-9.958435e-02 0.000000e+00 0.0
-9.827632e-02 0.000000e+00 0.0
-9.708408e-02 0.000000e+00 0.0
-9.599669e-02 0.000000e+00 0.0
-9.500412e-02 0.000000e+00 0.0
-9.409723e-02 0.000000e+00 0.0
-9.326772e-02 0.000000e+00 0.0
-9.250809e-02 0.000000e+00 0.0
-9.181157e-02 0.000000e+00 0.0
-9.117212e-02 0.000000e+00 0.0
-9.058433e-02 0.000000e+00 0.0
-9.004341e-02 0.000000e+00 0.0
-8.954515e-02 0.000000e+00 0.0
-8.908587e-02 0.000000e+00 0.0
-8.866241e-02 0.000000e+00 0.0
-8.827206e-02 0.000000e+00 0.0
-8.791261e-02 0.000000e+00 0.0
-8.758225e-02 0.000000e+00 0.0
-8.727963e-02 0.000000e+00 0.0
-8.700379e-02 0.000000e+00 0.0
-8.675419e-02 0.000000e+00 0.0
-8.653072e-02 0.000000e+00 0.0
-8.633367e-02 0.000000e+00 0.0
-8.616379e-02 0.000000e+00 0.0
-8.602225e-02 0.000000e+00 0.0
-8.591073e-02 0.000000e+00 0.0
-8.583144e-02 0.000000e+00 0.0
-8.578732e-02 0.000000e+00 0.0
-8.578212e-02 0.000000e+00 0.0
-8.581830e-02 0.000000e+00 0.0
-8.589382e-02 0.000000e+00 0.0
-8.600219e-02 0.000000e+00 0.0
-8.613768e-02 0.000000e+00 0.0
-8.628893e-02 0.000000e+00 0.0
-8.643460e-02 0.000000e+00 0.0
-8.653130e-02 0.000000e+00 0.0
-8.653130e-02 0.000000e+00 0.0
0.000000e+00 0.000000e+00 0.0
0.000000e+00 0.000000e+00 0.0
0.000000e+00 0.000000e+00 0.0
0.000000e+00 0.000000e+00 0.0
0.000000e+00 0.000000e+00 0.0
0.000000e+00 0.000000e+00 0.0
0.000000e+00 0.000000e+00 0.0
0.000000e+00 0.000000e+00 0.0
0.000000e+00 0.000000e+00 0.0
0.000000e+00 0.000000e+00 0.0
0.000000e+00 0.000000e+00 0.0
0.000000e+00 -5.188140e-04 0.0
-5.173207e-04 5.197356e-04 0.0
-4.895687e-03 4.381788e-03 0.0
-1.167524e-02 6.778292e-03 0.0
-1.966513e-02 7.984267e-03 0.0
-2.847474e-02 8.804942e-03 0.0
-3.819478e-02 9.721130e-03 0.0
-4.911551e-02 1.092677e-02 0.0
-6.159287e-02 1.248251e-02 0.0
-7.597736e-02 1.438385e-02 0.0
-9.253680e-02 1.655356e-02 0.0
-1.113479e-01 1.880521e-02 0.0
-1.321282e-01 2.077932e-02 0.0
-1.540532e-01 2.192893e-02 0.0
-1.755146e-01 2.146633e-02 0.0
-1.937901e-01 1.827721e-02 0.0
-2.053533e-01 1.156145e-02 0.0
-2.062281e-01 8.720050e-04 0.0
-1.933263e-01 -1.290325e-02 0.0
-1.657377e-01 -2.758898e-02 0.0
-1.252031e-01 -4.053508e-02 0.0
-7.580045e-02 -4.940294e-02 0.0
-2.023440e-02 -5.556473e-02 0.0
3.451645e-02 -5.474807e-02 0.0
8.131337e-02 -4.679538e-02 0.0
1.182416e-01 -3.693024e-02 0.0
1.455489e-01 -2.731103e-02 0.0
1.643786e-01 -1.883120e-02 0.0
1.761917e-01 -1.181090e-02 0.0
1.824884e-01 -6.293491e-03 0.0
1.846843e-01 -2.195280e-03 0.0
1.840535e-01 6.291701e-04 0.0
1.813355e-01 2.716915e-03 0.0
1.770856e-01 4.250416e-03 0.0
1.718657e-01 5.220511e-03 0.0
1.661390e-01 5.726186e-03 0.0
1.602544e-01 5.883859e-03 0.0
1.544444e-01 5.810467e-03 0.0
1.488444e-01 5.601217e-03 0.0
1.435395e-01 5.305550e-03 0.0
1.385716e-01 4.967365e-03 0.0
1.339571e-01 4.613456e-03 0.0
1.296953e-01 4.261428e-03 0.0
1.257744e-01 3.921391e-03 0.0
1.221765e-01 3.598563e-03 0.0
1.188813e-01 3.295470e-03 0.0
1.158679e-01 3.013213e-03 0.0
1.131158e-01 2.751946e-03 0.0
1.106046e-01 2.511112e-03 0.0
1.083149e-01 2.289729e-03 0.0
1.062283e-01 2.086674e-03 0.0
1.043276e-01 1.900833e-03 0.0
1.025965e-01 1.731116e-03 0.0
1.010201e-01 1.576450e-03 0.0
9.958434e-02 1.435775e-03 0.0
9.827632e-02 1.308049e-03 0.0
9.708410e-02 1.192260e-03 0.0
9.599672e-02 1.087426e-03 0.0
9.500415e-02 9.926133e-04 0.0
9.409726e-02 9.069335e-04 0.0
9.326774e-02 8.295491e-04 0.0
9.250811e-02 7.596692e-04 0.0
9.181160e-02 6.965488e-04 0.0
9.117215e-02 6.394877e-04 0.0
9.058437e-02 5.878294e-04 0.0
9.004345e-02 5.409590e-04 0.0
8.954519e-02 4.983017e-04 0.0
8.908591e-02 4.593193e-04 0.0
8.866245e-02 4.235059e-04 0.0
8.827210e-02 3.903827e-04 0.0
8.791265e-02 3.594923e-04 0.0
8.758230e-02 3.303947e-04 0.0
8.727968e-02 3.026638e-04 0.0
8.700384e-02 2.758823e-04 0.0
8.675425e-02 2.496373e-04 0.0
8.653078e-02 2.235134e-04 0.0
8.633373e-02 1.970886e-04 0.0
8.616384e-02 1.699284e-04 0.0
8.602231e-02 1.415806e-04 0.0
8.591079e-02 1.115626e-04 0.0
8.583150e-02 7.932426e-05 0.0
8.578738e-02 4.416311e-05 0.0
8.578219e-02 5.239916e-06 0.0
8.581836e-02 -3.612865e-05 0.0
8.589388e-02 -7.548304e-05 0.0
8.600226e-02 -1.083319e-04 0.0
8.613774e-02 -1.354405e-04 0.0
8.628899e-02 -1.512084e-04 0.0
8.643466e-02 -1.456308e-04 0.0
8.653137e-02 -9.666221e-05 0.0
8.653130e-02 1.067962e-07 0.0
0.000000e+00 1.082920e-07 0.0
0.000000e+00 0.000000e+00 0.0
0.000000e+00 0.000000e+00 0.0
0.000000e+00 0.000000e+00 0.0
0.000000e+00 0.000000e+00 0.0
0.000000e+00 0.000000e+00 0.0
0.000000e+00 0.000000e+00 0.0
0.000000e+00 0.000000e+00 0.0
0.000000e+00 0.000000e+00 0.0
0.000000e+00 0.000000e+00 0.0
0.000000e+00 0.000000e+00 0.0
0.000000e+00 -6.338094e-03 0.0
-5.816579e-03 6.340162e-03 0.0
-1.944843e-02 1.801189e-02 0.0
-3.736224e-02 2.468717e-02 0.0
-5.741339e-02 2.803226e-02 0.0
-7.878382e-02 3.017725e-02 0.0
-1.013842e-01 3.232634e-02 0.0
-1.253500e-01 3.489522e-02 0.0
-1.507589e-01 3.788880e-02 0.0
-1.774543e-01 4.107323e-02 0.0
-2.048942e-01 4.398914e-02 0.0
-2.320398e-01 4.595165e-02 0.0
-2.571863e-01 4.593025e-02 0.0
-2.778714e-01 4.261788e-02 0.0
-2.909537e-01 3.454883e-02 0.0
-2.926095e-01 1.993007e-02 0.0
-2.781150e-01 -2.935930e-03 0.0
-2.447971e-01 -3.244639e-02 0.0
-1.938829e-01 -6.381660e-02 0.0
-1.282703e-01 -9.320114e-02 0.0
-5.060903e-02 -1.181963e-01 0.0
3.396654e-02 -1.339776e-01 0.0
1.144208e-01 -1.360172e-01 0.0
1.857619e-01 -1.260885e-01 0.0
2.479765e-01 -1.090122e-01 0.0
3.002953e-01 -8.925231e-02 0.0
3.426497e-01 -6.966603e-02 0.0
3.755942e-01 -5.177263e-02 0.0
4.000403e-01 -3.625412e-02 0.0
4.170660e-01 -2.331944e-02 0.0
4.277876e-01 -1.291929e-02 0.0
4.332698e-01 -4.854249e-03 0.0
4.348130e-01 1.174718e-03 0.0
4.332515e-01 5.812817e-03 0.0
4.292657e-01 9.205821e-03 0.0
4.234440e-01 1.154705e-02 0.0
4.162713e-01 1.305696e-02 0.0
4.081619e-01 1.392112e-02 0.0
3.994876e-01 1.427592e-02 0.0
3.905509e-01 1.424138e-02 0.0
3.815670e-01 1.395020e-02 0.0
3.726987e-01 1.348171e-02 0.0
3.640613e-01 1.289953e-02 0.0
3.557343e-01 1.224905e-02 0.0
3.477700e-01 1.156288e-02 0.0
3.402006e-01 1.086449e-02 0.0
3.330431e-01 1.017045e-02 0.0
3.263028e-01 9.492208e-03 0.0
3.199766e-01 8.837407e-03 0.0
3.140554e-01 8.211086e-03 0.0
3.085256e-01 7.616474e-03 0.0
3.033710e-01 7.055484e-03 0.0
2.985730e-01 6.529015e-03 0.0
2.941123e-01 6.037184e-03 0.0
2.899686e-01 5.579513e-03 0.0
2.861216e-01 5.155071e-03 0.0
2.825513e-01 4.762596e-03 0.0
2.792381e-01 4.400586e-03 0.0
2.761634e-01 4.067379e-03 0.0
2.733091e-01 3.761211e-03 0.0
2.706584e-01 3.480268e-03 0.0
2.681953e-01 3.222713e-03 0.0
2.659052e-01 2.986719e-03 0.0
2.637742e-01 2.770488e-03 0.0
2.617898e-01 2.572266e-03 0.0
2.599404e-01 2.390355e-03 0.0
2.582156e-01 2.223120e-03 0.0
2.566059e-01 2.068988e-03 0.0
2.551030e-01 1.926444e-03 0.0
2.536994e-01 1.794029e-03 0.0
2.523885e-01 1.670329e-03 0.0
2.511650e-01 1.553971e-03 0.0
2.500240e-01 1.443609e-03 0.0
2.489620e-01 1.337921e-03 0.0
2.479761e-01 1.235588e-03 0.0
2.470643e-01 1.135283e-03 0.0
2.462257e-01 1.035660e-03 0.0
2.454603e-01 9.353357e-04 0.0
2.447691e-01 8.328872e-04 0.0
2.441538e-01 7.268476e-04 0.0
2.436174e-01 6.157140e-04 0.0
2.431636e-01 4.979928e-04 0.0
2.427963e-01 3.724821e-04 0.0
2.425207e-01 2.395659e-04 0.0
2.423433e-01 1.018688e-04 0.0
2.422715e-01 -3.645750e-05 0.0
2.422953e-01 -1.592299e-04 0.0
2.423883e-01 -2.442024e-04 0.0
2.425112e-01 -2.685467e-04 0.0
2.426088e-01 -1.942787e-04 0.0
2.426086e-01 2.989534e-07 0.0
0.000000e+00 3.023818e-07 0.0
0.000000e+00 0.000000e+00 0.0
0.000000e+00 0.000000e+00 0.0
0.000000e+00 0.000000e+00 0.0
0.000000e+00 0.000000e+00 0.0
0.000000e+00 0.000000e+00 0.0
0.000000e+00 0.000000e+00 0.0
0.000000e+00 0.000000e+00 0.0
0.000000e+00 0.000000e+00 0.0
0.000000e+00 0.000000e+00 0.0
0.000000e+00 0.000000e+00 0.0
0.000000e+00 -1.696313e-02 0.0
-1.062220e-02 1.696526e-02 0.0
-3.137721e-02 3.876312e-02 0.0
-5.610446e-02 4.940996e-02 0.0
-8.185849e-02 5.378590e-02 0.0
-1.075333e-01 5.585642e-02 0.0
-1.327637e-01 5.756196e-02 0.0
-1.573147e-01 5.944736e-02 0.0
-1.808292e-01 6.139967e-02 0.0
-2.026949e-01 6.293433e-02 0.0
-2.219076e-01 6.320064e-02 0.0
-2.371153e-01 6.116265e-02 0.0
-2.464948e-01 5.531435e-02 0.0
-2.475483e-01 4.367341e-02 0.0
-2.364465e-01 2.344499e-02 0.0
-2.066980e-01 -9.821662e-03 0.0
-1.582468e-01 -5.138873e-02 0.0
-9.240482e-02 -9.828783e-02 0.0
-1.247064e-02 -1.437497e-01 0.0
7.452475e-02 -1.801964e-01 0.0
1.592461e-01 -2.029174e-01 0.0
2.369714e-01 -2.117016e-01 0.0
3.055382e-01 -2.045828e-01 0.0
3.654761e-01 -1.860275e-01 0.0
4.176950e-01 -1.612342e-01 0.0
4.626103e-01 -1.341695e-01 0.0
5.004583e-01 -1.075120e-01 0.0
5.315405e-01 -8.285127e-02 0.0
5.562843e-01 -6.099695e-02 0.0
5.752198e-01 -4.225711e-02 0.0
5.889359e-01 -2.663756e-02 0.0
5.980492e-01 -1.396711e-02 0.0
6.032006e-01 -3.975253e-03 0.0
6.053181e-01 3.695425e-03 0.0
6.049052e-01 9.617622e-03 0.0
6.024136e-01 1.403849e-02 0.0
5.982390e-01 1.723262e-02 0.0
5.927194e-01 1.944175e-02 0.0
5.861260e-01 2.086880e-02 0.0
5.786769e-01 2.168928e-02 0.0
5.706188e-01 2.200780e-02 0.0
5.621697e-01 2.193129e-02 0.0
5.535016e-01 2.156855e-02 0.0
5.447533e-01 2.099753e-02 0.0
5.360366e-01 2.027932e-02 0.0
5.274395e-01 1.946117e-02 0.0
5.190306e-01 1.857925e-02 0.0
5.108618e-01 1.766112e-02 0.0
5.029715e-01 1.672790e-02 0.0
4.953867e-01 1.579593e-02 0.0
4.881253e-01 1.487783e-02 0.0
4.811976e-01 1.398322e-02 0.0
4.746073e-01 1.311926e-02 0.0
4.683534e-01 1.229110e-02 0.0
4.624307e-01 1.150225e-02 0.0
4.568309e-01 1.075485e-02 0.0
4.515436e-01 1.004996e-02 0.0
4.465564e-01 9.387751e-03 0.0
4.418561e-01 8.767713e-03 0.0
4.374285e-01 8.188773e-03 0.0
4.332594e-01 7.649444e-03 0.0
4.293342e-01 7.147923e-03 0.0
4.256387e-01 6.682175e-03 0.0
4.221592e-01 6.250007e-03 0.0
4.188824e-01 5.849124e-03 0.0
4.157956e-01 5.477174e-03 0.0
4.128869e-01 5.131783e-03 0.0
4.101453e-01 4.810574e-03 0.0
4.075606e-01 4.511180e-03 0.0
4.051234e-01 4.231251e-03 0.0
4.028253e-01 3.968459e-03 0.0
4.006588e-01 3.720492e-03 0.0
3.986174e-01 3.485051e-03 0.0
3.966955e-01 3.259832e-03 0.0
3.948885e-01 3.042516e-03 0.0
3.931931e-01 2.830747e-03 0.0
3.916066e-01 2.622111e-03 0.0
3.901279e-01 2.414113e-03 0.0
3.887566e-01 2.204169e-03 0.0
3.874939e-01 1.989608e-03 0.0
3.863419e-01 1.767715e-03 0.0
3.853040e-01 1.535846e-03 0.0
3.843847e-01 1.291780e-03 0.0
3.835897e-01 1.034594e-03 0.0
3.829260e-01 7.656433e-04 0.0
3.823995e-01 4.900223e-04 0.0
3.820175e-01 2.227830e-04 0.0
3.817830e-01 -9.730066e-06 0.0
3.816736e-01 -1.591588e-04 0.0
3.816504e-01 -1.709785e-04 0.0
3.816501e-01 5.663823e-07 0.0
0.000000e+00 5.724675e-07 0.0
0.000000e+00 0.000000e+00 0.0
0.000000e+00 0.000000e+00 0.0
0.000000e+00 0.000000e+00 0.0
0.000000e+00 0.000000e+00 0.0
0.000000e+00 0.000000e+00 0.0
0.000000e+00 0.000000e+00 0.0
0.000000e+00 0.000000e+00 0.0
0.000000e+00 0.000000e+00 0.0
0.000000e+00 0.000000e+00 0.0
0.000000e+00 0.000000e+00 0.0
0.000000e+00 -3.010447e-02 0.0
-1.313940e-02 3.010613e-02 0.0
-3.668147e-02 6.230122e-02 0.0
-6.237951e-02 7.510603e-02 0.0
-8.686801e-02 7.827719e-02 0.0
-1.090569e-01 7.805065e-02 0.0
-1.285243e-01 7.703259e-02 0.0
-1.449250e-01 7.584642e-02 0.0
-1.578194e-01 7.428906e-02 0.0
-1.666394e-01 7.175076e-02 0.0
-1.704124e-01 6.697478e-02 0.0
-1.677310e-01 5.848603e-02 0.0
-1.561551e-01 4.374251e-02 0.0
-1.321050e-01 1.962336e-02 0.0
-8.760222e-02 -2.106081e-02 0.0
-2.396523e-02 -7.346158e-02 0.0
5.508816e-02 -1.304425e-01 0.0
1.402460e-01 -1.834444e-01 0.0
2.246103e-01 -2.281130e-01 0.0
3.037840e-01 -2.593699e-01 0.0
3.752594e-01 -2.743924e-01 0.0
4.364091e-01 -2.728500e-01 0.0
4.880572e-01 -2.562305e-01 0.0
5.322964e-01 -2.302690e-01 0.0
5.705283e-01 -1.994690e-01 0.0
6.035579e-01 -1.671990e-01 0.0
6.318335e-01 -1.357843e-01 0.0
6.556521e-01 -1.066672e-01 0.0
6.752780e-01 -8.062396e-02 0.0
6.909916e-01 -5.797349e-02 0.0
7.030985e-01 -3.874528e-02 0.0
7.119277e-01 -2.279486e-02 0.0
7.178363e-01 -9.882856e-03 0.0
7.212478e-01 2.831679e-04 0.0
7.226339e-01 8.230495e-03 0.0
7.223204e-01 1.435270e-02 0.0
7.205665e-01 1.898791e-02 0.0
7.175916e-01 2.241676e-02 0.0
7.135877e-01 2.487154e-02 0.0
7.087311e-01 2.654479e-02 0.0
7.031531e-01 2.758600e-02 0.0
6.969655e-01 2.811984e-02 0.0
6.903092e-01 2.822544e-02 0.0
6.833102e-01 2.799641e-02 0.0
6.760766e-01 2.751239e-02 0.0
6.687012e-01 2.683636e-02 0.0
6.612626e-01 2.601791e-02 0.0
6.538274e-01 2.509651e-02 0.0
6.464514e-01 2.410405e-02 0.0
6.391807e-01 2.306657e-02 0.0
6.320531e-01 2.200543e-02 0.0
6.250983e-01 2.093795e-02 0.0
6.183396e-01 1.987803e-02 0.0
6.117940e-01 1.883671e-02 0.0
6.054737e-01 1.782256e-02 0.0
5.993865e-01 1.684204e-02 0.0
5.935366e-01 1.589987e-02 0.0
5.879251e-01 1.499928e-02 0.0
5.825506e-01 1.414223e-02 0.0
5.774097e-01 1.332968e-02 0.0
5.724974e-01 1.256172e-02 0.0
5.678076e-01 1.183775e-02 0.0
5.633332e-01 1.115664e-02 0.0
5.590664e-01 1.051679e-02 0.0
5.549992e-01 9.916280e-03 0.0
5.511235e-01 9.352930e-03 0.0
5.474309e-01 8.824357e-03 0.0
5.439135e-01 8.328033e-03 0.0
5.405634e-01 7.861311e-03 0.0
5.373732e-01 7.421459e-03 0.0
5.343360e-01 7.005673e-03 0.0
5.314454e-01 6.611090e-03 0.0
5.286956e-01 6.234782e-03 0.0
5.260817e-01 5.873754e-03 0.0
5.235993e-01 5.524930e-03 0.0
5.212450e-01 5.185137e-03 0.0
5.190160e-01 4.851072e-03 0.0
5.169109e-01 4.519268e-03 0.0
5.149290e-01 4.186080e-03 0.0
5.130709e-01 3.847684e-03 0.0
5.113385e-01 3.500115e-03 0.0
5.097350e-01 3.139384e-03 0.0
5.082650e-01 2.761777e-03 0.0
5.069351e-01 2.364493e-03 0.0
5.057541e-01 1.946621e-03 0.0
5.047333e-01 1.510911e-03 0.0
5.038881e-01 1.067938e-03 0.0
5.032378e-01 6.406458e-04 0.0
5.028041e-01 2.744807e-04 0.0
5.025923e-01 4.090167e-05 0.0
5.025920e-01 8.536675e-07 0.0
0.000000e+00 8.627060e-07 0.0
0.000000e+00 0.000000e+00 0.0
0.000000e+00 0.000000e+00 0.0
0.000000e+00 0.000000e+00 0.0
0.000000e+00 0.000000e+00 0.0
0.000000e+00 0.000000e+00 0.0
0.000000e+00 0.000000e+00 0.0
0.000000e+00 0.000000e+00 0.0
0.000000e+00 0.000000e+00 0.0
0.000000e+00 0.000000e+00 0.0
0.000000e+00 0.000000e+00 0.0
0.000000e+00 -4.360682e-02 0.0
-1.350168e-02 4.360876e-02 0.0
-3.553829e-02 8.433428e-02 0.0
-5.694923e-02 9.651660e-02 0.0
-7.478643e-02 9.611870e-02 0.0
-8.837383e-02 9.164381e-02 0.0
-9.746899e-02 8.613003e-02 0.0
-1.018073e-01 8.018191e-02 0.0
-1.008919e-01 7.336887e-02 0.0
-9.422440e-02 6.508120e-02 0.0
-8.009681e-02 5.284988e-02 0.0
-5.626773e-02 3.466175e-02 0.0
-1.562250e-02 3.099953e-03 0.0
4.631106e-02 -4.231175e-02 0.0
1.221472e-01 -9.690059e-02 0.0
2.054388e-01 -1.567554e-01 0.0
2.900926e-01 -2.150954e-01 0.0
3.715465e-01 -2.648964e-01 0.0
4.453187e-01 -3.018845e-01 0.0
5.090778e-01 -3.231292e-01 0.0
5.620987e-01 -3.274128e-01 0.0
6.042265e-01 -3.149768e-01 0.0
6.387609e-01 -2.907656e-01 0.0
6.678379e-01 -2.593487e-01 0.0
6.928049e-01 -2.244376e-01 0.0
7.144502e-01 -1.888423e-01 0.0
7.332071e-01 -1.545377e-01 0.0
7.493099e-01 -1.227692e-01 0.0
7.629053e-01 -9.422179e-02 0.0
7.741163e-01 -6.918671e-02 0.0
7.830728e-01 -4.770130e-02 0.0
7.899211e-01 -2.964141e-02 0.0
7.948229e-01 -1.478452e-02 0.0
7.979644e-01 -2.859489e-03 0.0
7.996577e-01 6.536885e-03 0.0
8.001163e-01 1.389532e-02 0.0
7.995041e-01 1.960113e-02 0.0
7.979594e-01 2.396072e-02 0.0
7.956070e-01 2.722260e-02 0.0
7.925613e-01 2.959001e-02 0.0
7.889206e-01 3.122750e-02 0.0
7.847707e-01 3.227065e-02 0.0
7.801678e-01 3.282852e-02 0.0
7.751838e-01 3.297999e-02 0.0
7.698945e-01 3.280125e-02 0.0
7.643677e-01 3.236313e-02 0.0
7.586640e-01 3.172174e-02 0.0
7.528380e-01 3.092275e-02 0.0
7.469378e-01 3.000420e-02 0.0
7.410063e-01 2.899810e-02 0.0
7.350802e-01 2.793152e-02 0.0
7.291911e-01 2.682701e-02 0.0
7.233658e-01 2.570330e-02 0.0
7.176268e-01 2.457577e-02 0.0
7.119924e-01 2.345695e-02 0.0
7.064776e-01 2.235685e-02 0.0
7.010942e-01 2.128331e-02 0.0
6.958511e-01 2.024232e-02 0.0
6.907551e-01 1.923826e-02 0.0
6.858107e-01 1.827416e-02 0.0
6.810205e-01 1.735189e-02 0.0
6.763859e-01 1.647237e-02 0.0
6.719069e-01 1.563569e-02 0.0
6.675823e-01 1.484131e-02 0.0
6.634105e-01 1.408812e-02 0.0
6.593889e-01 1.337457e-02 0.0
6.555145e-01 1.269875e-02 0.0
6.517841e-01 1.205845e-02 0.0
6.481942e-01 1.145121e-02 0.0
6.447413e-01 1.087437e-02 0.0
6.414219e-01 1.032508e-02 0.0
6.382327e-01 9.800332e-03 0.0
6.351705e-01 9.296970e-03 0.0
6.322326e-01 8.811667e-03 0.0
6.294166e-01 8.340941e-03 0.0
6.267206e-01 7.881132e-03 0.0
6.241434e-01 7.428364e-03 0.0
6.216842e-01 6.978478e-03 0.0
6.193432e-01 6.527023e-03 0.0
6.171217e-01 6.069233e-03 0.0
6.150218e-01 5.600044e-03 0.0
6.130470e-01 5.114142e-03 0.0
6.112027e-01 4.606151e-03 0.0
6.094962e-01 4.071008e-03 0.0
6.079382e-01 3.504633e-03 0.0
6.065439e-01 2.905181e-03 0.0
6.053363e-01 2.275568e-03 0.0
6.043497e-01 1.627230e-03 0.0
6.036367e-01 9.875494e-04 0.0
6.032667e-01 4.108396e-04 0.0
6.032665e-01 1.111103e-06 0.0
0.000000e+00 1.122884e-06 0.0
0.000000e+00 0.000000e+00 0.0
0.000000e+00 0.000000e+00 0.0
0.000000e+00 0.000000e+00 0.0
0.000000e+00 0.000000e+00 0.0
0.000000e+00 0.000000e+00 0.0
0.000000e+00 0.000000e+00 0.0
0.000000e+00 0.000000e+00 0.0
0.000000e+00 0.000000e+00 0.0
0.000000e+00 0.000000e+00 0.0
0.000000e+00 0.000000e+00 0.0
0.000000e+00 -5.674824e-02 0.0
-1.314187e-02 5.675063e-02 0.0
-3.053682e-02 1.017263e-01 0.0
-4.348667e-02 1.094674e-01 0.0
-5.067256e-02 1.033090e-01 0.0
-5.209165e-02 9.306673e-02 0.0
-4.780835e-02 8.184639e-02 0.0
-3.759125e-02 6.996041e-02 0.0
-2.003234e-02 5.580545e-02 0.0
6.359547e-03 3.868883e-02 0.0
4.613318e-02 1.308024e-02 0.0
1.045510e-01 -2.375136e-02 0.0
1.779320e-01 -7.027965e-02 0.0
2.607357e-01 -1.251185e-01 0.0
3.476899e-01 -1.838587e-01 0.0
4.326086e-01 -2.416752e-01 0.0
5.105016e-01 -2.929866e-01 0.0
5.783652e-01 -3.327581e-01 0.0
6.344297e-01 -3.579487e-01 0.0
6.784092e-01 -3.671090e-01 0.0
7.108100e-01 -3.598130e-01 0.0
7.349734e-01 -3.391397e-01 0.0
7.536842e-01 -3.094779e-01 0.0
7.688837e-01 -2.745507e-01 0.0
7.817953e-01 -2.373494e-01 0.0
7.931164e-01 -2.001604e-01 0.0
8.032030e-01 -1.646218e-01 0.0
8.121896e-01 -1.317566e-01 0.0
8.200965e-01 -1.021314e-01 0.0
8.268990e-01 -7.599028e-02 0.0
8.325753e-01 -5.337628e-02 0.0
8.371225e-01 -3.418745e-02 0.0
8.405508e-01 -1.821336e-02 0.0
8.428946e-01 -5.204121e-03 0.0
8.442904e-01 5.141499e-03 0.0
8.448471e-01 1.333981e-02 0.0
8.446542e-01 1.979426e-02 0.0
8.437935e-01 2.482025e-02 0.0
8.423435e-01 2.867165e-02 0.0
8.403779e-01 3.155579e-02 0.0
8.379636e-01 3.364276e-02 0.0
8.351612e-01 3.507367e-02 0.0
8.320236e-01 3.596588e-02 0.0
8.285876e-01 3.641548e-02 0.0
8.248911e-01 3.649752e-02 0.0
8.209754e-01 3.627894e-02 0.0
8.168797e-01 3.581758e-02 0.0
8.126410e-01 3.516161e-02 0.0
8.082931e-01 3.435212e-02 0.0
8.038667e-01 3.342443e-02 0.0
7.993891e-01 3.240913e-02 0.0
7.948842e-01 3.133186e-02 0.0
7.903733e-01 3.021425e-02 0.0
7.858747e-01 2.907441e-02 0.0
7.814043e-01 2.792731e-02 0.0
7.769760e-01 2.678523e-02 0.0
7.726012e-01 2.565804e-02 0.0
7.682900e-01 2.455356e-02 0.0
7.640505e-01 2.347782e-02 0.0
7.598893e-01 2.243530e-02 0.0
7.558120e-01 2.142919e-02 0.0
7.518229e-01 2.046153e-02 0.0
7.479252e-01 1.953342e-02 0.0
7.441213e-01 1.864515e-02 0.0
7.404131e-01 1.779637e-02 0.0
7.368015e-01 1.698615e-02 0.0
7.332872e-01 1.621307e-02 0.0
7.298703e-01 1.547534e-02 0.0
7.265507e-01 1.477080e-02 0.0
7.233281e-01 1.409701e-02 0.0
7.202019e-01 1.345126e-02 0.0
7.171717e-01 1.283061e-02 0.0
7.142368e-01 1.223186e-02 0.0
7.113969e-01 1.165159e-02 0.0
7.086517e-01 1.108613e-02 0.0
7.060012e-01 1.053159e-02 0.0
7.034458e-01 9.983788e-03 0.0
7.009862e-01 9.438104e-03 0.0
6.986237e-01 8.889517e-03 0.0
6.963604e-01 8.332553e-03 0.0
6.941992e-01 7.761241e-03 0.0
6.921443e-01 7.169091e-03 0.0
6.902013e-01 6.549106e-03 0.0
6.883785e-01 5.893875e-03 0.0
6.866874e-01 5.195765e-03 0.0
6.851452e-01 4.447321e-03 0.0
6.837787e-01 3.642095e-03 0.0
6.826300e-01 2.775995e-03 0.0
6.817668e-01 1.850763e-03 0.0
6.812910e-01 8.866178e-04 0.0
6.812908e-01 1.298904e-06 0.0
0.000000e+00 1.312834e-06 0.0
0.000000e+00 0.000000e+00 0.0
0.000000e+00 0.000000e+00 0.0
0.000000e+00 0.000000e+00 0.0
0.000000e+00 0.000000e+00 0.0
0.000000e+00 0.000000e+00 0.0
0.000000e+00 0.000000e+00 0.0
0.000000e+00 0.000000e+00 0.0
0.000000e+00 0.000000e+00 0.0
0.000000e+00 0.000000e+00 0.0
0.000000e+00 0.000000e+00 0.0
0.000000e+00 -7.039470e-02 0.0
-1.364700e-02 7.039571e-02 0.0
-2.291815e-02 1.109944e-01 0.0
-2.230952e-02 1.088603e-01 0.0
-1.383799e-02 9.484204e-02 0.0
1.880832e-03 7.735105e-02 0.0
2.496810e-02 5.875761e-02 0.0
5.571380e-02 3.920963e-02 0.0
9.773890e-02 1.377618e-02 0.0
1.558923e-01 -1.946399e-02 0.0
2.282640e-01 -5.928675e-02 0.0
3.104944e-01 -1.059777e-01 0.0
3.982245e-01 -1.580099e-01 0.0
4.859659e-01 -2.128639e-01 0.0
5.687447e-01 -2.666409e-01 0.0
6.421787e-01 -3.151090e-01 0.0
7.033427e-01 -3.541480e-01 0.0
7.511058e-01 -3.805196e-01 0.0
7.856829e-01 -3.925262e-01 0.0
8.081845e-01 -3.896111e-01 0.0
8.215184e-01 -3.731463e-01 0.0
8.291151e-01 -3.467364e-01 0.0
8.334631e-01 -3.138277e-01 0.0
8.362382e-01 -2.773275e-01 0.0
8.384531e-01 -2.395631e-01 0.0
8.406494e-01 -2.023538e-01 0.0
8.430772e-01 -1.670483e-01 0.0
8.457537e-01 -1.344349e-01 0.0
8.485760e-01 -1.049558e-01 0.0
8.513863e-01 -7.880067e-02 0.0
8.540348e-01 -5.602330e-02 0.0
8.563966e-01 -3.654873e-02 0.0
8.583531e-01 -2.017063e-02 0.0
8.598202e-01 -6.671631e-03 0.0
8.607675e-01 4.195077e-03 0.0
8.612051e-01 1.290301e-02 0.0
8.611552e-01 1.984372e-02 0.0
8.606519e-01 2.532239e-02 0.0
8.597369e-01 2.958616e-02 0.0
8.584545e-01 3.283885e-02 0.0
8.568480e-01 3.525015e-02 0.0
8.549591e-01 3.696279e-02 0.0
8.528270e-01 3.809749e-02 0.0
8.504860e-01 3.875612e-02 0.0
8.479596e-01 3.902388e-02 0.0
8.452696e-01 3.896907e-02 0.0
8.424399e-01 3.864748e-02 0.0
8.394939e-01 3.810767e-02 0.0
8.364537e-01 3.739220e-02 0.0
8.333398e-01 3.653837e-02 0.0
8.301695e-01 3.557938e-02 0.0
8.269587e-01 3.454266e-02 0.0
8.237214e-01 3.345164e-02 0.0
8.204697e-01 3.232608e-02 0.0
8.172146e-01 3.118245e-02 0.0
8.139655e-01 3.003435e-02 0.0
8.107307e-01 2.889285e-02 0.0
8.075174e-01 2.776682e-02 0.0
8.043320e-01 2.666324e-02 0.0
8.011799e-01 2.558744e-02 0.0
7.980658e-01 2.454333e-02 0.0
7.949937e-01 2.353364e-02 0.0
7.919671e-01 2.256005e-02 0.0
7.889888e-01 2.162338e-02 0.0
7.860615e-01 2.072372e-02 0.0
7.831871e-01 1.986054e-02 0.0
7.803675e-01 1.903274e-02 0.0
7.776040e-01 1.823881e-02 0.0
7.748980e-01 1.747681e-02 0.0
7.722506e-01 1.674448e-02 0.0
7.696626e-01 1.603923e-02 0.0
7.671350e-01 1.535818e-02 0.0
7.646687e-01 1.469816e-02 0.0
7.622647e-01 1.405569e-02 0.0
7.599238e-01 1.342701e-02 0.0
7.576473e-01 1.280811e-02 0.0
7.554364e-01 1.219466e-02 0.0
7.532928e-01 1.158172e-02 0.0
7.512185e-01 1.096385e-02 0.0
7.492160e-01 1.033503e-02 0.0
7.472887e-01 9.688566e-03 0.0
7.454408e-01 9.016969e-03 0.0
7.436782e-01 8.311797e-03 0.0
7.420086e-01 7.563452e-03 0.0
7.404435e-01 6.760868e-03 0.0
7.389998e-01 5.891011e-03 0.0
7.377039e-01 4.938035e-03 0.0
7.365981e-01 3.881852e-03 0.0
7.357517e-01 2.697123e-03 0.0
7.352738e-01 1.364538e-03 0.0
7.352737e-01 1.393000e-06 0.0
0.000000e+00 1.408218e-06 0.0
0.000000e+00 0.000000e+00 0.0
0.000000e+00 0.000000e+00 0.0
0.000000e+00 0.000000e+00 0.0
0.000000e+00 0.000000e+00 0.0
0.000000e+00 0.000000e+00 0.0
0.000000e+00 0.000000e+00 0.0
0.000000e+00 0.000000e+00 0.0
0.000000e+00 0.000000e+00 0.0
0.000000e+00 0.000000e+00 0.0
0.000000e+00 0.000000e+00 0.0
0.000000e+00 -8.412423e-02 0.0
-1.373079e-02 8.412273e-02 0.0
-5.684246e-03 1.029459e-01 0.0
1.885000e-02 8.432821e-02 0.0
5.210469e-02 6.159144e-02 0.0
9.298772e-02 3.646997e-02 0.0
1.442024e-01 7.540269e-03 0.0
2.087635e-01 -2.535678e-02 0.0
2.841546e-01 -6.161821e-02 0.0
3.669300e-01 -1.022374e-01 0.0
4.543080e-01 -1.466594e-01 0.0
5.423273e-01 -1.939937e-01 0.0
6.267808e-01 -2.424653e-01 0.0
7.034933e-01 -2.895811e-01 0.0
7.690825e-01 -3.322325e-01 0.0
8.212538e-01 -3.672787e-01 0.0
8.591308e-01 -3.920222e-01 0.0
8.832680e-01 -4.046560e-01 0.0
8.952192e-01 -4.044784e-01 0.0
8.974907e-01 -3.918829e-01 0.0
8.938012e-01 -3.694562e-01 0.0
8.869537e-01 -3.398893e-01 0.0
8.789975e-01 -3.058733e-01 0.0
8.712591e-01 -2.695899e-01 0.0
8.644848e-01 -2.327871e-01 0.0
8.590263e-01 -1.968929e-01 0.0
8.550159e-01 -1.630379e-01 0.0
8.523456e-01 -1.317666e-01 0.0
8.508116e-01 -1.034233e-01 0.0
8.501773e-01 -7.816577e-02 0.0
8.501817e-01 -5.602649e-02 0.0
8.505685e-01 -3.693550e-02 0.0
8.511344e-01 -2.073714e-02 0.0
8.517097e-01 -7.246839e-03 0.0
8.521570e-01 3.748511e-03 0.0
8.523892e-01 1.267111e-02 0.0
8.523667e-01 1.986551e-02 0.0
8.520798e-01 2.560848e-02 0.0
8.515365e-01 3.012944e-02 0.0
8.507546e-01 3.362156e-02 0.0
8.497562e-01 3.624902e-02 0.0
8.485665e-01 3.815241e-02 0.0
8.472111e-01 3.945251e-02 0.0
8.457141e-01 4.025288e-02 0.0
8.440960e-01 4.064202e-02 0.0
8.423705e-01 4.069477e-02 0.0
8.405512e-01 4.046689e-02 0.0
8.386526e-01 4.000624e-02 0.0
8.366885e-01 3.935630e-02 0.0
8.346710e-01 3.855579e-02 0.0
8.326115e-01 3.763887e-02 0.0
8.305196e-01 3.663460e-02 0.0
8.284036e-01 3.556772e-02 0.0
8.262706e-01 3.445905e-02 0.0
8.241270e-01 3.332603e-02 0.0
8.219783e-01 3.218304e-02 0.0
8.198294e-01 3.104182e-02 0.0
8.176844e-01 2.991184e-02 0.0
8.155470e-01 2.880057e-02 0.0
8.134207e-01 2.771376e-02 0.0
8.113084e-01 2.665571e-02 0.0
8.092126e-01 2.562945e-02 0.0
8.071357e-01 2.463697e-02 0.0
8.050797e-01 2.367931e-02 0.0
8.030467e-01 2.275680e-02 0.0
8.010382e-01 2.186906e-02 0.0
7.990557e-01 2.101517e-02 0.0
7.971008e-01 2.019373e-02 0.0
7.951747e-01 1.940292e-02 0.0
7.932787e-01 1.864055e-02 0.0
7.914138e-01 1.790408e-02 0.0
7.895814e-01 1.719066e-02 0.0
7.877824e-01 1.649710e-02 0.0
7.860183e-01 1.581988e-02 0.0
7.842902e-01 1.515512e-02 0.0
7.825995e-01 1.449877e-02 0.0
7.809477e-01 1.384651e-02 0.0
7.793364e-01 1.319304e-02 0.0
7.777676e-01 1.253261e-02 0.0
7.762439e-01 1.185880e-02 0.0
7.747681e-01 1.116438e-02 0.0
7.733440e-01 1.044105e-02 0.0
7.719766e-01 9.679200e-03 0.0
7.706727e-01 8.867410e-03 0.0
7.694418e-01 7.991723e-03 0.0
7.682985e-01 7.034375e-03 0.0
7.672649e-01 5.971581e-03 0.0
7.663770e-01 4.769765e-03 0.0
7.656933e-01 3.380841e-03 0.0
7.653056e-01 1.752278e-03 0.0
7.653056e-01 1.386514e-06 0.0
0.000000e+00 1.402104e-06 0.0
0.000000e+00 0.000000e+00 0.0
0.000000e+00 0.000000e+00 0.0
0.000000e+00 0.000000e+00 0.0
0.000000e+00 0.000000e+00 0.0
0.000000e+00 0.000000e+00 0.0
0.000000e+00 0.000000e+00 0.0
0.000000e+00 0.000000e+00 0.0
0.000000e+00 0.000000e+00 0.0
0.000000e+00 0.000000e+00 0.0
0.000000e+00 0.000000e+00 0.0
0.000000e+00 -7.896921e-02 0.0
5.152765e-03 7.896518e-02 0.0
5.423173e-02 5.386556e-02 0.0
1.182644e-01 2.029786e-02 0.0
1.921772e-01 -1.231733e-02 0.0
2.730004e-01 -4.435179e-02 0.0
3.575674e-01 -7.703008e-02 0.0
4.441747e-01 -1.119695e-01 0.0
5.316020e-01 -1.490478e-01 0.0
6.174991e-01 -1.881311e-01 0.0
6.993001e-01 -2.284549e-01 0.0
7.741427e-01 -2.688345e-01 0.0
8.392535e-01 -3.075794e-01 0.0
8.922889e-01 -3.426210e-01 0.0
9.317545e-01 -3.716991e-01 0.0