# vtk DataFile Version 3.0
Vector Field
ASCII
DATASET RECTILINEAR_GRID
DIMENSIONS 102 22 1
X_COORDINATES 102 double
0.000000 0.100000 0.200000 0.300000 0.400000 0.500000 0.600000 0.700000 0.800000 0.900000 1.000000 1.100000 1.200000 1.300000 1.400000 1.500000 1.600000 1.700000 1.800000 1.900000 2.000000 2.100000 2.200000 2.300000 2.400000 2.500000 2.600000 2.700000 2.800000 2.900000 3.000000 3.100000 3.200000 3.300000 3.400000 3.500000 3.600000 3.700000 3.800000 3.900000 4.000000 4.100000 4.200000 4.300000 4.400000 4.500000 4.600000 4.700000 4.800000 4.900000 5.000000 5.100000 5.200000 5.300000 5.400000 5.500000 5.600000 5.700000 5.800000 5.900000 6.000000 6.100000 6.200000 6.300000 6.400000 6.500000 6.600000 6.700000 6.800000 6.900000 7.000000 7.100000 7.200000 7.300000 7.400000 7.500000 7.600000 7.700000 7.800000 7.900000 8.000000 8.100000 8.200000 8.300000 8.400000 8.500000 8.600000 8.700000 8.800000 8.900000 9.000000 9.100000 9.200000 9.300000 9.400000 9.500000 9.600000 9.700000 9.800000 9.900000 10.000000 10.100000 
Y_COORDINATES 22 double
0.000000 0.100000 0.200000 0.300000 0.400000 0.500000 0.600000 0.700000 0.800000 0.900000 1.000000 1.100000 1.200000 1.300000 1.400000 1.500000 1.600000 1.700000 1.800000 1.900000 2.000000 2.100000 
Z_COORDINATES 1 double
0.0
POINT_DATA 2244
VECTORS Velocity double
0.000000e+00 0.000000e+00 0.0
-0.000000e+00 0.000000e+00 0.0
-0.000000e+00 0.000000e+00 0.0
-0.000000e+00 0.000000e+00 0.0
-0.000000e+00 0.000000e+00 0.0
-0.000000e+00 0.000000e+00 0.0
-0.000000e+00 0.000000e+00 0.0
-0.000000e+00 0.000000e+00 0.0
-0.000000e+00 0.000000e+00 0.0
-0.000000e+00 0.000000e+00 0.0
-0.000000e+00 0.000000e+00 0.0
5.147135e-04 0.000000e+00 0.0
4.896312e-03 0.000000e+00 0.0
1.167569e-02 0.000000e+00 0.0
1.966303e-02 0.000000e+00 0.0
2.846958e-02 0.000000e+00 0.0
3.818513e-02 0.000000e+00 0.0
4.909758e-02 0.000000e+00 0.0
6.156309e-02 0.000000e+00 0.0
7.593635e-02 0.000000e+00 0.0
9.248912e-02 0.000000e+00 0.0
1.112964e-01 0.000000e+00 0.0
1.320702e-01 0.000000e+00 0.0
1.539825e-01 0.000000e+00 0.0
1.754305e-01 0.000000e+00 0.0
1.937027e-01 0.000000e+00 0.0
2.052848e-01 0.000000e+00 0.0
2.062023e-01 0.000000e+00 0.0
1.933561e-01 0.000000e+00 0.0
1.658222e-01 0.000000e+00 0.0
1.253276e-01 0.000000e+00 0.0
7.595139e-02 0.000000e+00 0.0
2.041179e-02 0.000000e+00 0.0
-3.433725e-02 0.000000e+00 0.0
-8.114616e-02 0.000000e+00 0.0
-1.180974e-01 0.000000e+00 0.0
-1.454340e-01 0.000000e+00 0.0
-1.642919e-01 0.000000e+00 0.0
-1.761271e-01 0.000000e+00 0.0
-1.824398e-01 0.000000e+00 0.0
-1.846484e-01 0.000000e+00 0.0
-1.840279e-01 0.000000e+00 0.0
-1.813189e-01 0.000000e+00 0.0
-1.770760e-01 0.000000e+00 0.0
-1.718614e-01 0.000000e+00 0.0
-1.661388e-01 0.000000e+00 0.0
-1.602562e-01 0.000000e+00 0.0
-1.544465e-01 0.000000e+00 0.0
-1.488463e-01 0.000000e+00 0.0
-1.435418e-01 0.000000e+00 0.0
-1.385749e-01 0.000000e+00 0.0
-1.339610e-01 0.000000e+00 0.0
-1.296985e-01 0.000000e+00 0.0
-1.257763e-01 0.000000e+00 0.0
-1.221774e-01 0.000000e+00 0.0
-1.188818e-01 0.000000e+00 0.0
-1.158684e-01 0.000000e+00 0.0
-1.131161e-01 0.000000e+00 0.0
-1.106044e-01 0.000000e+00 0.0
-1.083141e-01 0.000000e+00 0.0
-1.062268e-01 0.000000e+00 0.0
-1.043255e-01 0.000000e+00 0.0
-1.025941e-01 0.000000e+00 0.0
-1.010173e-01 0.000000e+00 0.0
-9.958116e-02 0.000000e+00 0.0
-9.827270e-02 0.000000e+00 0.0
-9.708004e-02 0.000000e+00 0.0
-9.599227e-02 0.000000e+00 0.0
-9.499934e-02 0.000000e+00 0.0
-9.409210e-02 0.000000e+00 0.0
-9.326225e-02 0.000000e+00 0.0
-9.250229e-02 0.000000e+00 0.0
-9.180547e-02 0.000000e+00 0.0
-9.116571e-02 0.000000e+00 0.0
-9.057763e-02 0.000000e+00 0.0
-9.003642e-02 0.000000e+00 0.0
-8.953788e-02 0.000000e+00 0.0
-8.907833e-02 0.000000e+00 0.0
-8.865460e-02 0.000000e+00 0.0
-8.826400e-02 0.000000e+00 0.0
-8.790431e-02 0.000000e+00 0.0
-8.757371e-02 0.000000e+00 0.0
-8.727084e-02 0.000000e+00 0.0
-8.699477e-02 0.000000e+00 0.0
-8.674495e-02 0.000000e+00 0.0
-8.652126e-02 0.000000e+00 0.0
-8.632400e-02 0.000000e+00 0.0
-8.615391e-02 0.000000e+00 0.0
-8.601218e-02 0.000000e+00 0.0
-8.590048e-02 0.000000e+00 0.0
-8.582103e-02 0.000000e+00 0.0
-8.577674e-02 0.000000e+00 0.0
-8.577138e-02 0.000000e+00 0.0
-8.580742e-02 0.000000e+00 0.0
-8.588285e-02 0.000000e+00 0.0
-8.599117e-02 0.000000e+00 0.0
-8.612662e-02 0.000000e+00 0.0
-8.627785e-02 0.000000e+00 0.0
-8.642352e-02 0.000000e+00 0.0
-8.652019e-02 0.000000e+00 0.0
-8.652019e-02 0.000000e+00 0.0
0.000000e+00 0.000000e+00 0.0
0.000000e+00 0.000000e+00 0.0
0.000000e+00 0.000000e+00 0.0
0.000000e+00 0.000000e+00 0.0
0.000000e+00 0.000000e+00 0.0
0.000000e+00 0.000000e+00 0.0
0.000000e+00 0.000000e+00 0.0
0.000000e+00 0.000000e+00 0.0
0.000000e+00 0.000000e+00 0.0
0.000000e+00 0.000000e+00 0.0
0.000000e+00 0.000000e+00 0.0
0.000000e+00 -5.228475e-04 0.0
-5.244912e-04 5.162611e-04 0.0
-4.904030e-03 4.376547e-03 0.0
-1.167633e-02 6.775872e-03 0.0
-1.965370e-02 7.987750e-03 0.0
-2.845441e-02 8.811357e-03 0.0
-3.817559e-02 9.722716e-03 0.0
-4.910398e-02 1.091775e-02 0.0
-6.158408e-02 1.246470e-02 0.0
-7.595707e-02 1.436575e-02 0.0
-9.249252e-02 1.654330e-02 0.0
-1.112785e-01 1.880364e-02 0.0
-1.320449e-01 2.077969e-02 0.0
-1.539703e-01 2.192418e-02 0.0
-1.754415e-01 2.145713e-02 0.0
-1.937285e-01 1.827159e-02 0.0
-2.053058e-01 1.157216e-02 0.0
-2.062042e-01 9.059764e-04 0.0
-1.933392e-01 -1.285189e-02 0.0
-1.658013e-01 -2.752980e-02 0.0
-1.253174e-01 -4.048524e-02 0.0
-7.595625e-02 -4.936955e-02 0.0
-2.042357e-02 -5.554044e-02 0.0
3.433005e-02 -5.475519e-02 0.0
8.114933e-02 -4.681522e-02 0.0
1.181072e-01 -3.695300e-02 0.0
1.454424e-01 -2.733339e-02 0.0
1.642941e-01 -1.885320e-02 0.0
1.761246e-01 -1.183263e-02 0.0
1.824371e-01 -6.313137e-03 0.0
1.846481e-01 -2.210286e-03 0.0
1.840296e-01 6.197055e-04 0.0
1.813206e-01 2.709558e-03 0.0
1.770764e-01 4.244039e-03 0.0
1.718607e-01 5.215164e-03 0.0
1.661379e-01 5.722623e-03 0.0
1.602561e-01 5.882236e-03 0.0
1.544471e-01 5.809748e-03 0.0
1.488470e-01 5.600602e-03 0.0
1.435421e-01 5.304992e-03 0.0
1.385744e-01 4.967298e-03 0.0
1.339602e-01 4.613981e-03 0.0
1.296981e-01 4.262187e-03 0.0
1.257765e-01 3.922025e-03 0.0
1.221779e-01 3.599042e-03 0.0
1.188822e-01 3.295951e-03 0.0
1.158685e-01 3.013775e-03 0.0
1.131158e-01 2.752548e-03 0.0
1.106042e-01 2.511710e-03 0.0
1.083140e-01 2.290327e-03 0.0
1.062270e-01 2.087280e-03 0.0
1.043257e-01 1.901422e-03 0.0
1.025942e-01 1.731667e-03 0.0
1.010173e-01 1.576971e-03 0.0
9.958114e-02 1.436287e-03 0.0
9.827273e-02 1.308560e-03 0.0
9.708012e-02 1.192760e-03 0.0
9.599236e-02 1.087909e-03 0.0
9.499943e-02 9.930794e-04 0.0
9.409219e-02 9.073894e-04 0.0
9.326234e-02 8.299972e-04 0.0
9.250238e-02 7.601061e-04 0.0
9.180555e-02 6.969691e-04 0.0
9.116579e-02 6.398903e-04 0.0
9.057771e-02 5.882193e-04 0.0
9.003652e-02 5.413437e-04 0.0
8.953800e-02 4.986857e-04 0.0
8.907845e-02 4.597019e-04 0.0
8.865473e-02 4.238835e-04 0.0
8.826413e-02 3.907517e-04 0.0
8.790442e-02 3.598519e-04 0.0
8.757383e-02 3.307463e-04 0.0
8.727097e-02 3.030091e-04 0.0
8.699490e-02 2.762225e-04 0.0
8.674508e-02 2.499722e-04 0.0
8.652140e-02 2.238423e-04 0.0
8.632414e-02 1.974102e-04 0.0
8.615406e-02 1.702415e-04 0.0
8.601233e-02 1.418841e-04 0.0
8.590063e-02 1.118557e-04 0.0
8.582118e-02 7.960742e-05 0.0
8.577690e-02 4.443934e-05 0.0
8.577154e-02 5.514490e-06 0.0
8.580758e-02 -3.588273e-05 0.0
8.588301e-02 -7.527331e-05 0.0
8.599133e-02 -1.081673e-04 0.0
8.612678e-02 -1.352907e-04 0.0
8.627802e-02 -1.510805e-04 0.0
8.642368e-02 -1.455072e-04 0.0
8.652036e-02 -9.652024e-05 0.0
8.652019e-02 3.195729e-07 0.0
0.000000e+00 3.222886e-07 0.0
0.000000e+00 0.000000e+00 0.0
0.000000e+00 0.000000e+00 0.0
0.000000e+00 0.000000e+00 0.0
0.000000e+00 0.000000e+00 0.0
0.000000e+00 0.000000e+00 0.0
0.000000e+00 0.000000e+00 0.0
0.000000e+00 0.000000e+00 0.0
0.000000e+00 0.000000e+00 0.0
0.000000e+00 0.000000e+00 0.0
0.000000e+00 0.000000e+00 0.0
0.000000e+00 -6.339873e-03 0.0
-5.823259e-03 6.334735e-03 0.0
-1.944924e-02 1.800564e-02 0.0
-3.735014e-02 2.468354e-02 0.0
-5.738823e-02 2.803112e-02 0.0
-7.875275e-02 3.017360e-02 0.0
-1.013544e-01 3.231421e-02 0.0
-1.253206e-01 3.487316e-02 0.0
-1.507197e-01 3.786200e-02 0.0
-1.773941e-01 4.104983e-02 0.0
-2.048107e-01 4.397372e-02 0.0
-2.319433e-01 4.594294e-02 0.0
-2.570943e-01 4.592448e-02 0.0
-2.777992e-01 4.261536e-02 0.0
-2.909087e-01 3.455617e-02 0.0
-2.925945e-01 1.995883e-02 0.0
-2.781426e-01 -2.869495e-03 0.0
-2.448732e-01 -3.235261e-02 0.0
-1.940116e-01 -6.371011e-02 0.0
-1.284553e-01 -9.309150e-02 0.0
-5.084478e-02 -1.181050e-01 0.0
3.369597e-02 -1.339155e-01 0.0
1.141578e-01 -1.360003e-01 0.0
1.855151e-01 -1.261065e-01 0.0
2.477535e-01 -1.090493e-01 0.0
3.000979e-01 -8.929762e-02 0.0
3.424758e-01 -6.971424e-02 0.0
3.754414e-01 -5.182128e-02 0.0
3.999093e-01 -3.630061e-02 0.0
4.169580e-01 -2.336043e-02 0.0
4.277014e-01 -1.295258e-02 0.0
4.332015e-01 -4.880248e-03 0.0
4.347566e-01 1.154003e-03 0.0
4.332057e-01 5.794298e-03 0.0
4.292300e-01 9.190719e-03 0.0
4.234172e-01 1.153581e-02 0.0
4.162513e-01 1.304876e-02 0.0
4.081464e-01 1.391491e-02 0.0
3.994756e-01 1.427115e-02 0.0
3.905421e-01 1.423798e-02 0.0
3.815610e-01 1.394827e-02 0.0
3.726943e-01 1.348085e-02 0.0
3.640576e-01 1.289922e-02 0.0
3.557309e-01 1.224900e-02 0.0
3.477669e-01 1.156312e-02 0.0
3.401976e-01 1.086506e-02 0.0
3.330399e-01 1.017129e-02 0.0
3.262993e-01 9.493203e-03 0.0
3.199726e-01 8.838524e-03 0.0
3.140508e-01 8.212312e-03 0.0
3.085203e-01 7.617773e-03 0.0
3.033649e-01 7.056808e-03 0.0
2.985662e-01 6.530346e-03 0.0
2.941047e-01 6.038530e-03 0.0
2.899602e-01 5.580875e-03 0.0
2.861123e-01 5.156437e-03 0.0
2.825412e-01 4.763950e-03 0.0
2.792272e-01 4.401922e-03 0.0
2.761516e-01 4.068697e-03 0.0
2.732966e-01 3.762515e-03 0.0
2.706450e-01 3.481554e-03 0.0
2.681812e-01 3.223976e-03 0.0
2.658902e-01 2.987953e-03 0.0
2.637585e-01 2.771694e-03 0.0
2.617733e-01 2.573451e-03 0.0
2.599231e-01 2.391528e-03 0.0
2.581976e-01 2.224282e-03 0.0
2.565872e-01 2.070136e-03 0.0
2.550835e-01 1.927577e-03 0.0
2.536792e-01 1.795144e-03 0.0
2.523677e-01 1.671427e-03 0.0
2.511434e-01 1.555052e-03 0.0
2.500018e-01 1.444676e-03 0.0
2.489391e-01 1.338973e-03 0.0
2.479524e-01 1.236623e-03 0.0
2.470400e-01 1.136300e-03 0.0
2.462008e-01 1.036655e-03 0.0
2.454348e-01 9.363057e-04 0.0
2.447429e-01 8.338281e-04 0.0
2.441270e-01 7.277556e-04 0.0
2.435901e-01 6.165859e-04 0.0
2.431357e-01 4.988266e-04 0.0
2.427680e-01 3.732757e-04 0.0
2.424919e-01 2.403043e-04 0.0
2.423141e-01 1.025471e-04 0.0
2.422418e-01 -3.583423e-05 0.0
2.422653e-01 -1.586987e-04 0.0
2.423580e-01 -2.437763e-04 0.0
2.424807e-01 -2.681527e-04 0.0
2.425781e-01 -1.938722e-04 0.0
2.425776e-01 8.198161e-07 0.0
0.000000e+00 8.271661e-07 0.0
0.000000e+00 0.000000e+00 0.0
0.000000e+00 0.000000e+00 0.0
0.000000e+00 0.000000e+00 0.0
0.000000e+00 0.000000e+00 0.0
0.000000e+00 0.000000e+00 0.0
0.000000e+00 0.000000e+00 0.0
0.000000e+00 0.000000e+00 0.0
0.000000e+00 0.000000e+00 0.0
0.000000e+00 0.000000e+00 0.0
0.000000e+00 0.000000e+00 0.0
0.000000e+00 -1.696212e-02 0.0
-1.062680e-02 1.695830e-02 0.0
-3.137144e-02 3.875511e-02 0.0
-5.608500e-02 4.940328e-02 0.0
-8.183046e-02 5.377829e-02 0.0
-1.075059e-01 5.584284e-02 0.0
-1.327415e-01 5.753930e-02 0.0
-1.572924e-01 5.941799e-02 0.0
-1.807959e-01 6.137023e-02 0.0
-2.026451e-01 6.291144e-02 0.0
-2.218475e-01 6.318672e-02 0.0
-2.370610e-01 6.115572e-02 0.0
-2.464612e-01 5.531370e-02 0.0
-2.475450e-01 4.368682e-02 0.0
-2.364794e-01 2.348700e-02 0.0
-2.067765e-01 -9.737042e-03 0.0
-1.583684e-01 -5.126626e-02 0.0
-9.257472e-02 -9.813944e-02 0.0
-1.268880e-02 -1.435986e-01 0.0
7.428244e-02 -1.800714e-01 0.0
1.589957e-01 -2.028256e-01 0.0
2.367314e-01 -2.116515e-01 0.0
3.053196e-01 -2.045831e-01 0.0
3.652783e-01 -1.860596e-01 0.0
4.175149e-01 -1.612848e-01 0.0
4.624443e-01 -1.342298e-01 0.0
5.003039e-01 -1.075770e-01 0.0
5.313988e-01 -8.291697e-02 0.0
5.561586e-01 -6.105913e-02 0.0
5.751117e-01 -4.231208e-02 0.0
5.888437e-01 -2.668407e-02 0.0
5.979694e-01 -1.400633e-02 0.0
6.031314e-01 -4.008740e-03 0.0
6.052583e-01 3.667084e-03 0.0
6.048546e-01 9.594629e-03 0.0
6.023707e-01 1.402041e-02 0.0
5.982017e-01 1.721811e-02 0.0
5.926868e-01 1.942974e-02 0.0
5.860985e-01 2.085898e-02 0.0
5.786542e-01 2.168191e-02 0.0
5.705999e-01 2.200267e-02 0.0
5.621535e-01 2.192766e-02 0.0
5.534871e-01 2.156590e-02 0.0
5.447405e-01 2.099571e-02 0.0
5.360252e-01 2.027833e-02 0.0
5.274291e-01 1.946090e-02 0.0
5.190209e-01 1.857951e-02 0.0
5.108524e-01 1.766180e-02 0.0
5.029621e-01 1.672895e-02 0.0
4.953773e-01 1.579729e-02 0.0
4.881156e-01 1.487941e-02 0.0
4.811874e-01 1.398497e-02 0.0
4.745966e-01 1.312116e-02 0.0
4.683421e-01 1.229312e-02 0.0
4.624186e-01 1.150437e-02 0.0
4.568181e-01 1.075703e-02 0.0
4.515299e-01 1.005218e-02 0.0
4.465418e-01 9.390007e-03 0.0
4.418406e-01 8.769989e-03 0.0
4.374121e-01 8.191062e-03 0.0
4.332419e-01 7.651735e-03 0.0
4.293157e-01 7.150203e-03 0.0
4.256193e-01 6.684437e-03 0.0
4.221388e-01 6.252253e-03 0.0
4.188609e-01 5.851359e-03 0.0
4.157731e-01 5.479402e-03 0.0
4.128634e-01 5.134001e-03 0.0
4.101208e-01 4.812778e-03 0.0
4.075350e-01 4.513367e-03 0.0
4.050968e-01 4.233420e-03 0.0
4.027977e-01 3.970612e-03 0.0
4.006301e-01 3.722629e-03 0.0
3.985877e-01 3.487170e-03 0.0
3.966648e-01 3.261932e-03 0.0
3.948568e-01 3.044594e-03 0.0
3.931604e-01 2.832798e-03 0.0
3.915729e-01 2.624129e-03 0.0
3.900932e-01 2.416092e-03 0.0
3.887210e-01 2.206101e-03 0.0
3.874573e-01 1.991485e-03 0.0
3.863044e-01 1.769527e-03 0.0
3.852656e-01 1.537585e-03 0.0
3.843455e-01 1.293436e-03 0.0
3.835497e-01 1.036152e-03 0.0
3.828852e-01 7.670937e-04 0.0
3.823581e-01 4.913598e-04 0.0
3.819754e-01 2.239949e-04 0.0
3.817403e-01 -8.627454e-06 0.0
3.816304e-01 -1.581794e-04 0.0
3.816066e-01 -1.700699e-04 0.0
3.816060e-01 1.518360e-06 0.0
0.000000e+00 1.532211e-06 0.0
0.000000e+00 0.000000e+00 0.0
0.000000e+00 0.000000e+00 0.0
0.000000e+00 0.000000e+00 0.0
0.000000e+00 0.000000e+00 0.0
0.000000e+00 0.000000e+00 0.0
0.000000e+00 0.000000e+00 0.0
0.000000e+00 0.000000e+00 0.0
0.000000e+00 0.000000e+00 0.0
0.000000e+00 0.000000e+00 0.0
0.000000e+00 0.000000e+00 0.0
0.000000e+00 -3.010117e-02 0.0
-1.314158e-02 3.009874e-02 0.0
-3.667258e-02 6.229192e-02 0.0
-6.236102e-02 7.509637e-02 0.0
-8.684891e-02 7.826444e-02 0.0
-1.090462e-01 7.803152e-02 0.0
-1.285227e-01 7.700678e-02 0.0
-1.449242e-01 7.581816e-02 0.0
-1.578098e-01 7.426466e-02 0.0
-1.666208e-01 7.173467e-02 0.0
-1.703969e-01 6.696818e-02 0.0
-1.677365e-01 5.848924e-02 0.0
-1.561938e-01 4.375832e-02 0.0
-1.321875e-01 1.967170e-02 0.0
-8.772983e-02 -2.096845e-02 0.0
-2.412884e-02 -7.332754e-02 0.0
5.490041e-02 -1.302853e-01 0.0
1.400418e-01 -1.832792e-01 0.0
2.243980e-01 -2.279620e-01 0.0
3.035711e-01 -2.592537e-01 0.0
3.750606e-01 -2.743185e-01 0.0
4.362402e-01 -2.728271e-01 0.0
4.879107e-01 -2.562469e-01 0.0
5.321664e-01 -2.303121e-01 0.0
5.704088e-01 -1.995289e-01 0.0
6.034442e-01 -1.672690e-01 0.0
6.317245e-01 -1.358593e-01 0.0
6.555507e-01 -1.067423e-01 0.0
6.751876e-01 -8.069420e-02 0.0
6.909124e-01 -5.803586e-02 0.0
7.030277e-01 -3.879958e-02 0.0
7.118629e-01 -2.284237e-02 0.0
7.177777e-01 -9.924062e-03 0.0
7.211960e-01 2.488078e-04 0.0
7.225886e-01 8.202558e-03 0.0
7.222797e-01 1.432994e-02 0.0
7.205291e-01 1.896887e-02 0.0
7.175577e-01 2.240071e-02 0.0
7.135577e-01 2.485845e-02 0.0
7.087050e-01 2.653455e-02 0.0
7.031300e-01 2.757798e-02 0.0
6.969446e-01 2.811350e-02 0.0
6.902901e-01 2.822051e-02 0.0
6.832930e-01 2.799280e-02 0.0
6.760611e-01 2.750997e-02 0.0
6.686870e-01 2.683492e-02 0.0
6.612493e-01 2.601725e-02 0.0
6.538148e-01 2.509652e-02 0.0
6.464392e-01 2.410465e-02 0.0
6.391688e-01 2.306767e-02 0.0
6.320413e-01 2.200694e-02 0.0
6.250864e-01 2.093979e-02 0.0
6.183275e-01 1.988018e-02 0.0
6.117815e-01 1.883912e-02 0.0
6.054608e-01 1.782517e-02 0.0
5.993730e-01 1.684481e-02 0.0
5.935225e-01 1.590278e-02 0.0
5.879102e-01 1.500229e-02 0.0
5.825349e-01 1.414534e-02 0.0
5.773932e-01 1.333285e-02 0.0
5.724800e-01 1.256494e-02 0.0
5.677892e-01 1.184100e-02 0.0
5.633138e-01 1.115991e-02 0.0
5.590460e-01 1.052008e-02 0.0
5.549778e-01 9.919590e-03 0.0
5.511010e-01 9.356255e-03 0.0
5.474074e-01 8.827691e-03 0.0
5.438888e-01 8.331369e-03 0.0
5.405376e-01 7.864646e-03 0.0
5.373462e-01 7.424792e-03 0.0
5.343079e-01 7.009004e-03 0.0
5.314161e-01 6.614417e-03 0.0
5.286653e-01 6.238101e-03 0.0
5.260502e-01 5.877061e-03 0.0
5.235666e-01 5.528220e-03 0.0
5.212110e-01 5.188402e-03 0.0
5.189809e-01 4.854304e-03 0.0
5.168746e-01 4.522456e-03 0.0
5.148915e-01 4.189212e-03 0.0
5.130323e-01 3.850746e-03 0.0
5.112987e-01 3.503093e-03 0.0
5.096941e-01 3.142261e-03 0.0
5.082231e-01 2.764536e-03 0.0
5.068921e-01 2.367112e-03 0.0
5.057102e-01 1.949079e-03 0.0
5.046884e-01 1.513192e-03 0.0
5.038424e-01 1.070023e-03 0.0
5.031913e-01 6.425303e-04 0.0
5.027570e-01 2.761564e-04 0.0
5.025446e-01 4.240385e-05 0.0
5.025438e-01 2.281788e-06 0.0
0.000000e+00 2.302824e-06 0.0
0.000000e+00 0.000000e+00 0.0
0.000000e+00 0.000000e+00 0.0
0.000000e+00 0.000000e+00 0.0
0.000000e+00 0.000000e+00 0.0
0.000000e+00 0.000000e+00 0.0
0.000000e+00 0.000000e+00 0.0
0.000000e+00 0.000000e+00 0.0
0.000000e+00 0.000000e+00 0.0
0.000000e+00 0.000000e+00 0.0
0.000000e+00 0.000000e+00 0.0
0.000000e+00 -4.360255e-02 0.0
-1.350188e-02 4.360176e-02 0.0
-3.552947e-02 8.432509e-02 0.0
-5.693664e-02 9.650590e-02 0.0
-7.478080e-02 9.610410e-02 0.0
-8.838210e-02 9.162370e-02 0.0
-9.748800e-02 8.610644e-02 0.0
-1.018268e-01 8.015998e-02 0.0
-1.009049e-01 7.335362e-02 0.0
-9.423560e-02 6.507560e-02 0.0
-8.012256e-02 5.285586e-02 0.0
-5.632874e-02 3.468558e-02 0.0
-1.573752e-02 3.154768e-03 0.0
4.615483e-02 -4.222516e-02 0.0
1.219698e-01 -9.677648e-02 0.0
2.052554e-01 -1.566012e-01 0.0
2.899067e-01 -2.149297e-01 0.0
3.713622e-01 -2.647380e-01 0.0
4.451426e-01 -3.017521e-01 0.0
5.089190e-01 -3.230373e-01 0.0
5.619696e-01 -3.273681e-01 0.0
6.041231e-01 -3.149740e-01 0.0
6.386766e-01 -2.907949e-01 0.0
6.677653e-01 -2.594006e-01 0.0
6.927372e-01 -2.245046e-01 0.0
7.143837e-01 -1.889187e-01 0.0
7.331424e-01 -1.546183e-01 0.0
7.492505e-01 -1.228485e-01 0.0
7.628533e-01 -9.429536e-02 0.0
7.740704e-01 -6.925262e-02 0.0
7.830301e-01 -4.775995e-02 0.0
7.898804e-01 -2.969355e-02 0.0
7.947858e-01 -1.482971e-02 0.0
7.979318e-01 -2.896815e-03 0.0
7.996288e-01 6.506208e-03 0.0
8.000894e-01 1.386973e-02 0.0
7.994787e-01 1.957941e-02 0.0
7.979364e-01 2.394251e-02 0.0
7.955867e-01 2.720780e-02 0.0
7.925433e-01 2.957816e-02 0.0
7.889038e-01 3.121784e-02 0.0
7.847549e-01 3.226271e-02 0.0
7.801533e-01 3.282216e-02 0.0
7.751707e-01 3.297521e-02 0.0
7.698827e-01 3.279783e-02 0.0
7.643567e-01 3.236082e-02 0.0
7.586538e-01 3.172038e-02 0.0
7.528282e-01 3.092224e-02 0.0
7.469285e-01 3.000443e-02 0.0
7.409972e-01 2.899896e-02 0.0
7.350712e-01 2.793292e-02 0.0
7.291821e-01 2.682889e-02 0.0
7.233568e-01 2.570559e-02 0.0
7.176175e-01 2.457843e-02 0.0
7.119828e-01 2.345991e-02 0.0
7.064676e-01 2.236006e-02 0.0
7.010837e-01 2.128674e-02 0.0
6.958401e-01 2.024593e-02 0.0
6.907434e-01 1.924203e-02 0.0
6.857983e-01 1.827805e-02 0.0
6.810073e-01 1.735589e-02 0.0
6.763719e-01 1.647644e-02 0.0
6.718920e-01 1.563984e-02 0.0
6.675667e-01 1.484552e-02 0.0
6.633939e-01 1.409239e-02 0.0
6.593713e-01 1.337889e-02 0.0
6.554959e-01 1.270310e-02 0.0
6.517645e-01 1.206283e-02 0.0
6.481736e-01 1.145562e-02 0.0
6.447196e-01 1.087881e-02 0.0
6.413991e-01 1.032954e-02 0.0
6.382087e-01 9.804814e-03 0.0
6.351454e-01 9.301463e-03 0.0
6.322063e-01 8.816166e-03 0.0
6.293892e-01 8.345438e-03 0.0
6.266920e-01 7.885618e-03 0.0
6.241135e-01 7.432825e-03 0.0
6.216531e-01 6.982902e-03 0.0
6.193110e-01 6.531393e-03 0.0
6.170882e-01 6.073531e-03 0.0
6.149871e-01 5.604248e-03 0.0
6.130112e-01 5.118230e-03 0.0
6.111657e-01 4.610095e-03 0.0
6.094580e-01 4.074780e-03 0.0
6.078990e-01 3.508201e-03 0.0
6.065037e-01 2.908512e-03 0.0
6.052951e-01 2.278630e-03 0.0
6.043077e-01 1.629995e-03 0.0
6.035939e-01 9.899937e-04 0.0
6.032234e-01 4.129698e-04 0.0
6.032227e-01 2.987122e-06 0.0
0.000000e+00 3.014878e-06 0.0
0.000000e+00 0.000000e+00 0.0
0.000000e+00 0.000000e+00 0.0
0.000000e+00 0.000000e+00 0.0
0.000000e+00 0.000000e+00 0.0
0.000000e+00 0.000000e+00 0.0
0.000000e+00 0.000000e+00 0.0
0.000000e+00 0.000000e+00 0.0
0.000000e+00 0.000000e+00 0.0
0.000000e+00 0.000000e+00 0.0
0.000000e+00 0.000000e+00 0.0
0.000000e+00 -5.674420e-02 0.0
-1.314011e-02 5.674475e-02 0.0
-3.052876e-02 1.017184e-01 0.0
-4.348052e-02 1.094576e-01 0.0
-5.067872e-02 1.032959e-01 0.0
-5.211401e-02 9.305023e-02 0.0
-4.784071e-02 8.182952e-02 0.0
-3.762377e-02 6.994871e-02 0.0
-2.006237e-02 5.580340e-02 0.0
6.319029e-03 3.870154e-02 0.0
4.605982e-02 1.311192e-02 0.0
1.044302e-01 -2.369672e-02 0.0
1.777723e-01 -7.019788e-02 0.0
2.605555e-01 -1.250083e-01 0.0
3.475110e-01 -1.837215e-01 0.0
4.324420e-01 -2.415209e-01 0.0
5.103470e-01 -2.928324e-01 0.0
5.782228e-01 -3.326214e-01 0.0
6.343048e-01 -3.578440e-01 0.0
6.783092e-01 -3.670451e-01 0.0
7.107392e-01 -3.597934e-01 0.0
7.349264e-01 -3.391541e-01 0.0
7.536522e-01 -3.095177e-01 0.0
7.688586e-01 -2.746092e-01 0.0
7.817707e-01 -2.374210e-01 0.0
7.930901e-01 -2.002400e-01 0.0
8.031769e-01 -1.647040e-01 0.0
8.121668e-01 -1.318363e-01 0.0
8.200777e-01 -1.022052e-01 0.0
8.268820e-01 -7.605727e-02 0.0
8.325579e-01 -5.343680e-02 0.0
8.371052e-01 -3.424154e-02 0.0
8.405358e-01 -1.826013e-02 0.0
8.428827e-01 -5.243064e-03 0.0
8.442801e-01 5.109384e-03 0.0
8.448372e-01 1.331271e-02 0.0
8.446449e-01 1.977125e-02 0.0
8.437858e-01 2.480113e-02 0.0
8.423375e-01 2.865608e-02 0.0
8.403729e-01 3.154308e-02 0.0
8.379589e-01 3.363225e-02 0.0
8.351568e-01 3.506502e-02 0.0
8.320198e-01 3.595899e-02 0.0
8.285846e-01 3.641020e-02 0.0
8.248887e-01 3.649364e-02 0.0
8.209733e-01 3.627624e-02 0.0
8.168780e-01 3.581593e-02 0.0
8.126395e-01 3.516091e-02 0.0
8.082917e-01 3.435223e-02 0.0
8.038653e-01 3.342526e-02 0.0
7.993876e-01 3.241057e-02 0.0
7.948827e-01 3.133386e-02 0.0
7.903716e-01 3.021675e-02 0.0
7.858728e-01 2.907734e-02 0.0
7.814021e-01 2.793061e-02 0.0
7.769734e-01 2.678884e-02 0.0
7.725982e-01 2.566192e-02 0.0
7.682865e-01 2.455768e-02 0.0
7.640464e-01 2.348215e-02 0.0
7.598847e-01 2.243980e-02 0.0
7.558068e-01 2.143383e-02 0.0
7.518170e-01 2.046629e-02 0.0
7.479186e-01 1.953830e-02 0.0
7.441140e-01 1.865014e-02 0.0
7.404050e-01 1.780145e-02 0.0
7.367926e-01 1.699131e-02 0.0
7.332774e-01 1.621830e-02 0.0
7.298597e-01 1.548062e-02 0.0
7.265392e-01 1.477614e-02 0.0
7.233156e-01 1.410241e-02 0.0
7.201885e-01 1.345671e-02 0.0
7.171573e-01 1.283610e-02 0.0
7.142214e-01 1.223738e-02 0.0
7.113805e-01 1.165714e-02 0.0
7.086342e-01 1.109170e-02 0.0
7.059827e-01 1.053717e-02 0.0
7.034262e-01 9.989357e-03 0.0
7.009655e-01 9.443648e-03 0.0
6.986019e-01 8.895017e-03 0.0
6.963375e-01 8.337986e-03 0.0
6.941752e-01 7.766582e-03 0.0
6.921192e-01 7.174309e-03 0.0
6.901752e-01 6.554167e-03 0.0
6.883513e-01 5.898741e-03 0.0
6.866591e-01 5.200394e-03 0.0
6.851160e-01 4.451667e-03 0.0
6.837485e-01 3.646107e-03 0.0
6.825990e-01 2.779621e-03 0.0
6.817350e-01 1.853951e-03 0.0
6.812587e-01 8.893311e-04 0.0
6.812582e-01 3.532474e-06 0.0
0.000000e+00 3.565790e-06 0.0
0.000000e+00 0.000000e+00 0.0
0.000000e+00 0.000000e+00 0.0
0.000000e+00 0.000000e+00 0.0
0.000000e+00 0.000000e+00 0.0
0.000000e+00 0.000000e+00 0.0
0.000000e+00 0.000000e+00 0.0
0.000000e+00 0.000000e+00 0.0
0.000000e+00 0.000000e+00 0.0
0.000000e+00 0.000000e+00 0.0
0.000000e+00 0.000000e+00 0.0
0.000000e+00 -7.039034e-02 0.0
-1.364288e-02 7.039167e-02 0.0
-2.291027e-02 1.109893e-01 0.0
-2.230785e-02 1.088537e-01 0.0
-1.385207e-02 9.483329e-02 0.0
1.848885e-03 7.734204e-02 0.0
2.492614e-02 5.875133e-02 0.0
5.566960e-02 3.921278e-02 0.0
9.768851e-02 1.379542e-02 0.0
1.558211e-01 -1.942647e-02 0.0
2.281571e-01 -5.923062e-02 0.0
3.103489e-01 -1.059015e-01 0.0
3.980558e-01 -1.579124e-01 0.0
4.857980e-01 -2.127458e-01 0.0
5.685954e-01 -2.665066e-01 0.0
6.420518e-01 -3.149689e-01 0.0
7.032341e-01 -3.540171e-01 0.0
7.510151e-01 -3.804123e-01 0.0
7.856161e-01 -3.924525e-01 0.0
8.081483e-01 -3.895765e-01 0.0
8.215068e-01 -3.731453e-01 0.0
8.291202e-01 -3.467619e-01 0.0
8.334765e-01 -3.138738e-01 0.0
8.362528e-01 -2.773892e-01 0.0
8.384644e-01 -2.396360e-01 0.0
8.406570e-01 -2.024329e-01 0.0
8.430833e-01 -1.671285e-01 0.0
8.457608e-01 -1.345120e-01 0.0
8.485835e-01 -1.050275e-01 0.0
8.513922e-01 -7.886676e-02 0.0
8.540379e-01 -5.608346e-02 0.0
8.563987e-01 -3.660255e-02 0.0
8.583562e-01 -2.021721e-02 0.0
8.598247e-01 -6.710851e-03 0.0
8.607721e-01 4.162287e-03 0.0
8.612095e-01 1.287514e-02 0.0
8.611601e-01 1.982016e-02 0.0
8.606580e-01 2.530287e-02 0.0
8.597442e-01 2.957013e-02 0.0
8.584620e-01 3.282559e-02 0.0
8.568555e-01 3.523915e-02 0.0
8.549667e-01 3.695384e-02 0.0
8.528350e-01 3.809042e-02 0.0
8.504944e-01 3.875070e-02 0.0
8.479681e-01 3.901985e-02 0.0
8.452783e-01 3.896628e-02 0.0
8.424486e-01 3.864580e-02 0.0
8.395026e-01 3.810698e-02 0.0
8.364624e-01 3.739237e-02 0.0
8.333483e-01 3.653931e-02 0.0
8.301779e-01 3.558100e-02 0.0
8.269670e-01 3.454489e-02 0.0
8.237294e-01 3.345440e-02 0.0
8.204774e-01 3.232931e-02 0.0
8.172220e-01 3.118608e-02 0.0
8.139725e-01 3.003833e-02 0.0
8.107373e-01 2.889714e-02 0.0
8.075237e-01 2.777139e-02 0.0
8.043378e-01 2.666804e-02 0.0
8.011852e-01 2.559243e-02 0.0
7.980706e-01 2.454850e-02 0.0
7.949980e-01 2.353896e-02 0.0
7.919708e-01 2.256552e-02 0.0
7.889920e-01 2.162898e-02 0.0
7.860641e-01 2.072943e-02 0.0
7.831890e-01 1.986635e-02 0.0
7.803687e-01 1.903864e-02 0.0
7.776046e-01 1.824479e-02 0.0
7.748979e-01 1.748288e-02 0.0
7.722497e-01 1.675063e-02 0.0
7.696610e-01 1.604545e-02 0.0
7.671327e-01 1.536447e-02 0.0
7.646656e-01 1.470450e-02 0.0
7.622607e-01 1.406208e-02 0.0
7.599190e-01 1.343343e-02 0.0
7.576417e-01 1.281456e-02 0.0
7.554300e-01 1.220113e-02 0.0
7.532855e-01 1.158818e-02 0.0
7.512102e-01 1.097027e-02 0.0
7.492069e-01 1.034139e-02 0.0
7.472787e-01 9.694843e-03 0.0
7.454299e-01 9.023124e-03 0.0
7.436663e-01 8.317790e-03 0.0
7.419958e-01 7.569237e-03 0.0
7.404299e-01 6.766392e-03 0.0
7.389854e-01 5.896216e-03 0.0
7.376887e-01 4.942853e-03 0.0
7.365821e-01 3.886207e-03 0.0
7.357352e-01 2.700929e-03 0.0
7.352569e-01 1.367709e-03 0.0
7.352566e-01 3.852476e-06 0.0
0.000000e+00 3.889341e-06 0.0
0.000000e+00 0.000000e+00 0.0
0.000000e+00 0.000000e+00 0.0
0.000000e+00 0.000000e+00 0.0
0.000000e+00 0.000000e+00 0.0
0.000000e+00 0.000000e+00 0.0
0.000000e+00 0.000000e+00 0.0
0.000000e+00 0.000000e+00 0.0
0.000000e+00 0.000000e+00 0.0
0.000000e+00 0.000000e+00 0.0
0.000000e+00 0.000000e+00 0.0
0.000000e+00 -8.411930e-02 0.0
-1.372407e-02 8.412073e-02 0.0
-5.676947e-03 1.029443e-01 0.0
1.884708e-02 8.432664e-02 0.0
5.208356e-02 6.158960e-02 0.0
9.294719e-02 3.647223e-02 0.0
1.441484e-01 7.551116e-03 0.0
2.087029e-01 -2.533300e-02 0.0
2.840870e-01 -6.157847e-02 0.0
3.668431e-01 -1.021808e-01 0.0
4.541904e-01 -1.465873e-01 0.0
5.421835e-01 -1.939072e-01 0.0
6.266320e-01 -2.423647e-01 0.0
7.033630e-01 -2.894682e-01 0.0
7.689808e-01 -3.321122e-01 0.0
8.211775e-01 -3.671611e-01 0.0
8.590740e-01 -3.919200e-01 0.0
8.832315e-01 -4.045796e-01 0.0
8.952095e-01 -4.044345e-01 0.0
8.975058e-01 -3.918690e-01 0.0
8.938348e-01 -3.694676e-01 0.0
8.869978e-01 -3.399217e-01 0.0
8.790444e-01 -3.059222e-01 0.0
8.713033e-01 -2.696519e-01 0.0
8.645237e-01 -2.328585e-01 0.0
8.590601e-01 -1.969684e-01 0.0
8.550471e-01 -1.631134e-01 0.0
8.523753e-01 -1.318390e-01 0.0
8.508387e-01 -1.034911e-01 0.0
8.502000e-01 -7.822900e-02 0.0
8.502005e-01 -5.608459e-02 0.0
8.505856e-01 -3.698753e-02 0.0
8.511513e-01 -2.078234e-02 0.0
8.517263e-01 -7.285370e-03 0.0
8.521729e-01 3.715768e-03 0.0
8.524046e-01 1.264310e-02 0.0
8.523826e-01 1.984182e-02 0.0
8.520966e-01 2.558875e-02 0.0
8.515540e-01 3.011305e-02 0.0
8.507720e-01 3.360791e-02 0.0
8.497736e-01 3.623773e-02 0.0
8.485841e-01 3.814327e-02 0.0
8.472290e-01 3.944531e-02 0.0
8.457322e-01 4.024737e-02 0.0
8.441142e-01 4.063795e-02 0.0
8.423887e-01 4.069196e-02 0.0
8.405694e-01 4.046524e-02 0.0
8.386708e-01 4.000561e-02 0.0
8.367065e-01 3.935657e-02 0.0
8.346890e-01 3.855687e-02 0.0
8.326293e-01 3.764067e-02 0.0
8.305372e-01 3.663704e-02 0.0
8.284210e-01 3.557072e-02 0.0
8.262878e-01 3.446254e-02 0.0
8.241439e-01 3.332994e-02 0.0
8.219950e-01 3.218732e-02 0.0
8.198457e-01 3.104644e-02 0.0
8.177004e-01 2.991675e-02 0.0
8.155628e-01 2.880572e-02 0.0
8.134361e-01 2.771912e-02 0.0
8.113234e-01 2.666126e-02 0.0
8.092272e-01 2.563518e-02 0.0
8.071499e-01 2.464285e-02 0.0
8.050936e-01 2.368534e-02 0.0
8.030601e-01 2.276295e-02 0.0
8.010512e-01 2.187532e-02 0.0
7.990683e-01 2.102154e-02 0.0
7.971129e-01 2.020021e-02 0.0
7.951864e-01 1.940950e-02 0.0
7.932898e-01 1.864722e-02 0.0
7.914245e-01 1.791084e-02 0.0
7.895915e-01 1.719750e-02 0.0
7.877920e-01 1.650401e-02 0.0
7.860272e-01 1.582686e-02 0.0
7.842986e-01 1.516214e-02 0.0
7.826073e-01 1.450585e-02 0.0
7.809549e-01 1.385361e-02 0.0
7.793430e-01 1.320014e-02 0.0
7.777736e-01 1.253969e-02 0.0
7.762492e-01 1.186583e-02 0.0
7.747727e-01 1.117133e-02 0.0
7.733480e-01 1.044788e-02 0.0
7.719800e-01 9.685867e-03 0.0
7.706754e-01 8.873861e-03 0.0
7.694439e-01 7.997898e-03 0.0
7.683000e-01 7.040205e-03 0.0
7.672659e-01 5.976983e-03 0.0
7.663775e-01 4.774641e-03 0.0
7.656934e-01 3.385073e-03 0.0
7.653054e-01 1.755728e-03 0.0
7.653054e-01 3.922404e-06 0.0
0.000000e+00 3.960591e-06 0.0
0.000000e+00 0.000000e+00 0.0
0.000000e+00 0.000000e+00 0.0
0.000000e+00 0.000000e+00 0.0
0.000000e+00 0.000000e+00 0.0
0.000000e+00 0.000000e+00 0.0
0.000000e+00 0.000000e+00 0.0
0.000000e+00 0.000000e+00 0.0
0.000000e+00 0.000000e+00 0.0
0.000000e+00 0.000000e+00 0.0
0.000000e+00 0.000000e+00 0.0
0.000000e+00 -7.896529e-02 0.0
5.159617e-03 7.896649e-02 0.0
5.423575e-02 5.386971e-02 0.0
1.182538e-01 2.030505e-02 0.0
1.921420e-01 -1.230571e-02 0.0
2.729434e-01 -4.433434e-02 0.0
3.575005e-01 -7.700331e-02 0.0
4.441075e-01 -1.119300e-01 0.0
5.315319e-01 -1.489939e-01 0.0
6.174137e-01 -1.880641e-01 0.0
6.991924e-01 -2.283777e-01 0.0
7.740234e-01 -2.687490e-01 0.0
8.391457e-01 -3.074863e-01 0.0
8.922106e-01 -3.425219e-01 0.0
9.317074e-01 -3.715991e-01 0.0