# vtk DataFile Version 3.0
Vector Field
ASCII
DATASET RECTILINEAR_GRID
DIMENSIONS 102 22 1
X_COORDINATES 102 double
0.000000 0.100000 0.200000 0.300000 0.400000 0.500000 0.600000 0.700000 0.800000 0.900000 1.000000 1.100000 1.200000 1.300000 1.400000 1.500000 1.600000 1.700000 1.800000 1.900000 2.000000 2.100000 2.200000 2.300000 2.400000 2.500000 2.600000 2.700000 2.800000 2.900000 3.000000 3.100000 3.200000 3.300000 3.400000 3.500000 3.600000 3.700000 3.800000 3.900000 4.000000 4.100000 4.200000 4.300000 4.400000 4.500000 4.600000 4.700000 4.800000 4.900000 5.000000 5.100000 5.200000 5.300000 5.400000 5.500000 5.600000 5.700000 5.800000 5.900000 6.000000 6.100000 6.200000 6.300000 6.400000 6.500000 6.600000 6.700000 6.800000 6.900000 7.000000 7.100000 7.200000 7.300000 7.400000 7.500000 7.600000 7.700000 7.800000 7.900000 8.000000 8.100000 8.200000 8.300000 8.400000 8.500000 8.600000 8.700000 8.800000 8.900000 9.000000 9.100000 9.200000 9.300000 9.400000 9.500000 9.600000 9.700000 9.800000 9.900000 10.000000 10.100000 
Y_COORDINATES 22 double
0.000000 0.100000 0.200000 0.300000 0.400000 0.500000 0.600000 0.700000 0.800000 0.900000 1.000000 1.100000 1.200000 1.300000 1.400000 1.500000 1.600000 1.700000 1.800000 1.900000 2.000000 2.100000 
Z_COORDINATES 1 double
0.0
POINT_DATA 2244
VECTORS Velocity double
0.000000e+00 0.000000e+00 0.0
-0.000000e+00 0.000000e+00 0.0
-0.000000e+00 0.000000e+00 0.0
-0.000000e+00 0.000000e+00 0.0
-0.000000e+00 0.000000e+00 0.0
-0.000000e+00 0.000000e+00 0.0
-0.000000e+00 0.000000e+00 0.0
-0.000000e+00 0.000000e+00 0.0
-0.000000e+00 0.000000e+00 0.0
-0.000000e+00 0.000000e+00 0.0
-0.000000e+00 0.000000e+00 0.0
5.100247e-04 0.000000e+00 0.0
4.898365e-03 0.000000e+00 0.0
1.168295e-02 0.000000e+00 0.0
1.967069e-02 0.000000e+00 0.0
2.847748e-02 0.000000e+00 0.0
3.820086e-02 0.000000e+00 0.0
4.913153e-02 0.000000e+00 0.0
6.162019e-02 0.000000e+00 0.0
7.601266e-02 0.000000e+00 0.0
9.257727e-02 0.000000e+00 0.0
1.113951e-01 0.000000e+00 0.0
1.321864e-01 0.000000e+00 0.0
1.541241e-01 0.000000e+00 0.0
1.755928e-01 0.000000e+00 0.0
1.938637e-01 0.000000e+00 0.0
2.054073e-01 0.000000e+00 0.0
2.062481e-01 0.000000e+00 0.0
1.933042e-01 0.000000e+00 0.0
1.656684e-01 0.000000e+00 0.0
1.250917e-01 0.000000e+00 0.0
7.565697e-02 0.000000e+00 0.0
2.006448e-02 0.000000e+00 0.0
-3.468281e-02 0.000000e+00 0.0
-8.146250e-02 0.000000e+00 0.0
-1.183693e-01 0.000000e+00 0.0
-1.456542e-01 0.000000e+00 0.0
-1.644611e-01 0.000000e+00 0.0
-1.762525e-01 0.000000e+00 0.0
-1.825313e-01 0.000000e+00 0.0
-1.847149e-01 0.000000e+00 0.0
-1.840763e-01 0.000000e+00 0.0
-1.813507e-01 0.000000e+00 0.0
-1.770938e-01 0.000000e+00 0.0
-1.718690e-01 0.000000e+00 0.0
-1.661396e-01 0.000000e+00 0.0
-1.602533e-01 0.000000e+00 0.0
-1.544416e-01 0.000000e+00 0.0
-1.488404e-01 0.000000e+00 0.0
-1.435353e-01 0.000000e+00 0.0
-1.385680e-01 0.000000e+00 0.0
-1.339543e-01 0.000000e+00 0.0
-1.296927e-01 0.000000e+00 0.0
-1.257717e-01 0.000000e+00 0.0
-1.221738e-01 0.000000e+00 0.0
-1.188790e-01 0.000000e+00 0.0
-1.158662e-01 0.000000e+00 0.0
-1.131146e-01 0.000000e+00 0.0
-1.106038e-01 0.000000e+00 0.0
-1.083145e-01 0.000000e+00 0.0
-1.062283e-01 0.000000e+00 0.0
-1.043278e-01 0.000000e+00 0.0
-1.025971e-01 0.000000e+00 0.0
-1.010210e-01 0.000000e+00 0.0
-9.958558e-02 0.000000e+00 0.0
-9.827785e-02 0.000000e+00 0.0
-9.708590e-02 0.000000e+00 0.0
-9.599878e-02 0.000000e+00 0.0
-9.500647e-02 0.000000e+00 0.0
-9.409982e-02 0.000000e+00 0.0
-9.327053e-02 0.000000e+00 0.0
-9.251112e-02 0.000000e+00 0.0
-9.181482e-02 0.000000e+00 0.0
-9.117557e-02 0.000000e+00 0.0
-9.058798e-02 0.000000e+00 0.0
-9.004725e-02 0.000000e+00 0.0
-8.954917e-02 0.000000e+00 0.0
-8.909007e-02 0.000000e+00 0.0
-8.866677e-02 0.000000e+00 0.0
-8.827659e-02 0.000000e+00 0.0
-8.791729e-02 0.000000e+00 0.0
-8.758710e-02 0.000000e+00 0.0
-8.728462e-02 0.000000e+00 0.0
-8.700893e-02 0.000000e+00 0.0
-8.675947e-02 0.000000e+00 0.0
-8.653614e-02 0.000000e+00 0.0
-8.633922e-02 0.000000e+00 0.0
-8.616946e-02 0.000000e+00 0.0
-8.602804e-02 0.000000e+00 0.0
-8.591663e-02 0.000000e+00 0.0
-8.583745e-02 0.000000e+00 0.0
-8.579343e-02 0.000000e+00 0.0
-8.578833e-02 0.000000e+00 0.0
-8.582458e-02 0.000000e+00 0.0
-8.590017e-02 0.000000e+00 0.0
-8.600858e-02 0.000000e+00 0.0
-8.614408e-02 0.000000e+00 0.0
-8.629534e-02 0.000000e+00 0.0
-8.644102e-02 0.000000e+00 0.0
-8.653775e-02 0.000000e+00 0.0
-8.653775e-02 0.000000e+00 0.0
0.000000e+00 0.000000e+00 0.0
0.000000e+00 0.000000e+00 0.0
0.000000e+00 0.000000e+00 0.0
0.000000e+00 0.000000e+00 0.0
0.000000e+00 0.000000e+00 0.0
0.000000e+00 0.000000e+00 0.0
0.000000e+00 0.000000e+00 0.0
0.000000e+00 0.000000e+00 0.0
0.000000e+00 0.000000e+00 0.0
0.000000e+00 0.000000e+00 0.0
0.000000e+00 0.000000e+00 0.0
0.000000e+00 -5.277495e-04 0.0
-5.282405e-04 5.108111e-04 0.0
-4.904243e-03 4.376710e-03 0.0
-1.167705e-02 6.780190e-03 0.0
-1.966274e-02 7.991683e-03 0.0
-2.847538e-02 8.813272e-03 0.0
-3.820478e-02 9.726505e-03 0.0
-4.913608e-02 1.092937e-02 0.0
-6.162064e-02 1.248606e-02 0.0
-7.600944e-02 1.439185e-02 0.0
-9.257443e-02 1.656627e-02 0.0
-1.113955e-01 1.881944e-02 0.0
-1.321892e-01 2.079104e-02 0.0
-1.541256e-01 2.193599e-02 0.0
-1.755912e-01 2.146761e-02 0.0
-1.938606e-01 1.827170e-02 0.0
-2.054058e-01 1.154529e-02 0.0
-2.062497e-01 8.416831e-04 0.0
-1.933070e-01 -1.294498e-02 0.0
-1.656698e-01 -2.763777e-02 0.0
-1.250907e-01 -4.057780e-02 0.0
-7.565481e-02 -4.943425e-02 0.0
-2.006321e-02 -5.559107e-02 0.0
3.468233e-02 -5.474631e-02 0.0
8.146116e-02 -4.677991e-02 0.0
1.183685e-01 -3.690776e-02 0.0
1.456544e-01 -2.728557e-02 0.0
1.644617e-01 -1.880686e-02 0.0
1.762528e-01 -1.179098e-02 0.0
1.825311e-01 -6.278536e-03 0.0
1.847148e-01 -2.183703e-03 0.0
1.840763e-01 6.385645e-04 0.0
1.813508e-01 2.725575e-03 0.0
1.770938e-01 4.256923e-03 0.0
1.718688e-01 5.224801e-03 0.0
1.661395e-01 5.729267e-03 0.0
1.602535e-01 5.886198e-03 0.0
1.544418e-01 5.811843e-03 0.0
1.488404e-01 5.601364e-03 0.0
1.435351e-01 5.305084e-03 0.0
1.385679e-01 4.967136e-03 0.0
1.339544e-01 4.613677e-03 0.0
1.296928e-01 4.261629e-03 0.0
1.257717e-01 3.921122e-03 0.0
1.221737e-01 3.597878e-03 0.0
1.188789e-01 3.294751e-03 0.0
1.158662e-01 3.012716e-03 0.0
1.131147e-01 2.751630e-03 0.0
1.106039e-01 2.510806e-03 0.0
1.083145e-01 2.289346e-03 0.0
1.062282e-01 2.086247e-03 0.0
1.043278e-01 1.900418e-03 0.0
1.025971e-01 1.730734e-03 0.0
1.010210e-01 1.576093e-03 0.0
9.958557e-02 1.435434e-03 0.0
9.827784e-02 1.307723e-03 0.0
9.708590e-02 1.191944e-03 0.0
9.599878e-02 1.087119e-03 0.0
9.500647e-02 9.923162e-04 0.0
9.409982e-02 9.066518e-04 0.0
9.327054e-02 8.292841e-04 0.0
9.251112e-02 7.594163e-04 0.0
9.181482e-02 6.963028e-04 0.0
9.117557e-02 6.392471e-04 0.0
9.058798e-02 5.875945e-04 0.0
9.004725e-02 5.407303e-04 0.0
8.954917e-02 4.980799e-04 0.0
8.909007e-02 4.591054e-04 0.0
8.866677e-02 4.232997e-04 0.0
8.827659e-02 3.901819e-04 0.0
8.791729e-02 3.592948e-04 0.0
8.758709e-02 3.302002e-04 0.0
8.728462e-02 3.024732e-04 0.0
8.700893e-02 2.756966e-04 0.0
8.675947e-02 2.494564e-04 0.0
8.653614e-02 2.233375e-04 0.0
8.633922e-02 1.969178e-04 0.0
8.616946e-02 1.697632e-04 0.0
8.602804e-02 1.414214e-04 0.0
8.591663e-02 1.114095e-04 0.0
8.583745e-02 7.917718e-05 0.0
8.579343e-02 4.402081e-05 0.0
8.578833e-02 5.100195e-06 0.0
8.582458e-02 -3.625152e-05 0.0
8.590017e-02 -7.558452e-05 0.0
8.600858e-02 -1.084066e-04 0.0
8.614408e-02 -1.355057e-04 0.0
8.629534e-02 -1.512599e-04 0.0
8.644102e-02 -1.456795e-04 0.0
8.653775e-02 -9.672250e-05 0.0
8.653775e-02 6.220609e-10 0.0
0.000000e+00 5.531468e-10 0.0
0.000000e+00 0.000000e+00 0.0
0.000000e+00 0.000000e+00 0.0
0.000000e+00 0.000000e+00 0.0
0.000000e+00 0.000000e+00 0.0
0.000000e+00 0.000000e+00 0.0
0.000000e+00 0.000000e+00 0.0
0.000000e+00 0.000000e+00 0.0
0.000000e+00 0.000000e+00 0.0
0.000000e+00 0.000000e+00 0.0
0.000000e+00 0.000000e+00 0.0
0.000000e+00 -6.342941e-03 0.0
-5.825390e-03 6.334778e-03 0.0
-1.945367e-02 1.801447e-02 0.0
-3.736543e-02 2.469647e-02 0.0
-5.742065e-02 2.804503e-02 0.0
-7.880204e-02 3.019022e-02 0.0
-1.014163e-01 3.233842e-02 0.0
-1.253938e-01 3.490809e-02 0.0
-1.508105e-01 3.790530e-02 0.0
-1.775120e-01 4.109408e-02 0.0
-2.049593e-01 4.401160e-02 0.0
-2.321131e-01 4.597112e-02 0.0
-2.572638e-01 4.594196e-02 0.0
-2.779434e-01 4.261778e-02 0.0
-2.910076e-01 3.453369e-02 0.0
-2.926326e-01 1.989620e-02 0.0
-2.780903e-01 -2.999224e-03 0.0
-2.447202e-01 -3.252991e-02 0.0
-1.937549e-01 -6.390993e-02 0.0
-1.280920e-01 -9.329880e-02 0.0
-5.038826e-02 -1.182802e-01 0.0
3.421487e-02 -1.340374e-01 0.0
1.146592e-01 -1.360366e-01 0.0
1.859868e-01 -1.260750e-01 0.0
2.481847e-01 -1.089779e-01 0.0
3.004844e-01 -8.920675e-02 0.0
3.428162e-01 -6.961684e-02 0.0
3.757353e-01 -5.172594e-02 0.0
4.001571e-01 -3.621318e-02 0.0
4.171627e-01 -2.328425e-02 0.0
4.278679e-01 -1.288873e-02 0.0
4.333348e-01 -4.828246e-03 0.0
4.348649e-01 1.195342e-03 0.0
4.332919e-01 5.829731e-03 0.0
4.292975e-01 9.219263e-03 0.0
4.234690e-01 1.155798e-02 0.0
4.162897e-01 1.306559e-02 0.0
4.081743e-01 1.392710e-02 0.0
3.994959e-01 1.427962e-02 0.0
3.905570e-01 1.424400e-02 0.0
3.815718e-01 1.395245e-02 0.0
3.727021e-01 1.348352e-02 0.0
3.640631e-01 1.290054e-02 0.0
3.557349e-01 1.224919e-02 0.0
3.477702e-01 1.156255e-02 0.0
3.402009e-01 1.086407e-02 0.0
3.330437e-01 1.017006e-02 0.0
3.263035e-01 9.491741e-03 0.0
3.199775e-01 8.836776e-03 0.0
3.140565e-01 8.210316e-03 0.0
3.085272e-01 7.615640e-03 0.0
3.033730e-01 7.054633e-03 0.0
2.985755e-01 6.528155e-03 0.0
2.941153e-01 6.036318e-03 0.0
2.899721e-01 5.578647e-03 0.0
2.861256e-01 5.154211e-03 0.0
2.825558e-01 4.761741e-03 0.0
2.792432e-01 4.399739e-03 0.0
2.761690e-01 4.066549e-03 0.0
2.733152e-01 3.760404e-03 0.0
2.706650e-01 3.479482e-03 0.0
2.682025e-01 3.221944e-03 0.0
2.659128e-01 2.985963e-03 0.0
2.637823e-01 2.769745e-03 0.0
2.617984e-01 2.571536e-03 0.0
2.599495e-01 2.389640e-03 0.0
2.582251e-01 2.222421e-03 0.0
2.566159e-01 2.068304e-03 0.0
2.551135e-01 1.925774e-03 0.0
2.537103e-01 1.793369e-03 0.0
2.523999e-01 1.669679e-03 0.0
2.511768e-01 1.553330e-03 0.0
2.500362e-01 1.442979e-03 0.0
2.489746e-01 1.337303e-03 0.0
2.479891e-01 1.234981e-03 0.0
2.470778e-01 1.134689e-03 0.0
2.462396e-01 1.035079e-03 0.0
2.454746e-01 9.347703e-04 0.0
2.447837e-01 8.323386e-04 0.0
2.441688e-01 7.263180e-04 0.0
2.436327e-01 6.152054e-04 0.0
2.431793e-01 4.975067e-04 0.0
2.428123e-01 3.720207e-04 0.0
2.425370e-01 2.391376e-04 0.0
2.423599e-01 1.014767e-04 0.0
2.422883e-01 -3.681546e-05 0.0
2.423123e-01 -1.595315e-04 0.0
2.424055e-01 -2.444397e-04 0.0
2.425286e-01 -2.687640e-04 0.0
2.426264e-01 -1.945040e-04 0.0
2.426264e-01 6.500405e-10 0.0
0.000000e+00 5.837140e-10 0.0
0.000000e+00 0.000000e+00 0.0
0.000000e+00 0.000000e+00 0.0
0.000000e+00 0.000000e+00 0.0
0.000000e+00 0.000000e+00 0.0
0.000000e+00 0.000000e+00 0.0
0.000000e+00 0.000000e+00 0.0
0.000000e+00 0.000000e+00 0.0
0.000000e+00 0.000000e+00 0.0
0.000000e+00 0.000000e+00 0.0
0.000000e+00 0.000000e+00 0.0
0.000000e+00 -1.696453e-02 0.0
-1.062654e-02 1.696701e-02 0.0
-3.137940e-02 3.877247e-02 0.0
-5.610827e-02 4.942423e-02 0.0
-8.187002e-02 5.380243e-02 0.0
-1.075565e-01 5.587323e-02 0.0
-1.327972e-01 5.757912e-02 0.0
-1.573531e-01 5.946659e-02 0.0
-1.808681e-01 6.142206e-02 0.0
-2.027336e-01 6.295847e-02 0.0
-2.219467e-01 6.322236e-02 0.0
-2.371537e-01 6.117705e-02 0.0
-2.465267e-01 5.531656e-02 0.0
-2.475625e-01 4.365600e-02 0.0
-2.364274e-01 2.339912e-02 0.0
-2.066288e-01 -9.903861e-03 0.0
-1.581288e-01 -5.150120e-02 0.0
-9.223807e-02 -9.842103e-02 0.0
-1.226094e-02 -1.438856e-01 0.0
7.475239e-02 -1.803104e-01 0.0
1.594764e-01 -2.030036e-01 0.0
2.371887e-01 -2.117508e-01 0.0
3.057362e-01 -2.045853e-01 0.0
3.656597e-01 -1.859988e-01 0.0
4.178676e-01 -1.611852e-01 0.0
4.627708e-01 -1.341092e-01 0.0
5.006028e-01 -1.074487e-01 0.0
5.316675e-01 -8.279099e-02 0.0
5.563961e-01 -6.094205e-02 0.0
5.753194e-01 -4.220742e-02 0.0
5.890238e-01 -2.659298e-02 0.0
5.981242e-01 -1.392865e-02 0.0
6.032630e-01 -3.943649e-03 0.0
6.053715e-01 3.721136e-03 0.0
6.049519e-01 9.639021e-03 0.0
6.024537e-01 1.405634e-02 0.0
5.982724e-01 1.724687e-02 0.0
5.927467e-01 1.945259e-02 0.0
5.861490e-01 2.087729e-02 0.0
5.786968e-01 2.169631e-02 0.0
5.706357e-01 2.201363e-02 0.0
5.621835e-01 2.193576e-02 0.0
5.535124e-01 2.157150e-02 0.0
5.447622e-01 2.099931e-02 0.0
5.360444e-01 2.028047e-02 0.0
5.274465e-01 1.946199e-02 0.0
5.190369e-01 1.857972e-02 0.0
5.108674e-01 1.766118e-02 0.0
5.029766e-01 1.672759e-02 0.0
4.953915e-01 1.579534e-02 0.0
4.881302e-01 1.487706e-02 0.0
4.812025e-01 1.398231e-02 0.0
4.746124e-01 1.311823e-02 0.0
4.683587e-01 1.228998e-02 0.0
4.624363e-01 1.150106e-02 0.0
4.568369e-01 1.075360e-02 0.0
4.515500e-01 1.004866e-02 0.0
4.465633e-01 9.386430e-03 0.0
4.418635e-01 8.766381e-03 0.0
4.374365e-01 8.187438e-03 0.0
4.332678e-01 7.648108e-03 0.0
4.293432e-01 7.146585e-03 0.0
4.256483e-01 6.680838e-03 0.0
4.221694e-01 6.248672e-03 0.0
4.188931e-01 5.847795e-03 0.0
4.158069e-01 5.475854e-03 0.0
4.128989e-01 5.130475e-03 0.0
4.101579e-01 4.809277e-03 0.0
4.075738e-01 4.509891e-03 0.0
4.051372e-01 4.229970e-03 0.0
4.028397e-01 3.967186e-03 0.0
4.006738e-01 3.719230e-03 0.0
3.986330e-01 3.483800e-03 0.0
3.967117e-01 3.258593e-03 0.0
3.949054e-01 3.041290e-03 0.0
3.932105e-01 2.829537e-03 0.0
3.916247e-01 2.620919e-03 0.0
3.901465e-01 2.412943e-03 0.0
3.887758e-01 2.203024e-03 0.0
3.875136e-01 1.988493e-03 0.0
3.863622e-01 1.766635e-03 0.0
3.853249e-01 1.534806e-03 0.0
3.844061e-01 1.290788e-03 0.0
3.836116e-01 1.033659e-03 0.0
3.829483e-01 7.647717e-04 0.0
3.824223e-01 4.892182e-04 0.0
3.820407e-01 2.220549e-04 0.0
3.818067e-01 -1.039103e-05 0.0
3.816976e-01 -1.597437e-04 0.0
3.816747e-01 -1.715192e-04 0.0
3.816747e-01 6.699460e-10 0.0
0.000000e+00 6.129699e-10 0.0
0.000000e+00 0.000000e+00 0.0
0.000000e+00 0.000000e+00 0.0
0.000000e+00 0.000000e+00 0.0
0.000000e+00 0.000000e+00 0.0
0.000000e+00 0.000000e+00 0.0
0.000000e+00 0.000000e+00 0.0
0.000000e+00 0.000000e+00 0.0
0.000000e+00 0.000000e+00 0.0
0.000000e+00 0.000000e+00 0.0
0.000000e+00 0.000000e+00 0.0
0.000000e+00 -3.010592e-02 0.0
-1.313984e-02 3.011229e-02 0.0
-3.668019e-02 6.231290e-02 0.0
-6.238041e-02 7.512104e-02 0.0
-8.687612e-02 7.829398e-02 0.0
-1.090729e-01 7.806824e-02 0.0
-1.285433e-01 7.705109e-02 0.0
-1.449406e-01 7.586656e-02 0.0
-1.578282e-01 7.431049e-02 0.0
-1.666422e-01 7.177071e-02 0.0
-1.704102e-01 6.698842e-02 0.0
-1.677200e-01 5.848736e-02 0.0
-1.561272e-01 4.372618e-02 0.0
-1.320422e-01 1.957274e-02 0.0
-8.749195e-02 -2.115171e-02 0.0
-2.381090e-02 -7.358703e-02 0.0
5.527181e-02 -1.305852e-01 0.0
1.404447e-01 -1.835932e-01 0.0
2.248114e-01 -2.282503e-01 0.0
3.039798e-01 -2.594776e-01 0.0
3.754386e-01 -2.744629e-01 0.0
4.365602e-01 -2.728737e-01 0.0
4.881911e-01 -2.562170e-01 0.0
5.324208e-01 -2.302281e-01 0.0
5.706462e-01 -1.994097e-01 0.0
6.036674e-01 -1.671301e-01 0.0
6.319320e-01 -1.357137e-01 0.0
6.557403e-01 -1.065997e-01 0.0
6.753591e-01 -8.056091e-02 0.0
6.910671e-01 -5.791511e-02 0.0
7.031668e-01 -3.869260e-02 0.0
7.119873e-01 -2.274933e-02 0.0
7.178883e-01 -9.844797e-03 0.0
7.212947e-01 3.147751e-04 0.0
7.226768e-01 8.257219e-03 0.0
7.223582e-01 1.437496e-02 0.0
7.205990e-01 1.900584e-02 0.0
7.176203e-01 2.243114e-02 0.0
7.136141e-01 2.488361e-02 0.0
7.087553e-01 2.655523e-02 0.0
7.031742e-01 2.759478e-02 0.0
6.969832e-01 2.812662e-02 0.0
6.903243e-01 2.823037e-02 0.0
6.833235e-01 2.800009e-02 0.0
6.760888e-01 2.751530e-02 0.0
6.687122e-01 2.683862e-02 0.0
6.612723e-01 2.601950e-02 0.0
6.538360e-01 2.509744e-02 0.0
6.464592e-01 2.410443e-02 0.0
6.391880e-01 2.306655e-02 0.0
6.320600e-01 2.200508e-02 0.0
6.251050e-01 2.093731e-02 0.0
6.183460e-01 1.987716e-02 0.0
6.118004e-01 1.883564e-02 0.0
6.054801e-01 1.782131e-02 0.0
5.993931e-01 1.684066e-02 0.0
5.935434e-01 1.589838e-02 0.0
5.879321e-01 1.499770e-02 0.0
5.825579e-01 1.414058e-02 0.0
5.774173e-01 1.332798e-02 0.0
5.725055e-01 1.255997e-02 0.0
5.678161e-01 1.183596e-02 0.0
5.633421e-01 1.115482e-02 0.0
5.590759e-01 1.051494e-02 0.0
5.550092e-01 9.914413e-03 0.0
5.511341e-01 9.351050e-03 0.0
5.474421e-01 8.822468e-03 0.0
5.439252e-01 8.326133e-03 0.0
5.405757e-01 7.859402e-03 0.0
5.373861e-01 7.419542e-03 0.0
5.343496e-01 7.003752e-03 0.0
5.314596e-01 6.609168e-03 0.0
5.287106e-01 6.232860e-03 0.0
5.260973e-01 5.871836e-03 0.0
5.236156e-01 5.523018e-03 0.0
5.212619e-01 5.183235e-03 0.0
5.190336e-01 4.849184e-03 0.0
5.169292e-01 4.517399e-03 0.0
5.149480e-01 4.184237e-03 0.0
5.130906e-01 3.845874e-03 0.0
5.113589e-01 3.498348e-03 0.0
5.097560e-01 3.137670e-03 0.0
5.082867e-01 2.760127e-03 0.0
5.069574e-01 2.362920e-03 0.0
5.057770e-01 1.945139e-03 0.0
5.047567e-01 1.509533e-03 0.0
5.039121e-01 1.066675e-03 0.0
5.032622e-01 6.395039e-04 0.0
5.028290e-01 2.734662e-04 0.0
5.026175e-01 3.999545e-05 0.0
5.026175e-01 7.022729e-10 0.0
0.000000e+00 6.448228e-10 0.0
0.000000e+00 0.000000e+00 0.0
0.000000e+00 0.000000e+00 0.0
0.000000e+00 0.000000e+00 0.0
0.000000e+00 0.000000e+00 0.0
0.000000e+00 0.000000e+00 0.0
0.000000e+00 0.000000e+00 0.0
0.000000e+00 0.000000e+00 0.0
0.000000e+00 0.000000e+00 0.0
0.000000e+00 0.000000e+00 0.0
0.000000e+00 0.000000e+00 0.0
0.000000e+00 -4.361181e-02 0.0
-1.350038e-02 4.361374e-02 0.0
-3.553360e-02 8.434410e-02 0.0
-5.694525e-02 9.652971e-02 0.0
-7.478723e-02 9.613302e-02 0.0
-8.837809e-02 9.165814e-02 0.0
-9.747015e-02 8.614456e-02 0.0
-1.017991e-01 8.019695e-02 0.0
-1.008728e-01 7.338345e-02 0.0
-9.419625e-02 6.509183e-02 0.0
-8.005920e-02 5.285018e-02 0.0
-5.621183e-02 3.464125e-02 0.0
-1.552878e-02 3.045415e-03 0.0
4.644252e-02 -4.239778e-02 0.0
1.223084e-01 -9.701916e-02 0.0
2.056168e-01 -1.568976e-01 0.0
2.902764e-01 -2.152453e-01 0.0
3.717243e-01 -2.650396e-01 0.0
4.454817e-01 -3.020060e-01 0.0
5.092201e-01 -3.232156e-01 0.0
5.622125e-01 -3.274565e-01 0.0
6.043188e-01 -3.149814e-01 0.0
6.388404e-01 -2.907387e-01 0.0
6.679113e-01 -2.592981e-01 0.0
6.928738e-01 -2.243714e-01 0.0
7.145125e-01 -1.887689e-01 0.0
7.332621e-01 -1.544637e-01 0.0
7.493600e-01 -1.226979e-01 0.0
7.629535e-01 -9.415422e-02 0.0
7.741623e-01 -6.912372e-02 0.0
7.831143e-01 -4.764467e-02 0.0
7.899572e-01 -2.959240e-02 0.0
7.948553e-01 -1.474293e-02 0.0
7.979948e-01 -2.824515e-03 0.0
7.996856e-01 6.566531e-03 0.0
8.001406e-01 1.391985e-02 0.0
7.995251e-01 1.962112e-02 0.0
7.979789e-01 2.397736e-02 0.0
7.956257e-01 2.723698e-02 0.0
7.925786e-01 2.960240e-02 0.0
7.889356e-01 3.123771e-02 0.0
7.847835e-01 3.227867e-02 0.0
7.801789e-01 3.283484e-02 0.0
7.751940e-01 3.298510e-02 0.0
7.699039e-01 3.280544e-02 0.0
7.643761e-01 3.236644e-02 0.0
7.586714e-01 3.172416e-02 0.0
7.528444e-01 3.092440e-02 0.0
7.469437e-01 3.000521e-02 0.0
7.410116e-01 2.899861e-02 0.0
7.350851e-01 2.793158e-02 0.0
7.291957e-01 2.682669e-02 0.0
7.233702e-01 2.570265e-02 0.0
7.176311e-01 2.457484e-02 0.0
7.119966e-01 2.345577e-02 0.0
7.064818e-01 2.235546e-02 0.0
7.010984e-01 2.128175e-02 0.0
6.958555e-01 2.024062e-02 0.0
6.907596e-01 1.923644e-02 0.0
6.858154e-01 1.827223e-02 0.0
6.810255e-01 1.734987e-02 0.0
6.763912e-01 1.647026e-02 0.0
6.719125e-01 1.563352e-02 0.0
6.675884e-01 1.483908e-02 0.0
6.634169e-01 1.408583e-02 0.0
6.593957e-01 1.337224e-02 0.0
6.555218e-01 1.269638e-02 0.0
6.517919e-01 1.205604e-02 0.0
6.482026e-01 1.144877e-02 0.0
6.447502e-01 1.087190e-02 0.0
6.414314e-01 1.032258e-02 0.0
6.382427e-01 9.797816e-03 0.0
6.351812e-01 9.294435e-03 0.0
6.322439e-01 8.809119e-03 0.0
6.294285e-01 8.338384e-03 0.0
6.267332e-01 7.878571e-03 0.0
6.241566e-01 7.425805e-03 0.0
6.216980e-01 6.975929e-03 0.0
6.193578e-01 6.524492e-03 0.0
6.171369e-01 6.066732e-03 0.0
6.150377e-01 5.597585e-03 0.0
6.130636e-01 5.111739e-03 0.0
6.112199e-01 4.603820e-03 0.0
6.095141e-01 4.068769e-03 0.0
6.079567e-01 3.502507e-03 0.0
6.065630e-01 2.903188e-03 0.0
6.053560e-01 2.273732e-03 0.0
6.043699e-01 1.625569e-03 0.0
6.036573e-01 9.860806e-04 0.0
6.032877e-01 4.095632e-04 0.0
6.032877e-01 7.174480e-10 0.0
0.000000e+00 6.632220e-10 0.0
0.000000e+00 0.000000e+00 0.0
0.000000e+00 0.000000e+00 0.0
0.000000e+00 0.000000e+00 0.0
0.000000e+00 0.000000e+00 0.0
0.000000e+00 0.000000e+00 0.0
0.000000e+00 0.000000e+00 0.0
0.000000e+00 0.000000e+00 0.0
0.000000e+00 0.000000e+00 0.0
0.000000e+00 0.000000e+00 0.0
0.000000e+00 0.000000e+00 0.0
0.000000e+00 -5.675622e-02 0.0
-1.313983e-02 5.675155e-02 0.0
-3.052906e-02 1.017328e-01 0.0
-4.347881e-02 1.094773e-01 0.0
-5.066792e-02 1.033199e-01 0.0
-5.208664e-02 9.307720e-02 0.0
-4.779552e-02 8.185597e-02 0.0
-3.756493e-02 6.996811e-02 0.0
-1.999157e-02 5.580914e-02 0.0
6.416006e-03 3.868207e-02 0.0
4.621098e-02 1.305459e-02 0.0
1.046566e-01 -2.380270e-02 0.0
1.780640e-01 -7.036017e-02 0.0
2.608918e-01 -1.252258e-01 0.0
3.478583e-01 -1.839878e-01 0.0
4.327749e-01 -2.418160e-01 0.0
5.106557e-01 -2.931256e-01 0.0
5.785001e-01 -3.328822e-01 0.0
6.345415e-01 -3.580460e-01 0.0
6.784958e-01 -3.671705e-01 0.0
7.108710e-01 -3.598333e-01 0.0
7.350162e-01 -3.391273e-01 0.0
7.537176e-01 -3.094396e-01 0.0
7.689135e-01 -2.744931e-01 0.0
7.818220e-01 -2.372796e-01 0.0
7.931385e-01 -2.000857e-01 0.0
8.032217e-01 -1.645472e-01 0.0
8.122079e-01 -1.316842e-01 0.0
8.201162e-01 -1.020622e-01 0.0
8.269184e-01 -7.592581e-02 0.0
8.325921e-01 -5.331855e-02 0.0
8.371368e-01 -3.413717e-02 0.0
8.405639e-01 -1.817002e-02 0.0
8.429067e-01 -5.167166e-03 0.0
8.443009e-01 5.172400e-03 0.0
8.448553e-01 1.336532e-02 0.0
8.446609e-01 1.981541e-02 0.0
8.438000e-01 2.483829e-02 0.0
8.423498e-01 2.868729e-02 0.0
8.403832e-01 3.156902e-02 0.0
8.379673e-01 3.365352e-02 0.0
8.351637e-01 3.508227e-02 0.0
8.320256e-01 3.597292e-02 0.0
8.285894e-01 3.642138e-02 0.0
8.248925e-01 3.650236e-02 0.0
8.209762e-01 3.628274e-02 0.0
8.168799e-01 3.582041e-02 0.0
8.126406e-01 3.516363e-02 0.0
8.082924e-01 3.435347e-02 0.0
8.038658e-01 3.342521e-02 0.0
7.993880e-01 3.240940e-02 0.0
7.948830e-01 3.133169e-02 0.0
7.903720e-01 3.021370e-02 0.0
7.858733e-01 2.907352e-02 0.0
7.814029e-01 2.792614e-02 0.0
7.769746e-01 2.678381e-02 0.0
7.725999e-01 2.565641e-02 0.0
7.682888e-01 2.455175e-02 0.0
7.640493e-01 2.347585e-02 0.0
7.598884e-01 2.243320e-02 0.0
7.558113e-01 2.142696e-02 0.0
7.518224e-01 2.045919e-02 0.0
7.479249e-01 1.953097e-02 0.0
7.441214e-01 1.864263e-02 0.0
7.404134e-01 1.779377e-02 0.0
7.368022e-01 1.698348e-02 0.0
7.332882e-01 1.621033e-02 0.0
7.298717e-01 1.547254e-02 0.0
7.265526e-01 1.476794e-02 0.0
7.233304e-01 1.409410e-02 0.0
7.202046e-01 1.344830e-02 0.0
7.171748e-01 1.282761e-02 0.0
7.142405e-01 1.222882e-02 0.0
7.114011e-01 1.164852e-02 0.0
7.086564e-01 1.108303e-02 0.0
7.060065e-01 1.052847e-02 0.0
7.034517e-01 9.980655e-03 0.0
7.009926e-01 9.434967e-03 0.0
6.986307e-01 8.886388e-03 0.0
6.963680e-01 8.329445e-03 0.0
6.942074e-01 7.758169e-03 0.0
6.921531e-01 7.166073e-03 0.0
6.902108e-01 6.546163e-03 0.0
6.883885e-01 5.891031e-03 0.0
6.866979e-01 5.193047e-03 0.0
6.851564e-01 4.444761e-03 0.0
6.837904e-01 3.639726e-03 0.0
6.826421e-01 2.773852e-03 0.0
6.817793e-01 1.848879e-03 0.0
6.813038e-01 8.850196e-04 0.0
6.813038e-01 6.950455e-10 0.0
0.000000e+00 6.455290e-10 0.0
0.000000e+00 0.000000e+00 0.0
0.000000e+00 0.000000e+00 0.0
0.000000e+00 0.000000e+00 0.0
0.000000e+00 0.000000e+00 0.0
0.000000e+00 0.000000e+00 0.0
0.000000e+00 0.000000e+00 0.0
0.000000e+00 0.000000e+00 0.0
0.000000e+00 0.000000e+00 0.0
0.000000e+00 0.000000e+00 0.0
0.000000e+00 0.000000e+00 0.0
0.000000e+00 -7.040168e-02 0.0
-1.364372e-02 7.039449e-02 0.0
-2.290797e-02 1.109992e-01 0.0
-2.229951e-02 1.088671e-01 0.0
-1.383024e-02 9.484783e-02 0.0
1.892694e-03 7.735420e-02 0.0
2.499234e-02 5.875849e-02 0.0
5.575626e-02 3.920538e-02 0.0
9.780273e-02 1.376138e-02 0.0
1.559769e-01 -1.949406e-02 0.0
2.283678e-01 -5.933636e-02 0.0
3.106174e-01 -1.060504e-01 0.0
3.983640e-01 -1.581054e-01 0.0
4.861150e-01 -2.129777e-01 0.0
5.688909e-01 -2.667659e-01 0.0
6.423096e-01 -3.152358e-01 0.0
7.034508e-01 -3.542657e-01 0.0
7.511884e-01 -3.806179e-01 0.0
7.857388e-01 -3.925959e-01 0.0
8.082126e-01 -3.896454e-01 0.0
8.215268e-01 -3.731487e-01 0.0
8.291117e-01 -3.467125e-01 0.0
8.334556e-01 -3.137828e-01 0.0
8.362302e-01 -2.772670e-01 0.0
8.384439e-01 -2.394933e-01 0.0
8.406387e-01 -2.022809e-01 0.0
8.430669e-01 -1.669756e-01 0.0
8.457467e-01 -1.343639e-01 0.0
8.485724e-01 -1.048877e-01 0.0
8.513838e-01 -7.873723e-02 0.0
8.540317e-01 -5.596658e-02 0.0
8.563933e-01 -3.649883e-02 0.0
8.583505e-01 -2.012709e-02 0.0
8.598177e-01 -6.634253e-03 0.0
8.607637e-01 4.226292e-03 0.0
8.611999e-01 1.292901e-02 0.0
8.611496e-01 1.986569e-02 0.0
8.606467e-01 2.534133e-02 0.0
8.597316e-01 2.960242e-02 0.0
8.584482e-01 3.285239e-02 0.0
8.568405e-01 3.526114e-02 0.0
8.549510e-01 3.697174e-02 0.0
8.528190e-01 3.810495e-02 0.0
8.504781e-01 3.876236e-02 0.0
8.479515e-01 3.902896e-02 0.0
8.452611e-01 3.897305e-02 0.0
8.424311e-01 3.865046e-02 0.0
8.394849e-01 3.810982e-02 0.0
8.364447e-01 3.739365e-02 0.0
8.333307e-01 3.653920e-02 0.0
8.301605e-01 3.557967e-02 0.0
8.269497e-01 3.454248e-02 0.0
8.237123e-01 3.345105e-02 0.0
8.204607e-01 3.232513e-02 0.0
8.172057e-01 3.118119e-02 0.0
8.139566e-01 3.003283e-02 0.0
8.107219e-01 2.889110e-02 0.0
8.075088e-01 2.776487e-02 0.0
8.043236e-01 2.666112e-02 0.0
8.011716e-01 2.558516e-02 0.0
7.980576e-01 2.454091e-02 0.0
7.949857e-01 2.353109e-02 0.0
7.919593e-01 2.255739e-02 0.0
7.889813e-01 2.162062e-02 0.0
7.860542e-01 2.072087e-02 0.0
7.831801e-01 1.985759e-02 0.0
7.803608e-01 1.902971e-02 0.0
7.775976e-01 1.823570e-02 0.0
7.748919e-01 1.747363e-02 0.0
7.722448e-01 1.674123e-02 0.0
7.696572e-01 1.603592e-02 0.0
7.671300e-01 1.535481e-02 0.0
7.646641e-01 1.469473e-02 0.0
7.622604e-01 1.405222e-02 0.0
7.599199e-01 1.342349e-02 0.0
7.576438e-01 1.280456e-02 0.0
7.554334e-01 1.219108e-02 0.0
7.532902e-01 1.157813e-02 0.0
7.512164e-01 1.096025e-02 0.0
7.492144e-01 1.033144e-02 0.0
7.472875e-01 9.685007e-03 0.0
7.454401e-01 9.013460e-03 0.0
7.436779e-01 8.308362e-03 0.0
7.420089e-01 7.560120e-03 0.0
7.404442e-01 6.757673e-03 0.0
7.390010e-01 5.887991e-03 0.0
7.377055e-01 4.935235e-03 0.0
7.366000e-01 3.879322e-03 0.0
7.357540e-01 2.694918e-03 0.0
7.352763e-01 1.362712e-03 0.0
7.352763e-01 6.230036e-10 0.0
0.000000e+00 5.800333e-10 0.0
0.000000e+00 0.000000e+00 0.0
0.000000e+00 0.000000e+00 0.0
0.000000e+00 0.000000e+00 0.0
0.000000e+00 0.000000e+00 0.0
0.000000e+00 0.000000e+00 0.0
0.000000e+00 0.000000e+00 0.0
0.000000e+00 0.000000e+00 0.0
0.000000e+00 0.000000e+00 0.0
0.000000e+00 0.000000e+00 0.0
0.000000e+00 0.000000e+00 0.0
0.000000e+00 -8.412681e-02 0.0
-1.372473e-02 8.412412e-02 0.0
-5.672377e-03 1.029507e-01 0.0
1.886131e-02 8.433201e-02 0.0
5.211524e-02 6.159221e-02 0.0
9.300659e-02 3.646418e-02 0.0
1.442410e-01 7.526864e-03 0.0
2.088259e-01 -2.537892e-02 0.0
2.842370e-01 -6.165153e-02 0.0
3.670266e-01 -1.022856e-01 0.0
4.544158e-01 -1.467249e-01 0.0
5.424446e-01 -1.940770e-01 0.0
6.269037e-01 -2.425636e-01 0.0
7.036134e-01 -2.896889e-01 0.0
7.691884e-01 -3.323429e-01 0.0
8.213365e-01 -3.673840e-01 0.0
8.591866e-01 -3.921142e-01 0.0
8.832971e-01 -4.047269e-01 0.0
8.952220e-01 -4.045211e-01 0.0
8.974731e-01 -3.918978e-01 0.0
8.937697e-01 -3.694461e-01 0.0
8.869156e-01 -3.398581e-01 0.0
8.789589e-01 -3.058252e-01 0.0
8.712219e-01 -2.695297e-01 0.0
8.644483e-01 -2.327199e-01 0.0
8.589909e-01 -1.968239e-01 0.0
8.549842e-01 -1.629690e-01 0.0
8.523194e-01 -1.316990e-01 0.0
8.507902e-01 -1.033584e-01 0.0
8.501584e-01 -7.810545e-02 0.0
8.501638e-01 -5.597213e-02 0.0
8.505522e-01 -3.688718e-02 0.0
8.511198e-01 -2.069463e-02 0.0
8.516958e-01 -7.210187e-03 0.0
8.521426e-01 3.779414e-03 0.0
8.523743e-01 1.269727e-02 0.0
8.523520e-01 1.988797e-02 0.0
8.520655e-01 2.562789e-02 0.0
8.515220e-01 3.014595e-02 0.0
8.507391e-01 3.363524e-02 0.0
8.497400e-01 3.626022e-02 0.0
8.485501e-01 3.816167e-02 0.0
8.471948e-01 3.946025e-02 0.0
8.456979e-01 4.025930e-02 0.0
8.440796e-01 4.064718e-02 0.0
8.423539e-01 4.069881e-02 0.0
8.405344e-01 4.046992e-02 0.0
8.386358e-01 4.000842e-02 0.0
8.366717e-01 3.935775e-02 0.0
8.346543e-01 3.855659e-02 0.0
8.325949e-01 3.763911e-02 0.0
8.305030e-01 3.663435e-02 0.0
8.283870e-01 3.556704e-02 0.0
8.262541e-01 3.445800e-02 0.0
8.241107e-01 3.332466e-02 0.0
8.219621e-01 3.218140e-02 0.0
8.198133e-01 3.103995e-02 0.0
8.176684e-01 2.990976e-02 0.0
8.155312e-01 2.879830e-02 0.0
8.134050e-01 2.771132e-02 0.0
8.112928e-01 2.665312e-02 0.0
8.091972e-01 2.562673e-02 0.0
8.071204e-01 2.463412e-02 0.0
8.050647e-01 2.367636e-02 0.0
8.030318e-01 2.275375e-02 0.0
8.010235e-01 2.186590e-02 0.0
7.990413e-01 2.101192e-02 0.0
7.970866e-01 2.019040e-02 0.0
7.951607e-01 1.939950e-02 0.0
7.932649e-01 1.863706e-02 0.0
7.914003e-01 1.790051e-02 0.0
7.895681e-01 1.718702e-02 0.0
7.877694e-01 1.649340e-02 0.0
7.860055e-01 1.581613e-02 0.0
7.842777e-01 1.515131e-02 0.0
7.825873e-01 1.449492e-02 0.0
7.809358e-01 1.384262e-02 0.0
7.793248e-01 1.318912e-02 0.0
7.777564e-01 1.252868e-02 0.0
7.762329e-01 1.185488e-02 0.0
7.747575e-01 1.116048e-02 0.0
7.733337e-01 1.043719e-02 0.0
7.719667e-01 9.675418e-03 0.0
7.706631e-01 8.863734e-03 0.0
7.694325e-01 7.988191e-03 0.0
7.682895e-01 7.031033e-03 0.0
7.672562e-01 5.968485e-03 0.0
7.663686e-01 4.766977e-03 0.0
7.656851e-01 3.378436e-03 0.0
7.652974e-01 1.750341e-03 0.0
7.652974e-01 4.987860e-10 0.0
0.000000e+00 4.603847e-10 0.0
0.000000e+00 0.000000e+00 0.0
0.000000e+00 0.000000e+00 0.0
0.000000e+00 0.000000e+00 0.0
0.000000e+00 0.000000e+00 0.0
0.000000e+00 0.000000e+00 0.0
0.000000e+00 0.000000e+00 0.0
0.000000e+00 0.000000e+00 0.0
0.000000e+00 0.000000e+00 0.0
0.000000e+00 0.000000e+00 0.0
0.000000e+00 0.000000e+00 0.0
0.000000e+00 -7.896660e-02 0.0
5.163125e-03 7.896995e-02 0.0
5.424681e-02 5.386628e-02 0.0
1.182792e-01 2.029372e-02 0.0
1.921969e-01 -1.232879e-02 0.0
2.730338e-01 -4.437096e-02 0.0
3.576214e-01 -7.705735e-02 0.0
4.442481e-01 -1.120053e-01 0.0
5.316878e-01 -1.490936e-01 0.0
6.175900e-01 -1.881892e-01 0.0
6.993927e-01 -2.285264e-01 0.0
7.742355e-01 -2.689177e-01 0.0
8.393425e-01 -3.076704e-01 0.0
8.923662e-01 -3.427144e-01 0.0
9.318113e-01 -3.717894e-01 0.0