# vtk DataFile Version 3.0
Vector Field
ASCII
DATASET RECTILINEAR_GRID
DIMENSIONS 102 22 1
X_COORDINATES 102 double
0.000000 0.100000 0.200000 0.300000 0.400000 0.500000 0.600000 0.700000 0.800000 0.900000 1.000000 1.100000 1.200000 1.300000 1.400000 1.500000 1.600000 1.700000 1.800000 1.900000 2.000000 2.100000 2.200000 2.300000 2.400000 2.500000 2.600000 2.700000 2.800000 2.900000 3.000000 3.100000 3.200000 3.300000 3.400000 3.500000 3.600000 3.700000 3.800000 3.900000 4.000000 4.100000 4.200000 4.300000 4.400000 4.500000 4.600000 4.700000 4.800000 4.900000 5.000000 5.100000 5.200000 5.300000 5.400000 5.500000 5.600000 5.700000 5.800000 5.900000 6.000000 6.100000 6.200000 6.300000 6.400000 6.500000 6.600000 6.700000 6.800000 6.900000 7.000000 7.100000 7.200000 7.300000 7.400000 7.500000 7.600000 7.700000 7.800000 7.900000 8.000000 8.100000 8.200000 8.300000 8.400000 8.500000 8.600000 8.700000 8.800000 8.900000 9.000000 9.100000 9.200000 9.300000 9.400000 9.500000 9.600000 9.700000 9.800000 9.900000 10.000000 10.100000 
Y_COORDINATES 22 double
0.000000 0.100000 0.200000 0.300000 0.400000 0.500000 0.600000 0.700000 0.800000 0.900000 1.000000 1.100000 1.200000 1.300000 1.400000 1.500000 1.600000 1.700000 1.800000 1.900000 2.000000 2.100000 
Z_COORDINATES 1 double
0.0
POINT_DATA 2244
VECTORS Velocity double
0.000000e+00 0.000000e+00 0.0
-0.000000e+00 0.000000e+00 0.0
-0.000000e+00 0.000000e+00 0.0
-0.000000e+00 0.000000e+00 0.0
-0.000000e+00 0.000000e+00 0.0
-0.000000e+00 0.000000e+00 0.0
-0.000000e+00 0.000000e+00 0.0
-0.000000e+00 0.000000e+00 0.0
-0.000000e+00 0.000000e+00 0.0
-0.000000e+00 0.000000e+00 0.0
-0.000000e+00 0.000000e+00 0.0
5.197876e-04 0.000000e+00 0.0
4.899494e-03 0.000000e+00 0.0
1.167791e-02 0.000000e+00 0.0
1.966600e-02 0.000000e+00 0.0
2.847676e-02 0.000000e+00 0.0
3.820296e-02 0.000000e+00 0.0
4.913344e-02 0.000000e+00 0.0
6.162041e-02 0.000000e+00 0.0
7.601201e-02 0.000000e+00 0.0
9.257715e-02 0.000000e+00 0.0
1.113957e-01 0.000000e+00 0.0
1.321869e-01 0.000000e+00 0.0
1.541235e-01 0.000000e+00 0.0
1.755916e-01 0.000000e+00 0.0
1.938633e-01 0.000000e+00 0.0
2.054083e-01 0.000000e+00 0.0
2.062499e-01 0.000000e+00 0.0
1.933050e-01 0.000000e+00 0.0
1.656675e-01 0.000000e+00 0.0
1.250900e-01 0.000000e+00 0.0
7.565594e-02 0.000000e+00 0.0
2.006488e-02 0.000000e+00 0.0
-3.468171e-02 0.000000e+00 0.0
-8.146207e-02 0.000000e+00 0.0
-1.183700e-01 0.000000e+00 0.0
-1.456551e-01 0.000000e+00 0.0
-1.644613e-01 0.000000e+00 0.0
-1.762521e-01 0.000000e+00 0.0
-1.825310e-01 0.000000e+00 0.0
-1.847150e-01 0.000000e+00 0.0
-1.840765e-01 0.000000e+00 0.0
-1.813507e-01 0.000000e+00 0.0
-1.770937e-01 0.000000e+00 0.0
-1.718689e-01 0.000000e+00 0.0
-1.661396e-01 0.000000e+00 0.0
-1.602534e-01 0.000000e+00 0.0
-1.544416e-01 0.000000e+00 0.0
-1.488403e-01 0.000000e+00 0.0
-1.435352e-01 0.000000e+00 0.0
-1.385680e-01 0.000000e+00 0.0
-1.339543e-01 0.000000e+00 0.0
-1.296927e-01 0.000000e+00 0.0
-1.257716e-01 0.000000e+00 0.0
-1.221738e-01 0.000000e+00 0.0
-1.188790e-01 0.000000e+00 0.0
-1.158663e-01 0.000000e+00 0.0
-1.131147e-01 0.000000e+00 0.0
-1.106039e-01 0.000000e+00 0.0
-1.083145e-01 0.000000e+00 0.0
-1.062282e-01 0.000000e+00 0.0
-1.043278e-01 0.000000e+00 0.0
-1.025971e-01 0.000000e+00 0.0
-1.010210e-01 0.000000e+00 0.0
-9.958557e-02 0.000000e+00 0.0
-9.827784e-02 0.000000e+00 0.0
-9.708590e-02 0.000000e+00 0.0
-9.599878e-02 0.000000e+00 0.0
-9.500647e-02 0.000000e+00 0.0
-9.409982e-02 0.000000e+00 0.0
-9.327054e-02 0.000000e+00 0.0
-9.251112e-02 0.000000e+00 0.0
-9.181482e-02 0.000000e+00 0.0
-9.117557e-02 0.000000e+00 0.0
-9.058798e-02 0.000000e+00 0.0
-9.004725e-02 0.000000e+00 0.0
-8.954917e-02 0.000000e+00 0.0
-8.909007e-02 0.000000e+00 0.0
-8.866677e-02 0.000000e+00 0.0
-8.827659e-02 0.000000e+00 0.0
-8.791730e-02 0.000000e+00 0.0
-8.758710e-02 0.000000e+00 0.0
-8.728463e-02 0.000000e+00 0.0
-8.700893e-02 0.000000e+00 0.0
-8.675948e-02 0.000000e+00 0.0
-8.653614e-02 0.000000e+00 0.0
-8.633922e-02 0.000000e+00 0.0
-8.616946e-02 0.000000e+00 0.0
-8.602804e-02 0.000000e+00 0.0
-8.591663e-02 0.000000e+00 0.0
-8.583746e-02 0.000000e+00 0.0
-8.579344e-02 0.000000e+00 0.0
-8.578834e-02 0.000000e+00 0.0
-8.582459e-02 0.000000e+00 0.0
-8.590017e-02 0.000000e+00 0.0
-8.600858e-02 0.000000e+00 0.0
-8.614409e-02 0.000000e+00 0.0
-8.629535e-02 0.000000e+00 0.0
-8.644103e-02 0.000000e+00 0.0
-8.653775e-02 0.000000e+00 0.0
-8.653775e-02 0.000000e+00 0.0
0.000000e+00 0.000000e+00 0.0
0.000000e+00 0.000000e+00 0.0
0.000000e+00 0.000000e+00 0.0
0.000000e+00 0.000000e+00 0.0
0.000000e+00 0.000000e+00 0.0
0.000000e+00 0.000000e+00 0.0
0.000000e+00 0.000000e+00 0.0
0.000000e+00 0.000000e+00 0.0
0.000000e+00 0.000000e+00 0.0
0.000000e+00 0.000000e+00 0.0
0.000000e+00 0.000000e+00 0.0
0.000000e+00 -5.195241e-04 0.0
-5.187927e-04 5.185872e-04 0.0
-4.899851e-03 4.378850e-03 0.0
-1.167851e-02 6.776930e-03 0.0
-1.966584e-02 7.986997e-03 0.0
-2.847645e-02 8.810457e-03 0.0
-3.820385e-02 9.725671e-03 0.0
-4.913552e-02 1.092858e-02 0.0
-6.162195e-02 1.248411e-02 0.0
-7.601144e-02 1.438959e-02 0.0
-9.257489e-02 1.656532e-02 0.0
-1.113939e-01 1.882028e-02 0.0
-1.321871e-01 2.079235e-02 0.0
-1.541254e-01 2.193587e-02 0.0
-1.755934e-01 2.146581e-02 0.0
-1.938633e-01 1.826968e-02 0.0
-2.054065e-01 1.154480e-02 0.0
-2.062478e-01 8.430274e-04 0.0
-1.933044e-01 -1.294323e-02 0.0
-1.656688e-01 -2.763731e-02 0.0
-1.250920e-01 -4.057903e-02 0.0
-7.565672e-02 -4.943605e-02 0.0
-2.006378e-02 -5.559189e-02 0.0
3.468358e-02 -5.474565e-02 0.0
8.146284e-02 -4.677870e-02 0.0
1.183690e-01 -3.690728e-02 0.0
1.456537e-01 -2.728609e-02 0.0
1.644611e-01 -1.880753e-02 0.0
1.762529e-01 -1.179104e-02 0.0
1.825316e-01 -6.278161e-03 0.0
1.847148e-01 -2.183529e-03 0.0
1.840760e-01 6.383735e-04 0.0
1.813507e-01 2.725414e-03 0.0
1.770939e-01 4.257028e-03 0.0
1.718689e-01 5.224975e-03 0.0
1.661394e-01 5.729264e-03 0.0
1.602533e-01 5.886065e-03 0.0
1.544417e-01 5.811762e-03 0.0
1.488404e-01 5.601405e-03 0.0
1.435352e-01 5.305168e-03 0.0
1.385679e-01 4.967170e-03 0.0
1.339543e-01 4.613634e-03 0.0
1.296927e-01 4.261555e-03 0.0
1.257717e-01 3.921092e-03 0.0
1.221738e-01 3.597925e-03 0.0
1.188790e-01 3.294821e-03 0.0
1.158663e-01 3.012732e-03 0.0
1.131146e-01 2.751584e-03 0.0
1.106038e-01 2.510760e-03 0.0
1.083145e-01 2.289347e-03 0.0
1.062283e-01 2.086277e-03 0.0
1.043278e-01 1.900437e-03 0.0
1.025971e-01 1.730732e-03 0.0
1.010210e-01 1.576086e-03 0.0
9.958557e-02 1.435431e-03 0.0
9.827784e-02 1.307721e-03 0.0
9.708590e-02 1.191943e-03 0.0
9.599879e-02 1.087123e-03 0.0
9.500647e-02 9.923234e-04 0.0
9.409982e-02 9.066549e-04 0.0
9.327053e-02 8.292808e-04 0.0
9.251112e-02 7.594122e-04 0.0
9.181482e-02 6.963026e-04 0.0
9.117557e-02 6.392491e-04 0.0
9.058798e-02 5.875954e-04 0.0
9.004725e-02 5.407298e-04 0.0
8.954917e-02 4.980794e-04 0.0
8.909007e-02 4.591051e-04 0.0
8.866677e-02 4.232989e-04 0.0
8.827659e-02 3.901808e-04 0.0
8.791730e-02 3.592939e-04 0.0
8.758710e-02 3.301997e-04 0.0
8.728463e-02 3.024729e-04 0.0
8.700893e-02 2.756961e-04 0.0
8.675948e-02 2.494558e-04 0.0
8.653614e-02 2.233367e-04 0.0
8.633922e-02 1.969170e-04 0.0
8.616946e-02 1.697625e-04 0.0
8.602804e-02 1.414209e-04 0.0
8.591663e-02 1.114092e-04 0.0
8.583746e-02 7.917700e-05 0.0
8.579344e-02 4.402059e-05 0.0
8.578834e-02 5.099910e-06 0.0
8.582459e-02 -3.625178e-05 0.0
8.590017e-02 -7.558473e-05 0.0
8.600858e-02 -1.084068e-04 0.0
8.614409e-02 -1.355059e-04 0.0
8.629535e-02 -1.512600e-04 0.0
8.644103e-02 -1.456797e-04 0.0
8.653775e-02 -9.672269e-05 0.0
8.653775e-02 4.168625e-10 0.0
0.000000e+00 3.833723e-10 0.0
0.000000e+00 0.000000e+00 0.0
0.000000e+00 0.000000e+00 0.0
0.000000e+00 0.000000e+00 0.0
0.000000e+00 0.000000e+00 0.0
0.000000e+00 0.000000e+00 0.0
0.000000e+00 0.000000e+00 0.0
0.000000e+00 0.000000e+00 0.0
0.000000e+00 0.000000e+00 0.0
0.000000e+00 0.000000e+00 0.0
0.000000e+00 0.000000e+00 0.0
0.000000e+00 -6.340297e-03 0.0
-5.821673e-03 6.337975e-03 0.0
-1.945478e-02 1.801261e-02 0.0
-3.736819e-02 2.469300e-02 0.0
-5.742181e-02 2.804297e-02 0.0
-7.880117e-02 3.019003e-02 0.0
-1.014153e-01 3.233869e-02 0.0
-1.253944e-01 3.490754e-02 0.0
-1.508121e-01 3.790401e-02 0.0
-1.775128e-01 4.109331e-02 0.0
-2.049580e-01 4.401231e-02 0.0
-2.321109e-01 4.597269e-02 0.0
-2.572630e-01 4.594291e-02 0.0
-2.779449e-01 4.261726e-02 0.0
-2.910101e-01 3.453226e-02 0.0
-2.926336e-01 1.989545e-02 0.0
-2.780888e-01 -2.998498e-03 0.0
-2.447176e-01 -3.252833e-02 0.0
-1.937535e-01 -6.390892e-02 0.0
-1.280927e-01 -9.329925e-02 0.0
-5.038987e-02 -1.182816e-01 0.0
3.421415e-02 -1.340385e-01 0.0
1.146602e-01 -1.360364e-01 0.0
1.859885e-01 -1.260739e-01 0.0
2.481855e-01 -1.089771e-01 0.0
3.004841e-01 -8.920687e-02 0.0
3.428157e-01 -6.961740e-02 0.0
3.757354e-01 -5.172611e-02 0.0
4.001576e-01 -3.621285e-02 0.0
4.171628e-01 -2.328397e-02 0.0
4.278676e-01 -1.288883e-02 0.0
4.333347e-01 -4.828453e-03 0.0
4.348651e-01 1.195403e-03 0.0
4.332921e-01 5.829967e-03 0.0
4.292974e-01 9.219348e-03 0.0
4.234688e-01 1.155784e-02 0.0
4.162896e-01 1.306544e-02 0.0
4.081744e-01 1.392709e-02 0.0
3.994960e-01 1.427971e-02 0.0
3.905570e-01 1.424406e-02 0.0
3.815717e-01 1.395242e-02 0.0
3.727019e-01 1.348345e-02 0.0
3.640630e-01 1.290048e-02 0.0
3.557349e-01 1.224921e-02 0.0
3.477703e-01 1.156261e-02 0.0
3.402010e-01 1.086411e-02 0.0
3.330436e-01 1.017004e-02 0.0
3.263035e-01 9.491691e-03 0.0
3.199775e-01 8.836759e-03 0.0
3.140566e-01 8.210337e-03 0.0
3.085272e-01 7.615664e-03 0.0
3.033730e-01 7.054638e-03 0.0
2.985755e-01 6.528151e-03 0.0
2.941153e-01 6.036316e-03 0.0
2.899721e-01 5.578647e-03 0.0
2.861256e-01 5.154211e-03 0.0
2.825558e-01 4.761745e-03 0.0
2.792432e-01 4.399748e-03 0.0
2.761690e-01 4.066554e-03 0.0
2.733152e-01 3.760403e-03 0.0
2.706650e-01 3.479479e-03 0.0
2.682025e-01 3.221943e-03 0.0
2.659128e-01 2.985965e-03 0.0
2.637823e-01 2.769746e-03 0.0
2.617984e-01 2.571536e-03 0.0
2.599495e-01 2.389639e-03 0.0
2.582251e-01 2.222419e-03 0.0
2.566159e-01 2.068302e-03 0.0
2.551135e-01 1.925772e-03 0.0
2.537103e-01 1.793367e-03 0.0
2.523999e-01 1.669677e-03 0.0
2.511768e-01 1.553328e-03 0.0
2.500363e-01 1.442978e-03 0.0
2.489746e-01 1.337301e-03 0.0
2.479891e-01 1.234979e-03 0.0
2.470778e-01 1.134687e-03 0.0
2.462396e-01 1.035078e-03 0.0
2.454746e-01 9.347692e-04 0.0
2.447837e-01 8.323378e-04 0.0
2.441688e-01 7.263174e-04 0.0
2.436328e-01 6.152048e-04 0.0
2.431793e-01 4.975062e-04 0.0
2.428123e-01 3.720203e-04 0.0
2.425370e-01 2.391373e-04 0.0
2.423599e-01 1.014766e-04 0.0
2.422883e-01 -3.681549e-05 0.0
2.423123e-01 -1.595315e-04 0.0
2.424055e-01 -2.444398e-04 0.0
2.425286e-01 -2.687640e-04 0.0
2.426264e-01 -1.945041e-04 0.0
2.426264e-01 4.414099e-10 0.0
0.000000e+00 4.049787e-10 0.0
0.000000e+00 0.000000e+00 0.0
0.000000e+00 0.000000e+00 0.0
0.000000e+00 0.000000e+00 0.0
0.000000e+00 0.000000e+00 0.0
0.000000e+00 0.000000e+00 0.0
0.000000e+00 0.000000e+00 0.0
0.000000e+00 0.000000e+00 0.0
0.000000e+00 0.000000e+00 0.0
0.000000e+00 0.000000e+00 0.0
0.000000e+00 0.000000e+00 0.0
0.000000e+00 -1.696598e-02 0.0
-1.062760e-02 1.696594e-02 0.0
-3.138217e-02 3.877023e-02 0.0
-5.610976e-02 4.942299e-02 0.0
-8.186930e-02 5.380271e-02 0.0
-1.075550e-01 5.587418e-02 0.0
-1.327969e-01 5.757962e-02 0.0
-1.573544e-01 5.946632e-02 0.0
-1.808693e-01 6.142184e-02 0.0
-2.027328e-01 6.295921e-02 0.0
-2.219444e-01 6.322405e-02 0.0
-2.371520e-01 6.117862e-02 0.0
-2.465274e-01 5.531690e-02 0.0
-2.475649e-01 4.365513e-02 0.0
-2.364290e-01 2.339819e-02 0.0
-2.066281e-01 -9.903820e-03 0.0
-1.581263e-01 -5.150007e-02 0.0
-9.223606e-02 -9.841982e-02 0.0
-1.226096e-02 -1.438853e-01 0.0
7.475086e-02 -1.803113e-01 0.0
1.594751e-01 -2.030047e-01 0.0
2.371892e-01 -2.117511e-01 0.0
3.057378e-01 -2.045846e-01 0.0
3.656608e-01 -1.859979e-01 0.0
4.178675e-01 -1.611849e-01 0.0
4.627702e-01 -1.341096e-01 0.0
5.006028e-01 -1.074490e-01 0.0
5.316680e-01 -8.279074e-02 0.0
5.563964e-01 -6.094169e-02 0.0
5.753192e-01 -4.220740e-02 0.0
5.890236e-01 -2.659318e-02 0.0
5.981244e-01 -1.392863e-02 0.0
6.032633e-01 -3.943369e-03 0.0
6.053715e-01 3.721333e-03 0.0
6.049517e-01 9.638931e-03 0.0
6.024536e-01 1.405614e-02 0.0
5.982725e-01 1.724681e-02 0.0
5.927469e-01 1.945268e-02 0.0
5.861490e-01 2.087738e-02 0.0
5.786967e-01 2.169631e-02 0.0
5.706356e-01 2.201355e-02 0.0
5.621834e-01 2.193568e-02 0.0
5.535124e-01 2.157148e-02 0.0
5.447623e-01 2.099936e-02 0.0
5.360444e-01 2.028051e-02 0.0
5.274465e-01 1.946198e-02 0.0
5.190368e-01 1.857967e-02 0.0
5.108674e-01 1.766115e-02 0.0
5.029766e-01 1.672759e-02 0.0
4.953916e-01 1.579537e-02 0.0
4.881302e-01 1.487707e-02 0.0
4.812025e-01 1.398230e-02 0.0
4.746124e-01 1.311823e-02 0.0
4.683587e-01 1.228998e-02 0.0
4.624363e-01 1.150106e-02 0.0
4.568370e-01 1.075360e-02 0.0
4.515500e-01 1.004867e-02 0.0
4.465633e-01 9.386440e-03 0.0
4.418635e-01 8.766384e-03 0.0
4.374365e-01 8.187437e-03 0.0
4.332678e-01 7.648108e-03 0.0
4.293432e-01 7.146588e-03 0.0
4.256483e-01 6.680840e-03 0.0
4.221694e-01 6.248672e-03 0.0
4.188931e-01 5.847794e-03 0.0
4.158069e-01 5.475853e-03 0.0
4.128989e-01 5.130473e-03 0.0
4.101579e-01 4.809274e-03 0.0
4.075738e-01 4.509888e-03 0.0
4.051372e-01 4.229967e-03 0.0
4.028397e-01 3.967183e-03 0.0
4.006738e-01 3.719226e-03 0.0
3.986330e-01 3.483796e-03 0.0
3.967117e-01 3.258589e-03 0.0
3.949054e-01 3.041287e-03 0.0
3.932105e-01 2.829534e-03 0.0
3.916247e-01 2.620916e-03 0.0
3.901465e-01 2.412941e-03 0.0
3.887758e-01 2.203022e-03 0.0
3.875137e-01 1.988491e-03 0.0
3.863622e-01 1.766633e-03 0.0
3.853249e-01 1.534805e-03 0.0
3.844062e-01 1.290787e-03 0.0
3.836116e-01 1.033658e-03 0.0
3.829483e-01 7.647715e-04 0.0
3.824223e-01 4.892182e-04 0.0
3.820407e-01 2.220550e-04 0.0
3.818067e-01 -1.039086e-05 0.0
3.816977e-01 -1.597436e-04 0.0
3.816747e-01 -1.715192e-04 0.0
3.816747e-01 4.581216e-10 0.0
0.000000e+00 4.255545e-10 0.0
0.000000e+00 0.000000e+00 0.0
0.000000e+00 0.000000e+00 0.0
0.000000e+00 0.000000e+00 0.0
0.000000e+00 0.000000e+00 0.0
0.000000e+00 0.000000e+00 0.0
0.000000e+00 0.000000e+00 0.0
0.000000e+00 0.000000e+00 0.0
0.000000e+00 0.000000e+00 0.0
0.000000e+00 0.000000e+00 0.0
0.000000e+00 0.000000e+00 0.0
0.000000e+00 -3.010826e-02 0.0
-1.314206e-02 3.011035e-02 0.0
-3.668205e-02 6.231224e-02 0.0
-6.238041e-02 7.512180e-02 0.0
-8.687470e-02 7.829534e-02 0.0
-1.090719e-01 7.806920e-02 0.0
-1.285439e-01 7.705120e-02 0.0
-1.449419e-01 7.586619e-02 0.0
-1.578284e-01 7.431057e-02 0.0
-1.666404e-01 7.177171e-02 0.0
-1.704079e-01 6.698974e-02 0.0
-1.677195e-01 5.848798e-02 0.0
-1.561291e-01 4.372569e-02 0.0
-1.320445e-01 1.957172e-02 0.0
-8.749236e-02 -2.115227e-02 0.0
-2.380893e-02 -7.358658e-02 0.0
5.527433e-02 -1.305842e-01 0.0
1.404456e-01 -1.835926e-01 0.0
2.248102e-01 -2.282507e-01 0.0
3.039781e-01 -2.594787e-01 0.0
3.754382e-01 -2.744636e-01 0.0
4.365614e-01 -2.728735e-01 0.0
4.881925e-01 -2.562162e-01 0.0
5.324211e-01 -2.302276e-01 0.0
5.706456e-01 -1.994098e-01 0.0
6.036670e-01 -1.671304e-01 0.0
6.319323e-01 -1.357135e-01 0.0
6.557408e-01 -1.065993e-01 0.0
6.753591e-01 -8.056077e-02 0.0
6.910668e-01 -5.791526e-02 0.0
7.031668e-01 -3.869264e-02 0.0
7.119877e-01 -2.274905e-02 0.0
7.178885e-01 -9.844482e-03 0.0
7.212945e-01 3.147861e-04 0.0
7.226765e-01 8.257003e-03 0.0
7.223582e-01 1.437483e-02 0.0
7.205992e-01 1.900591e-02 0.0
7.176204e-01 2.243127e-02 0.0
7.136140e-01 2.488365e-02 0.0
7.087552e-01 2.655516e-02 0.0
7.031741e-01 2.759469e-02 0.0
6.969832e-01 2.812658e-02 0.0
6.903243e-01 2.823039e-02 0.0
6.833236e-01 2.800014e-02 0.0
6.760888e-01 2.751530e-02 0.0
6.687121e-01 2.683858e-02 0.0
6.612723e-01 2.601945e-02 0.0
6.538361e-01 2.509743e-02 0.0
6.464592e-01 2.410445e-02 0.0
6.391880e-01 2.306656e-02 0.0
6.320600e-01 2.200508e-02 0.0
6.251050e-01 2.093731e-02 0.0
6.183461e-01 1.987716e-02 0.0
6.118004e-01 1.883564e-02 0.0
6.054801e-01 1.782132e-02 0.0
5.993931e-01 1.684067e-02 0.0
5.935434e-01 1.589839e-02 0.0
5.879321e-01 1.499770e-02 0.0
5.825579e-01 1.414059e-02 0.0
5.774173e-01 1.332798e-02 0.0
5.725055e-01 1.255997e-02 0.0
5.678161e-01 1.183597e-02 0.0
5.633421e-01 1.115482e-02 0.0
5.590759e-01 1.051494e-02 0.0
5.550092e-01 9.914412e-03 0.0
5.511340e-01 9.351048e-03 0.0
5.474421e-01 8.822465e-03 0.0
5.439252e-01 8.326130e-03 0.0
5.405757e-01 7.859398e-03 0.0
5.373861e-01 7.419538e-03 0.0
5.343496e-01 7.003747e-03 0.0
5.314596e-01 6.609162e-03 0.0
5.287106e-01 6.232855e-03 0.0
5.260973e-01 5.871830e-03 0.0
5.236156e-01 5.523013e-03 0.0
5.212619e-01 5.183231e-03 0.0
5.190336e-01 4.849180e-03 0.0
5.169292e-01 4.517396e-03 0.0
5.149480e-01 4.184234e-03 0.0
5.130906e-01 3.845871e-03 0.0
5.113589e-01 3.498346e-03 0.0
5.097560e-01 3.137668e-03 0.0
5.082867e-01 2.760126e-03 0.0
5.069574e-01 2.362920e-03 0.0
5.057770e-01 1.945139e-03 0.0
5.047567e-01 1.509533e-03 0.0
5.039121e-01 1.066675e-03 0.0
5.032622e-01 6.395040e-04 0.0
5.028290e-01 2.734664e-04 0.0
5.026175e-01 3.999545e-05 0.0
5.026175e-01 4.568048e-10 0.0
0.000000e+00 4.277179e-10 0.0
0.000000e+00 0.000000e+00 0.0
0.000000e+00 0.000000e+00 0.0
0.000000e+00 0.000000e+00 0.0
0.000000e+00 0.000000e+00 0.0
0.000000e+00 0.000000e+00 0.0
0.000000e+00 0.000000e+00 0.0
0.000000e+00 0.000000e+00 0.0
0.000000e+00 0.000000e+00 0.0
0.000000e+00 0.000000e+00 0.0
0.000000e+00 0.000000e+00 0.0
0.000000e+00 -4.361236e-02 0.0
-1.350144e-02 4.361357e-02 0.0
-3.553405e-02 8.434520e-02 0.0
-5.694458e-02 9.653110e-02 0.0
-7.478613e-02 9.613425e-02 0.0
-8.837788e-02 9.165890e-02 0.0
-9.747115e-02 8.614479e-02 0.0
-1.017999e-01 8.019707e-02 0.0
-1.008720e-01 7.338397e-02 0.0
-9.419403e-02 6.509268e-02 0.0
-8.005766e-02 5.285074e-02 0.0
-5.621253e-02 3.464097e-02 0.0
-1.553113e-02 3.044425e-03 0.0
4.644087e-02 -4.239876e-02 0.0
1.223092e-01 -9.701939e-02 0.0
2.056193e-01 -1.568970e-01 0.0
2.902783e-01 -2.152446e-01 0.0
3.717241e-01 -2.650395e-01 0.0
4.454800e-01 -3.020067e-01 0.0
5.092188e-01 -3.232165e-01 0.0
5.622129e-01 -3.274568e-01 0.0
6.043202e-01 -3.149809e-01 0.0
6.388413e-01 -2.907381e-01 0.0
6.679111e-01 -2.592980e-01 0.0
6.928732e-01 -2.243716e-01 0.0
7.145124e-01 -1.887689e-01 0.0
7.332624e-01 -1.544634e-01 0.0
7.493602e-01 -1.226977e-01 0.0
7.629533e-01 -9.415428e-02 0.0
7.741622e-01 -6.912379e-02 0.0
7.831146e-01 -4.764444e-02 0.0
7.899575e-01 -2.959200e-02 0.0
7.948552e-01 -1.474278e-02 0.0
7.979944e-01 -2.824690e-03 0.0
7.996854e-01 6.566331e-03 0.0
8.001408e-01 1.391987e-02 0.0
7.995254e-01 1.962128e-02 0.0
7.979789e-01 2.397746e-02 0.0
7.956256e-01 2.723693e-02 0.0
7.925785e-01 2.960230e-02 0.0
7.889356e-01 3.123765e-02 0.0
7.847835e-01 3.227867e-02 0.0
7.801790e-01 3.283488e-02 0.0
7.751941e-01 3.298512e-02 0.0
7.699039e-01 3.280541e-02 0.0
7.643761e-01 3.236639e-02 0.0
7.586714e-01 3.172413e-02 0.0
7.528445e-01 3.092440e-02 0.0
7.469437e-01 3.000523e-02 0.0
7.410116e-01 2.899861e-02 0.0
7.350851e-01 2.793158e-02 0.0
7.291957e-01 2.682669e-02 0.0
7.233703e-01 2.570265e-02 0.0
7.176311e-01 2.457484e-02 0.0
7.119966e-01 2.345578e-02 0.0
7.064818e-01 2.235548e-02 0.0
7.010984e-01 2.128176e-02 0.0
6.958555e-01 2.024062e-02 0.0
6.907596e-01 1.923644e-02 0.0
6.858154e-01 1.827224e-02 0.0
6.810255e-01 1.734988e-02 0.0
6.763912e-01 1.647027e-02 0.0
6.719125e-01 1.563352e-02 0.0
6.675883e-01 1.483908e-02 0.0
6.634169e-01 1.408583e-02 0.0
6.593957e-01 1.337224e-02 0.0
6.555218e-01 1.269638e-02 0.0
6.517919e-01 1.205604e-02 0.0
6.482026e-01 1.144876e-02 0.0
6.447502e-01 1.087189e-02 0.0
6.414314e-01 1.032258e-02 0.0
6.382427e-01 9.797810e-03 0.0
6.351812e-01 9.294429e-03 0.0
6.322439e-01 8.809113e-03 0.0
6.294285e-01 8.338378e-03 0.0
6.267332e-01 7.878566e-03 0.0
6.241566e-01 7.425800e-03 0.0
6.216980e-01 6.975924e-03 0.0
6.193578e-01 6.524488e-03 0.0
6.171369e-01 6.066729e-03 0.0
6.150377e-01 5.597581e-03 0.0
6.130636e-01 5.111737e-03 0.0
6.112199e-01 4.603818e-03 0.0
6.095141e-01 4.068768e-03 0.0
6.079567e-01 3.502506e-03 0.0
6.065631e-01 2.903187e-03 0.0
6.053560e-01 2.273731e-03 0.0
6.043699e-01 1.625569e-03 0.0
6.036573e-01 9.860806e-04 0.0
6.032877e-01 4.095631e-04 0.0
6.032877e-01 4.145401e-10 0.0
0.000000e+00 3.950284e-10 0.0
0.000000e+00 0.000000e+00 0.0
0.000000e+00 0.000000e+00 0.0
0.000000e+00 0.000000e+00 0.0
0.000000e+00 0.000000e+00 0.0
0.000000e+00 0.000000e+00 0.0
0.000000e+00 0.000000e+00 0.0
0.000000e+00 0.000000e+00 0.0
0.000000e+00 0.000000e+00 0.0
0.000000e+00 0.000000e+00 0.0
0.000000e+00 0.000000e+00 0.0
0.000000e+00 -5.675472e-02 0.0
-1.313970e-02 5.675318e-02 0.0
-3.052924e-02 1.017344e-01 0.0
-4.347837e-02 1.094783e-01 0.0
-5.066740e-02 1.033201e-01 0.0
-5.208706e-02 9.307674e-02 0.0
-4.779667e-02 8.185526e-02 0.0
-3.756535e-02 6.996773e-02 0.0
-1.999035e-02 5.580933e-02 0.0
6.417927e-03 3.868242e-02 0.0
4.621163e-02 1.305453e-02 0.0
1.046551e-01 -2.380342e-02 0.0
1.780618e-01 -7.036120e-02 0.0
2.608911e-01 -1.252265e-01 0.0
3.478600e-01 -1.839877e-01 0.0
4.327774e-01 -2.418154e-01 0.0
5.106568e-01 -2.931252e-01 0.0
5.784992e-01 -3.328825e-01 0.0
6.345398e-01 -3.580468e-01 0.0
6.784951e-01 -3.671710e-01 0.0
7.108718e-01 -3.598332e-01 0.0
7.350174e-01 -3.391268e-01 0.0
7.537181e-01 -3.094393e-01 0.0
7.689132e-01 -2.744932e-01 0.0
7.818216e-01 -2.372796e-01 0.0
7.931385e-01 -2.000856e-01 0.0
8.032218e-01 -1.645470e-01 0.0
8.122079e-01 -1.316842e-01 0.0
8.201160e-01 -1.020623e-01 0.0
8.269185e-01 -7.592565e-02 0.0
8.325925e-01 -5.331814e-02 0.0
8.371369e-01 -3.413689e-02 0.0
8.405636e-01 -1.817010e-02 0.0
8.429065e-01 -5.167398e-03 0.0
8.443009e-01 5.172340e-03 0.0
8.448555e-01 1.336548e-02 0.0
8.446610e-01 1.981556e-02 0.0
8.438000e-01 2.483830e-02 0.0
8.423497e-01 2.868718e-02 0.0
8.403832e-01 3.156894e-02 0.0
8.379674e-01 3.365350e-02 0.0
8.351637e-01 3.508229e-02 0.0
8.320257e-01 3.597294e-02 0.0
8.285894e-01 3.642136e-02 0.0
8.248925e-01 3.650232e-02 0.0
8.209761e-01 3.628270e-02 0.0
8.168799e-01 3.582040e-02 0.0
8.126407e-01 3.516364e-02 0.0
8.082925e-01 3.435347e-02 0.0
8.038658e-01 3.342520e-02 0.0
7.993880e-01 3.240939e-02 0.0
7.948830e-01 3.133168e-02 0.0
7.903720e-01 3.021370e-02 0.0
7.858733e-01 2.907353e-02 0.0
7.814029e-01 2.792615e-02 0.0
7.769746e-01 2.678382e-02 0.0
7.725999e-01 2.565642e-02 0.0
7.682888e-01 2.455176e-02 0.0
7.640494e-01 2.347586e-02 0.0
7.598884e-01 2.243321e-02 0.0
7.558113e-01 2.142697e-02 0.0
7.518224e-01 2.045919e-02 0.0
7.479249e-01 1.953098e-02 0.0
7.441214e-01 1.864263e-02 0.0
7.404134e-01 1.779377e-02 0.0
7.368022e-01 1.698348e-02 0.0
7.332882e-01 1.621033e-02 0.0
7.298717e-01 1.547253e-02 0.0
7.265525e-01 1.476793e-02 0.0
7.233303e-01 1.409409e-02 0.0
7.202046e-01 1.344830e-02 0.0
7.171748e-01 1.282760e-02 0.0
7.142404e-01 1.222881e-02 0.0
7.114011e-01 1.164851e-02 0.0
7.086564e-01 1.108302e-02 0.0
7.060065e-01 1.052847e-02 0.0
7.034517e-01 9.980649e-03 0.0
7.009926e-01 9.434961e-03 0.0
6.986307e-01 8.886383e-03 0.0
6.963680e-01 8.329440e-03 0.0
6.942074e-01 7.758165e-03 0.0
6.921531e-01 7.166070e-03 0.0
6.902108e-01 6.546160e-03 0.0
6.883885e-01 5.891029e-03 0.0
6.866980e-01 5.193045e-03 0.0
6.851564e-01 4.444760e-03 0.0
6.837904e-01 3.639725e-03 0.0
6.826421e-01 2.773851e-03 0.0
6.817793e-01 1.848879e-03 0.0
6.813038e-01 8.850194e-04 0.0
6.813038e-01 3.395561e-10 0.0
0.000000e+00 3.224611e-10 0.0
0.000000e+00 0.000000e+00 0.0
0.000000e+00 0.000000e+00 0.0
0.000000e+00 0.000000e+00 0.0
0.000000e+00 0.000000e+00 0.0
0.000000e+00 0.000000e+00 0.0
0.000000e+00 0.000000e+00 0.0
0.000000e+00 0.000000e+00 0.0
0.000000e+00 0.000000e+00 0.0
0.000000e+00 0.000000e+00 0.0
0.000000e+00 0.000000e+00 0.0
0.000000e+00 -7.039932e-02 0.0
-1.364362e-02 7.039661e-02 0.0
-2.290881e-02 1.110006e-01 0.0
-2.229990e-02 1.088678e-01 0.0
-1.383032e-02 9.484808e-02 0.0
1.892169e-03 7.735393e-02 0.0
2.499170e-02 5.875800e-02 0.0
5.575660e-02 3.920513e-02 0.0
9.780430e-02 1.376145e-02 0.0
1.559785e-01 -1.949403e-02 0.0
2.283680e-01 -5.933678e-02 0.0
3.106160e-01 -1.060513e-01 0.0
3.983625e-01 -1.581062e-01 0.0
4.861153e-01 -2.129779e-01 0.0
5.688930e-01 -2.667656e-01 0.0
6.423117e-01 -3.152352e-01 0.0
7.034512e-01 -3.542656e-01 0.0
7.511872e-01 -3.806183e-01 0.0
7.857375e-01 -3.925965e-01 0.0
8.082125e-01 -3.896456e-01 0.0
8.215277e-01 -3.731484e-01 0.0
8.291126e-01 -3.467121e-01 0.0
8.334558e-01 -3.137826e-01 0.0
8.362298e-01 -2.772670e-01 0.0
8.384436e-01 -2.394932e-01 0.0
8.406386e-01 -2.022808e-01 0.0
8.430668e-01 -1.669756e-01 0.0
8.457466e-01 -1.343640e-01 0.0
8.485724e-01 -1.048876e-01 0.0
8.513841e-01 -7.873686e-02 0.0
8.540319e-01 -5.596620e-02 0.0
8.563932e-01 -3.649876e-02 0.0
8.583501e-01 -2.012729e-02 0.0
8.598175e-01 -6.634394e-03 0.0
8.607639e-01 4.226396e-03 0.0
8.612001e-01 1.292921e-02 0.0
8.611496e-01 1.986577e-02 0.0
8.606465e-01 2.534126e-02 0.0
8.597315e-01 2.960232e-02 0.0
8.584482e-01 3.285235e-02 0.0
8.568406e-01 3.526116e-02 0.0
8.549511e-01 3.697177e-02 0.0
8.528191e-01 3.810495e-02 0.0
8.504781e-01 3.876233e-02 0.0
8.479514e-01 3.902892e-02 0.0
8.452611e-01 3.897302e-02 0.0
8.424311e-01 3.865046e-02 0.0
8.394849e-01 3.810983e-02 0.0
8.364448e-01 3.739365e-02 0.0
8.333307e-01 3.653919e-02 0.0
8.301605e-01 3.557966e-02 0.0
8.269497e-01 3.454248e-02 0.0
8.237123e-01 3.345106e-02 0.0
8.204607e-01 3.232514e-02 0.0
8.172057e-01 3.118121e-02 0.0
8.139566e-01 3.003284e-02 0.0
8.107219e-01 2.889111e-02 0.0
8.075088e-01 2.776489e-02 0.0
8.043236e-01 2.666113e-02 0.0
8.011716e-01 2.558517e-02 0.0
7.980576e-01 2.454092e-02 0.0
7.949857e-01 2.353110e-02 0.0
7.919593e-01 2.255739e-02 0.0
7.889813e-01 2.162063e-02 0.0
7.860542e-01 2.072087e-02 0.0
7.831801e-01 1.985759e-02 0.0
7.803607e-01 1.902971e-02 0.0
7.775976e-01 1.823569e-02 0.0
7.748919e-01 1.747362e-02 0.0
7.722448e-01 1.674122e-02 0.0
7.696572e-01 1.603591e-02 0.0
7.671300e-01 1.535480e-02 0.0
7.646640e-01 1.469473e-02 0.0
7.622603e-01 1.405221e-02 0.0
7.599199e-01 1.342348e-02 0.0
7.576438e-01 1.280455e-02 0.0
7.554334e-01 1.219108e-02 0.0
7.532902e-01 1.157812e-02 0.0
7.512163e-01 1.096025e-02 0.0
7.492144e-01 1.033144e-02 0.0
7.472875e-01 9.685002e-03 0.0
7.454401e-01 9.013455e-03 0.0
7.436779e-01 8.308359e-03 0.0
7.420088e-01 7.560117e-03 0.0
7.404442e-01 6.757670e-03 0.0
7.390010e-01 5.887989e-03 0.0
7.377055e-01 4.935234e-03 0.0
7.366000e-01 3.879322e-03 0.0
7.357540e-01 2.694917e-03 0.0
7.352763e-01 1.362712e-03 0.0
7.352763e-01 2.370401e-10 0.0
0.000000e+00 2.206338e-10 0.0
0.000000e+00 0.000000e+00 0.0
0.000000e+00 0.000000e+00 0.0
0.000000e+00 0.000000e+00 0.0
0.000000e+00 0.000000e+00 0.0
0.000000e+00 0.000000e+00 0.0
0.000000e+00 0.000000e+00 0.0
0.000000e+00 0.000000e+00 0.0
0.000000e+00 0.000000e+00 0.0
0.000000e+00 0.000000e+00 0.0
0.000000e+00 0.000000e+00 0.0
0.000000e+00 -8.412518e-02 0.0
-1.372534e-02 8.412481e-02 0.0
-5.673780e-03 1.029497e-01 0.0
1.886041e-02 8.433050e-02 0.0
5.211475e-02 6.159082e-02 0.0
9.300608e-02 3.646310e-02 0.0
1.442408e-01 7.526286e-03 0.0
2.088269e-01 -2.537892e-02 0.0
2.842387e-01 -6.165130e-02 0.0
3.670280e-01 -1.022857e-01 0.0
4.544157e-01 -1.467256e-01 0.0
5.424433e-01 -1.940778e-01 0.0
6.269028e-01 -2.425641e-01 0.0
7.036143e-01 -2.896888e-01 0.0
7.691905e-01 -3.323424e-01 0.0
8.213380e-01 -3.673836e-01 0.0
8.591865e-01 -3.921143e-01 0.0
8.832959e-01 -4.047273e-01 0.0
8.952212e-01 -4.045215e-01 0.0
8.974733e-01 -3.918978e-01 0.0
8.937705e-01 -3.694458e-01 0.0
8.869163e-01 -3.398578e-01 0.0
8.789589e-01 -3.058251e-01 0.0
8.712216e-01 -2.695296e-01 0.0
8.644479e-01 -2.327198e-01 0.0
8.589907e-01 -1.968239e-01 0.0
8.549841e-01 -1.629691e-01 0.0
8.523195e-01 -1.316990e-01 0.0
8.507904e-01 -1.033581e-01 0.0
8.501586e-01 -7.810505e-02 0.0
8.501638e-01 -5.597194e-02 0.0
8.505519e-01 -3.688731e-02 0.0
8.511196e-01 -2.069481e-02 0.0
8.516958e-01 -7.210163e-03 0.0
8.521428e-01 3.779615e-03 0.0
8.523744e-01 1.269742e-02 0.0
8.523519e-01 1.988796e-02 0.0
8.520654e-01 2.562779e-02 0.0
8.515219e-01 3.014588e-02 0.0
8.507391e-01 3.363524e-02 0.0
8.497400e-01 3.626025e-02 0.0
8.485501e-01 3.816168e-02 0.0
8.471948e-01 3.946023e-02 0.0
8.456978e-01 4.025926e-02 0.0
8.440796e-01 4.064715e-02 0.0
8.423539e-01 4.069879e-02 0.0
8.405344e-01 4.046992e-02 0.0
8.386358e-01 4.000842e-02 0.0
8.366717e-01 3.935774e-02 0.0
8.346543e-01 3.855658e-02 0.0
8.325949e-01 3.763910e-02 0.0
8.305030e-01 3.663436e-02 0.0
8.283870e-01 3.556705e-02 0.0
8.262541e-01 3.445802e-02 0.0
8.241107e-01 3.332467e-02 0.0
8.219621e-01 3.218141e-02 0.0
8.198133e-01 3.103996e-02 0.0
8.176684e-01 2.990977e-02 0.0
8.155312e-01 2.879831e-02 0.0
8.134050e-01 2.771134e-02 0.0
8.112928e-01 2.665313e-02 0.0
8.091972e-01 2.562674e-02 0.0
8.071204e-01 2.463413e-02 0.0
8.050647e-01 2.367637e-02 0.0
8.030318e-01 2.275375e-02 0.0
8.010235e-01 2.186591e-02 0.0
7.990413e-01 2.101192e-02 0.0
7.970866e-01 2.019040e-02 0.0
7.951607e-01 1.939950e-02 0.0
7.932649e-01 1.863705e-02 0.0
7.914003e-01 1.790051e-02 0.0
7.895681e-01 1.718702e-02 0.0
7.877694e-01 1.649340e-02 0.0
7.860055e-01 1.581612e-02 0.0
7.842777e-01 1.515130e-02 0.0
7.825873e-01 1.449491e-02 0.0
7.809358e-01 1.384261e-02 0.0
7.793248e-01 1.318912e-02 0.0
7.777563e-01 1.252867e-02 0.0
7.762329e-01 1.185487e-02 0.0
7.747574e-01 1.116047e-02 0.0
7.733337e-01 1.043719e-02 0.0
7.719667e-01 9.675414e-03 0.0
7.706630e-01 8.863730e-03 0.0
7.694325e-01 7.988188e-03 0.0
7.682895e-01 7.031031e-03 0.0
7.672562e-01 5.968483e-03 0.0
7.663686e-01 4.766976e-03 0.0
7.656851e-01 3.378435e-03 0.0
7.652974e-01 1.750340e-03 0.0
7.652974e-01 1.230166e-10 0.0
0.000000e+00 1.097309e-10 0.0
0.000000e+00 0.000000e+00 0.0
0.000000e+00 0.000000e+00 0.0
0.000000e+00 0.000000e+00 0.0
0.000000e+00 0.000000e+00 0.0
0.000000e+00 0.000000e+00 0.0
0.000000e+00 0.000000e+00 0.0
0.000000e+00 0.000000e+00 0.0
0.000000e+00 0.000000e+00 0.0
0.000000e+00 0.000000e+00 0.0
0.000000e+00 0.000000e+00 0.0
0.000000e+00 -7.896711e-02 0.0
5.160954e-03 7.896780e-02 0.0
5.424481e-02 5.386542e-02 0.0
1.182786e-01 2.029308e-02 0.0
1.921970e-01 -1.233003e-02 0.0
2.730342e-01 -4.437246e-02 0.0
3.576220e-01 -7.705811e-02 0.0
4.442494e-01 -1.120050e-01 0.0
5.316894e-01 -1.490932e-01 0.0
6.175909e-01 -1.881895e-01 0.0
6.993924e-01 -2.285272e-01 0.0
7.742345e-01 -2.689184e-01 0.0
8.393421e-01 -3.076705e-01 0.0
8.923673e-01 -3.427141e-01 0.0
9.318131e-01 -3.717889e-01 0.0