# vtk DataFile Version 3.0
Vector Field
ASCII
DATASET RECTILINEAR_GRID
DIMENSIONS 102 22 1
X_COORDINATES 102 double
0.000000 0.100000 0.200000 0.300000 0.400000 0.500000 0.600000 0.700000 0.800000 0.900000 1.000000 1.100000 1.200000 1.300000 1.400000 1.500000 1.600000 1.700000 1.800000 1.900000 2.000000 2.100000 2.200000 2.300000 2.400000 2.500000 2.600000 2.700000 2.800000 2.900000 3.000000 3.100000 3.200000 3.300000 3.400000 3.500000 3.600000 3.700000 3.800000 3.900000 4.000000 4.100000 4.200000 4.300000 4.400000 4.500000 4.600000 4.700000 4.800000 4.900000 5.000000 5.100000 5.200000 5.300000 5.400000 5.500000 5.600000 5.700000 5.800000 5.900000 6.000000 6.100000 6.200000 6.300000 6.400000 6.500000 6.600000 6.700000 6.800000 6.900000 7.000000 7.100000 7.200000 7.300000 7.400000 7.500000 7.600000 7.700000 7.800000 7.900000 8.000000 8.100000 8.200000 8.300000 8.400000 8.500000 8.600000 8.700000 8.800000 8.900000 9.000000 9.100000 9.200000 9.300000 9.400000 9.500000 9.600000 9.700000 9.800000 9.900000 10.000000 10.100000 
Y_COORDINATES 22 double
0.000000 0.100000 0.200000 0.300000 0.400000 0.500000 0.600000 0.700000 0.800000 0.900000 1.000000 1.100000 1.200000 1.300000 1.400000 1.500000 1.600000 1.700000 1.800000 1.900000 2.000000 2.100000 
Z_COORDINATES 1 double
0.0
POINT_DATA 2244
VECTORS Velocity double
0.000000e+00 0.000000e+00 0.0
-0.000000e+00 0.000000e+00 0.0
-0.000000e+00 0.000000e+00 0.0
-0.000000e+00 0.000000e+00 0.0
-0.000000e+00 0.000000e+00 0.0
-0.000000e+00 0.000000e+00 0.0
-0.000000e+00 0.000000e+00 0.0
-0.000000e+00 0.000000e+00 0.0
-0.000000e+00 0.000000e+00 0.0
-0.000000e+00 0.000000e+00 0.0
-0.000000e+00 0.000000e+00 0.0
2.861023e-04 0.000000e+00 0.0
4.622522e-03 0.000000e+00 0.0
1.120611e-02 0.000000e+00 0.0
1.882873e-02 0.000000e+00 0.0
2.707610e-02 0.000000e+00 0.0
3.600137e-02 0.000000e+00 0.0
4.584646e-02 0.000000e+00 0.0
5.691529e-02 0.000000e+00 0.0
6.952302e-02 0.000000e+00 0.0
8.394534e-02 0.000000e+00 0.0
1.003397e-01 0.000000e+00 0.0
1.186156e-01 0.000000e+00 0.0
1.382683e-01 0.000000e+00 0.0
1.582000e-01 0.000000e+00 0.0
1.764953e-01 0.000000e+00 0.0
1.905084e-01 0.000000e+00 0.0
1.969766e-01 0.000000e+00 0.0
1.924908e-01 0.000000e+00 0.0
1.752245e-01 0.000000e+00 0.0
1.449328e-01 0.000000e+00 0.0
1.040588e-01 0.000000e+00 0.0
5.615576e-02 0.000000e+00 0.0
4.286375e-03 0.000000e+00 0.0
-4.470688e-02 0.000000e+00 0.0
-8.587555e-02 0.000000e+00 0.0
-1.180474e-01 0.000000e+00 0.0
-1.416516e-01 0.000000e+00 0.0
-1.577842e-01 0.000000e+00 0.0
-1.677694e-01 0.000000e+00 0.0
-1.729432e-01 0.000000e+00 0.0
-1.745567e-01 0.000000e+00 0.0
-1.737219e-01 0.000000e+00 0.0
-1.709335e-01 0.000000e+00 0.0
-1.667505e-01 0.000000e+00 0.0
-1.616922e-01 0.000000e+00 0.0
-1.561728e-01 0.000000e+00 0.0
-1.504958e-01 0.000000e+00 0.0
-1.448642e-01 0.000000e+00 0.0
-1.393927e-01 0.000000e+00 0.0
-1.341521e-01 0.000000e+00 0.0
-1.291784e-01 0.000000e+00 0.0
-1.244846e-01 0.000000e+00 0.0
-1.200700e-01 0.000000e+00 0.0
-1.159256e-01 0.000000e+00 0.0
-1.120379e-01 0.000000e+00 0.0
-1.083917e-01 0.000000e+00 0.0
-1.049714e-01 0.000000e+00 0.0
-1.017624e-01 0.000000e+00 0.0
-9.875119e-02 0.000000e+00 0.0
-9.592615e-02 0.000000e+00 0.0
-9.327719e-02 0.000000e+00 0.0
-9.079602e-02 0.000000e+00 0.0
-8.847597e-02 0.000000e+00 0.0
-8.631186e-02 0.000000e+00 0.0
-8.429982e-02 0.000000e+00 0.0
-8.243700e-02 0.000000e+00 0.0
-8.072132e-02 0.000000e+00 0.0
-7.915118e-02 0.000000e+00 0.0
-7.772520e-02 0.000000e+00 0.0
-7.644197e-02 0.000000e+00 0.0
-7.529987e-02 0.000000e+00 0.0
-7.429686e-02 0.000000e+00 0.0
-7.343037e-02 0.000000e+00 0.0
-7.269715e-02 0.000000e+00 0.0
-7.209319e-02 0.000000e+00 0.0
-7.161364e-02 0.000000e+00 0.0
-7.125274e-02 0.000000e+00 0.0
-7.100380e-02 0.000000e+00 0.0
-7.085910e-02 0.000000e+00 0.0
-7.080975e-02 0.000000e+00 0.0
-7.084530e-02 0.000000e+00 0.0
-7.095306e-02 0.000000e+00 0.0
-7.111737e-02 0.000000e+00 0.0
-7.132124e-02 0.000000e+00 0.0
-7.155674e-02 0.000000e+00 0.0
-7.181866e-02 0.000000e+00 0.0
-7.210125e-02 0.000000e+00 0.0
-7.239865e-02 0.000000e+00 0.0
-7.270507e-02 0.000000e+00 0.0
-7.301467e-02 0.000000e+00 0.0
-7.332025e-02 0.000000e+00 0.0
-7.361473e-02 0.000000e+00 0.0
-7.389220e-02 0.000000e+00 0.0
-7.414800e-02 0.000000e+00 0.0
-7.437824e-02 0.000000e+00 0.0
-7.457883e-02 0.000000e+00 0.0
-7.474331e-02 0.000000e+00 0.0
-7.486003e-02 0.000000e+00 0.0
-7.492220e-02 0.000000e+00 0.0
-7.492220e-02 0.000000e+00 0.0
0.000000e+00 0.000000e+00 0.0
0.000000e+00 0.000000e+00 0.0
0.000000e+00 0.000000e+00 0.0
0.000000e+00 0.000000e+00 0.0
0.000000e+00 0.000000e+00 0.0
0.000000e+00 0.000000e+00 0.0
0.000000e+00 0.000000e+00 0.0
0.000000e+00 0.000000e+00 0.0
0.000000e+00 0.000000e+00 0.0
0.000000e+00 0.000000e+00 0.0
0.000000e+00 0.000000e+00 0.0
0.000000e+00 -8.512689e-04 0.0
-2.885753e-04 8.479802e-04 0.0
-4.624684e-03 4.657767e-03 0.0
-1.120870e-02 6.905672e-03 0.0
-1.883266e-02 7.945623e-03 0.0
-2.708239e-02 8.571386e-03 0.0
-3.601120e-02 9.250466e-03 0.0
-4.586120e-02 1.017167e-02 0.0
-5.693657e-02 1.139702e-02 0.0
-6.955267e-02 1.293777e-02 0.0
-8.398528e-02 1.475426e-02 0.0
-1.003916e-01 1.672795e-02 0.0
-1.186803e-01 1.861039e-02 0.0
-1.383453e-01 1.998670e-02 0.0
-1.582865e-01 2.026283e-02 0.0
-1.765847e-01 1.861990e-02 0.0
-1.905903e-01 1.432727e-02 0.0
-1.970372e-01 6.768485e-03 0.0
-1.925166e-01 -4.198857e-03 0.0
-1.752057e-01 -1.698929e-02 0.0
-1.448635e-01 -3.002054e-02 0.0
-1.039437e-01 -4.059813e-02 0.0
-5.599673e-02 -4.762529e-02 0.0
-4.103518e-03 -5.157154e-02 0.0
4.488716e-02 -4.866901e-02 0.0
8.604165e-02 -4.083282e-02 0.0
1.181946e-01 -3.183132e-02 0.0
1.417790e-01 -2.326265e-02 0.0
1.578929e-01 -1.579221e-02 0.0
1.678616e-01 -9.647035e-03 0.0
1.730215e-01 -4.838319e-03 0.0
1.746241e-01 -1.280905e-03 0.0
1.737814e-01 1.164451e-03 0.0
1.709869e-01 3.116172e-03 0.0
1.668002e-01 4.508337e-03 0.0
1.617404e-01 5.381517e-03 0.0
1.562213e-01 5.840746e-03 0.0
1.505463e-01 5.996663e-03 0.0
1.449180e-01 5.950012e-03 0.0
1.394509e-01 5.788715e-03 0.0
1.342158e-01 5.556791e-03 0.0
1.292487e-01 5.288824e-03 0.0
1.245621e-01 5.008257e-03 0.0
1.201554e-01 4.728383e-03 0.0
1.160194e-01 4.457733e-03 0.0
1.121403e-01 4.200717e-03 0.0
1.085028e-01 3.959182e-03 0.0
1.050912e-01 3.733346e-03 0.0
1.018904e-01 3.522430e-03 0.0
9.888701e-02 3.325101e-03 0.0
9.606895e-02 3.139740e-03 0.0
9.342604e-02 2.964608e-03 0.0
9.094976e-02 2.797963e-03 0.0
8.863331e-02 2.638141e-03 0.0
8.647138e-02 2.483622e-03 0.0
8.445999e-02 2.333084e-03 0.0
8.259623e-02 2.185454e-03 0.0
8.087799e-02 2.039930e-03 0.0
7.930369e-02 1.895992e-03 0.0
7.787200e-02 1.753387e-03 0.0
7.658159e-02 1.612099e-03 0.0
7.543096e-02 1.472326e-03 0.0
7.441822e-02 1.334441e-03 0.0
7.354094e-02 1.198971e-03 0.0
7.279607e-02 1.066566e-03 0.0
7.217979e-02 9.379770e-04 0.0
7.168746e-02 8.140315e-04 0.0
7.131354e-02 6.956173e-04 0.0
7.105157e-02 5.836697e-04 0.0
7.089408e-02 4.791886e-04 0.0
7.083246e-02 3.833157e-04 0.0
7.085664e-02 2.975209e-04 0.0
7.095443e-02 2.239144e-04 0.0
7.111076e-02 1.653703e-04 0.0
7.130836e-02 1.241043e-04 0.0
7.153817e-02 9.188771e-05 0.0
7.179503e-02 6.484373e-05 0.0
7.207322e-02 4.351376e-05 0.0
7.236695e-02 2.797108e-05 0.0
7.267042e-02 1.823234e-05 0.0
7.297791e-02 1.421485e-05 0.0
7.328244e-02 1.717494e-05 0.0
7.357684e-02 2.730122e-05 0.0
7.385503e-02 4.351628e-05 0.0
7.411211e-02 6.462182e-05 0.0
7.434401e-02 8.980925e-05 0.0
7.454642e-02 1.192884e-04 0.0
7.471272e-02 1.554003e-04 0.0
7.483106e-02 2.033710e-04 0.0
7.489402e-02 2.587453e-04 0.0
7.492220e-02 2.935260e-04 0.0
0.000000e+00 2.965666e-04 0.0
0.000000e+00 0.000000e+00 0.0
0.000000e+00 0.000000e+00 0.0
0.000000e+00 0.000000e+00 0.0
0.000000e+00 0.000000e+00 0.0
0.000000e+00 0.000000e+00 0.0
0.000000e+00 0.000000e+00 0.0
0.000000e+00 0.000000e+00 0.0
0.000000e+00 0.000000e+00 0.0
0.000000e+00 0.000000e+00 0.0
0.000000e+00 0.000000e+00 0.0
0.000000e+00 -6.423275e-03 0.0
-5.251554e-03 6.421192e-03 0.0
-1.831367e-02 1.780380e-02 0.0
-3.541293e-02 2.408883e-02 0.0
-5.436144e-02 2.697805e-02 0.0
-7.430285e-02 2.859670e-02 0.0
-9.513190e-02 3.016343e-02 0.0
-1.170059e-01 3.212954e-02 0.0
-1.400752e-01 3.455032e-02 0.0
-1.643359e-01 3.728235e-02 0.0
-1.894965e-01 3.999876e-02 0.0
-2.148662e-01 4.218160e-02 0.0
-2.392158e-01 4.304386e-02 0.0
-2.606403e-01 4.149510e-02 0.0
-2.764236e-01 3.613003e-02 0.0
-2.834808e-01 2.576108e-02 0.0
-2.781812e-01 9.111555e-03 0.0
-2.562080e-01 -1.512084e-02 0.0
-2.172229e-01 -4.310000e-02 0.0
-1.633307e-01 -7.079759e-02 0.0
-9.671482e-02 -9.655250e-02 0.0
-2.078615e-02 -1.164429e-01 0.0
5.846510e-02 -1.267926e-01 0.0
1.319474e-01 -1.249699e-01 0.0
1.969171e-01 -1.135549e-01 0.0
2.530616e-01 -9.689337e-02 0.0
2.998731e-01 -7.855888e-02 0.0
3.374584e-01 -6.076402e-02 0.0
3.664207e-01 -4.467062e-02 0.0
3.876451e-01 -3.078750e-02 0.0
4.021417e-01 -1.925101e-02 0.0
4.109351e-01 -9.990470e-03 0.0
4.149885e-01 -2.804955e-03 0.0
4.155851e-01 2.603464e-03 0.0
4.133412e-01 6.836159e-03 0.0
4.088630e-01 9.943644e-03 0.0
4.026830e-01 1.210466e-02 0.0
3.952414e-01 1.352214e-02 0.0
3.869027e-01 1.437262e-02 0.0
3.779920e-01 1.478338e-02 0.0
3.687694e-01 1.486326e-02 0.0
3.594224e-01 1.471972e-02 0.0
3.500860e-01 1.442864e-02 0.0
3.408592e-01 1.403909e-02 0.0
3.318099e-01 1.359091e-02 0.0
3.229840e-01 1.311058e-02 0.0
3.144110e-01 1.261611e-02 0.0
3.061093e-01 1.211892e-02 0.0
2.980901e-01 1.162558e-02 0.0
2.903598e-01 1.113926e-02 0.0
2.829228e-01 1.066068e-02 0.0
2.757825e-01 1.018888e-02 0.0
2.689426e-01 9.721799e-03 0.0
2.624078e-01 9.256769e-03 0.0
2.561845e-01 8.790903e-03 0.0
2.502800e-01 8.321469e-03 0.0
2.447032e-01 7.846204e-03 0.0
2.394635e-01 7.363551e-03 0.0
2.345706e-01 6.872812e-03 0.0
2.300337e-01 6.374200e-03 0.0
2.258609e-01 5.868826e-03 0.0
2.220585e-01 5.358634e-03 0.0
2.186306e-01 4.846309e-03 0.0
2.155783e-01 4.335155e-03 0.0
2.128998e-01 3.828964e-03 0.0
2.105898e-01 3.331879e-03 0.0
2.086395e-01 2.848246e-03 0.0
2.070366e-01 2.382474e-03 0.0
2.057653e-01 1.938888e-03 0.0
2.048068e-01 1.521619e-03 0.0
2.041395e-01 1.134557e-03 0.0
2.037395e-01 7.814223e-04 0.0
2.035813e-01 4.660083e-04 0.0
2.036380e-01 1.926216e-04 0.0
2.038794e-01 -3.333123e-05 0.0
2.042564e-01 -2.012119e-04 0.0
2.047326e-01 -3.274242e-04 0.0
2.052785e-01 -4.184952e-04 0.0
2.058704e-01 -4.800397e-04 0.0
2.064876e-01 -5.149647e-04 0.0
2.071122e-01 -5.264888e-04 0.0
2.077287e-01 -5.154325e-04 0.0
2.083233e-01 -4.833950e-04 0.0
2.088845e-01 -4.337501e-04 0.0
2.094030e-01 -3.698981e-04 0.0
2.098709e-01 -2.942487e-04 0.0
2.102815e-01 -2.073206e-04 0.0
2.106277e-01 -1.068779e-04 0.0
2.109027e-01 1.231788e-05 0.0
2.110844e-01 1.609690e-04 0.0
2.111651e-01 2.966633e-04 0.0
0.000000e+00 2.995793e-04 0.0
0.000000e+00 0.000000e+00 0.0
0.000000e+00 0.000000e+00 0.0
0.000000e+00 0.000000e+00 0.0
0.000000e+00 0.000000e+00 0.0
0.000000e+00 0.000000e+00 0.0
0.000000e+00 0.000000e+00 0.0
0.000000e+00 0.000000e+00 0.0
0.000000e+00 0.000000e+00 0.0
0.000000e+00 0.000000e+00 0.0
0.000000e+00 0.000000e+00 0.0
0.000000e+00 -1.657898e-02 0.0
-9.836576e-03 1.657943e-02 0.0
-2.969981e-02 3.775094e-02 0.0
-5.335821e-02 4.783114e-02 0.0
-7.788558e-02 5.158934e-02 0.0
-1.021933e-01 5.298828e-02 0.0
-1.259683e-01 5.402234e-02 0.0
-1.490757e-01 5.532085e-02 0.0
-1.712947e-01 5.685332e-02 0.0
-1.922067e-01 5.827824e-02 0.0
-2.110630e-01 5.893899e-02 0.0
-2.267684e-01 5.797085e-02 0.0
-2.378224e-01 5.418175e-02 0.0
-2.424147e-01 4.617140e-02 0.0
-2.372549e-01 3.105405e-02 0.0
-2.175921e-01 6.182229e-03 0.0
-1.799362e-01 -2.846044e-02 0.0
-1.257064e-01 -6.926671e-02 0.0
-5.650143e-02 -1.122211e-01 0.0
2.383337e-02 -1.510485e-01 0.0
1.064568e-01 -1.790920e-01 0.0
1.852487e-01 -1.951509e-01 0.0
2.568184e-01 -1.982784e-01 0.0
3.195737e-01 -1.876413e-01 0.0
3.743516e-01 -1.682489e-01 0.0
4.218684e-01 -1.443262e-01 0.0
4.624581e-01 -1.190647e-01 0.0
4.963677e-01 -9.458977e-02 0.0
5.239260e-01 -7.214500e-02 0.0
5.455713e-01 -5.234889e-02 0.0
5.618235e-01 -3.541924e-02 0.0
5.732492e-01 -2.133223e-02 0.0
5.804539e-01 -9.925731e-03 0.0
5.841029e-01 -9.616608e-04 0.0
5.849296e-01 6.093335e-03 0.0
5.834212e-01 1.153600e-02 0.0
5.799750e-01 1.563474e-02 0.0
5.749355e-01 1.864557e-02 0.0
5.686021e-01 2.078994e-02 0.0
5.612198e-01 2.224959e-02 0.0
5.529834e-01 2.318363e-02 0.0
5.440852e-01 2.370183e-02 0.0
5.347042e-01 2.389352e-02 0.0
5.249909e-01 2.383636e-02 0.0
5.150603e-01 2.360539e-02 0.0
5.050062e-01 2.324861e-02 0.0
4.949030e-01 2.280326e-02 0.0
4.848101e-01 2.229573e-02 0.0
4.747759e-01 2.174371e-02 0.0
4.648403e-01 2.115872e-02 0.0
4.550378e-01 2.054717e-02 0.0
4.453988e-01 1.991172e-02 0.0
4.359524e-01 1.925219e-02 0.0
4.267266e-01 1.856645e-02 0.0
4.177502e-01 1.785123e-02 0.0
4.090527e-01 1.710286e-02 0.0
4.006648e-01 1.631802e-02 0.0
3.926179e-01 1.549435e-02 0.0
3.849437e-01 1.463097e-02 0.0
3.776731e-01 1.372871e-02 0.0
3.708356e-01 1.279025e-02 0.0
3.644580e-01 1.182016e-02 0.0
3.585635e-01 1.082474e-02 0.0
3.531707e-01 9.811910e-03 0.0
3.482927e-01 8.790865e-03 0.0
3.439367e-01 7.771795e-03 0.0
3.401033e-01 6.765508e-03 0.0
3.367867e-01 5.783032e-03 0.0
3.339743e-01 4.835207e-03 0.0
3.316476e-01 3.932271e-03 0.0
3.297826e-01 3.083492e-03 0.0
3.283510e-01 2.296912e-03 0.0
3.273216e-01 1.579326e-03 0.0
3.266615e-01 9.366693e-04 0.0
3.263366e-01 3.754877e-04 0.0
3.263135e-01 -9.420835e-05 0.0
3.265217e-01 -4.516997e-04 0.0
3.268954e-01 -7.082914e-04 0.0
3.273861e-01 -8.868020e-04 0.0
3.279516e-01 -9.965730e-04 0.0
3.285588e-01 -1.049700e-03 0.0
3.291833e-01 -1.056056e-03 0.0
3.298052e-01 -1.021342e-03 0.0
3.304079e-01 -9.525113e-04 0.0
3.309778e-01 -8.559496e-04 0.0
3.315038e-01 -7.362530e-04 0.0
3.319754e-01 -5.949849e-04 0.0
3.323815e-01 -4.291279e-04 0.0
3.327077e-01 -2.299489e-04 0.0
3.329398e-01 1.280030e-05 0.0
3.330519e-01 2.684476e-04 0.0
0.000000e+00 2.705666e-04 0.0
0.000000e+00 0.000000e+00 0.0
0.000000e+00 0.000000e+00 0.0
0.000000e+00 0.000000e+00 0.0
0.000000e+00 0.000000e+00 0.0
0.000000e+00 0.000000e+00 0.0
0.000000e+00 0.000000e+00 0.0
0.000000e+00 0.000000e+00 0.0
0.000000e+00 0.000000e+00 0.0
0.000000e+00 0.000000e+00 0.0
0.000000e+00 0.000000e+00 0.0
0.000000e+00 -2.927078e-02 0.0
-1.237294e-02 2.927402e-02 0.0
-3.512298e-02 6.058489e-02 0.0
-6.000966e-02 7.280174e-02 0.0
-8.373110e-02 7.539469e-02 0.0
-1.052588e-01 7.459993e-02 0.0
-1.242492e-01 7.309660e-02 0.0
-1.404440e-01 7.159956e-02 0.0
-1.534927e-01 6.998598e-02 0.0
-1.629283e-01 6.779769e-02 0.0
-1.679493e-01 6.404391e-02 0.0
-1.674250e-01 5.753051e-02 0.0
-1.591943e-01 4.603490e-02 0.0
-1.411604e-01 2.822146e-02 0.0
-1.070100e-01 -3.012458e-03 0.0
-5.381480e-02 -4.692906e-02 0.0
1.589564e-02 -9.808697e-02 0.0
9.555322e-02 -1.488404e-01 0.0
1.777991e-01 -1.943830e-01 0.0
2.572410e-01 -2.304065e-01 0.0
3.311582e-01 -2.529253e-01 0.0
3.969621e-01 -2.608709e-01 0.0
4.524617e-01 -2.536941e-01 0.0
4.996217e-01 -2.347173e-01 0.0
5.400813e-01 -2.086246e-01 0.0
5.749461e-01 -1.791072e-01 0.0
6.048691e-01 -1.489037e-01 0.0
6.302440e-01 -1.198807e-01 0.0
6.513607e-01 -9.317779e-02 0.0
6.684891e-01 -6.939337e-02 0.0
6.819111e-01 -4.875741e-02 0.0
6.919290e-01 -3.126619e-02 0.0
6.988643e-01 -1.677711e-02 0.0
7.030514e-01 -5.064847e-03 0.0
7.050381e-01 4.190525e-03 0.0
7.051587e-01 1.149937e-02 0.0
7.036761e-01 1.720124e-02 0.0
7.008103e-01 2.159524e-02 0.0
6.967513e-01 2.493286e-02 0.0
6.916627e-01 2.742215e-02 0.0
6.856941e-01 2.923615e-02 0.0
6.789697e-01 3.051010e-02 0.0
6.715908e-01 3.135634e-02 0.0
6.636430e-01 3.186813e-02 0.0
6.552240e-01 3.210829e-02 0.0
6.464240e-01 3.213250e-02 0.0
6.373172e-01 3.199398e-02 0.0
6.279670e-01 3.172983e-02 0.0
6.184288e-01 3.136589e-02 0.0
6.087509e-01 3.092051e-02 0.0
5.989772e-01 3.040478e-02 0.0
5.891484e-01 2.982445e-02 0.0
5.793036e-01 2.918093e-02 0.0
5.694816e-01 2.847236e-02 0.0
5.597222e-01 2.769456e-02 0.0
5.500667e-01 2.684222e-02 0.0
5.405588e-01 2.590992e-02 0.0
5.312438e-01 2.489325e-02 0.0
5.221690e-01 2.378965e-02 0.0
5.133827e-01 2.259900e-02 0.0
5.049328e-01 2.132403e-02 0.0
4.968664e-01 1.997053e-02 0.0
4.892276e-01 1.854739e-02 0.0
4.820570e-01 1.706648e-02 0.0
4.753894e-01 1.554234e-02 0.0
4.692534e-01 1.399171e-02 0.0
4.636699e-01 1.243295e-02 0.0
4.586515e-01 1.088538e-02 0.0
4.542021e-01 9.368530e-03 0.0
4.503169e-01 7.901353e-03 0.0
4.469829e-01 6.501425e-03 0.0
4.441795e-01 5.184282e-03 0.0
4.418796e-01 3.963095e-03 0.0
4.400512e-01 2.849027e-03 0.0
4.386581e-01 1.852531e-03 0.0
4.376626e-01 9.852130e-04 0.0
4.370365e-01 2.583076e-04 0.0
4.367320e-01 -3.198966e-04 0.0
4.366696e-01 -7.405127e-04 0.0
4.367795e-01 -1.022475e-03 0.0
4.370105e-01 -1.196830e-03 0.0
4.373190e-01 -1.280605e-03 0.0
4.376762e-01 -1.294599e-03 0.0
4.380596e-01 -1.252001e-03 0.0
4.384509e-01 -1.163358e-03 0.0
4.388349e-01 -1.036287e-03 0.0
4.391983e-01 -8.744824e-04 0.0
4.395286e-01 -6.755316e-04 0.0
4.398113e-01 -4.286961e-04 0.0
4.400254e-01 -1.173546e-04 0.0
4.401381e-01 2.395984e-04 0.0
0.000000e+00 2.403072e-04 0.0
0.000000e+00 0.000000e+00 0.0
0.000000e+00 0.000000e+00 0.0
0.000000e+00 0.000000e+00 0.0
0.000000e+00 0.000000e+00 0.0
0.000000e+00 0.000000e+00 0.0
0.000000e+00 0.000000e+00 0.0
0.000000e+00 0.000000e+00 0.0
0.000000e+00 0.000000e+00 0.0
0.000000e+00 0.000000e+00 0.0
0.000000e+00 0.000000e+00 0.0
0.000000e+00 -4.253406e-02 0.0
-1.294363e-02 4.253931e-02 0.0
-3.457647e-02 8.230164e-02 0.0
-5.567364e-02 9.398282e-02 0.0
-7.338414e-02 9.318911e-02 0.0
-8.708105e-02 8.838075e-02 0.0
-9.659141e-02 8.269088e-02 0.0
-1.017340e-01 7.682604e-02 0.0
-1.020649e-01 7.040083e-02 0.0
-9.716066e-02 6.297734e-02 0.0
-8.570993e-02 5.267709e-02 0.0
-6.620080e-02 3.810529e-02 0.0
-3.341648e-02 1.333449e-02 0.0
1.965508e-02 -2.476618e-02 0.0
8.827212e-02 -7.154559e-02 0.0
1.663719e-01 -1.249449e-01 0.0
2.482628e-01 -1.798940e-01 0.0
3.294561e-01 -2.299498e-01 0.0
4.055537e-01 -2.703966e-01 0.0
4.732543e-01 -2.980233e-01 0.0
5.312459e-01 -3.108330e-01 0.0
5.786782e-01 -3.082192e-01 0.0
6.169057e-01 -2.918377e-01 0.0
6.484888e-01 -2.662165e-01 0.0
6.751563e-01 -2.352081e-01 0.0
6.980040e-01 -2.018710e-01 0.0
7.176776e-01 -1.684935e-01 0.0
7.345439e-01 -1.366631e-01 0.0
7.488167e-01 -1.073667e-01 0.0
7.606423e-01 -8.113504e-02 0.0
7.701487e-01 -5.817989e-02 0.0
7.774699e-01 -3.850350e-02 0.0
7.827579e-01 -2.198112e-02 0.0
7.861946e-01 -8.417679e-03 0.0
7.880267e-01 2.442340e-03 0.0
7.885123e-01 1.109773e-02 0.0
7.878248e-01 1.797267e-02 0.0
7.861007e-01 2.340323e-02 0.0
7.834561e-01 2.766137e-02 0.0
7.799928e-01 3.096940e-02 0.0
7.758029e-01 3.350987e-02 0.0
7.709661e-01 3.543091e-02 0.0
7.655520e-01 3.685430e-02 0.0
7.596241e-01 3.787994e-02 0.0
7.532311e-01 3.858528e-02 0.0
7.464099e-01 3.903753e-02 0.0
7.392056e-01 3.928225e-02 0.0
7.316627e-01 3.935664e-02 0.0
7.238218e-01 3.929069e-02 0.0
7.157188e-01 3.910747e-02 0.0
7.073872e-01 3.882025e-02 0.0
6.988592e-01 3.843642e-02 0.0
6.901661e-01 3.795788e-02 0.0
6.813403e-01 3.738211e-02 0.0
6.724155e-01 3.670326e-02 0.0
6.634283e-01 3.591335e-02 0.0
6.544184e-01 3.500378e-02 0.0
6.454289e-01 3.396665e-02 0.0
6.365064e-01 3.279605e-02 0.0
6.277004e-01 3.148899e-02 0.0
6.190624e-01 3.004595e-02 0.0
6.106454e-01 2.847142e-02 0.0
6.025024e-01 2.677426e-02 0.0
5.946851e-01 2.496773e-02 0.0
5.872421e-01 2.306929e-02 0.0
5.802176e-01 2.110013e-02 0.0
5.736499e-01 1.908452e-02 0.0
5.675702e-01 1.704900e-02 0.0
5.620014e-01 1.502132e-02 0.0
5.569572e-01 1.302940e-02 0.0
5.524424e-01 1.110015e-02 0.0
5.484524e-01 9.258251e-03 0.0
5.449740e-01 7.525441e-03 0.0
5.419863e-01 5.920561e-03 0.0
5.394624e-01 4.460364e-03 0.0
5.373713e-01 3.160254e-03 0.0
5.356805e-01 2.033052e-03 0.0
5.343555e-01 1.089056e-03 0.0
5.333684e-01 3.304438e-04 0.0
5.326796e-01 -2.497453e-04 0.0
5.322222e-01 -6.554961e-04 0.0
5.319359e-01 -9.103770e-04 0.0
5.317706e-01 -1.045414e-03 0.0
5.316973e-01 -1.094769e-03 0.0
5.316932e-01 -1.075331e-03 0.0
5.317396e-01 -9.987215e-04 0.0
5.318217e-01 -8.726524e-04 0.0
5.319279e-01 -6.978011e-04 0.0
5.320475e-01 -4.644358e-04 0.0
5.321649e-01 -1.508056e-04 0.0
5.322444e-01 2.440060e-04 0.0
0.000000e+00 2.428079e-04 0.0
0.000000e+00 0.000000e+00 0.0
0.000000e+00 0.000000e+00 0.0
0.000000e+00 0.000000e+00 0.0
0.000000e+00 0.000000e+00 0.0
0.000000e+00 0.000000e+00 0.0
0.000000e+00 0.000000e+00 0.0
0.000000e+00 0.000000e+00 0.0
0.000000e+00 0.000000e+00 0.0
0.000000e+00 0.000000e+00 0.0
0.000000e+00 0.000000e+00 0.0
0.000000e+00 -5.567702e-02 0.0
-1.282204e-02 5.568300e-02 0.0
-3.020766e-02 9.977118e-02 0.0
-4.332327e-02 1.071823e-01 0.0
-5.089640e-02 1.008461e-01 0.0
-5.299099e-02 9.055926e-02 0.0
-4.972784e-02 7.951163e-02 0.0
-4.105565e-02 6.823776e-02 0.0
-2.575206e-02 5.518116e-02 0.0
-2.723489e-03 4.003268e-02 0.0
3.179660e-02 1.824091e-02 0.0
8.313513e-02 -1.314932e-02 0.0
1.499186e-01 -5.336504e-02 0.0
2.269814e-01 -1.017451e-01 0.0
3.102953e-01 -1.547755e-01 0.0
3.942343e-01 -2.088000e-01 0.0
4.736538e-01 -2.592296e-01 0.0
5.450648e-01 -3.012768e-01 0.0
6.061945e-01 -3.314424e-01 0.0
6.559937e-01 -3.477386e-01 0.0
6.946075e-01 -3.493628e-01 0.0
7.230842e-01 -3.366120e-01 0.0
7.446574e-01 -3.133270e-01 0.0
7.616529e-01 -2.831280e-01 0.0
7.756285e-01 -2.490999e-01 0.0
7.875454e-01 -2.137040e-01 0.0
7.979456e-01 -1.788098e-01 0.0
8.071035e-01 -1.457371e-01 0.0
8.151220e-01 -1.153013e-01 0.0
8.220170e-01 -8.794607e-02 0.0
8.277732e-01 -6.385220e-02 0.0
8.323770e-01 -4.302344e-02 0.0
8.358342e-01 -2.535440e-02 0.0
8.381867e-01 -1.068629e-02 0.0
8.395071e-01 1.205901e-03 0.0
8.399220e-01 1.076677e-02 0.0
8.395232e-01 1.845537e-02 0.0
8.383873e-01 2.462308e-02 0.0
8.365828e-01 2.954974e-02 0.0
8.341728e-01 3.346330e-02 0.0
8.312152e-01 3.655145e-02 0.0
8.277613e-01 3.896874e-02 0.0
8.238571e-01 4.084237e-02 0.0
8.195440e-01 4.227698e-02 0.0
8.148553e-01 4.335787e-02 0.0
8.098216e-01 4.415516e-02 0.0
8.044658e-01 4.472200e-02 0.0
7.988053e-01 4.510105e-02 0.0
7.928565e-01 4.532344e-02 0.0
7.866392e-01 4.540868e-02 0.0
7.801732e-01 4.537018e-02 0.0
7.734768e-01 4.521671e-02 0.0
7.665684e-01 4.495020e-02 0.0
7.594670e-01 4.456739e-02 0.0
7.521936e-01 4.406059e-02 0.0
7.447718e-01 4.341908e-02 0.0
7.372287e-01 4.263076e-02 0.0
7.295954e-01 4.168386e-02 0.0
7.219069e-01 4.056852e-02 0.0
7.142018e-01 3.927804e-02 0.0
7.065223e-01 3.780929e-02 0.0
6.989140e-01 3.616372e-02 0.0
6.914242e-01 3.434797e-02 0.0
6.841016e-01 3.237422e-02 0.0
6.769947e-01 3.026013e-02 0.0
6.701502e-01 2.802851e-02 0.0
6.636120e-01 2.570672e-02 0.0
6.574191e-01 2.332578e-02 0.0
6.516050e-01 2.091931e-02 0.0
6.461961e-01 1.852226e-02 0.0
6.412106e-01 1.616955e-02 0.0
6.366584e-01 1.389444e-02 0.0
6.325407e-01 1.172701e-02 0.0
6.288513e-01 9.693938e-03 0.0
6.255767e-01 7.818803e-03 0.0
6.226988e-01 6.122092e-03 0.0
6.201955e-01 4.620305e-03 0.0
6.180433e-01 3.325170e-03 0.0
6.162170e-01 2.240694e-03 0.0
6.146862e-01 1.364974e-03 0.0
6.134249e-01 6.897188e-04 0.0
6.124053e-01 1.931662e-04 0.0
6.115934e-01 -1.496821e-04 0.0
6.109444e-01 -3.618446e-04 0.0
6.104251e-01 -4.721039e-04 0.0
6.100157e-01 -5.053199e-04 0.0
6.097027e-01 -4.757366e-04 0.0
6.094788e-01 -3.899979e-04 0.0
6.093428e-01 -2.445194e-04 0.0
6.092966e-01 -2.065639e-05 0.0
6.093182e-01 3.063071e-04 0.0
0.000000e+00 3.029656e-04 0.0
0.000000e+00 0.000000e+00 0.0
0.000000e+00 0.000000e+00 0.0
0.000000e+00 0.000000e+00 0.0
0.000000e+00 0.000000e+00 0.0
0.000000e+00 0.000000e+00 0.0
0.000000e+00 0.000000e+00 0.0
0.000000e+00 0.000000e+00 0.0
0.000000e+00 0.000000e+00 0.0
0.000000e+00 0.000000e+00 0.0
0.000000e+00 0.000000e+00 0.0
0.000000e+00 -6.944362e-02 0.0
-1.344466e-02 6.944932e-02 0.0
-2.301297e-02 1.094234e-01 0.0
-2.294131e-02 1.071946e-01 0.0
-1.527966e-02 9.326840e-02 0.0
-8.371827e-04 7.620069e-02 0.0
2.054697e-02 5.821140e-02 0.0
4.882408e-02 4.004456e-02 0.0
8.700140e-02 1.708775e-02 0.0
1.398126e-01 -1.269461e-02 0.0
2.065208e-01 -4.838340e-02 0.0
2.835064e-01 -9.005100e-02 0.0
3.670999e-01 -1.368746e-01 0.0
4.524717e-01 -1.870331e-01 0.0
5.351710e-01 -2.373909e-01 0.0
6.109131e-01 -2.844583e-01 0.0
6.763720e-01 -3.246045e-01 0.0
7.297598e-01 -3.545807e-01 0.0
7.706365e-01 -3.722352e-01 0.0
7.996107e-01 -3.766289e-01 0.0
8.178636e-01 -3.675319e-01 0.0
8.288582e-01 -3.475227e-01 0.0
8.353310e-01 -3.197158e-01 0.0
8.392726e-01 -2.869857e-01 0.0
8.419975e-01 -2.517409e-01 0.0
8.442803e-01 -2.159028e-01 0.0
8.465272e-01 -1.809728e-01 0.0
8.489101e-01 -1.480361e-01 0.0
8.514181e-01 -1.177254e-01 0.0
8.539470e-01 -9.039100e-02 0.0
8.563579e-01 -6.617924e-02 0.0
8.585113e-01 -4.509289e-02 0.0
8.602843e-01 -2.704350e-02 0.0
8.616001e-01 -1.191817e-02 0.0
8.623994e-01 4.905076e-04 0.0
8.626748e-01 1.057528e-02 0.0
8.624364e-01 1.877772e-02 0.0
8.617062e-01 2.543718e-02 0.0
8.605140e-01 3.082592e-02 0.0
8.588931e-01 3.516808e-02 0.0
8.568780e-01 3.865047e-02 0.0
8.545013e-01 4.142937e-02 0.0
8.517934e-01 4.363412e-02 0.0
8.487825e-01 4.537181e-02 0.0
8.454916e-01 4.673272e-02 0.0
8.419408e-01 4.778986e-02 0.0
8.381461e-01 4.860067e-02 0.0
8.341208e-01 4.921020e-02 0.0
8.298761e-01 4.965210e-02 0.0
8.254190e-01 4.994962e-02 0.0
8.207551e-01 5.011806e-02 0.0
8.158922e-01 5.016352e-02 0.0
8.108384e-01 5.008790e-02 0.0
8.056018e-01 4.988790e-02 0.0
8.001919e-01 4.955444e-02 0.0
7.946204e-01 4.907451e-02 0.0
7.889019e-01 4.843316e-02 0.0
7.830545e-01 4.761521e-02 0.0
7.770997e-01 4.660725e-02 0.0
7.710621e-01 4.539948e-02 0.0
7.649703e-01 4.398502e-02 0.0
7.588562e-01 4.236177e-02 0.0
7.527547e-01 4.053333e-02 0.0
7.467034e-01 3.850948e-02 0.0
7.407411e-01 3.630638e-02 0.0
7.349071e-01 3.394644e-02 0.0
7.292400e-01 3.145775e-02 0.0
7.237764e-01 2.887328e-02 0.0
7.185498e-01 2.622984e-02 0.0
7.135891e-01 2.356684e-02 0.0
7.089176e-01 2.092495e-02 0.0
7.045517e-01 1.834427e-02 0.0
7.005012e-01 1.586148e-02 0.0
6.967695e-01 1.350953e-02 0.0
6.933545e-01 1.131775e-02 0.0
6.902492e-01 9.311325e-03 0.0
6.874430e-01 7.510387e-03 0.0
6.849232e-01 5.928865e-03 0.0
6.826748e-01 4.573076e-03 0.0
6.806815e-01 3.442148e-03 0.0
6.789285e-01 2.526673e-03 0.0
6.773976e-01 1.808014e-03 0.0
6.760681e-01 1.263713e-03 0.0
6.749214e-01 8.687362e-04 0.0
6.739389e-01 5.943334e-04 0.0
6.731036e-01 4.139696e-04 0.0
6.724073e-01 3.044229e-04 0.0
6.718516e-01 2.496567e-04 0.0
6.714476e-01 2.433418e-04 0.0
6.712165e-01 2.944485e-04 0.0
6.711762e-01 4.305120e-04 0.0
0.000000e+00 4.252215e-04 0.0
0.000000e+00 0.000000e+00 0.0
0.000000e+00 0.000000e+00 0.0
0.000000e+00 0.000000e+00 0.0
0.000000e+00 0.000000e+00 0.0
0.000000e+00 0.000000e+00 0.0
0.000000e+00 0.000000e+00 0.0
0.000000e+00 0.000000e+00 0.0
0.000000e+00 0.000000e+00 0.0
0.000000e+00 0.000000e+00 0.0
0.000000e+00 0.000000e+00 0.0
0.000000e+00 -8.330259e-02 0.0
-1.353650e-02 8.330747e-02 0.0
-6.085709e-03 1.020565e-01 0.0
1.744356e-02 8.374923e-02 0.0
4.940254e-02 6.139333e-02 0.0
8.826410e-02 3.742305e-02 0.0
1.363587e-01 1.020067e-02 0.0
1.969654e-01 -2.047819e-02 0.0
2.681133e-01 -5.397624e-02 0.0
3.466695e-01 -9.116688e-02 0.0
4.301854e-01 -1.318154e-01 0.0
5.154109e-01 -1.751926e-01 0.0
5.986279e-01 -2.200077e-01 0.0
6.759979e-01 -2.643191e-01 0.0
7.442442e-01 -3.055533e-01 0.0
8.008605e-01 -3.409907e-01 0.0
8.444462e-01 -3.681062e-01 0.0
8.748884e-01 -3.849390e-01 0.0
8.931320e-01 -3.903949e-01 0.0
9.007268e-01 -3.841397e-01 0.0
9.008636e-01 -3.675848e-01 0.0
8.965187e-01 -3.430939e-01 0.0
8.899367e-01 -3.130498e-01 0.0
8.827395e-01 -2.797047e-01 0.0
8.759531e-01 -2.448705e-01 0.0
8.701316e-01 -2.099974e-01 0.0
8.655272e-01 -1.762845e-01 0.0
8.622061e-01 -1.446311e-01 0.0
8.600426e-01 -1.154779e-01 0.0
8.588339e-01 -8.909842e-02 0.0
8.583500e-01 -6.561137e-02 0.0
8.583623e-01 -4.502127e-02 0.0
8.586612e-01 -2.725850e-02 0.0
8.590446e-01 -1.221768e-02 0.0
8.593564e-01 2.626253e-04 0.0
8.594804e-01 1.053524e-02 0.0
8.593571e-01 1.898491e-02 0.0
8.589608e-01 2.591737e-02 0.0
8.582863e-01 3.158441e-02 0.0
8.573403e-01 3.619793e-02 0.0
8.561367e-01 3.993800e-02 0.0
8.546922e-01 4.295777e-02 0.0
8.530239e-01 4.538638e-02 0.0
8.511472e-01 4.733242e-02 0.0
8.490767e-01 4.888714e-02 0.0
8.468252e-01 5.012530e-02 0.0
8.444031e-01 5.110669e-02 0.0
8.418191e-01 5.187809e-02 0.0
8.390804e-01 5.247473e-02 0.0
8.361924e-01 5.292153e-02 0.0
8.331594e-01 5.323497e-02 0.0
8.299831e-01 5.342370e-02 0.0
8.266647e-01 5.349029e-02 0.0
8.232050e-01 5.343143e-02 0.0
8.196064e-01 5.323704e-02 0.0
8.158723e-01 5.289244e-02 0.0
8.120088e-01 5.238067e-02 0.0
8.080238e-01 5.168410e-02 0.0
8.039285e-01 5.078648e-02 0.0
7.997353e-01 4.967656e-02 0.0
7.954602e-01 4.834405e-02 0.0
7.911222e-01 4.678374e-02 0.0
7.867431e-01 4.499632e-02 0.0
7.823475e-01 4.298899e-02 0.0
7.779619e-01 4.077590e-02 0.0
7.736142e-01 3.837804e-02 0.0
7.693330e-01 3.582296e-02 0.0
7.651462e-01 3.314395e-02 0.0
7.610809e-01 3.037906e-02 0.0
7.571618e-01 2.756991e-02 0.0
7.534100e-01 2.476066e-02 0.0
7.498413e-01 2.199684e-02 0.0
7.464671e-01 1.931964e-02 0.0
7.432946e-01 1.676593e-02 0.0
7.403273e-01 1.436902e-02 0.0
7.375649e-01 1.215758e-02 0.0
7.350048e-01 1.015445e-02 0.0
7.326421e-01 8.375459e-03 0.0
7.304707e-01 6.828435e-03 0.0
7.284838e-01 5.512949e-03 0.0
7.266746e-01 4.419776e-03 0.0
7.250348e-01 3.531785e-03 0.0
7.235557e-01 2.826704e-03 0.0
7.222302e-01 2.278179e-03 0.0
7.210515e-01 1.856951e-03 0.0
7.200153e-01 1.534050e-03 0.0
7.191216e-01 1.282082e-03 0.0
7.183778e-01 1.077377e-03 0.0
7.178045e-01 9.006029e-04 0.0
7.174460e-01 7.368438e-04 0.0
7.173682e-01 5.921937e-04 0.0
0.000000e+00 5.858243e-04 0.0
0.000000e+00 0.000000e+00 0.0
0.000000e+00 0.000000e+00 0.0
0.000000e+00 0.000000e+00 0.0
0.000000e+00 0.000000e+00 0.0
0.000000e+00 0.000000e+00 0.0
0.000000e+00 0.000000e+00 0.0
0.000000e+00 0.000000e+00 0.0
0.000000e+00 0.000000e+00 0.0
0.000000e+00 0.000000e+00 0.0
0.000000e+00 0.000000e+00 0.0
0.000000e+00 -7.847233e-02 0.0
5.153904e-03 7.847523e-02 0.0
5.315507e-02 5.413926e-02 0.0
1.154869e-01 2.150128e-02 0.0
1.867908e-01 -9.826636e-03 0.0
2.646844e-01 -4.038658e-02 0.0
3.461407e-01 -7.117178e-02 0.0
4.295889e-01 -1.038425e-01 0.0
5.140359e-01 -1.383393e-01 0.0
5.975279e-01 -1.745750e-01 0.0
6.778039e-01 -2.120074e-01 0.0
7.523834e-01 -2.496882e-01 0.0
8.187447e-01 -2.862852e-01 0.0