# vtk DataFile Version 3.0
Vector Field
ASCII
DATASET RECTILINEAR_GRID
DIMENSIONS 102 22 1
X_COORDINATES 102 double
0.000000 0.100000 0.200000 0.300000 0.400000 0.500000 0.600000 0.700000 0.800000 0.900000 1.000000 1.100000 1.200000 1.300000 1.400000 1.500000 1.600000 1.700000 1.800000 1.900000 2.000000 2.100000 2.200000 2.300000 2.400000 2.500000 2.600000 2.700000 2.800000 2.900000 3.000000 3.100000 3.200000 3.300000 3.400000 3.500000 3.600000 3.700000 3.800000 3.900000 4.000000 4.100000 4.200000 4.300000 4.400000 4.500000 4.600000 4.700000 4.800000 4.900000 5.000000 5.100000 5.200000 5.300000 5.400000 5.500000 5.600000 5.700000 5.800000 5.900000 6.000000 6.100000 6.200000 6.300000 6.400000 6.500000 6.600000 6.700000 6.800000 6.900000 7.000000 7.100000 7.200000 7.300000 7.400000 7.500000 7.600000 7.700000 7.800000 7.900000 8.000000 8.100000 8.200000 8.300000 8.400000 8.500000 8.600000 8.700000 8.800000 8.900000 9.000000 9.100000 9.200000 9.300000 9.400000 9.500000 9.600000 9.700000 9.800000 9.900000 10.000000 10.100000 
Y_COORDINATES 22 double
0.000000 0.100000 0.200000 0.300000 0.400000 0.500000 0.600000 0.700000 0.800000 0.900000 1.000000 1.100000 1.200000 1.300000 1.400000 1.500000 1.600000 1.700000 1.800000 1.900000 2.000000 2.100000 
Z_COORDINATES 1 double
0.0
POINT_DATA 2244
VECTORS Velocity double
0.000000e+00 0.000000e+00 0.0
-0.000000e+00 0.000000e+00 0.0
-0.000000e+00 0.000000e+00 0.0
-0.000000e+00 0.000000e+00 0.0
-0.000000e+00 0.000000e+00 0.0
-0.000000e+00 0.000000e+00 0.0
-0.000000e+00 0.000000e+00 0.0
-0.000000e+00 0.000000e+00 0.0
-0.000000e+00 0.000000e+00 0.0
-0.000000e+00 0.000000e+00 0.0
-0.000000e+00 0.000000e+00 0.0
5.164594e-04 0.000000e+00 0.0
4.880582e-03 0.000000e+00 0.0
1.162748e-02 0.000000e+00 0.0
1.956699e-02 0.000000e+00 0.0
2.830778e-02 0.000000e+00 0.0
3.793668e-02 0.000000e+00 0.0
4.873616e-02 0.000000e+00 0.0
6.105244e-02 0.000000e+00 0.0
7.523176e-02 0.000000e+00 0.0
9.154649e-02 0.000000e+00 0.0
1.100897e-01 0.000000e+00 0.0
1.306068e-01 0.000000e+00 0.0
1.523131e-01 0.000000e+00 0.0
1.736652e-01 0.000000e+00 0.0
1.920214e-01 0.000000e+00 0.0
2.039600e-01 0.000000e+00 0.0
2.055703e-01 0.000000e+00 0.0
1.936884e-01 0.000000e+00 0.0
1.673069e-01 0.000000e+00 0.0
1.278651e-01 0.000000e+00 0.0
7.930149e-02 0.000000e+00 0.0
2.444244e-02 0.000000e+00 0.0
-3.033858e-02 0.000000e+00 0.0
-7.753313e-02 0.000000e+00 0.0
-1.150123e-01 0.000000e+00 0.0
-1.429018e-01 0.000000e+00 0.0
-1.622785e-01 0.000000e+00 0.0
-1.745718e-01 0.000000e+00 0.0
-1.812700e-01 0.000000e+00 0.0
-1.837850e-01 0.000000e+00 0.0
-1.833894e-01 0.000000e+00 0.0
-1.808713e-01 0.000000e+00 0.0
-1.767791e-01 0.000000e+00 0.0
-1.716752e-01 0.000000e+00 0.0
-1.660284e-01 0.000000e+00 0.0
-1.601930e-01 0.000000e+00 0.0
-1.544114e-01 0.000000e+00 0.0
-1.488248e-01 0.000000e+00 0.0
-1.435244e-01 0.000000e+00 0.0
-1.385553e-01 0.000000e+00 0.0
-1.339353e-01 0.000000e+00 0.0
-1.296644e-01 0.000000e+00 0.0
-1.257321e-01 0.000000e+00 0.0
-1.221221e-01 0.000000e+00 0.0
-1.188147e-01 0.000000e+00 0.0
-1.157889e-01 0.000000e+00 0.0
-1.130236e-01 0.000000e+00 0.0
-1.104987e-01 0.000000e+00 0.0
-1.081952e-01 0.000000e+00 0.0
-1.060951e-01 0.000000e+00 0.0
-1.041815e-01 0.000000e+00 0.0
-1.024380e-01 0.000000e+00 0.0
-1.008490e-01 0.000000e+00 0.0
-9.940048e-02 0.000000e+00 0.0
-9.807944e-02 0.000000e+00 0.0
-9.687430e-02 0.000000e+00 0.0
-9.577428e-02 0.000000e+00 0.0
-9.476934e-02 0.000000e+00 0.0
-9.385022e-02 0.000000e+00 0.0
-9.300851e-02 0.000000e+00 0.0
-9.223669e-02 0.000000e+00 0.0
-9.152797e-02 0.000000e+00 0.0
-9.087623e-02 0.000000e+00 0.0
-9.027603e-02 0.000000e+00 0.0
-8.972259e-02 0.000000e+00 0.0
-8.921174e-02 0.000000e+00 0.0
-8.873986e-02 0.000000e+00 0.0
-8.830375e-02 0.000000e+00 0.0
-8.790065e-02 0.000000e+00 0.0
-8.752831e-02 0.000000e+00 0.0
-8.718492e-02 0.000000e+00 0.0
-8.686916e-02 0.000000e+00 0.0
-8.658013e-02 0.000000e+00 0.0
-8.631734e-02 0.000000e+00 0.0
-8.608071e-02 0.000000e+00 0.0
-8.587058e-02 0.000000e+00 0.0
-8.568773e-02 0.000000e+00 0.0
-8.553340e-02 0.000000e+00 0.0
-8.540932e-02 0.000000e+00 0.0
-8.531775e-02 0.000000e+00 0.0
-8.526150e-02 0.000000e+00 0.0
-8.524405e-02 0.000000e+00 0.0
-8.526952e-02 0.000000e+00 0.0
-8.533705e-02 0.000000e+00 0.0
-8.544124e-02 0.000000e+00 0.0
-8.557399e-02 0.000000e+00 0.0
-8.572470e-02 0.000000e+00 0.0
-8.587080e-02 0.000000e+00 0.0
-8.596692e-02 0.000000e+00 0.0
-8.596692e-02 0.000000e+00 0.0
0.000000e+00 0.000000e+00 0.0
0.000000e+00 0.000000e+00 0.0
0.000000e+00 0.000000e+00 0.0
0.000000e+00 0.000000e+00 0.0
0.000000e+00 0.000000e+00 0.0
0.000000e+00 0.000000e+00 0.0
0.000000e+00 0.000000e+00 0.0
0.000000e+00 0.000000e+00 0.0
0.000000e+00 0.000000e+00 0.0
0.000000e+00 0.000000e+00 0.0
0.000000e+00 0.000000e+00 0.0
0.000000e+00 -5.272006e-04 0.0
-5.103062e-04 5.330185e-04 0.0
-4.878433e-03 4.377828e-03 0.0
-1.162854e-02 6.757084e-03 0.0
-1.956918e-02 7.947039e-03 0.0
-2.831013e-02 8.747550e-03 0.0
-3.793895e-02 9.636196e-03 0.0
-4.873846e-02 1.080777e-02 0.0
-6.105526e-02 1.232597e-02 0.0
-7.523570e-02 1.418988e-02 0.0
-9.155298e-02 1.632561e-02 0.0
-1.100989e-01 1.855338e-02 0.0
-1.306186e-01 2.052616e-02 0.0
-1.523268e-01 2.171420e-02 0.0
-1.736792e-01 2.135826e-02 0.0
-1.920340e-01 1.836138e-02 0.0
-2.039691e-01 1.194204e-02 0.0
-2.055735e-01 1.611621e-03 0.0
-1.936845e-01 -1.188228e-02 0.0
-1.672958e-01 -2.638430e-02 0.0
-1.278462e-01 -3.944450e-02 0.0
-7.927747e-02 -4.856471e-02 0.0
-2.441361e-02 -5.485905e-02 0.0
3.036720e-02 -5.477532e-02 0.0
7.755921e-02 -4.718568e-02 0.0
1.150351e-01 -3.746844e-02 0.0
1.429213e-01 -2.787755e-02 0.0
1.622947e-01 -1.936392e-02 0.0
1.745844e-01 -1.228023e-02 0.0
1.812789e-01 -6.685934e-03 0.0
1.837909e-01 -2.504282e-03 0.0
1.833934e-01 4.048042e-04 0.0
1.808746e-01 2.526829e-03 0.0
1.767822e-01 4.101393e-03 0.0
1.716780e-01 5.113931e-03 0.0
1.660304e-01 5.656965e-03 0.0
1.601940e-01 5.845005e-03 0.0
1.544116e-01 5.790265e-03 0.0
1.488248e-01 5.594472e-03 0.0
1.435246e-01 5.308067e-03 0.0
1.385555e-01 4.976862e-03 0.0
1.339355e-01 4.627745e-03 0.0
1.296649e-01 4.278595e-03 0.0
1.257332e-01 3.940225e-03 0.0
1.221237e-01 3.618575e-03 0.0
1.188162e-01 3.316328e-03 0.0
1.157897e-01 3.034350e-03 0.0
1.130237e-01 2.772798e-03 0.0
1.104989e-01 2.531576e-03 0.0
1.081962e-01 2.310215e-03 0.0
1.060973e-01 2.107649e-03 0.0
1.041843e-01 1.922327e-03 0.0
1.024404e-01 1.752683e-03 0.0
1.008507e-01 1.597557e-03 0.0
9.940169e-02 1.456227e-03 0.0
9.808078e-02 1.328064e-03 0.0
9.687615e-02 1.212195e-03 0.0
9.577663e-02 1.107485e-03 0.0
9.477196e-02 1.012785e-03 0.0
9.385296e-02 9.271375e-04 0.0
9.301135e-02 8.497600e-04 0.0
9.223963e-02 7.798945e-04 0.0
9.153093e-02 7.167593e-04 0.0
9.087917e-02 6.596306e-04 0.0
9.027900e-02 6.079047e-04 0.0
8.972573e-02 5.610488e-04 0.0
8.921514e-02 5.185073e-04 0.0
8.874348e-02 4.796832e-04 0.0
8.830749e-02 4.440006e-04 0.0
8.790445e-02 4.109591e-04 0.0
8.753218e-02 3.801236e-04 0.0
8.718891e-02 3.510831e-04 0.0
8.687333e-02 3.234232e-04 0.0
8.658451e-02 2.967229e-04 0.0
8.632195e-02 2.705536e-04 0.0
8.608553e-02 2.444731e-04 0.0
8.587557e-02 2.180263e-04 0.0
8.569285e-02 1.907507e-04 0.0
8.553864e-02 1.621851e-04 0.0
8.541470e-02 1.318631e-04 0.0
8.532327e-02 9.929865e-05 0.0
8.526717e-02 6.394344e-05 0.0
8.524990e-02 2.510109e-05 0.0
8.527553e-02 -1.781664e-05 0.0
8.534322e-02 -5.986949e-05 0.0
8.544751e-02 -9.647610e-05 0.0
8.558033e-02 -1.250254e-04 0.0
8.573106e-02 -1.429739e-04 0.0
8.587716e-02 -1.383579e-04 0.0
8.597323e-02 -8.841056e-05 0.0
8.596692e-02 1.396692e-05 0.0
0.000000e+00 1.410758e-05 0.0
0.000000e+00 0.000000e+00 0.0
0.000000e+00 0.000000e+00 0.0
0.000000e+00 0.000000e+00 0.0
0.000000e+00 0.000000e+00 0.0
0.000000e+00 0.000000e+00 0.0
0.000000e+00 0.000000e+00 0.0
0.000000e+00 0.000000e+00 0.0
0.000000e+00 0.000000e+00 0.0
0.000000e+00 0.000000e+00 0.0
0.000000e+00 0.000000e+00 0.0
0.000000e+00 -6.321740e-03 0.0
-5.780943e-03 6.324998e-03 0.0
-1.934781e-02 1.794394e-02 0.0
-3.716181e-02 2.457115e-02 0.0
-5.708013e-02 2.786656e-02 0.0
-7.828489e-02 2.995433e-02 0.0
-1.006855e-01 3.203962e-02 0.0
-1.244186e-01 3.454392e-02 0.0
-1.495698e-01 3.748022e-02 0.0
-1.760038e-01 4.062566e-02 0.0
-2.032117e-01 4.353487e-02 0.0
-2.301976e-01 4.554044e-02 0.0
-2.553110e-01 4.564046e-02 0.0
-2.761492e-01 4.255390e-02 0.0
-2.896074e-01 3.481904e-02 0.0
-2.919410e-01 2.069774e-02 0.0
-2.785764e-01 -1.420377e-03 0.0
-2.465520e-01 -3.041072e-02 0.0
-1.969193e-01 -6.151581e-02 0.0
-1.325441e-01 -9.075783e-02 0.0
-5.594127e-02 -1.160468e-01 0.0
2.789616e-02 -1.324012e-01 0.0
1.084974e-01 -1.354586e-01 0.0
1.801011e-01 -1.263770e-01 0.0
2.427335e-01 -1.098155e-01 0.0
2.955686e-01 -9.030059e-02 0.0
3.384788e-01 -7.078456e-02 0.0
3.719769e-01 -5.285939e-02 0.0
3.969509e-01 -3.725234e-02 0.0
4.144645e-01 -2.419832e-02 0.0
4.256257e-01 -1.366416e-02 0.0
4.314960e-01 -5.463522e-03 0.0
4.333334e-01 6.925275e-04 0.0
4.320331e-01 5.404975e-03 0.0
4.282674e-01 8.882340e-03 0.0
4.226273e-01 1.129892e-02 0.0
4.156046e-01 1.286909e-02 0.0
4.076114e-01 1.378512e-02 0.0
3.990239e-01 1.418400e-02 0.0
3.901522e-01 1.418185e-02 0.0
3.812145e-01 1.391660e-02 0.0
3.723767e-01 1.346760e-02 0.0
3.637576e-01 1.290019e-02 0.0
3.554396e-01 1.226108e-02 0.0
3.474768e-01 1.158387e-02 0.0
3.399025e-01 1.089233e-02 0.0
3.327346e-01 1.020325e-02 0.0
3.259799e-01 9.528611e-03 0.0
3.196368e-01 8.876829e-03 0.0
3.136967e-01 8.253395e-03 0.0
3.081461e-01 7.661429e-03 0.0
3.029685e-01 7.102440e-03 0.0
2.981456e-01 6.577137e-03 0.0
2.936584e-01 6.085885e-03 0.0
2.894874e-01 5.628672e-03 0.0
2.856127e-01 5.204867e-03 0.0
2.820142e-01 4.813174e-03 0.0
2.786722e-01 4.451900e-03 0.0
2.755678e-01 4.119290e-03 0.0
2.726835e-01 3.813646e-03 0.0
2.700022e-01 3.533227e-03 0.0
2.675080e-01 3.276182e-03 0.0
2.651860e-01 3.040643e-03 0.0
2.630227e-01 2.824847e-03 0.0
2.610054e-01 2.627139e-03 0.0
2.591227e-01 2.445874e-03 0.0
2.573641e-01 2.279369e-03 0.0
2.557199e-01 2.125964e-03 0.0
2.541819e-01 1.984112e-03 0.0
2.527425e-01 1.852374e-03 0.0
2.513952e-01 1.729372e-03 0.0
2.501346e-01 1.613738e-03 0.0
2.489560e-01 1.504108e-03 0.0
2.478558e-01 1.399129e-03 0.0
2.468310e-01 1.297452e-03 0.0
2.458800e-01 1.197710e-03 0.0
2.450016e-01 1.098502e-03 0.0
2.441960e-01 9.983865e-04 0.0
2.434643e-01 8.958912e-04 0.0
2.428087e-01 7.895195e-04 0.0
2.422322e-01 6.777670e-04 0.0
2.417391e-01 5.591662e-04 0.0
2.413338e-01 4.324300e-04 0.0
2.410209e-01 2.971187e-04 0.0
2.408070e-01 1.561042e-04 0.0
2.406985e-01 1.413609e-05 0.0
2.406918e-01 -1.162399e-04 0.0
2.407617e-01 -2.108483e-04 0.0
2.408649e-01 -2.395882e-04 0.0
2.409449e-01 -1.664430e-04 0.0
2.409253e-01 3.565518e-05 0.0
0.000000e+00 3.610367e-05 0.0
0.000000e+00 0.000000e+00 0.0
0.000000e+00 0.000000e+00 0.0
0.000000e+00 0.000000e+00 0.0
0.000000e+00 0.000000e+00 0.0
0.000000e+00 0.000000e+00 0.0
0.000000e+00 0.000000e+00 0.0
0.000000e+00 0.000000e+00 0.0
0.000000e+00 0.000000e+00 0.0
0.000000e+00 0.000000e+00 0.0
0.000000e+00 0.000000e+00 0.0
0.000000e+00 -1.690033e-02 0.0
-1.056806e-02 1.690134e-02 0.0
-3.123084e-02 3.860638e-02 0.0
-5.583958e-02 4.918110e-02 0.0
-8.145752e-02 5.348642e-02 0.0
-1.069842e-01 5.548359e-02 0.0
-1.320604e-01 5.711847e-02 0.0
-1.564609e-01 5.894706e-02 0.0
-1.798443e-01 6.086590e-02 0.0
-2.016239e-01 6.240659e-02 0.0
-2.208261e-01 6.273838e-02 0.0
-2.361256e-01 6.084125e-02 0.0
-2.457260e-01 5.524241e-02 0.0
-2.472145e-01 4.404488e-02 0.0
-2.368356e-01 2.444290e-02 0.0
-2.082550e-01 -7.880731e-03 0.0
-1.610161e-01 -4.865689e-02 0.0
-9.641625e-02 -9.501013e-02 0.0
-1.756535e-02 -1.403659e-01 0.0
6.897662e-02 -1.772987e-01 0.0
1.536018e-01 -2.006718e-01 0.0
2.315690e-01 -2.103665e-01 0.0
3.005393e-01 -2.044270e-01 0.0
3.608267e-01 -1.866620e-01 0.0
4.133691e-01 -1.623552e-01 0.0
4.586129e-01 -1.355414e-01 0.0
4.967994e-01 -1.089681e-01 0.0
5.282251e-01 -8.428294e-02 0.0
5.533109e-01 -6.233674e-02 0.0
5.725791e-01 -4.346536e-02 0.0
5.866108e-01 -2.769420e-02 0.0
5.960171e-01 -1.486707e-02 0.0
6.014372e-01 -4.724282e-03 0.0
6.037655e-01 3.079582e-03 0.0
6.035331e-01 9.116793e-03 0.0
6.011978e-01 1.363572e-02 0.0
5.971570e-01 1.691134e-02 0.0
5.917552e-01 1.918892e-02 0.0
5.852694e-01 2.067198e-02 0.0
5.779101e-01 2.154323e-02 0.0
5.699228e-01 2.190582e-02 0.0
5.615293e-01 2.186335e-02 0.0
5.529036e-01 2.152866e-02 0.0
5.441868e-01 2.098066e-02 0.0
5.354914e-01 2.028133e-02 0.0
5.269065e-01 1.947841e-02 0.0
5.185019e-01 1.860873e-02 0.0
5.103314e-01 1.770082e-02 0.0
5.024344e-01 1.677662e-02 0.0
4.948385e-01 1.585272e-02 0.0
4.875613e-01 1.494148e-02 0.0
4.806132e-01 1.405232e-02 0.0
4.739988e-01 1.319257e-02 0.0
4.677181e-01 1.236791e-02 0.0
4.617664e-01 1.158232e-02 0.0
4.561357e-01 1.083806e-02 0.0
4.508153e-01 1.013604e-02 0.0
4.457930e-01 9.476333e-03 0.0
4.410559e-01 8.858505e-03 0.0
4.365901e-01 8.281645e-03 0.0
4.323812e-01 7.744306e-03 0.0
4.284147e-01 7.244637e-03 0.0
4.246766e-01 6.780620e-03 0.0
4.211531e-01 6.350192e-03 0.0
4.178312e-01 5.951177e-03 0.0
4.146981e-01 5.581211e-03 0.0
4.117418e-01 5.237816e-03 0.0
4.089514e-01 4.918547e-03 0.0
4.063164e-01 4.621060e-03 0.0
4.038277e-01 4.343071e-03 0.0
4.014768e-01 4.082283e-03 0.0
3.992563e-01 3.836365e-03 0.0
3.971595e-01 3.602973e-03 0.0
3.951811e-01 3.379761e-03 0.0
3.933163e-01 3.164368e-03 0.0
3.915618e-01 2.954383e-03 0.0
3.899151e-01 2.747312e-03 0.0
3.883749e-01 2.540567e-03 0.0
3.869413e-01 2.331474e-03 0.0
3.856156e-01 2.117269e-03 0.0
3.844003e-01 1.895130e-03 0.0
3.832993e-01 1.662288e-03 0.0
3.823175e-01 1.416289e-03 0.0
3.814610e-01 1.155743e-03 0.0
3.807372e-01 8.819058e-04 0.0
3.801535e-01 5.999204e-04 0.0
3.797157e-01 3.236685e-04 0.0
3.794255e-01 8.139750e-05 0.0
3.792689e-01 -8.103339e-05 0.0
3.792075e-01 -1.030278e-04 0.0
3.791783e-01 6.689298e-05 0.0
0.000000e+00 6.780775e-05 0.0
0.000000e+00 0.000000e+00 0.0
0.000000e+00 0.000000e+00 0.0
0.000000e+00 0.000000e+00 0.0
0.000000e+00 0.000000e+00 0.0
0.000000e+00 0.000000e+00 0.0
0.000000e+00 0.000000e+00 0.0
0.000000e+00 0.000000e+00 0.0
0.000000e+00 0.000000e+00 0.0
0.000000e+00 0.000000e+00 0.0
0.000000e+00 0.000000e+00 0.0
0.000000e+00 -3.000246e-02 0.0
-1.309403e-02 3.000221e-02 0.0
-3.656541e-02 6.207834e-02 0.0
-6.218734e-02 7.480479e-02 0.0
-8.660499e-02 7.790636e-02 0.0
-1.087361e-01 7.761774e-02 0.0
-1.281662e-01 7.655165e-02 0.0
-1.445577e-01 7.534145e-02 0.0
-1.574825e-01 7.379284e-02 0.0
-1.663877e-01 7.131352e-02 0.0
-1.703221e-01 6.667429e-02 0.0
-1.679180e-01 5.843858e-02 0.0
-1.567496e-01 4.407584e-02 0.0
-1.334489e-01 2.074673e-02 0.0
-9.012521e-02 -1.887821e-02 0.0
-2.760680e-02 -7.039690e-02 0.0
5.065335e-02 -1.269153e-01 0.0
1.353788e-01 -1.797354e-01 0.0
2.196657e-01 -2.246517e-01 0.0
2.989652e-01 -2.565975e-01 0.0
3.708108e-01 -2.725159e-01 0.0
4.325847e-01 -2.721385e-01 0.0
4.846235e-01 -2.564637e-01 0.0
5.291422e-01 -2.311783e-01 0.0
5.675979e-01 -2.008080e-01 0.0
6.008256e-01 -1.687661e-01 0.0
6.292898e-01 -1.374298e-01 0.0
6.532958e-01 -1.082873e-01 0.0
6.731104e-01 -8.215033e-02 0.0
6.890109e-01 -5.936439e-02 0.0
7.012973e-01 -3.997830e-02 0.0
7.102956e-01 -2.386214e-02 0.0
7.163595e-01 -1.078495e-02 0.0
7.199024e-01 -4.609352e-04 0.0
7.214022e-01 7.618517e-03 0.0
7.211878e-01 1.385142e-02 0.0
7.195215e-01 1.857944e-02 0.0
7.166258e-01 2.208681e-02 0.0
7.126919e-01 2.460811e-02 0.0
7.078982e-01 2.633879e-02 0.0
7.023785e-01 2.742761e-02 0.0
6.962401e-01 2.800427e-02 0.0
6.896238e-01 2.814784e-02 0.0
6.826566e-01 2.795034e-02 0.0
6.754468e-01 2.749266e-02 0.0
6.680874e-01 2.683858e-02 0.0
6.606585e-01 2.603879e-02 0.0
6.532280e-01 2.513381e-02 0.0
6.458518e-01 2.415614e-02 0.0
6.385760e-01 2.313179e-02 0.0
6.314378e-01 2.208184e-02 0.0
6.244676e-01 2.102368e-02 0.0
6.176895e-01 1.997174e-02 0.0
6.111215e-01 1.893766e-02 0.0
6.047759e-01 1.793030e-02 0.0
5.986605e-01 1.695605e-02 0.0
5.927793e-01 1.601949e-02 0.0
5.871338e-01 1.512390e-02 0.0
5.817229e-01 1.427148e-02 0.0
5.765435e-01 1.346333e-02 0.0
5.715903e-01 1.269951e-02 0.0
5.668574e-01 1.197941e-02 0.0
5.623378e-01 1.130200e-02 0.0
5.580241e-01 1.066590e-02 0.0
5.539083e-01 1.006926e-02 0.0
5.499820e-01 9.509798e-03 0.0
5.462369e-01 8.985026e-03 0.0
5.426651e-01 8.492413e-03 0.0
5.392587e-01 8.029397e-03 0.0
5.360104e-01 7.593321e-03 0.0
5.329134e-01 7.181394e-03 0.0
5.299612e-01 6.790713e-03 0.0
5.271480e-01 6.418298e-03 0.0
5.244688e-01 6.061109e-03 0.0
5.219194e-01 5.716024e-03 0.0
5.194960e-01 5.379800e-03 0.0
5.171964e-01 5.049031e-03 0.0
5.150188e-01 4.720138e-03 0.0
5.129629e-01 4.389350e-03 0.0
5.110296e-01 4.052684e-03 0.0
5.092208e-01 3.705969e-03 0.0
5.075403e-01 3.344948e-03 0.0
5.059931e-01 2.965551e-03 0.0
5.045865e-01 2.564501e-03 0.0
5.033300e-01 2.140490e-03 0.0
5.022361e-01 1.695882e-03 0.0
5.013214e-01 1.240520e-03 0.0
5.006073e-01 7.975514e-04 0.0
5.001168e-01 4.114138e-04 0.0
4.998591e-01 1.567110e-04 0.0
4.998263e-01 1.017455e-04 0.0
0.000000e+00 1.031844e-04 0.0
0.000000e+00 0.000000e+00 0.0
0.000000e+00 0.000000e+00 0.0
0.000000e+00 0.000000e+00 0.0
0.000000e+00 0.000000e+00 0.0
0.000000e+00 0.000000e+00 0.0
0.000000e+00 0.000000e+00 0.0
0.000000e+00 0.000000e+00 0.0
0.000000e+00 0.000000e+00 0.0
0.000000e+00 0.000000e+00 0.0
0.000000e+00 0.000000e+00 0.0
0.000000e+00 -4.349220e-02 0.0
-1.348315e-02 4.349174e-02 0.0
-3.549889e-02 8.409585e-02 0.0
-5.689826e-02 9.620672e-02 0.0
-7.474520e-02 9.575635e-02 0.0
-8.836713e-02 9.124272e-02 0.0
-9.752660e-02 8.571379e-02 0.0
-1.019663e-01 7.978374e-02 0.0
-1.011976e-01 7.302613e-02 0.0
-9.473825e-02 6.485566e-02 0.0
-8.091987e-02 5.285762e-02 0.0
-5.761346e-02 3.513381e-02 0.0
-1.789737e-02 4.362129e-03 0.0
4.313372e-02 -4.028158e-02 0.0
1.182746e-01 -9.401664e-02 0.0
2.011246e-01 -1.532447e-01 0.0
2.855711e-01 -2.113608e-01 0.0
3.671360e-01 -2.612996e-01 0.0
4.412770e-01 -2.987916e-01 0.0
5.055490e-01 -3.208685e-01 0.0
5.592307e-01 -3.261960e-01 0.0
6.018363e-01 -3.147422e-01 0.0
6.366977e-01 -2.913229e-01 0.0
6.659984e-01 -2.604764e-01 0.0
6.911233e-01 -2.259300e-01 0.0
7.128868e-01 -1.905269e-01 0.0
7.317427e-01 -1.562837e-01 0.0
7.479392e-01 -1.244825e-01 0.0
7.616287e-01 -9.583877e-02 0.0
7.729334e-01 -7.066720e-02 0.0
7.819795e-01 -4.902147e-02 0.0
7.889126e-01 -3.079193e-02 0.0
7.938936e-01 -1.576324e-02 0.0
7.971027e-01 -3.668194e-03 0.0
7.988559e-01 5.866546e-03 0.0
7.993663e-01 1.334254e-02 0.0
7.988002e-01 1.914756e-02 0.0
7.972977e-01 2.359166e-02 0.0
7.949821e-01 2.692570e-02 0.0
7.919681e-01 2.935472e-02 0.0
7.883535e-01 3.104440e-02 0.0
7.842274e-01 3.213322e-02 0.0
7.796474e-01 3.273057e-02 0.0
7.746815e-01 3.291821e-02 0.0
7.694051e-01 3.277005e-02 0.0
7.638864e-01 3.235808e-02 0.0
7.581873e-01 3.173970e-02 0.0
7.523627e-01 3.096152e-02 0.0
7.464606e-01 3.006178e-02 0.0
7.405228e-01 2.907231e-02 0.0
7.345860e-01 2.802007e-02 0.0
7.286826e-01 2.692802e-02 0.0
7.228401e-01 2.581556e-02 0.0
7.170815e-01 2.469857e-02 0.0
7.114248e-01 2.358960e-02 0.0
7.058848e-01 2.249848e-02 0.0
7.004733e-01 2.143305e-02 0.0
6.951997e-01 2.039953e-02 0.0
6.900708e-01 1.940257e-02 0.0
6.850911e-01 1.844521e-02 0.0
6.802633e-01 1.752928e-02 0.0
6.755886e-01 1.665577e-02 0.0
6.710675e-01 1.582503e-02 0.0
6.666990e-01 1.503664e-02 0.0
6.624811e-01 1.428949e-02 0.0
6.584112e-01 1.358188e-02 0.0
6.544864e-01 1.291186e-02 0.0
6.507035e-01 1.227730e-02 0.0
6.470590e-01 1.167585e-02 0.0
6.435495e-01 1.110488e-02 0.0
6.401714e-01 1.056155e-02 0.0
6.369215e-01 1.004280e-02 0.0
6.337966e-01 9.545412e-03 0.0
6.307938e-01 9.066028e-03 0.0
6.279109e-01 8.601110e-03 0.0
6.251458e-01 8.146927e-03 0.0
6.224974e-01 7.699482e-03 0.0
6.199650e-01 7.254491e-03 0.0
6.175491e-01 6.807340e-03 0.0
6.152509e-01 6.353045e-03 0.0
6.130727e-01 5.886241e-03 0.0
6.110185e-01 5.401250e-03 0.0
6.090940e-01 4.892224e-03 0.0
6.073071e-01 4.353506e-03 0.0
6.056693e-01 3.780358e-03 0.0
6.041971e-01 3.170182e-03 0.0
6.029148e-01 2.524930e-03 0.0
6.018592e-01 1.855278e-03 0.0
6.010849e-01 1.187682e-03 0.0
6.006660e-01 5.776088e-04 0.0
6.006346e-01 1.351759e-04 0.0
0.000000e+00 1.371196e-04 0.0
0.000000e+00 0.000000e+00 0.0
0.000000e+00 0.000000e+00 0.0
0.000000e+00 0.000000e+00 0.0
0.000000e+00 0.000000e+00 0.0
0.000000e+00 0.000000e+00 0.0
0.000000e+00 0.000000e+00 0.0
0.000000e+00 0.000000e+00 0.0
0.000000e+00 0.000000e+00 0.0
0.000000e+00 0.000000e+00 0.0
0.000000e+00 0.000000e+00 0.0
0.000000e+00 -5.664531e-02 0.0
-1.314677e-02 5.664543e-02 0.0
-3.056371e-02 1.015149e-01 0.0
-4.355757e-02 1.092031e-01 0.0
-5.081364e-02 1.030154e-01 0.0
-5.233234e-02 9.276445e-02 0.0
-4.818157e-02 8.156594e-02 0.0
-3.814966e-02 6.975422e-02 0.0
-2.085063e-02 5.572890e-02 0.0
5.130636e-03 3.887594e-02 0.0
4.428073e-02 1.370932e-02 0.0
1.019425e-01 -2.252635e-02 0.0
1.746677e-01 -6.836063e-02 0.0
2.569186e-01 -1.225296e-01 0.0
3.435930e-01 -1.806887e-01 0.0
4.285232e-01 -2.381733e-01 0.0
5.066662e-01 -2.895024e-01 0.0
5.749896e-01 -3.296221e-01 0.0
6.316436e-01 -3.554449e-01 0.0
6.762437e-01 -3.654669e-01 0.0
7.092332e-01 -3.591837e-01 0.0
7.338241e-01 -3.393312e-01 0.0
7.528122e-01 -3.103086e-01 0.0
7.681788e-01 -2.758403e-01 0.0
7.811844e-01 -2.389327e-01 0.0
7.925536e-01 -2.018938e-01 0.0
8.026671e-01 -1.663956e-01 0.0
8.116758e-01 -1.334901e-01 0.0
8.196072e-01 -1.037688e-01 0.0
8.264378e-01 -7.749542e-02 0.0
8.321420e-01 -5.472248e-02 0.0
8.367193e-01 -3.536615e-02 0.0
8.401810e-01 -1.922269e-02 0.0
8.425623e-01 -6.048124e-03 0.0
8.439842e-01 4.446019e-03 0.0
8.445628e-01 1.276576e-02 0.0
8.443901e-01 1.932249e-02 0.0
8.435480e-01 2.443595e-02 0.0
8.421134e-01 2.836228e-02 0.0
8.401595e-01 3.131056e-02 0.0
8.377538e-01 3.345266e-02 0.0
8.349582e-01 3.493170e-02 0.0
8.318255e-01 3.586572e-02 0.0
8.283933e-01 3.635178e-02 0.0
8.246976e-01 3.646645e-02 0.0
8.207806e-01 3.627637e-02 0.0
8.166822e-01 3.584071e-02 0.0
8.124390e-01 3.520819e-02 0.0
8.080842e-01 3.441977e-02 0.0
8.036478e-01 3.351074e-02 0.0
7.991571e-01 3.251177e-02 0.0
7.946369e-01 3.144918e-02 0.0
7.901092e-01 3.034525e-02 0.0
7.855921e-01 2.921826e-02 0.0
7.811011e-01 2.808307e-02 0.0
7.766500e-01 2.695182e-02 0.0
7.722504e-01 2.583462e-02 0.0
7.679125e-01 2.473958e-02 0.0
7.636445e-01 2.367288e-02 0.0
7.594527e-01 2.263895e-02 0.0
7.553428e-01 2.164097e-02 0.0
7.513191e-01 2.068121e-02 0.0
7.473853e-01 1.976102e-02 0.0
7.435435e-01 1.888073e-02 0.0
7.397954e-01 1.803987e-02 0.0
7.361420e-01 1.723740e-02 0.0
7.325838e-01 1.647198e-02 0.0
7.291212e-01 1.574191e-02 0.0
7.257540e-01 1.504513e-02 0.0
7.224817e-01 1.437921e-02 0.0
7.193040e-01 1.374141e-02 0.0
7.162202e-01 1.312874e-02 0.0
7.132298e-01 1.253797e-02 0.0
7.103325e-01 1.196560e-02 0.0
7.075277e-01 1.140794e-02 0.0
7.048156e-01 1.086105e-02 0.0
7.021965e-01 1.032058e-02 0.0
6.996713e-01 9.781773e-03 0.0
6.972413e-01 9.239411e-03 0.0
6.949087e-01 8.687743e-03 0.0
6.926767e-01 8.120442e-03 0.0
6.905495e-01 7.530571e-03 0.0
6.885333e-01 6.910561e-03 0.0
6.866366e-01 6.252278e-03 0.0
6.848719e-01 5.547207e-03 0.0
6.832574e-01 4.786820e-03 0.0
6.818211e-01 3.963311e-03 0.0
6.806074e-01 3.071095e-03 0.0
6.796868e-01 2.110255e-03 0.0
6.791661e-01 1.100347e-03 0.0
6.791402e-01 1.632398e-04 0.0
0.000000e+00 1.656100e-04 0.0
0.000000e+00 0.000000e+00 0.0
0.000000e+00 0.000000e+00 0.0
0.000000e+00 0.000000e+00 0.0
0.000000e+00 0.000000e+00 0.0
0.000000e+00 0.000000e+00 0.0
0.000000e+00 0.000000e+00 0.0
0.000000e+00 0.000000e+00 0.0
0.000000e+00 0.000000e+00 0.0
0.000000e+00 0.000000e+00 0.0
0.000000e+00 0.000000e+00 0.0
0.000000e+00 -7.030878e-02 0.0
-1.365659e-02 7.030953e-02 0.0
-2.297537e-02 1.108366e-01 0.0
-2.244793e-02 1.086790e-01 0.0
-1.409246e-02 9.466351e-02 0.0
1.457668e-03 7.721740e-02 0.0
2.433460e-02 5.869181e-02 0.0
5.478595e-02 3.930512e-02 0.0
9.635572e-02 1.416093e-02 0.0
1.539349e-01 -1.870158e-02 0.0
2.257141e-01 -5.806830e-02 0.0
3.074109e-01 -1.042213e-01 0.0
3.947577e-01 -1.557048e-01 0.0
4.823185e-01 -2.100876e-01 0.0
5.651777e-01 -2.635458e-01 0.0
6.389410e-01 -3.119352e-01 0.0
7.006216e-01 -3.511818e-01 0.0
7.490229e-01 -3.780228e-01 0.0
7.842834e-01 -3.907041e-01 0.0
8.074632e-01 -3.886449e-01 0.0
8.212522e-01 -3.729709e-01 0.0
8.291445e-01 -3.472213e-01 0.0
8.336622e-01 -3.148239e-01 0.0
8.365154e-01 -2.786907e-01 0.0
8.387474e-01 -2.411622e-01 0.0
8.409205e-01 -2.040651e-01 0.0
8.433091e-01 -1.687829e-01 0.0
8.459460e-01 -1.361258e-01 0.0
8.487348e-01 -1.065556e-01 0.0
8.515213e-01 -8.027908e-02 0.0
8.541492e-01 -5.734716e-02 0.0
8.564998e-01 -3.771412e-02 0.0
8.584546e-01 -2.117568e-02 0.0
8.599275e-01 -7.519760e-03 0.0
8.608820e-01 3.493094e-03 0.0
8.613281e-01 1.232171e-02 0.0
8.612878e-01 1.936504e-02 0.0
8.607937e-01 2.493208e-02 0.0
8.598858e-01 2.927207e-02 0.0
8.586080e-01 3.259064e-02 0.0
8.570041e-01 3.505929e-02 0.0
8.551164e-01 3.682219e-02 0.0
8.529833e-01 3.800067e-02 0.0
8.506387e-01 3.869727e-02 0.0
8.481078e-01 3.899831e-02 0.0
8.454126e-01 3.897348e-02 0.0
8.425771e-01 3.867939e-02 0.0
8.396241e-01 3.816463e-02 0.0
8.365750e-01 3.747145e-02 0.0
8.334495e-01 3.663758e-02 0.0
8.302659e-01 3.569633e-02 0.0
8.270406e-01 3.467593e-02 0.0
8.237880e-01 3.360023e-02 0.0
8.205200e-01 3.248894e-02 0.0
8.172469e-01 3.135841e-02 0.0
8.139784e-01 3.022232e-02 0.0
8.107231e-01 2.909211e-02 0.0
8.074880e-01 2.797688e-02 0.0
8.042794e-01 2.688361e-02 0.0
8.011026e-01 2.581761e-02 0.0
7.979623e-01 2.478294e-02 0.0
7.948629e-01 2.378261e-02 0.0
7.918078e-01 2.281844e-02 0.0
7.887997e-01 2.189119e-02 0.0
7.858409e-01 2.100081e-02 0.0
7.829335e-01 2.014676e-02 0.0
7.800794e-01 1.932809e-02 0.0
7.772800e-01 1.854339e-02 0.0
7.745364e-01 1.779075e-02 0.0
7.718498e-01 1.706791e-02 0.0
7.692211e-01 1.637224e-02 0.0
7.666512e-01 1.570081e-02 0.0
7.641410e-01 1.505041e-02 0.0
7.616913e-01 1.441748e-02 0.0
7.593030e-01 1.379824e-02 0.0
7.569773e-01 1.318873e-02 0.0
7.547156e-01 1.258435e-02 0.0
7.525194e-01 1.198000e-02 0.0
7.503910e-01 1.137000e-02 0.0
7.483328e-01 1.074804e-02 0.0
7.463484e-01 1.010702e-02 0.0
7.444422e-01 9.438939e-03 0.0
7.426202e-01 8.734712e-03 0.0
7.408907e-01 7.983901e-03 0.0
7.392656e-01 7.174375e-03 0.0
7.377628e-01 6.291759e-03 0.0
7.364098e-01 5.318458e-03 0.0
7.352508e-01 4.232252e-03 0.0
7.343579e-01 3.005215e-03 0.0
7.338446e-01 1.615713e-03 0.0
7.338265e-01 1.835448e-04 0.0
0.000000e+00 1.862255e-04 0.0
0.000000e+00 0.000000e+00 0.0
0.000000e+00 0.000000e+00 0.0
0.000000e+00 0.000000e+00 0.0
0.000000e+00 0.000000e+00 0.0
0.000000e+00 0.000000e+00 0.0
0.000000e+00 0.000000e+00 0.0
0.000000e+00 0.000000e+00 0.0
0.000000e+00 0.000000e+00 0.0
0.000000e+00 0.000000e+00 0.0
0.000000e+00 0.000000e+00 0.0
0.000000e+00 -8.404790e-02 0.0
-1.373195e-02 8.405002e-02 0.0
-5.758060e-03 1.028652e-01 0.0
1.864973e-02 8.427416e-02 0.0
5.174262e-02 6.157380e-02 0.0
9.238479e-02 3.657805e-02 0.0
1.432430e-01 7.836277e-03 0.0
2.073655e-01 -2.481524e-02 0.0
2.823006e-01 -6.077250e-02 0.0
3.646262e-01 -1.010256e-01 0.0
4.516075e-01 -1.450480e-01 0.0
5.393599e-01 -1.919718e-01 0.0
6.237320e-01 -2.400744e-01 0.0
7.005732e-01 -2.869261e-01 0.0
7.665036e-01 -3.294741e-01 0.0
8.191934e-01 -3.646236e-01 0.0
8.577028e-01 -3.896900e-01 0.0
8.825187e-01 -4.028376e-01 0.0
8.951414e-01 -4.033253e-01 0.0
8.979074e-01 -3.914089e-01 0.0
8.945448e-01 -3.696064e-01 0.0
8.878915e-01 -3.405659e-01 0.0
8.800216e-01 -3.069514e-01 0.0
8.722913e-01 -2.709578e-01 0.0
8.654753e-01 -2.343439e-01 0.0
8.599386e-01 -1.985268e-01 0.0
8.558403e-01 -1.646833e-01 0.0
8.530846e-01 -1.333686e-01 0.0
8.514723e-01 -1.049410e-01 0.0
8.507673e-01 -7.957111e-02 0.0
8.507190e-01 -5.729599e-02 0.0
8.510672e-01 -3.806004e-02 0.0
8.516064e-01 -2.171343e-02 0.0
8.521652e-01 -8.077196e-03 0.0
8.526059e-01 3.054272e-03 0.0
8.528378e-01 1.209198e-02 0.0
8.528189e-01 1.938608e-02 0.0
8.525368e-01 2.521609e-02 0.0
8.519978e-01 2.981310e-02 0.0
8.512191e-01 3.337188e-02 0.0
8.502231e-01 3.605802e-02 0.0
8.490346e-01 3.801305e-02 0.0
8.476783e-01 3.935832e-02 0.0
8.461784e-01 4.019811e-02 0.0
8.445561e-01 4.062195e-02 0.0
8.428266e-01 4.070558e-02 0.0
8.410029e-01 4.050643e-02 0.0
8.390987e-01 4.007185e-02 0.0
8.371270e-01 3.944511e-02 0.0
8.351003e-01 3.866536e-02 0.0
8.330305e-01 3.776731e-02 0.0
8.309279e-01 3.678058e-02 0.0
8.288006e-01 3.573004e-02 0.0
8.266556e-01 3.463642e-02 0.0
8.244989e-01 3.351715e-02 0.0
8.223364e-01 3.238694e-02 0.0
8.201728e-01 3.125786e-02 0.0
8.180125e-01 3.013948e-02 0.0
8.158588e-01 2.903924e-02 0.0
8.137151e-01 2.796297e-02 0.0
8.115847e-01 2.691525e-02 0.0
8.094702e-01 2.589934e-02 0.0
8.073738e-01 2.491721e-02 0.0
8.052974e-01 2.396983e-02 0.0
8.032428e-01 2.305743e-02 0.0
8.012117e-01 2.217977e-02 0.0
7.992058e-01 2.133603e-02 0.0
7.972263e-01 2.052490e-02 0.0
7.952746e-01 1.974456e-02 0.0
7.933518e-01 1.899279e-02 0.0
7.914592e-01 1.826703e-02 0.0
7.895979e-01 1.756438e-02 0.0
7.877689e-01 1.688158e-02 0.0
7.859734e-01 1.621504e-02 0.0
7.842129e-01 1.556084e-02 0.0
7.824883e-01 1.491525e-02 0.0
7.808014e-01 1.427331e-02 0.0
7.791539e-01 1.362965e-02 0.0
7.775478e-01 1.297829e-02 0.0
7.759855e-01 1.231247e-02 0.0
7.744701e-01 1.162453e-02 0.0
7.730056e-01 1.090564e-02 0.0
7.715969e-01 1.014546e-02 0.0
7.702513e-01 9.331669e-03 0.0
7.689788e-01 8.449095e-03 0.0
7.677942e-01 7.478417e-03 0.0
7.667210e-01 6.393790e-03 0.0
7.657965e-01 5.158991e-03 0.0
7.650812e-01 3.722513e-03 0.0
7.646710e-01 2.028169e-03 0.0
7.646616e-01 1.950374e-04 0.0
0.000000e+00 1.979129e-04 0.0
0.000000e+00 0.000000e+00 0.0
0.000000e+00 0.000000e+00 0.0
0.000000e+00 0.000000e+00 0.0
0.000000e+00 0.000000e+00 0.0
0.000000e+00 0.000000e+00 0.0
0.000000e+00 0.000000e+00 0.0
0.000000e+00 0.000000e+00 0.0
0.000000e+00 0.000000e+00 0.0
0.000000e+00 0.000000e+00 0.0
0.000000e+00 0.000000e+00 0.0
0.000000e+00 -7.892177e-02 0.0
5.134524e-03 7.892392e-02 0.0
5.409366e-02 5.390787e-02 0.0
1.179302e-01 2.044032e-02 0.0
1.915424e-01 -1.203557e-02 0.0
2.720345e-01 -4.391145e-02 0.0
3.562588e-01 -7.638592e-02 0.0
4.425269e-01 -1.110816e-01 0.0
5.296408e-01 -1.478850e-01 0.0
6.152882e-01 -1.866715e-01 0.0
6.969414e-01 -2.266996e-01 0.0
7.717823e-01 -2.668105e-01 0.0
8.370629e-01 -3.053523e-01 0.0
8.904374e-01 -3.402981e-01 0.0
9.303874e-01 -3.694223e-01 0.0