# vtk DataFile Version 3.0
Vector Field
ASCII
DATASET RECTILINEAR_GRID
DIMENSIONS 102 22 1
X_COORDINATES 102 double
0.000000 0.100000 0.200000 0.300000 0.400000 0.500000 0.600000 0.700000 0.800000 0.900000 1.000000 1.100000 1.200000 1.300000 1.400000 1.500000 1.600000 1.700000 1.800000 1.900000 2.000000 2.100000 2.200000 2.300000 2.400000 2.500000 2.600000 2.700000 2.800000 2.900000 3.000000 3.100000 3.200000 3.300000 3.400000 3.500000 3.600000 3.700000 3.800000 3.900000 4.000000 4.100000 4.200000 4.300000 4.400000 4.500000 4.600000 4.700000 4.800000 4.900000 5.000000 5.100000 5.200000 5.300000 5.400000 5.500000 5.600000 5.700000 5.800000 5.900000 6.000000 6.100000 6.200000 6.300000 6.400000 6.500000 6.600000 6.700000 6.800000 6.900000 7.000000 7.100000 7.200000 7.300000 7.400000 7.500000 7.600000 7.700000 7.800000 7.900000 8.000000 8.100000 8.200000 8.300000 8.400000 8.500000 8.600000 8.700000 8.800000 8.900000 9.000000 9.100000 9.200000 9.300000 9.400000 9.500000 9.600000 9.700000 9.800000 9.900000 10.000000 10.100000 
Y_COORDINATES 22 double
0.000000 0.100000 0.200000 0.300000 0.400000 0.500000 0.600000 0.700000 0.800000 0.900000 1.000000 1.100000 1.200000 1.300000 1.400000 1.500000 1.600000 1.700000 1.800000 1.900000 2.000000 2.100000 
Z_COORDINATES 1 double
0.0
POINT_DATA 2244
VECTORS Velocity double
0.000000e+00 0.000000e+00 0.0
-0.000000e+00 0.000000e+00 0.0
-0.000000e+00 0.000000e+00 0.0
-0.000000e+00 0.000000e+00 0.0
-0.000000e+00 0.000000e+00 0.0
-0.000000e+00 0.000000e+00 0.0
-0.000000e+00 0.000000e+00 0.0
-0.000000e+00 0.000000e+00 0.0
-0.000000e+00 0.000000e+00 0.0
-0.000000e+00 0.000000e+00 0.0
-0.000000e+00 0.000000e+00 0.0
5.147571e-04 0.000000e+00 0.0
4.900714e-03 0.000000e+00 0.0
1.168223e-02 0.000000e+00 0.0
1.966863e-02 0.000000e+00 0.0
2.847630e-02 0.000000e+00 0.0
3.820147e-02 0.000000e+00 0.0
4.913289e-02 0.000000e+00 0.0
6.162047e-02 0.000000e+00 0.0
7.601130e-02 0.000000e+00 0.0
9.257550e-02 0.000000e+00 0.0
1.113943e-01 0.000000e+00 0.0
1.321866e-01 0.000000e+00 0.0
1.541238e-01 0.000000e+00 0.0
1.755912e-01 0.000000e+00 0.0
1.938616e-01 0.000000e+00 0.0
2.054061e-01 0.000000e+00 0.0
2.062487e-01 0.000000e+00 0.0
1.933058e-01 0.000000e+00 0.0
1.656698e-01 0.000000e+00 0.0
1.250925e-01 0.000000e+00 0.0
7.565779e-02 0.000000e+00 0.0
2.006619e-02 0.000000e+00 0.0
-3.468028e-02 0.000000e+00 0.0
-8.145985e-02 0.000000e+00 0.0
-1.183673e-01 0.000000e+00 0.0
-1.456530e-01 0.000000e+00 0.0
-1.644604e-01 0.000000e+00 0.0
-1.762518e-01 0.000000e+00 0.0
-1.825306e-01 0.000000e+00 0.0
-1.847144e-01 0.000000e+00 0.0
-1.840760e-01 0.000000e+00 0.0
-1.813505e-01 0.000000e+00 0.0
-1.770936e-01 0.000000e+00 0.0
-1.718688e-01 0.000000e+00 0.0
-1.661395e-01 0.000000e+00 0.0
-1.602535e-01 0.000000e+00 0.0
-1.544417e-01 0.000000e+00 0.0
-1.488404e-01 0.000000e+00 0.0
-1.435352e-01 0.000000e+00 0.0
-1.385680e-01 0.000000e+00 0.0
-1.339544e-01 0.000000e+00 0.0
-1.296928e-01 0.000000e+00 0.0
-1.257718e-01 0.000000e+00 0.0
-1.221738e-01 0.000000e+00 0.0
-1.188790e-01 0.000000e+00 0.0
-1.158663e-01 0.000000e+00 0.0
-1.131147e-01 0.000000e+00 0.0
-1.106039e-01 0.000000e+00 0.0
-1.083145e-01 0.000000e+00 0.0
-1.062283e-01 0.000000e+00 0.0
-1.043278e-01 0.000000e+00 0.0
-1.025971e-01 0.000000e+00 0.0
-1.010210e-01 0.000000e+00 0.0
-9.958558e-02 0.000000e+00 0.0
-9.827785e-02 0.000000e+00 0.0
-9.708591e-02 0.000000e+00 0.0
-9.599878e-02 0.000000e+00 0.0
-9.500647e-02 0.000000e+00 0.0
-9.409981e-02 0.000000e+00 0.0
-9.327053e-02 0.000000e+00 0.0
-9.251111e-02 0.000000e+00 0.0
-9.181481e-02 0.000000e+00 0.0
-9.117556e-02 0.000000e+00 0.0
-9.058797e-02 0.000000e+00 0.0
-9.004724e-02 0.000000e+00 0.0
-8.954916e-02 0.000000e+00 0.0
-8.909005e-02 0.000000e+00 0.0
-8.866675e-02 0.000000e+00 0.0
-8.827657e-02 0.000000e+00 0.0
-8.791728e-02 0.000000e+00 0.0
-8.758708e-02 0.000000e+00 0.0
-8.728460e-02 0.000000e+00 0.0
-8.700891e-02 0.000000e+00 0.0
-8.675945e-02 0.000000e+00 0.0
-8.653612e-02 0.000000e+00 0.0
-8.633920e-02 0.000000e+00 0.0
-8.616944e-02 0.000000e+00 0.0
-8.602802e-02 0.000000e+00 0.0
-8.591661e-02 0.000000e+00 0.0
-8.583743e-02 0.000000e+00 0.0
-8.579341e-02 0.000000e+00 0.0
-8.578831e-02 0.000000e+00 0.0
-8.582456e-02 0.000000e+00 0.0
-8.590015e-02 0.000000e+00 0.0
-8.600856e-02 0.000000e+00 0.0
-8.614406e-02 0.000000e+00 0.0
-8.629532e-02 0.000000e+00 0.0
-8.644100e-02 0.000000e+00 0.0
-8.653772e-02 0.000000e+00 0.0
-8.653772e-02 0.000000e+00 0.0
0.000000e+00 0.000000e+00 0.0
0.000000e+00 0.000000e+00 0.0
0.000000e+00 0.000000e+00 0.0
0.000000e+00 0.000000e+00 0.0
0.000000e+00 0.000000e+00 0.0
0.000000e+00 0.000000e+00 0.0
0.000000e+00 0.000000e+00 0.0
0.000000e+00 0.000000e+00 0.0
0.000000e+00 0.000000e+00 0.0
0.000000e+00 0.000000e+00 0.0
0.000000e+00 0.000000e+00 0.0
0.000000e+00 -5.229739e-04 0.0
-5.247370e-04 5.147077e-04 0.0
-4.900838e-03 4.380182e-03 0.0
-1.167578e-02 6.782001e-03 0.0
-1.966374e-02 7.991658e-03 0.0
-2.847694e-02 8.812435e-03 0.0
-3.820501e-02 9.726334e-03 0.0
-4.913489e-02 1.093017e-02 0.0
-6.161974e-02 1.248676e-02 0.0
-7.600985e-02 1.439162e-02 0.0
-9.257524e-02 1.656555e-02 0.0
-1.113951e-01 1.881942e-02 0.0
-1.321873e-01 2.079207e-02 0.0
-1.541236e-01 2.193700e-02 0.0
-1.755906e-01 2.146762e-02 0.0
-1.938614e-01 1.827086e-02 0.0
-2.054065e-01 1.154477e-02 0.0
-2.062493e-01 8.424262e-04 0.0
-1.933060e-01 -1.294329e-02 0.0
-1.656696e-01 -2.763613e-02 0.0
-1.250921e-01 -4.057712e-02 0.0
-7.565752e-02 -4.943448e-02 0.0
-2.006624e-02 -5.559142e-02 0.0
3.468004e-02 -5.474649e-02 0.0
8.145968e-02 -4.677973e-02 0.0
1.183673e-01 -3.690756e-02 0.0
1.456531e-01 -2.728570e-02 0.0
1.644605e-01 -1.880728e-02 0.0
1.762518e-01 -1.179138e-02 0.0
1.825306e-01 -6.278763e-03 0.0
1.847144e-01 -2.183821e-03 0.0
1.840759e-01 6.384248e-04 0.0
1.813505e-01 2.725411e-03 0.0
1.770937e-01 4.256860e-03 0.0
1.718689e-01 5.224858e-03 0.0
1.661396e-01 5.729308e-03 0.0
1.602534e-01 5.886120e-03 0.0
1.544416e-01 5.811693e-03 0.0
1.488403e-01 5.601294e-03 0.0
1.435353e-01 5.305144e-03 0.0
1.385681e-01 4.967226e-03 0.0
1.339544e-01 4.613684e-03 0.0
1.296928e-01 4.261560e-03 0.0
1.257717e-01 3.921073e-03 0.0
1.221738e-01 3.597905e-03 0.0
1.188790e-01 3.294808e-03 0.0
1.158663e-01 3.012735e-03 0.0
1.131147e-01 2.751607e-03 0.0
1.106039e-01 2.510787e-03 0.0
1.083145e-01 2.289358e-03 0.0
1.062283e-01 2.086271e-03 0.0
1.043278e-01 1.900429e-03 0.0
1.025971e-01 1.730733e-03 0.0
1.010210e-01 1.576093e-03 0.0
9.958558e-02 1.435440e-03 0.0
9.827785e-02 1.307729e-03 0.0
9.708591e-02 1.191949e-03 0.0
9.599878e-02 1.087124e-03 0.0
9.500646e-02 9.923211e-04 0.0
9.409981e-02 9.066547e-04 0.0
9.327053e-02 8.292840e-04 0.0
9.251111e-02 7.594160e-04 0.0
9.181481e-02 6.963044e-04 0.0
9.117556e-02 6.392493e-04 0.0
9.058797e-02 5.875956e-04 0.0
9.004724e-02 5.407305e-04 0.0
8.954916e-02 4.980800e-04 0.0
8.909005e-02 4.591052e-04 0.0
8.866675e-02 4.232988e-04 0.0
8.827657e-02 3.901808e-04 0.0
8.791728e-02 3.592940e-04 0.0
8.758708e-02 3.301996e-04 0.0
8.728461e-02 3.024723e-04 0.0
8.700891e-02 2.756951e-04 0.0
8.675945e-02 2.494546e-04 0.0
8.653612e-02 2.233356e-04 0.0
8.633920e-02 1.969159e-04 0.0
8.616944e-02 1.697612e-04 0.0
8.602802e-02 1.414193e-04 0.0
8.591661e-02 1.114075e-04 0.0
8.583743e-02 7.917511e-05 0.0
8.579341e-02 4.401862e-05 0.0
8.578831e-02 5.097867e-06 0.0
8.582456e-02 -3.625378e-05 0.0
8.590015e-02 -7.558667e-05 0.0
8.600856e-02 -1.084086e-04 0.0
8.614406e-02 -1.355077e-04 0.0
8.629532e-02 -1.512618e-04 0.0
8.644100e-02 -1.456814e-04 0.0
8.653772e-02 -9.672443e-05 0.0
8.653772e-02 -1.296795e-09 0.0
0.000000e+00 -1.130459e-09 0.0
0.000000e+00 0.000000e+00 0.0
0.000000e+00 0.000000e+00 0.0
0.000000e+00 0.000000e+00 0.0
0.000000e+00 0.000000e+00 0.0
0.000000e+00 0.000000e+00 0.0
0.000000e+00 0.000000e+00 0.0
0.000000e+00 0.000000e+00 0.0
0.000000e+00 0.000000e+00 0.0
0.000000e+00 0.000000e+00 0.0
0.000000e+00 0.000000e+00 0.0
0.000000e+00 -6.340873e-03 0.0
-5.822356e-03 6.337809e-03 0.0
-1.945211e-02 1.801534e-02 0.0
-3.736590e-02 2.469577e-02 0.0
-5.742224e-02 2.804349e-02 0.0
-7.880274e-02 3.018889e-02 0.0
-1.014153e-01 3.233791e-02 0.0
-1.253923e-01 3.490807e-02 0.0
-1.508101e-01 3.790487e-02 0.0
-1.775125e-01 4.109307e-02 0.0
-2.049592e-01 4.401085e-02 0.0
-2.321114e-01 4.597123e-02 0.0
-2.572616e-01 4.594262e-02 0.0
-2.779425e-01 4.261815e-02 0.0
-2.910083e-01 3.453334e-02 0.0
-2.926338e-01 1.989583e-02 0.0
-2.780908e-01 -2.998574e-03 0.0
-2.447201e-01 -3.252815e-02 0.0
-1.937554e-01 -6.390777e-02 0.0
-1.280941e-01 -9.329716e-02 0.0
-5.039184e-02 -1.182795e-01 0.0
3.421081e-02 -1.340374e-01 0.0
1.146559e-01 -1.360367e-01 0.0
1.859843e-01 -1.260749e-01 0.0
2.481825e-01 -1.089778e-01 0.0
3.004821e-01 -8.920701e-02 0.0
3.428138e-01 -6.961748e-02 0.0
3.757332e-01 -5.172671e-02 0.0
4.001556e-01 -3.621379e-02 0.0
4.171615e-01 -2.328467e-02 0.0
4.278667e-01 -1.288909e-02 0.0
4.333338e-01 -4.828601e-03 0.0
4.348642e-01 1.195075e-03 0.0
4.332915e-01 5.829589e-03 0.0
4.292971e-01 9.219179e-03 0.0
4.234686e-01 1.155783e-02 0.0
4.162893e-01 1.306536e-02 0.0
4.081740e-01 1.392692e-02 0.0
3.994958e-01 1.427957e-02 0.0
3.905570e-01 1.424403e-02 0.0
3.815718e-01 1.395244e-02 0.0
3.727019e-01 1.348344e-02 0.0
3.640630e-01 1.290045e-02 0.0
3.557349e-01 1.224918e-02 0.0
3.477703e-01 1.156259e-02 0.0
3.402010e-01 1.086410e-02 0.0
3.330437e-01 1.017005e-02 0.0
3.263036e-01 9.491719e-03 0.0
3.199776e-01 8.836782e-03 0.0
3.140566e-01 8.210341e-03 0.0
3.085272e-01 7.615660e-03 0.0
3.033730e-01 7.054641e-03 0.0
2.985756e-01 6.528162e-03 0.0
2.941153e-01 6.036331e-03 0.0
2.899721e-01 5.578662e-03 0.0
2.861256e-01 5.154223e-03 0.0
2.825558e-01 4.761752e-03 0.0
2.792432e-01 4.399751e-03 0.0
2.761689e-01 4.066558e-03 0.0
2.733152e-01 3.760410e-03 0.0
2.706650e-01 3.479486e-03 0.0
2.682024e-01 3.221949e-03 0.0
2.659128e-01 2.985969e-03 0.0
2.637823e-01 2.769750e-03 0.0
2.617983e-01 2.571539e-03 0.0
2.599494e-01 2.389642e-03 0.0
2.582251e-01 2.222422e-03 0.0
2.566159e-01 2.068305e-03 0.0
2.551134e-01 1.925774e-03 0.0
2.537102e-01 1.793370e-03 0.0
2.523998e-01 1.669679e-03 0.0
2.511767e-01 1.553330e-03 0.0
2.500362e-01 1.442979e-03 0.0
2.489746e-01 1.337301e-03 0.0
2.479891e-01 1.234979e-03 0.0
2.470777e-01 1.134687e-03 0.0
2.462396e-01 1.035077e-03 0.0
2.454745e-01 9.347681e-04 0.0
2.447836e-01 8.323363e-04 0.0
2.441687e-01 7.263156e-04 0.0
2.436327e-01 6.152028e-04 0.0
2.431792e-01 4.975040e-04 0.0
2.428123e-01 3.720180e-04 0.0
2.425369e-01 2.391349e-04 0.0
2.423598e-01 1.014742e-04 0.0
2.422882e-01 -3.681785e-05 0.0
2.423123e-01 -1.595336e-04 0.0
2.424054e-01 -2.444416e-04 0.0
2.425285e-01 -2.687656e-04 0.0
2.426263e-01 -1.945055e-04 0.0
2.426263e-01 -7.323734e-10 0.0
0.000000e+00 -5.651426e-10 0.0
0.000000e+00 0.000000e+00 0.0
0.000000e+00 0.000000e+00 0.0
0.000000e+00 0.000000e+00 0.0
0.000000e+00 0.000000e+00 0.0
0.000000e+00 0.000000e+00 0.0
0.000000e+00 0.000000e+00 0.0
0.000000e+00 0.000000e+00 0.0
0.000000e+00 0.000000e+00 0.0
0.000000e+00 0.000000e+00 0.0
0.000000e+00 0.000000e+00 0.0
0.000000e+00 -1.696641e-02 0.0
-1.062533e-02 1.696637e-02 0.0
-3.137934e-02 3.877095e-02 0.0
-5.610966e-02 4.942240e-02 0.0
-8.187149e-02 5.380045e-02 0.0
-1.075563e-01 5.587170e-02 0.0
-1.327956e-01 5.757835e-02 0.0
-1.573520e-01 5.946601e-02 0.0
-1.808685e-01 6.142119e-02 0.0
-2.027342e-01 6.295747e-02 0.0
-2.219461e-01 6.322188e-02 0.0
-2.371519e-01 6.117730e-02 0.0
-2.465256e-01 5.531694e-02 0.0
-2.475633e-01 4.365596e-02 0.0
-2.364293e-01 2.339893e-02 0.0
-2.066306e-01 -9.903404e-03 0.0
-1.581296e-01 -5.149961e-02 0.0
-9.223885e-02 -9.841860e-02 0.0
-1.226308e-02 -1.438833e-01 0.0
7.474884e-02 -1.803091e-01 0.0
1.594723e-01 -2.030032e-01 0.0
2.371855e-01 -2.117507e-01 0.0
3.057340e-01 -2.045853e-01 0.0
3.656579e-01 -1.859987e-01 0.0
4.178656e-01 -1.611854e-01 0.0
4.627685e-01 -1.341099e-01 0.0
5.006007e-01 -1.074497e-01 0.0
5.316658e-01 -8.279190e-02 0.0
5.563947e-01 -6.094275e-02 0.0
5.753181e-01 -4.220798e-02 0.0
5.890225e-01 -2.659353e-02 0.0
5.981231e-01 -1.392914e-02 0.0
6.032622e-01 -3.944007e-03 0.0
6.053709e-01 3.720884e-03 0.0
6.049513e-01 9.638763e-03 0.0
6.024530e-01 1.405602e-02 0.0
5.982718e-01 1.724657e-02 0.0
5.927464e-01 1.945241e-02 0.0
5.861488e-01 2.087722e-02 0.0
5.786966e-01 2.169624e-02 0.0
5.706354e-01 2.201350e-02 0.0
5.621832e-01 2.193561e-02 0.0
5.535123e-01 2.157141e-02 0.0
5.447622e-01 2.099930e-02 0.0
5.360443e-01 2.028047e-02 0.0
5.274465e-01 1.946196e-02 0.0
5.190368e-01 1.857968e-02 0.0
5.108674e-01 1.766116e-02 0.0
5.029766e-01 1.672760e-02 0.0
4.953916e-01 1.579536e-02 0.0
4.881302e-01 1.487707e-02 0.0
4.812025e-01 1.398231e-02 0.0
4.746124e-01 1.311824e-02 0.0
4.683587e-01 1.229000e-02 0.0
4.624363e-01 1.150107e-02 0.0
4.568369e-01 1.075361e-02 0.0
4.515500e-01 1.004868e-02 0.0
4.465633e-01 9.386447e-03 0.0
4.418635e-01 8.766394e-03 0.0
4.374364e-01 8.187448e-03 0.0
4.332678e-01 7.648118e-03 0.0
4.293432e-01 7.146596e-03 0.0
4.256483e-01 6.680846e-03 0.0
4.221694e-01 6.248679e-03 0.0
4.188931e-01 5.847800e-03 0.0
4.158069e-01 5.475859e-03 0.0
4.128988e-01 5.130479e-03 0.0
4.101579e-01 4.809280e-03 0.0
4.075737e-01 4.509893e-03 0.0
4.051371e-01 4.229972e-03 0.0
4.028396e-01 3.967188e-03 0.0
4.006737e-01 3.719230e-03 0.0
3.986329e-01 3.483799e-03 0.0
3.967116e-01 3.258592e-03 0.0
3.949053e-01 3.041289e-03 0.0
3.932105e-01 2.829535e-03 0.0
3.916246e-01 2.620917e-03 0.0
3.901464e-01 2.412940e-03 0.0
3.887758e-01 2.203021e-03 0.0
3.875136e-01 1.988490e-03 0.0
3.863622e-01 1.766631e-03 0.0
3.853249e-01 1.534803e-03 0.0
3.844061e-01 1.290785e-03 0.0
3.836116e-01 1.033655e-03 0.0
3.829483e-01 7.647685e-04 0.0
3.824222e-01 4.892152e-04 0.0
3.820406e-01 2.220523e-04 0.0
3.818066e-01 -1.039314e-05 0.0
3.816976e-01 -1.597453e-04 0.0
3.816746e-01 -1.715202e-04 0.0
3.816746e-01 -9.548380e-11 0.0
0.000000e+00 6.470833e-11 0.0
0.000000e+00 0.000000e+00 0.0
0.000000e+00 0.000000e+00 0.0
0.000000e+00 0.000000e+00 0.0
0.000000e+00 0.000000e+00 0.0
0.000000e+00 0.000000e+00 0.0
0.000000e+00 0.000000e+00 0.0
0.000000e+00 0.000000e+00 0.0
0.000000e+00 0.000000e+00 0.0
0.000000e+00 0.000000e+00 0.0
0.000000e+00 0.000000e+00 0.0
0.000000e+00 -3.010892e-02 0.0
-1.313937e-02 3.010941e-02 0.0
-3.668048e-02 6.231132e-02 0.0
-6.238216e-02 7.511978e-02 0.0
-8.687724e-02 7.829267e-02 0.0
-1.090719e-01 7.806716e-02 0.0
-1.285416e-01 7.705042e-02 0.0
-1.449402e-01 7.586593e-02 0.0
-1.578292e-01 7.430964e-02 0.0
-1.666429e-01 7.176998e-02 0.0
-1.704093e-01 6.698822e-02 0.0
-1.677188e-01 5.848759e-02 0.0
-1.561276e-01 4.372637e-02 0.0
-1.320446e-01 1.957284e-02 0.0
-8.749495e-02 -2.115129e-02 0.0
-2.381285e-02 -7.358574e-02 0.0
5.527083e-02 -1.305831e-01 0.0
1.404433e-01 -1.835908e-01 0.0
2.248085e-01 -2.282484e-01 0.0
3.039761e-01 -2.594767e-01 0.0
3.754355e-01 -2.744627e-01 0.0
4.365584e-01 -2.728737e-01 0.0
4.881901e-01 -2.562169e-01 0.0
5.324196e-01 -2.302281e-01 0.0
5.706445e-01 -1.994102e-01 0.0
6.036656e-01 -1.671311e-01 0.0
6.319306e-01 -1.357147e-01 0.0
6.557392e-01 -1.066006e-01 0.0
6.753582e-01 -8.056164e-02 0.0
6.910660e-01 -5.791578e-02 0.0
7.031657e-01 -3.869324e-02 0.0
7.119865e-01 -2.274988e-02 0.0
7.178877e-01 -9.845225e-03 0.0
7.212941e-01 3.144033e-04 0.0
7.226761e-01 8.256828e-03 0.0
7.223575e-01 1.437458e-02 0.0
7.205985e-01 1.900555e-02 0.0
7.176200e-01 2.243096e-02 0.0
7.136138e-01 2.488348e-02 0.0
7.087549e-01 2.655506e-02 0.0
7.031738e-01 2.759458e-02 0.0
6.969830e-01 2.812645e-02 0.0
6.903241e-01 2.823028e-02 0.0
6.833234e-01 2.800005e-02 0.0
6.760886e-01 2.751524e-02 0.0
6.687120e-01 2.683855e-02 0.0
6.612723e-01 2.601945e-02 0.0
6.538360e-01 2.509742e-02 0.0
6.464592e-01 2.410443e-02 0.0
6.391880e-01 2.306654e-02 0.0
6.320600e-01 2.200508e-02 0.0
6.251050e-01 2.093732e-02 0.0
6.183460e-01 1.987717e-02 0.0
6.118004e-01 1.883566e-02 0.0
6.054801e-01 1.782133e-02 0.0
5.993931e-01 1.684068e-02 0.0
5.935433e-01 1.589840e-02 0.0
5.879321e-01 1.499771e-02 0.0
5.825579e-01 1.414060e-02 0.0
5.774173e-01 1.332799e-02 0.0
5.725055e-01 1.255998e-02 0.0
5.678161e-01 1.183598e-02 0.0
5.633421e-01 1.115483e-02 0.0
5.590758e-01 1.051495e-02 0.0
5.550092e-01 9.914420e-03 0.0
5.511340e-01 9.351056e-03 0.0
5.474420e-01 8.822473e-03 0.0
5.439252e-01 8.326137e-03 0.0
5.405757e-01 7.859405e-03 0.0
5.373861e-01 7.419544e-03 0.0
5.343495e-01 7.003754e-03 0.0
5.314596e-01 6.609168e-03 0.0
5.287105e-01 6.232860e-03 0.0
5.260973e-01 5.871835e-03 0.0
5.236155e-01 5.523017e-03 0.0
5.212618e-01 5.183233e-03 0.0
5.190336e-01 4.849181e-03 0.0
5.169291e-01 4.517396e-03 0.0
5.149479e-01 4.184233e-03 0.0
5.130905e-01 3.845870e-03 0.0
5.113588e-01 3.498343e-03 0.0
5.097560e-01 3.137665e-03 0.0
5.082866e-01 2.760122e-03 0.0
5.069574e-01 2.362916e-03 0.0
5.057770e-01 1.945135e-03 0.0
5.047567e-01 1.509529e-03 0.0
5.039121e-01 1.066672e-03 0.0
5.032622e-01 6.395011e-04 0.0
5.028290e-01 2.734643e-04 0.0
5.026174e-01 3.999441e-05 0.0
5.026174e-01 3.286318e-10 0.0
0.000000e+00 4.814322e-10 0.0
0.000000e+00 0.000000e+00 0.0
0.000000e+00 0.000000e+00 0.0
0.000000e+00 0.000000e+00 0.0
0.000000e+00 0.000000e+00 0.0
0.000000e+00 0.000000e+00 0.0
0.000000e+00 0.000000e+00 0.0
0.000000e+00 0.000000e+00 0.0
0.000000e+00 0.000000e+00 0.0
0.000000e+00 0.000000e+00 0.0
0.000000e+00 0.000000e+00 0.0
0.000000e+00 -4.361130e-02 0.0
-1.349861e-02 4.361258e-02 0.0
-3.553365e-02 8.434454e-02 0.0
-5.694718e-02 9.652953e-02 0.0
-7.478812e-02 9.613232e-02 0.0
-8.837672e-02 9.165780e-02 0.0
-9.746855e-02 8.614467e-02 0.0
-1.017993e-01 8.019701e-02 0.0
-1.008742e-01 7.338319e-02 0.0
-9.419679e-02 6.509156e-02 0.0
-8.005840e-02 5.285026e-02 0.0
-5.621146e-02 3.464164e-02 0.0
-1.553068e-02 3.045909e-03 0.0
4.643896e-02 -4.239724e-02 0.0
1.223053e-01 -9.701817e-02 0.0
2.056154e-01 -1.568958e-01 0.0
2.902757e-01 -2.152430e-01 0.0
3.717225e-01 -2.650374e-01 0.0
4.454787e-01 -3.020046e-01 0.0
5.092170e-01 -3.232152e-01 0.0
5.622107e-01 -3.274566e-01 0.0
6.043183e-01 -3.149813e-01 0.0
6.388401e-01 -2.907386e-01 0.0
6.679105e-01 -2.592984e-01 0.0
6.928726e-01 -2.243723e-01 0.0
7.145114e-01 -1.887700e-01 0.0
7.332613e-01 -1.544647e-01 0.0
7.493595e-01 -1.226987e-01 0.0
7.629529e-01 -9.415496e-02 0.0
7.741616e-01 -6.912445e-02 0.0
7.831137e-01 -4.764536e-02 0.0
7.899567e-01 -2.959298e-02 0.0
7.948549e-01 -1.474343e-02 0.0
7.979943e-01 -2.824978e-03 0.0
7.996851e-01 6.566083e-03 0.0
8.001402e-01 1.391947e-02 0.0
7.995249e-01 1.962085e-02 0.0
7.979787e-01 2.397716e-02 0.0
7.956254e-01 2.723677e-02 0.0
7.925783e-01 2.960216e-02 0.0
7.889354e-01 3.123748e-02 0.0
7.847833e-01 3.227851e-02 0.0
7.801789e-01 3.283474e-02 0.0
7.751939e-01 3.298501e-02 0.0
7.699038e-01 3.280533e-02 0.0
7.643760e-01 3.236634e-02 0.0
7.586713e-01 3.172410e-02 0.0
7.528444e-01 3.092437e-02 0.0
7.469437e-01 3.000519e-02 0.0
7.410116e-01 2.899859e-02 0.0
7.350851e-01 2.793157e-02 0.0
7.291957e-01 2.682669e-02 0.0
7.233703e-01 2.570266e-02 0.0
7.176311e-01 2.457485e-02 0.0
7.119966e-01 2.345579e-02 0.0
7.064818e-01 2.235548e-02 0.0
7.010984e-01 2.128177e-02 0.0
6.958555e-01 2.024063e-02 0.0
6.907597e-01 1.923645e-02 0.0
6.858154e-01 1.827224e-02 0.0
6.810255e-01 1.734988e-02 0.0
6.763912e-01 1.647028e-02 0.0
6.719125e-01 1.563353e-02 0.0
6.675884e-01 1.483909e-02 0.0
6.634169e-01 1.408584e-02 0.0
6.593958e-01 1.337224e-02 0.0
6.555218e-01 1.269638e-02 0.0
6.517919e-01 1.205604e-02 0.0
6.482026e-01 1.144877e-02 0.0
6.447502e-01 1.087190e-02 0.0
6.414314e-01 1.032258e-02 0.0
6.382427e-01 9.797816e-03 0.0
6.351812e-01 9.294435e-03 0.0
6.322439e-01 8.809118e-03 0.0
6.294285e-01 8.338382e-03 0.0
6.267332e-01 7.878568e-03 0.0
6.241566e-01 7.425801e-03 0.0
6.216980e-01 6.975925e-03 0.0
6.193578e-01 6.524487e-03 0.0
6.171369e-01 6.066727e-03 0.0
6.150377e-01 5.597579e-03 0.0
6.130636e-01 5.111733e-03 0.0
6.112199e-01 4.603814e-03 0.0
6.095141e-01 4.068763e-03 0.0
6.079567e-01 3.502501e-03 0.0
6.065631e-01 2.903182e-03 0.0
6.053560e-01 2.273727e-03 0.0
6.043699e-01 1.625565e-03 0.0
6.036573e-01 9.860777e-04 0.0
6.032878e-01 4.095616e-04 0.0
6.032878e-01 3.539916e-10 0.0
0.000000e+00 4.935921e-10 0.0
0.000000e+00 0.000000e+00 0.0
0.000000e+00 0.000000e+00 0.0
0.000000e+00 0.000000e+00 0.0
0.000000e+00 0.000000e+00 0.0
0.000000e+00 0.000000e+00 0.0
0.000000e+00 0.000000e+00 0.0
0.000000e+00 0.000000e+00 0.0
0.000000e+00 0.000000e+00 0.0
0.000000e+00 0.000000e+00 0.0
0.000000e+00 0.000000e+00 0.0
0.000000e+00 -5.675119e-02 0.0
-1.313631e-02 5.675435e-02 0.0
-3.052982e-02 1.017353e-01 0.0
-4.348140e-02 1.094781e-01 0.0
-5.066842e-02 1.033198e-01 0.0
-5.208480e-02 9.307727e-02 0.0
-4.779418e-02 8.185639e-02 0.0
-3.756583e-02 6.996846e-02 0.0
-1.999335e-02 5.580925e-02 0.0
6.415431e-03 3.868222e-02 0.0
4.621144e-02 1.305506e-02 0.0
1.046559e-01 -2.380194e-02 0.0
1.780611e-01 -7.035929e-02 0.0
2.608880e-01 -1.252248e-01 0.0
3.478559e-01 -1.839864e-01 0.0
4.327743e-01 -2.418141e-01 0.0
5.106551e-01 -2.931234e-01 0.0
5.784982e-01 -3.328804e-01 0.0
6.345387e-01 -3.580452e-01 0.0
6.784937e-01 -3.671704e-01 0.0
7.108705e-01 -3.598333e-01 0.0
7.350164e-01 -3.391272e-01 0.0
7.537177e-01 -3.094397e-01 0.0
7.689130e-01 -2.744937e-01 0.0
7.818213e-01 -2.372806e-01 0.0
7.931380e-01 -2.000869e-01 0.0
8.032215e-01 -1.645482e-01 0.0
8.122078e-01 -1.316850e-01 0.0
8.201159e-01 -1.020630e-01 0.0
8.269180e-01 -7.592657e-02 0.0
8.325919e-01 -5.331925e-02 0.0
8.371366e-01 -3.413779e-02 0.0
8.405638e-01 -1.817057e-02 0.0
8.429065e-01 -5.167670e-03 0.0
8.443006e-01 5.171956e-03 0.0
8.448551e-01 1.336497e-02 0.0
8.446608e-01 1.981514e-02 0.0
8.438000e-01 2.483805e-02 0.0
8.423497e-01 2.868702e-02 0.0
8.403831e-01 3.156876e-02 0.0
8.379673e-01 3.365331e-02 0.0
8.351637e-01 3.508212e-02 0.0
8.320256e-01 3.597279e-02 0.0
8.285894e-01 3.642125e-02 0.0
8.248925e-01 3.650224e-02 0.0
8.209762e-01 3.628265e-02 0.0
8.168799e-01 3.582035e-02 0.0
8.126407e-01 3.516359e-02 0.0
8.082925e-01 3.435343e-02 0.0
8.038659e-01 3.342518e-02 0.0
7.993881e-01 3.240938e-02 0.0
7.948831e-01 3.133168e-02 0.0
7.903720e-01 3.021370e-02 0.0
7.858733e-01 2.907353e-02 0.0
7.814030e-01 2.792616e-02 0.0
7.769746e-01 2.678383e-02 0.0
7.726000e-01 2.565643e-02 0.0
7.682888e-01 2.455177e-02 0.0
7.640494e-01 2.347587e-02 0.0
7.598885e-01 2.243322e-02 0.0
7.558114e-01 2.142698e-02 0.0
7.518224e-01 2.045920e-02 0.0
7.479250e-01 1.953099e-02 0.0
7.441214e-01 1.864264e-02 0.0
7.404135e-01 1.779378e-02 0.0
7.368022e-01 1.698348e-02 0.0
7.332883e-01 1.621034e-02 0.0
7.298718e-01 1.547254e-02 0.0
7.265526e-01 1.476794e-02 0.0
7.233304e-01 1.409410e-02 0.0
7.202047e-01 1.344830e-02 0.0
7.171749e-01 1.282761e-02 0.0
7.142405e-01 1.222882e-02 0.0
7.114011e-01 1.164851e-02 0.0
7.086565e-01 1.108303e-02 0.0
7.060066e-01 1.052847e-02 0.0
7.034517e-01 9.980650e-03 0.0
7.009927e-01 9.434962e-03 0.0
6.986308e-01 8.886382e-03 0.0
6.963681e-01 8.329438e-03 0.0
6.942075e-01 7.758162e-03 0.0
6.921532e-01 7.166065e-03 0.0
6.902108e-01 6.546155e-03 0.0
6.883886e-01 5.891023e-03 0.0
6.866980e-01 5.193039e-03 0.0
6.851565e-01 4.444753e-03 0.0
6.837905e-01 3.639719e-03 0.0
6.826422e-01 2.773846e-03 0.0
6.817794e-01 1.848875e-03 0.0
6.813039e-01 8.850170e-04 0.0
6.813039e-01 -1.887393e-10 0.0
0.000000e+00 -7.042676e-11 0.0
0.000000e+00 0.000000e+00 0.0
0.000000e+00 0.000000e+00 0.0
0.000000e+00 0.000000e+00 0.0
0.000000e+00 0.000000e+00 0.0
0.000000e+00 0.000000e+00 0.0
0.000000e+00 0.000000e+00 0.0
0.000000e+00 0.000000e+00 0.0
0.000000e+00 0.000000e+00 0.0
0.000000e+00 0.000000e+00 0.0
0.000000e+00 0.000000e+00 0.0
0.000000e+00 -7.039554e-02 0.0
-1.364019e-02 7.040000e-02 0.0
-2.291058e-02 1.110016e-01 0.0
-2.230309e-02 1.088671e-01 0.0
-1.383040e-02 9.484757e-02 0.0
1.894958e-03 7.735456e-02 0.0
2.499339e-02 5.875927e-02 0.0
5.575468e-02 3.920604e-02 0.0
9.780051e-02 1.376178e-02 0.0
1.559763e-01 -1.949367e-02 0.0
2.283681e-01 -5.933563e-02 0.0
3.106161e-01 -1.060493e-01 0.0
3.983607e-01 -1.581042e-01 0.0
4.861117e-01 -2.129765e-01 0.0
5.688895e-01 -2.667644e-01 0.0
6.423096e-01 -3.152338e-01 0.0
7.034503e-01 -3.542638e-01 0.0
7.511865e-01 -3.806167e-01 0.0
7.857368e-01 -3.925956e-01 0.0
8.082118e-01 -3.896455e-01 0.0
8.215272e-01 -3.731487e-01 0.0
8.291124e-01 -3.467124e-01 0.0
8.334559e-01 -3.137831e-01 0.0
8.362300e-01 -2.772679e-01 0.0
8.384437e-01 -2.394944e-01 0.0
8.406387e-01 -2.022820e-01 0.0
8.430671e-01 -1.669765e-01 0.0
8.457469e-01 -1.343647e-01 0.0
8.485724e-01 -1.048885e-01 0.0
8.513838e-01 -7.873799e-02 0.0
8.540317e-01 -5.596728e-02 0.0
8.563934e-01 -3.649945e-02 0.0
8.583505e-01 -2.012764e-02 0.0
8.598176e-01 -6.634748e-03 0.0
8.607637e-01 4.225875e-03 0.0
8.612000e-01 1.292867e-02 0.0
8.611497e-01 1.986539e-02 0.0
8.606467e-01 2.534104e-02 0.0
8.597316e-01 2.960214e-02 0.0
8.584482e-01 3.285214e-02 0.0
8.568406e-01 3.526094e-02 0.0
8.549511e-01 3.697158e-02 0.0
8.528192e-01 3.810480e-02 0.0
8.504782e-01 3.876222e-02 0.0
8.479516e-01 3.902884e-02 0.0
8.452613e-01 3.897295e-02 0.0
8.424312e-01 3.865039e-02 0.0
8.394851e-01 3.810976e-02 0.0
8.364449e-01 3.739360e-02 0.0
8.333309e-01 3.653917e-02 0.0
8.301606e-01 3.557965e-02 0.0
8.269498e-01 3.454247e-02 0.0
8.237125e-01 3.345105e-02 0.0
8.204609e-01 3.232514e-02 0.0
8.172058e-01 3.118121e-02 0.0
8.139568e-01 3.003285e-02 0.0
8.107221e-01 2.889112e-02 0.0
8.075090e-01 2.776489e-02 0.0
8.043237e-01 2.666114e-02 0.0
8.011717e-01 2.558518e-02 0.0
7.980578e-01 2.454093e-02 0.0
7.949859e-01 2.353110e-02 0.0
7.919595e-01 2.255740e-02 0.0
7.889815e-01 2.162063e-02 0.0
7.860544e-01 2.072088e-02 0.0
7.831803e-01 1.985760e-02 0.0
7.803609e-01 1.902972e-02 0.0
7.775977e-01 1.823570e-02 0.0
7.748921e-01 1.747363e-02 0.0
7.722449e-01 1.674123e-02 0.0
7.696573e-01 1.603592e-02 0.0
7.671301e-01 1.535481e-02 0.0
7.646642e-01 1.469473e-02 0.0
7.622605e-01 1.405222e-02 0.0
7.599200e-01 1.342349e-02 0.0
7.576440e-01 1.280455e-02 0.0
7.554335e-01 1.219108e-02 0.0
7.532904e-01 1.157812e-02 0.0
7.512165e-01 1.096025e-02 0.0
7.492145e-01 1.033143e-02 0.0
7.472877e-01 9.684998e-03 0.0
7.454403e-01 9.013450e-03 0.0
7.436781e-01 8.308353e-03 0.0
7.420090e-01 7.560111e-03 0.0
7.404444e-01 6.757663e-03 0.0
7.390011e-01 5.887982e-03 0.0
7.377056e-01 4.935227e-03 0.0
7.366002e-01 3.879315e-03 0.0
7.357541e-01 2.694911e-03 0.0
7.352764e-01 1.362708e-03 0.0
7.352764e-01 -1.358668e-09 0.0
0.000000e+00 -1.270906e-09 0.0
0.000000e+00 0.000000e+00 0.0
0.000000e+00 0.000000e+00 0.0
0.000000e+00 0.000000e+00 0.0
0.000000e+00 0.000000e+00 0.0
0.000000e+00 0.000000e+00 0.0
0.000000e+00 0.000000e+00 0.0
0.000000e+00 0.000000e+00 0.0
0.000000e+00 0.000000e+00 0.0
0.000000e+00 0.000000e+00 0.0
0.000000e+00 0.000000e+00 0.0
0.000000e+00 -8.412411e-02 0.0
-1.372408e-02 8.412800e-02 0.0
-5.677517e-03 1.029509e-01 0.0
1.885731e-02 8.433071e-02 0.0
5.211591e-02 6.159130e-02 0.0
9.300935e-02 3.646448e-02 0.0
1.442414e-01 7.527961e-03 0.0
2.088234e-01 -2.537791e-02 0.0
2.842345e-01 -6.165099e-02 0.0
3.670263e-01 -1.022851e-01 0.0
4.544160e-01 -1.467240e-01 0.0
5.424428e-01 -1.940757e-01 0.0
6.269003e-01 -2.425623e-01 0.0
7.036110e-01 -2.896877e-01 0.0
7.691881e-01 -3.323414e-01 0.0
8.213369e-01 -3.673823e-01 0.0
8.591860e-01 -3.921127e-01 0.0
8.832956e-01 -4.047263e-01 0.0
8.952210e-01 -4.045211e-01 0.0
8.974734e-01 -3.918979e-01 0.0
8.937707e-01 -3.694460e-01 0.0
8.869165e-01 -3.398582e-01 0.0
8.789593e-01 -3.058258e-01 0.0
8.712220e-01 -2.695307e-01 0.0
8.644485e-01 -2.327210e-01 0.0
8.589914e-01 -1.968248e-01 0.0
8.549847e-01 -1.629698e-01 0.0
8.523198e-01 -1.316997e-01 0.0
8.507904e-01 -1.033591e-01 0.0
8.501586e-01 -7.810620e-02 0.0
8.501641e-01 -5.597282e-02 0.0
8.505524e-01 -3.688779e-02 0.0
8.511200e-01 -2.069516e-02 0.0
8.516959e-01 -7.210651e-03 0.0
8.521428e-01 3.779017e-03 0.0
8.523745e-01 1.269692e-02 0.0
8.523522e-01 1.988765e-02 0.0
8.520657e-01 2.562759e-02 0.0
8.515222e-01 3.014567e-02 0.0
8.507393e-01 3.363500e-02 0.0
8.497402e-01 3.626002e-02 0.0
8.485503e-01 3.816150e-02 0.0
8.471950e-01 3.946009e-02 0.0
8.456981e-01 4.025916e-02 0.0
8.440798e-01 4.064706e-02 0.0
8.423541e-01 4.069871e-02 0.0
8.405346e-01 4.046985e-02 0.0
8.386360e-01 4.000836e-02 0.0
8.366719e-01 3.935770e-02 0.0
8.346545e-01 3.855656e-02 0.0
8.325951e-01 3.763909e-02 0.0
8.305032e-01 3.663435e-02 0.0
8.283873e-01 3.556704e-02 0.0
8.262544e-01 3.445802e-02 0.0
8.241109e-01 3.332468e-02 0.0
8.219623e-01 3.218141e-02 0.0
8.198135e-01 3.103996e-02 0.0
8.176686e-01 2.990978e-02 0.0
8.155314e-01 2.879832e-02 0.0
8.134053e-01 2.771134e-02 0.0
8.112931e-01 2.665314e-02 0.0
8.091974e-01 2.562675e-02 0.0
8.071207e-01 2.463414e-02 0.0
8.050649e-01 2.367638e-02 0.0
8.030320e-01 2.275376e-02 0.0
8.010237e-01 2.186591e-02 0.0
7.990415e-01 2.101193e-02 0.0
7.970868e-01 2.019040e-02 0.0
7.951609e-01 1.939951e-02 0.0
7.932651e-01 1.863706e-02 0.0
7.914005e-01 1.790052e-02 0.0
7.895683e-01 1.718702e-02 0.0
7.877696e-01 1.649340e-02 0.0
7.860057e-01 1.581613e-02 0.0
7.842779e-01 1.515131e-02 0.0
7.825875e-01 1.449491e-02 0.0
7.809360e-01 1.384261e-02 0.0
7.793250e-01 1.318912e-02 0.0
7.777566e-01 1.252867e-02 0.0
7.762331e-01 1.185487e-02 0.0
7.747577e-01 1.116047e-02 0.0
7.733339e-01 1.043718e-02 0.0
7.719669e-01 9.675407e-03 0.0
7.706633e-01 8.863723e-03 0.0
7.694328e-01 7.988180e-03 0.0
7.682897e-01 7.031023e-03 0.0
7.672565e-01 5.968475e-03 0.0
7.663688e-01 4.766968e-03 0.0
7.656853e-01 3.378428e-03 0.0
7.652977e-01 1.750335e-03 0.0
7.652977e-01 -3.094602e-09 0.0
0.000000e+00 -3.042727e-09 0.0
0.000000e+00 0.000000e+00 0.0
0.000000e+00 0.000000e+00 0.0
0.000000e+00 0.000000e+00 0.0
0.000000e+00 0.000000e+00 0.0
0.000000e+00 0.000000e+00 0.0
0.000000e+00 0.000000e+00 0.0
0.000000e+00 0.000000e+00 0.0
0.000000e+00 0.000000e+00 0.0
0.000000e+00 0.000000e+00 0.0
0.000000e+00 0.000000e+00 0.0
0.000000e+00 -7.896938e-02 0.0
5.159888e-03 7.896951e-02 0.0
5.423965e-02 5.386496e-02 0.0
1.182758e-01 2.029213e-02 0.0
1.921990e-01 -1.232954e-02 0.0
2.730370e-01 -4.437032e-02 0.0
3.576209e-01 -7.705597e-02 0.0
4.442447e-01 -1.120042e-01 0.0
5.316856e-01 -1.490931e-01 0.0
6.175902e-01 -1.881887e-01 0.0
6.993928e-01 -2.285253e-01 0.0
7.742335e-01 -2.689164e-01 0.0
8.393396e-01 -3.076693e-01 0.0
8.923650e-01 -3.427134e-01 0.0