# vtk DataFile Version 3.0
Vector Field
ASCII
DATASET RECTILINEAR_GRID
DIMENSIONS 102 22 1
X_COORDINATES 102 double
0.000000 0.100000 0.200000 0.300000 0.400000 0.500000 0.600000 0.700000 0.800000 0.900000 1.000000 1.100000 1.200000 1.300000 1.400000 1.500000 1.600000 1.700000 1.800000 1.900000 2.000000 2.100000 2.200000 2.300000 2.400000 2.500000 2.600000 2.700000 2.800000 2.900000 3.000000 3.100000 3.200000 3.300000 3.400000 3.500000 3.600000 3.700000 3.800000 3.900000 4.000000 4.100000 4.200000 4.300000 4.400000 4.500000 4.600000 4.700000 4.800000 4.900000 5.000000 5.100000 5.200000 5.300000 5.400000 5.500000 5.600000 5.700000 5.800000 5.900000 6.000000 6.100000 6.200000 6.300000 6.400000 6.500000 6.600000 6.700000 6.800000 6.900000 7.000000 7.100000 7.200000 7.300000 7.400000 7.500000 7.600000 7.700000 7.800000 7.900000 8.000000 8.100000 8.200000 8.300000 8.400000 8.500000 8.600000 8.700000 8.800000 8.900000 9.000000 9.100000 9.200000 9.300000 9.400000 9.500000 9.600000 9.700000 9.800000 9.900000 10.000000 10.100000 
Y_COORDINATES 22 double
0.000000 0.100000 0.200000 0.300000 0.400000 0.500000 0.600000 0.700000 0.800000 0.900000 1.000000 1.100000 1.200000 1.300000 1.400000 1.500000 1.600000 1.700000 1.800000 1.900000 2.000000 2.100000 
Z_COORDINATES 1 double
0.0
POINT_DATA 2244
VECTORS Velocity double
0.000000e+00 0.000000e+00 0.0
-0.000000e+00 0.000000e+00 0.0
-0.000000e+00 0.000000e+00 0.0
-0.000000e+00 0.000000e+00 0.0
-0.000000e+00 0.000000e+00 0.0
-0.000000e+00 0.000000e+00 0.0
-0.000000e+00 0.000000e+00 0.0
-0.000000e+00 0.000000e+00 0.0
-0.000000e+00 0.000000e+00 0.0
-0.000000e+00 0.000000e+00 0.0
-0.000000e+00 0.000000e+00 0.0
-3.380140e-02 0.000000e+00 0.0
-7.751419e-02 0.000000e+00 0.0
-1.287331e-01 0.000000e+00 0.0
-1.801993e-01 0.000000e+00 0.0
-2.290686e-01 0.000000e+00 0.0
-2.741902e-01 0.000000e+00 0.0
-3.151922e-01 0.000000e+00 0.0
-3.521022e-01 0.000000e+00 0.0
-3.851565e-01 0.000000e+00 0.0
-4.146916e-01 0.000000e+00 0.0
-4.410806e-01 0.000000e+00 0.0
-4.646952e-01 0.000000e+00 0.0
-4.858860e-01 0.000000e+00 0.0
-5.049717e-01 0.000000e+00 0.0
-5.222361e-01 0.000000e+00 0.0
-5.379282e-01 0.000000e+00 0.0
-5.522641e-01 0.000000e+00 0.0
-5.654299e-01 0.000000e+00 0.0
-5.775857e-01 0.000000e+00 0.0
-5.888681e-01 0.000000e+00 0.0
-5.993941e-01 0.000000e+00 0.0
-6.092632e-01 0.000000e+00 0.0
-6.185603e-01 0.000000e+00 0.0
-6.273576e-01 0.000000e+00 0.0
-6.357168e-01 0.000000e+00 0.0
-6.436903e-01 0.000000e+00 0.0
-6.513227e-01 0.000000e+00 0.0
-6.586521e-01 0.000000e+00 0.0
-6.657109e-01 0.000000e+00 0.0
-6.725269e-01 0.000000e+00 0.0
-6.791236e-01 0.000000e+00 0.0
-6.855213e-01 0.000000e+00 0.0
-6.917372e-01 0.000000e+00 0.0
-6.977860e-01 0.000000e+00 0.0
-7.036805e-01 0.000000e+00 0.0
-7.094316e-01 0.000000e+00 0.0
-7.150486e-01 0.000000e+00 0.0
-7.205396e-01 0.000000e+00 0.0
-7.259117e-01 0.000000e+00 0.0
-7.311709e-01 0.000000e+00 0.0
-7.363226e-01 0.000000e+00 0.0
-7.413715e-01 0.000000e+00 0.0
-7.463218e-01 0.000000e+00 0.0
-7.511770e-01 0.000000e+00 0.0
-7.559406e-01 0.000000e+00 0.0
-7.606155e-01 0.000000e+00 0.0
-7.652045e-01 0.000000e+00 0.0
-7.697101e-01 0.000000e+00 0.0
-7.741346e-01 0.000000e+00 0.0
-7.784803e-01 0.000000e+00 0.0
-7.827493e-01 0.000000e+00 0.0
-7.869436e-01 0.000000e+00 0.0
-7.910652e-01 0.000000e+00 0.0
-7.951159e-01 0.000000e+00 0.0
-7.990977e-01 0.000000e+00 0.0
-8.030123e-01 0.000000e+00 0.0
-8.068617e-01 0.000000e+00 0.0
-8.106476e-01 0.000000e+00 0.0
-8.143720e-01 0.000000e+00 0.0
-8.180366e-01 0.000000e+00 0.0
-8.216434e-01 0.000000e+00 0.0
-8.251943e-01 0.000000e+00 0.0
-8.286912e-01 0.000000e+00 0.0
-8.321362e-01 0.000000e+00 0.0
-8.355314e-01 0.000000e+00 0.0
-8.388788e-01 0.000000e+00 0.0
-8.421808e-01 0.000000e+00 0.0
-8.454397e-01 0.000000e+00 0.0
-8.486581e-01 0.000000e+00 0.0
-8.518388e-01 0.000000e+00 0.0
-8.549848e-01 0.000000e+00 0.0
-8.580997e-01 0.000000e+00 0.0
-8.611874e-01 0.000000e+00 0.0
-8.642527e-01 0.000000e+00 0.0
-8.673016e-01 0.000000e+00 0.0
-8.703411e-01 0.000000e+00 0.0
-8.733808e-01 0.000000e+00 0.0
-8.764330e-01 0.000000e+00 0.0
-8.795143e-01 0.000000e+00 0.0
-8.826480e-01 0.000000e+00 0.0
-8.858675e-01 0.000000e+00 0.0
-8.892226e-01 0.000000e+00 0.0
-8.927910e-01 0.000000e+00 0.0
-8.967002e-01 0.000000e+00 0.0
-9.011756e-01 0.000000e+00 0.0
-9.066511e-01 0.000000e+00 0.0
-9.140570e-01 0.000000e+00 0.0
-9.256535e-01 0.000000e+00 0.0
-9.477104e-01 0.000000e+00 0.0
-9.477104e-01 0.000000e+00 0.0
0.000000e+00 0.000000e+00 0.0
0.000000e+00 0.000000e+00 0.0
0.000000e+00 0.000000e+00 0.0
0.000000e+00 0.000000e+00 0.0
0.000000e+00 0.000000e+00 0.0
0.000000e+00 0.000000e+00 0.0
0.000000e+00 0.000000e+00 0.0
0.000000e+00 0.000000e+00 0.0
0.000000e+00 0.000000e+00 0.0
0.000000e+00 0.000000e+00 0.0
0.000000e+00 0.000000e+00 0.0
0.000000e+00 -1.020803e-02 0.0
1.915204e-02 6.773939e-03 0.0
5.233199e-02 -1.825484e-02 0.0
9.397924e-02 -2.670470e-02 0.0
1.366584e-01 -2.771530e-02 0.0
1.774843e-01 -2.583694e-02 0.0
2.152929e-01 -2.279110e-02 0.0
2.496638e-01 -1.932168e-02 0.0
2.805529e-01 -1.580496e-02 0.0
3.081189e-01 -1.244419e-02 0.0
3.326264e-01 -9.345354e-03 0.0
3.543880e-01 -6.556528e-03 0.0
3.737334e-01 -4.095174e-03 0.0
3.909596e-01 -1.928694e-03 0.0
4.063387e-01 -3.208308e-05 0.0
4.201227e-01 1.614221e-03 0.0
4.325377e-01 3.036286e-03 0.0
4.437800e-01 4.263748e-03 0.0
4.540214e-01 5.320932e-03 0.0
4.634106e-01 6.230810e-03 0.0
4.720752e-01 7.014363e-03 0.0
4.801248e-01 7.689674e-03 0.0
4.876531e-01 8.272343e-03 0.0
4.947402e-01 8.775901e-03 0.0
5.014546e-01 9.211931e-03 0.0
5.078547e-01 9.590348e-03 0.0
5.139904e-01 9.919625e-03 0.0
5.199043e-01 1.020698e-02 0.0
5.256327e-01 1.045856e-02 0.0
5.312068e-01 1.067945e-02 0.0
5.366529e-01 1.087433e-02 0.0
5.419935e-01 1.104717e-02 0.0
5.472477e-01 1.120104e-02 0.0
5.524320e-01 1.133866e-02 0.0
5.575602e-01 1.146238e-02 0.0
5.626444e-01 1.157419e-02 0.0
5.676946e-01 1.167580e-02 0.0
5.727194e-01 1.176865e-02 0.0
5.777261e-01 1.185398e-02 0.0
5.827210e-01 1.193282e-02 0.0
5.877093e-01 1.200606e-02 0.0
5.926953e-01 1.207446e-02 0.0
5.976828e-01 1.213864e-02 0.0
6.026750e-01 1.219916e-02 0.0
6.076744e-01 1.225647e-02 0.0
6.126831e-01 1.231095e-02 0.0
6.177031e-01 1.236293e-02 0.0
6.227356e-01 1.241269e-02 0.0
6.277819e-01 1.246045e-02 0.0
6.328429e-01 1.250641e-02 0.0
6.379193e-01 1.255073e-02 0.0
6.430116e-01 1.259354e-02 0.0
6.481202e-01 1.263496e-02 0.0
6.532454e-01 1.267507e-02 0.0
6.583872e-01 1.271395e-02 0.0
6.635457e-01 1.275167e-02 0.0
6.687209e-01 1.278826e-02 0.0
6.739125e-01 1.282377e-02 0.0
6.791205e-01 1.285822e-02 0.0
6.843444e-01 1.289163e-02 0.0
6.895842e-01 1.292401e-02 0.0
6.948394e-01 1.295535e-02 0.0
7.001097e-01 1.298565e-02 0.0
7.053947e-01 1.301489e-02 0.0
7.106942e-01 1.304304e-02 0.0
7.160079e-01 1.307003e-02 0.0
7.213354e-01 1.309581e-02 0.0
7.266767e-01 1.312026e-02 0.0
7.320316e-01 1.314327e-02 0.0
7.374002e-01 1.316462e-02 0.0
7.427830e-01 1.318408e-02 0.0
7.481805e-01 1.320127e-02 0.0
7.535941e-01 1.321571e-02 0.0
7.590254e-01 1.322673e-02 0.0
7.644773e-01 1.323337e-02 0.0
7.699539e-01 1.323434e-02 0.0
7.754609e-01 1.322777e-02 0.0
7.810070e-01 1.321107e-02 0.0
7.866043e-01 1.318046e-02 0.0
7.922706e-01 1.313049e-02 0.0
7.980318e-01 1.305297e-02 0.0
8.039262e-01 1.293538e-02 0.0
8.100121e-01 1.275782e-02 0.0
8.163812e-01 1.248699e-02 0.0
8.231841e-01 1.206375e-02 0.0
8.306856e-01 1.137417e-02 0.0
8.393924e-01 1.017599e-02 0.0
8.503918e-01 7.888875e-03 0.0
8.663572e-01 2.926781e-03 0.0
8.947030e-01 -9.451508e-03 0.0
9.477104e-01 -3.411257e-02 0.0
0.000000e+00 -4.283596e-02 0.0
0.000000e+00 0.000000e+00 0.0
0.000000e+00 0.000000e+00 0.0
0.000000e+00 0.000000e+00 0.0
0.000000e+00 0.000000e+00 0.0
0.000000e+00 0.000000e+00 0.0
0.000000e+00 0.000000e+00 0.0
0.000000e+00 0.000000e+00 0.0
0.000000e+00 0.000000e+00 0.0
0.000000e+00 0.000000e+00 0.0
0.000000e+00 0.000000e+00 0.0
0.000000e+00 6.963278e-02 0.0
8.138505e-02 -5.969730e-02 0.0
1.403192e-01 -7.328622e-02 0.0
1.933226e-01 -7.579847e-02 0.0
2.427859e-01 -7.326102e-02 0.0
2.886323e-01 -6.775706e-02 0.0
3.305043e-01 -6.072735e-02 0.0
3.682712e-01 -5.314257e-02 0.0
4.020380e-01 -4.561498e-02 0.0
4.320655e-01 -3.850340e-02 0.0
4.586955e-01 -3.199500e-02 0.0
4.822975e-01 -2.616562e-02 0.0
5.032302e-01 -2.102187e-02 0.0
5.218451e-01 -1.652419e-02 0.0
5.384637e-01 -1.261727e-02 0.0
5.533655e-01 -9.239758e-03 0.0
5.667937e-01 -6.329357e-03 0.0
5.789643e-01 -3.829330e-03 0.0
5.900617e-01 -1.683426e-03 0.0
6.002451e-01 1.561732e-04 0.0
6.096504e-01 1.733819e-03 0.0
6.183941e-01 3.086976e-03 0.0
6.265760e-01 4.247913e-03 0.0
6.342813e-01 5.244848e-03 0.0
6.415825e-01 6.101761e-03 0.0
6.485418e-01 6.839207e-03 0.0
6.552119e-01 7.474745e-03 0.0
6.616382e-01 8.023358e-03 0.0
6.678589e-01 8.497845e-03 0.0
6.739066e-01 8.909224e-03 0.0
6.798094e-01 9.266537e-03 0.0
6.855917e-01 9.577474e-03 0.0
6.912739e-01 9.848951e-03 0.0
6.968736e-01 1.008675e-02 0.0
7.024055e-01 1.029578e-02 0.0
7.078823e-01 1.048022e-02 0.0
7.133148e-01 1.064361e-02 0.0
7.187121e-01 1.078899e-02 0.0
7.240821e-01 1.091894e-02 0.0
7.294314e-01 1.103565e-02 0.0
7.347657e-01 1.114099e-02 0.0
7.400897e-01 1.123655e-02 0.0
7.454074e-01 1.132371e-02 0.0
7.507224e-01 1.140360e-02 0.0
7.560374e-01 1.147721e-02 0.0
7.613550e-01 1.154538e-02 0.0
7.666770e-01 1.160881e-02 0.0
7.720052e-01 1.166811e-02 0.0
7.773410e-01 1.172380e-02 0.0
7.826855e-01 1.177629e-02 0.0
7.880396e-01 1.182597e-02 0.0
7.934041e-01 1.187313e-02 0.0
7.987795e-01 1.191804e-02 0.0
8.041662e-01 1.196092e-02 0.0
8.095645e-01 1.200195e-02 0.0
8.149748e-01 1.204128e-02 0.0
8.203970e-01 1.207904e-02 0.0
8.258312e-01 1.211533e-02 0.0
8.312775e-01 1.215024e-02 0.0
8.367358e-01 1.218381e-02 0.0
8.422059e-01 1.221609e-02 0.0
8.476878e-01 1.224710e-02 0.0
8.531812e-01 1.227685e-02 0.0
8.586861e-01 1.230532e-02 0.0
8.642023e-01 1.233245e-02 0.0
8.697296e-01 1.235817e-02 0.0
8.752680e-01 1.238236e-02 0.0
8.808175e-01 1.240483e-02 0.0
8.863781e-01 1.242534e-02 0.0
8.919503e-01 1.244352e-02 0.0
8.975343e-01 1.245889e-02 0.0
9.031312e-01 1.247076e-02 0.0
9.087421e-01 1.247820e-02 0.0
9.143689e-01 1.247989e-02 0.0
9.200145e-01 1.247402e-02 0.0
9.256827e-01 1.245807e-02 0.0
9.313793e-01 1.242850e-02 0.0
9.371122e-01 1.238030e-02 0.0
9.428930e-01 1.230635e-02 0.0
9.487378e-01 1.219635e-02 0.0
9.546699e-01 1.203517e-02 0.0
9.607226e-01 1.180007e-02 0.0
9.669447e-01 1.145586e-02 0.0
9.734079e-01 1.094622e-02 0.0
9.802187e-01 1.017717e-02 0.0
9.875341e-01 8.984498e-03 0.0
9.955685e-01 7.068192e-03 0.0
1.004521e+00 3.863542e-03 0.0
1.014043e+00 -1.667735e-03 0.0
1.020613e+00 -1.109542e-02 0.0
1.017476e+00 -2.604885e-02 0.0
0.000000e+00 -2.288061e-02 0.0
0.000000e+00 0.000000e+00 0.0
0.000000e+00 0.000000e+00 0.0
0.000000e+00 0.000000e+00 0.0
0.000000e+00 0.000000e+00 0.0
0.000000e+00 0.000000e+00 0.0
0.000000e+00 0.000000e+00 0.0
0.000000e+00 0.000000e+00 0.0
0.000000e+00 0.000000e+00 0.0
0.000000e+00 0.000000e+00 0.0
0.000000e+00 0.000000e+00 0.0
0.000000e+00 1.423626e-01 0.0
7.727828e-02 -1.220621e-01 0.0
1.410869e-01 -1.331932e-01 0.0
1.987903e-01 -1.295932e-01 0.0
2.513282e-01 -1.218821e-01 0.0
2.988253e-01 -1.113284e-01 0.0
3.413658e-01 -9.933242e-02 0.0
3.791740e-01 -8.700496e-02 0.0
4.126072e-01 -7.509136e-02 0.0
4.420983e-01 -6.402603e-02 0.0
4.681021e-01 -5.401832e-02 0.0
4.910597e-01 -4.513012e-02 0.0
5.113783e-01 -3.733414e-02 0.0
5.294271e-01 -3.055322e-02 0.0
5.455326e-01 -2.468896e-02 0.0
5.599785e-01 -1.963747e-02 0.0
5.730099e-01 -1.529787e-02 0.0
5.848356e-01 -1.157703e-02 0.0
5.956359e-01 -8.390290e-03 0.0
6.055624e-01 -5.661214e-03 0.0
6.147467e-01 -3.325316e-03 0.0
6.233007e-01 -1.325650e-03 0.0
6.313201e-01 3.863437e-04 0.0
6.388859e-01 1.853484e-03 0.0
6.460677e-01 3.111376e-03 0.0
6.529244e-01 4.190821e-03 0.0
6.595066e-01 5.118063e-03 0.0
6.658573e-01 5.915478e-03 0.0
6.720132e-01 6.602148e-03 0.0
6.780057e-01 7.194338e-03 0.0
6.838615e-01 7.705820e-03 0.0
6.896033e-01 8.148326e-03 0.0
6.952505e-01 8.531950e-03 0.0
7.008197e-01 8.865297e-03 0.0
7.063251e-01 9.155694e-03 0.0
7.117787e-01 9.409382e-03 0.0
7.171908e-01 9.631684e-03 0.0
7.225702e-01 9.827133e-03 0.0
7.279244e-01 9.999600e-03 0.0
7.332596e-01 1.015238e-02 0.0
7.385813e-01 1.028828e-02 0.0
7.438939e-01 1.040971e-02 0.0
7.492015e-01 1.051870e-02 0.0
7.545072e-01 1.061700e-02 0.0
7.598138e-01 1.070609e-02 0.0
7.651235e-01 1.078723e-02 0.0
7.704383e-01 1.086150e-02 0.0
7.757599e-01 1.092982e-02 0.0
7.810894e-01 1.099297e-02 0.0
7.864280e-01 1.105160e-02 0.0
7.917766e-01 1.110628e-02 0.0
7.971357e-01 1.115749e-02 0.0
8.025061e-01 1.120564e-02 0.0
8.078880e-01 1.125105e-02 0.0
8.132817e-01 1.129402e-02 0.0
8.186874e-01 1.133479e-02 0.0
8.241053e-01 1.137356e-02 0.0
8.295354e-01 1.141049e-02 0.0
8.349775e-01 1.144572e-02 0.0
8.404318e-01 1.147934e-02 0.0
8.458980e-01 1.151144e-02 0.0
8.513760e-01 1.154205e-02 0.0
8.568656e-01 1.157120e-02 0.0
8.623667e-01 1.159886e-02 0.0
8.678790e-01 1.162499e-02 0.0
8.734024e-01 1.164948e-02 0.0
8.789369e-01 1.167217e-02 0.0
8.844822e-01 1.169282e-02 0.0
8.900384e-01 1.171109e-02 0.0
8.956057e-01 1.172650e-02 0.0
9.011844e-01 1.173836e-02 0.0
9.067749e-01 1.174575e-02 0.0
9.123784e-01 1.174737e-02 0.0
9.179961e-01 1.174142e-02 0.0
9.236301e-01 1.172542e-02 0.0
9.292834e-01 1.169592e-02 0.0
9.349602e-01 1.164811e-02 0.0
9.406667e-01 1.157525e-02 0.0
9.464110e-01 1.146786e-02 0.0
9.522048e-01 1.131240e-02 0.0
9.580640e-01 1.108941e-02 0.0
9.640102e-01 1.077047e-02 0.0
9.700720e-01 1.031335e-02 0.0
9.762857e-01 9.654140e-03 0.0
9.826920e-01 8.694320e-03 0.0
9.893212e-01 7.280159e-03 0.0
9.961420e-01 5.173110e-03 0.0
1.002910e+00 2.021653e-03 0.0
1.008777e+00 -2.608159e-03 0.0
1.011544e+00 -8.936551e-03 0.0
1.007012e+00 -1.659149e-02 0.0
0.000000e+00 -1.338533e-02 0.0
0.000000e+00 0.000000e+00 0.0
0.000000e+00 0.000000e+00 0.0
0.000000e+00 0.000000e+00 0.0
0.000000e+00 0.000000e+00 0.0
0.000000e+00 0.000000e+00 0.0
0.000000e+00 0.000000e+00 0.0
0.000000e+00 0.000000e+00 0.0
0.000000e+00 0.000000e+00 0.0
0.000000e+00 0.000000e+00 0.0
0.000000e+00 0.000000e+00 0.0
0.000000e+00 2.165558e-01 0.0
7.712320e-02 -1.842745e-01 0.0
1.446931e-01 -1.968632e-01 0.0
2.064407e-01 -1.874335e-01 0.0
2.618138e-01 -1.733395e-01 0.0
3.107787e-01 -1.563684e-01 0.0
3.536871e-01 -1.383059e-01 0.0
3.911157e-01 -1.204881e-01 0.0
4.237270e-01 -1.037460e-01 0.0
4.521774e-01 -8.850815e-02 0.0
4.770705e-01 -7.493088e-02 0.0
4.989385e-01 -6.300476e-02 0.0
5.182401e-01 -5.262933e-02 0.0
5.353678e-01 -4.366081e-02 0.0
5.506545e-01 -3.594156e-02 0.0
5.643818e-01 -2.931634e-02 0.0
5.767878e-01 -2.364056e-02 0.0
5.880729e-01 -1.878382e-02 0.0
5.984069e-01 -1.463055e-02 0.0
6.079347e-01 -1.107950e-02 0.0
6.167785e-01 -8.043613e-03 0.0
6.250421e-01 -5.447591e-03 0.0
6.328127e-01 -3.226202e-03 0.0
6.401663e-01 -1.325269e-03 0.0
6.471668e-01 3.024743e-04 0.0
6.538688e-01 1.697354e-03 0.0
6.603190e-01 2.893619e-03 0.0
6.665570e-01 3.920471e-03 0.0
6.726167e-01 4.802796e-03 0.0
6.785269e-01 5.561792e-03 0.0
6.843125e-01 6.215495e-03 0.0
6.899942e-01 6.779277e-03 0.0
6.955902e-01 7.266270e-03 0.0
7.011155e-01 7.687679e-03 0.0
7.065834e-01 8.053057e-03 0.0
7.120050e-01 8.370551e-03 0.0
7.173896e-01 8.647110e-03 0.0
7.227455e-01 8.888660e-03 0.0
7.280795e-01 9.100257e-03 0.0
7.333975e-01 9.286214e-03 0.0
7.387043e-01 9.450209e-03 0.0
7.440042e-01 9.595381e-03 0.0
7.493008e-01 9.724407e-03 0.0
7.545970e-01 9.839571e-03 0.0
7.598954e-01 9.942818e-03 0.0
7.651981e-01 1.003581e-02 0.0
7.705068e-01 1.011996e-02 0.0
7.758230e-01 1.019648e-02 0.0
7.811479e-01 1.026639e-02 0.0
7.864824e-01 1.033056e-02 0.0
7.918274e-01 1.038975e-02 0.0
7.971834e-01 1.044457e-02 0.0
8.025509e-01 1.049557e-02 0.0
8.079302e-01 1.054321e-02 0.0
8.133217e-01 1.058786e-02 0.0
8.187254e-01 1.062984e-02 0.0
8.241413e-01 1.066943e-02 0.0
8.295696e-01 1.070685e-02 0.0
8.350101e-01 1.074228e-02 0.0
8.404628e-01 1.077587e-02 0.0
8.459274e-01 1.080771e-02 0.0
8.514039e-01 1.083788e-02 0.0
8.568920e-01 1.086642e-02 0.0
8.623915e-01 1.089332e-02 0.0
8.679022e-01 1.091852e-02 0.0
8.734238e-01 1.094193e-02 0.0
8.789562e-01 1.096334e-02 0.0
8.844991e-01 1.098250e-02 0.0
8.900525e-01 1.099899e-02 0.0
8.956163e-01 1.101227e-02 0.0
9.011905e-01 1.102153e-02 0.0
9.067755e-01 1.102568e-02 0.0
9.123715e-01 1.102320e-02 0.0
9.179794e-01 1.101201e-02 0.0
9.236003e-01 1.098920e-02 0.0
9.292358e-01 1.095079e-02 0.0
9.348884e-01 1.089125e-02 0.0
9.405613e-01 1.080292e-02 0.0
9.462592e-01 1.067512e-02 0.0
9.519877e-01 1.049295e-02 0.0
9.577543e-01 1.023551e-02 0.0
9.635673e-01 9.873309e-03 0.0
9.694346e-01 9.364601e-03 0.0
9.753593e-01 8.650236e-03 0.0
9.813293e-01 7.646981e-03 0.0
9.872930e-01 6.240559e-03 0.0
9.931072e-01 4.283911e-03 0.0
9.984367e-01 1.617623e-03 0.0
1.002601e+00 -1.846911e-03 0.0
1.004497e+00 -5.907024e-03 0.0
1.002817e+00 -9.987882e-03 0.0
0.000000e+00 -8.081033e-03 0.0
0.000000e+00 0.000000e+00 0.0
0.000000e+00 0.000000e+00 0.0
0.000000e+00 0.000000e+00 0.0
0.000000e+00 0.000000e+00 0.0
0.000000e+00 0.000000e+00 0.0
0.000000e+00 0.000000e+00 0.0
0.000000e+00 0.000000e+00 0.0
0.000000e+00 0.000000e+00 0.0
0.000000e+00 0.000000e+00 0.0
0.000000e+00 0.000000e+00 0.0
0.000000e+00 2.977958e-01 0.0
8.119002e-02 -2.505591e-01 0.0
1.541507e-01 -2.659263e-01 0.0
2.205095e-01 -2.498869e-01 0.0
2.787540e-01 -2.276697e-01 0.0
3.288394e-01 -2.025299e-01 0.0
3.715438e-01 -1.770763e-01 0.0
4.079337e-01 -1.529331e-01 0.0
4.390667e-01 -1.309228e-01 0.0
4.658713e-01 -1.113445e-01 0.0
4.891183e-01 -9.419744e-02 0.0
5.094338e-01 -7.932694e-02 0.0
5.273225e-01 -6.651136e-02 0.0
5.431923e-01 -5.551038e-02 0.0
5.573752e-01 -4.609020e-02 0.0
5.701432e-01 -3.803558e-02 0.0
5.817205e-01 -3.115431e-02 0.0
5.922931e-01 -2.527786e-02 0.0
6.020167e-01 -2.026005e-02 0.0
6.110219e-01 -1.597494e-02 0.0
6.194187e-01 -1.231471e-02 0.0
6.273002e-01 -9.187153e-03 0.0
6.347459e-01 -6.513544e-03 0.0
6.418226e-01 -4.226866e-03 0.0
6.485866e-01 -2.269726e-03 0.0
6.550869e-01 -5.941323e-04 0.0
6.613648e-01 8.415736e-04 0.0
6.674558e-01 2.072623e-03 0.0
6.733900e-01 3.129081e-03 0.0
6.791930e-01 4.036552e-03 0.0
6.848870e-01 4.816840e-03 0.0
6.904905e-01 5.488530e-03 0.0
6.960195e-01 6.067476e-03 0.0
7.014878e-01 6.567202e-03 0.0
7.069068e-01 6.999245e-03 0.0
7.122866e-01 7.373445e-03 0.0
7.176355e-01 7.698201e-03 0.0
7.229608e-01 7.980676e-03 0.0
7.282686e-01 8.226984e-03 0.0
7.335640e-01 8.442342e-03 0.0
7.388516e-01 8.631203e-03 0.0
7.441350e-01 8.797365e-03 0.0
7.494174e-01 8.944072e-03 0.0
7.547014e-01 9.074090e-03 0.0
7.599893e-01 9.189779e-03 0.0
7.652829e-01 9.293153e-03 0.0
7.705838e-01 9.385929e-03 0.0
7.758932e-01 9.469572e-03 0.0
7.812122e-01 9.545330e-03 0.0
7.865415e-01 9.614266e-03 0.0
7.918820e-01 9.677285e-03 0.0
7.972341e-01 9.735158e-03 0.0
8.025981e-01 9.788539e-03 0.0
8.079744e-01 9.837983e-03 0.0
8.133630e-01 9.883961e-03 0.0
8.187642e-01 9.926868e-03 0.0
8.241779e-01 9.967037e-03 0.0
8.296042e-01 1.000474e-02 0.0
8.350428e-01 1.004021e-02 0.0
8.404936e-01 1.007363e-02 0.0
8.459566e-01 1.010513e-02 0.0
8.514314e-01 1.013482e-02 0.0
8.569178e-01 1.016274e-02 0.0
8.624155e-01 1.018890e-02 0.0
8.679244e-01 1.021328e-02 0.0
8.734440e-01 1.023575e-02 0.0
8.789741e-01 1.025615e-02 0.0
8.845144e-01 1.027418e-02 0.0
8.900646e-01 1.028944e-02 0.0
8.956244e-01 1.030133e-02 0.0
9.011936e-01 1.030904e-02 0.0
9.067721e-01 1.031141e-02 0.0
9.123596e-01 1.030686e-02 0.0
9.179562e-01 1.029322e-02 0.0
9.235619e-01 1.026747e-02 0.0
9.291769e-01 1.022550e-02 0.0
9.348016e-01 1.016165e-02 0.0
9.404363e-01 1.006815e-02 0.0
9.460814e-01 9.934354e-03 0.0
9.517370e-01 9.745706e-03 0.0
9.574022e-01 9.482324e-03 0.0
9.630734e-01 9.117230e-03 0.0
9.687417e-01 8.614170e-03 0.0
9.743867e-01 7.925337e-03 0.0
9.799657e-01 6.989904e-03 0.0
9.853938e-01 5.735824e-03 0.0
9.905115e-01 4.090478e-03 0.0
9.950429e-01 2.011006e-03 0.0
9.985708e-01 -4.499739e-04 0.0
1.000622e+00 -3.033275e-03 0.0
1.000884e+00 -5.326927e-03 0.0
0.000000e+00 -4.706817e-03 0.0
0.000000e+00 0.000000e+00 0.0
0.000000e+00 0.000000e+00 0.0
0.000000e+00 0.000000e+00 0.0
0.000000e+00 0.000000e+00 0.0
0.000000e+00 0.000000e+00 0.0
0.000000e+00 0.000000e+00 0.0
0.000000e+00 0.000000e+00 0.0
0.000000e+00 0.000000e+00 0.0
0.000000e+00 0.000000e+00 0.0
0.000000e+00 0.000000e+00 0.0
0.000000e+00 3.923450e-01 0.0
8.874427e-02 -3.244065e-01 0.0
1.702671e-01 -3.435546e-01 0.0
2.427421e-01 -3.184588e-01 0.0
3.039114e-01 -2.849265e-01 0.0
3.543521e-01 -2.490480e-01 0.0
3.957942e-01 -2.145852e-01 0.0
4.300880e-01 -1.832826e-01 0.0
4.588100e-01 -1.556888e-01 0.0
4.831904e-01 -1.317570e-01 0.0
5.041581e-01 -1.111848e-01 0.0
5.224096e-01 -9.358516e-02 0.0
5.384712e-01 -7.856631e-02 0.0
5.527463e-01 -6.576511e-02 0.0
5.655496e-01 -5.485902e-02 0.0
5.771306e-01 -4.556769e-02 0.0
5.876904e-01 -3.765035e-02 0.0
5.973929e-01 -3.090148e-02 0.0
6.063733e-01 -2.514622e-02 0.0
6.147444e-01 -2.023601e-02 0.0
6.226004e-01 -1.604474e-02 0.0
6.300208e-01 -1.246538e-02 0.0
6.370729e-01 -9.406995e-03 0.0
6.438136e-01 -6.792397e-03 0.0
6.502920e-01 -4.556009e-03 0.0
6.565485e-01 -2.641665e-03 0.0
6.626184e-01 -1.002302e-03 0.0
6.685318e-01 4.024565e-04 0.0
6.743144e-01 1.607063e-03 0.0
6.799880e-01 2.640857e-03 0.0
6.855714e-01 3.528836e-03 0.0
6.910804e-01 4.292304e-03 0.0
6.965288e-01 4.949433e-03 0.0
7.019280e-01 5.515720e-03 0.0
7.072880e-01 6.004391e-03 0.0
7.126173e-01 6.426729e-03 0.0
7.179231e-01 6.792363e-03 0.0
7.232115e-01 7.109513e-03 0.0
7.284876e-01 7.385193e-03 0.0
7.337560e-01 7.625393e-03 0.0
7.390204e-01 7.835223e-03 0.0
7.442839e-01 8.019047e-03 0.0
7.495492e-01 8.180591e-03 0.0
7.548185e-01 8.323033e-03 0.0
7.600938e-01 8.449088e-03 0.0
7.653766e-01 8.561070e-03 0.0
7.706681e-01 8.660956e-03 0.0
7.759694e-01 8.750430e-03 0.0
7.812813e-01 8.830932e-03 0.0
7.866047e-01 8.903685e-03 0.0
7.919398e-01 8.969734e-03 0.0
7.972873e-01 9.029967e-03 0.0
8.026472e-01 9.085141e-03 0.0
8.080199e-01 9.135899e-03 0.0
8.134054e-01 9.182784e-03 0.0
8.188038e-01 9.226257e-03 0.0
8.242150e-01 9.266704e-03 0.0
8.296389e-01 9.304450e-03 0.0
8.350754e-01 9.339762e-03 0.0
8.405242e-01 9.372855e-03 0.0
8.459853e-01 9.403900e-03 0.0
8.514583e-01 9.433020e-03 0.0
8.569429e-01 9.460295e-03 0.0
8.624388e-01 9.485758e-03 0.0
8.679457e-01 9.509386e-03 0.0
8.734633e-01 9.531097e-03 0.0
8.789910e-01 9.550730e-03 0.0
8.845285e-01 9.568028e-03 0.0
8.900754e-01 9.582607e-03 0.0
8.956311e-01 9.593912e-03 0.0
9.011951e-01 9.601167e-03 0.0
9.067668e-01 9.603288e-03 0.0
9.123455e-01 9.598778e-03 0.0
9.179303e-01 9.585583e-03 0.0
9.235202e-01 9.560883e-03 0.0
9.291139e-01 9.520833e-03 0.0
9.347098e-01 9.460190e-03 0.0
9.403053e-01 9.371844e-03 0.0
9.458972e-01 9.246191e-03 0.0
9.514803e-01 9.070355e-03 0.0
9.570467e-01 8.827250e-03 0.0
9.625839e-01 8.494551e-03 0.0
9.680714e-01 8.043806e-03 0.0
9.734760e-01 7.440186e-03 0.0
9.787432e-01 6.643982e-03 0.0
9.837858e-01 5.615935e-03 0.0
9.884700e-01 4.329883e-03 0.0
9.926079e-01 2.797213e-03 0.0
9.959768e-01 1.105301e-03 0.0
9.984053e-01 -5.379132e-04 0.0
9.998846e-01 -1.883242e-03 0.0
0.000000e+00 -2.329340e-03 0.0
0.000000e+00 0.000000e+00 0.0
0.000000e+00 0.000000e+00 0.0
0.000000e+00 0.000000e+00 0.0
0.000000e+00 0.000000e+00 0.0
0.000000e+00 0.000000e+00 0.0
0.000000e+00 0.000000e+00 0.0
0.000000e+00 0.000000e+00 0.0
0.000000e+00 0.000000e+00 0.0
0.000000e+00 0.000000e+00 0.0
0.000000e+00 0.000000e+00 0.0
0.000000e+00 5.101962e-01 0.0
9.993866e-02 -4.094605e-01 0.0
1.955635e-01 -4.352887e-01 0.0
2.763574e-01 -3.953522e-01 0.0
3.398828e-01 -3.445411e-01 0.0
3.889694e-01 -2.942133e-01 0.0
4.273054e-01 -2.489888e-01 0.0
4.579196e-01 -2.099532e-01 0.0
4.829867e-01 -1.768004e-01 0.0
5.039999e-01 -1.488027e-01 0.0
5.219793e-01 -1.251839e-01 0.0
5.376305e-01 -1.052432e-01 0.0
5.514538e-01 -8.838297e-02 0.0
5.638136e-01 -7.410447e-02 0.0
5.749831e-01 -6.199394e-02 0.0
5.851727e-01 -5.170824e-02 0.0
5.945483e-01 -4.296204e-02 0.0
6.032432e-01 -3.551732e-02 0.0
6.113663e-01 -2.917478e-02 0.0
6.190075e-01 -2.376705e-02 0.0
6.262421e-01 -1.915315e-02 0.0
6.331332e-01 -1.521410e-02 0.0
6.397343e-01 -1.184923e-02 0.0
6.460905e-01 -8.973240e-03 0.0
6.522405e-01 -6.513784e-03 0.0
6.582173e-01 -4.409365e-03 0.0
6.640488e-01 -2.607591e-03 0.0
6.697587e-01 -1.064060e-03 0.0
6.753675e-01 2.589147e-04 0.0
6.808927e-01 1.393644e-03 0.0
6.863493e-01 2.367656e-03 0.0
6.917500e-01 3.204422e-03 0.0
6.971058e-01 3.923958e-03 0.0
7.024259e-01 4.543338e-03 0.0
7.077183e-01 5.077137e-03 0.0
7.129898e-01 5.537791e-03 0.0
7.182461e-01 5.935915e-03 0.0
7.234921e-01 6.280575e-03 0.0
7.287321e-01 6.579507e-03 0.0
7.339695e-01 6.839319e-03 0.0
7.392073e-01 7.065650e-03 0.0
7.444480e-01 7.263319e-03 0.0
7.496937e-01 7.436437e-03 0.0
7.549463e-01 7.588517e-03 0.0
7.602072e-01 7.722554e-03 0.0
7.654775e-01 7.841109e-03 0.0
7.707584e-01 7.946365e-03 0.0
7.760505e-01 8.040187e-03 0.0
7.813545e-01 8.124163e-03 0.0
7.866709e-01 8.199649e-03 0.0
7.920001e-01 8.267803e-03 0.0
7.973424e-01 8.329608e-03 0.0
8.026978e-01 8.385903e-03 0.0
8.080665e-01 8.437402e-03 0.0
8.134485e-01 8.484709e-03 0.0
8.188437e-01 8.528337e-03 0.0
8.242521e-01 8.568718e-03 0.0
8.296735e-01 8.606217e-03 0.0
8.351077e-01 8.641133e-03 0.0
8.405545e-01 8.673716e-03 0.0
8.460136e-01 8.704162e-03 0.0
8.514847e-01 8.732623e-03 0.0
8.569674e-01 8.759205e-03 0.0
8.624615e-01 8.783967e-03 0.0
8.679665e-01 8.806917e-03 0.0
8.734819e-01 8.828006e-03 0.0
8.790073e-01 8.847116e-03 0.0
8.845421e-01 8.864041e-03 0.0
8.900858e-01 8.878466e-03 0.0
8.956375e-01 8.889928e-03 0.0
9.011964e-01 8.897773e-03 0.0
9.067616e-01 8.901085e-03 0.0
9.123318e-01 8.898599e-03 0.0
9.179054e-01 8.888579e-03 0.0
9.234804e-01 8.868656e-03 0.0
9.290541e-01 8.835608e-03 0.0
9.346230e-01 8.785078e-03 0.0
9.401823e-01 8.711215e-03 0.0
9.457254e-01 8.606224e-03 0.0
9.512431e-01 8.459847e-03 0.0
9.567222e-01 8.258813e-03 0.0
9.621443e-01 7.986382e-03 0.0
9.674824e-01 7.622253e-03 0.0
9.726981e-01 7.143318e-03 0.0
9.777366e-01 6.526143e-03 0.0
9.825221e-01 5.752465e-03 0.0
9.869557e-01 4.819315e-03 0.0
9.909217e-01 3.754709e-03 0.0
9.943138e-01 2.636759e-03 0.0
9.970921e-01 1.607039e-03 0.0
9.993247e-01 8.065918e-04 0.0
0.000000e+00 -5.091099e-04 0.0
0.000000e+00 0.000000e+00 0.0
0.000000e+00 0.000000e+00 0.0
0.000000e+00 0.000000e+00 0.0
0.000000e+00 0.000000e+00 0.0
0.000000e+00 0.000000e+00 0.0
0.000000e+00 0.000000e+00 0.0
0.000000e+00 0.000000e+00 0.0
0.000000e+00 0.000000e+00 0.0
0.000000e+00 0.000000e+00 0.0
0.000000e+00 0.000000e+00 0.0
0.000000e+00 6.709637e-01 0.0
1.140281e-01 -5.086211e-01 0.0
2.359338e-01 -5.533079e-01 0.0
3.273326e-01 -4.828531e-01 0.0
3.904230e-01 -4.037226e-01 0.0
4.345020e-01 -3.343722e-01 0.0
4.666976e-01 -2.772531e-01 0.0
4.914330e-01 -2.307455e-01 0.0
5.113241e-01 -1.927366e-01 0.0
5.279273e-01 -1.614385e-01 0.0
5.421949e-01 -1.354714e-01 0.0
5.547330e-01 -1.137882e-01 0.0
5.659447e-01 -9.558797e-02 0.0
5.761095e-01 -8.024887e-02 0.0
5.854303e-01 -6.728006e-02 0.0
5.940594e-01 -5.628812e-02 0.0
6.021150e-01 -4.695368e-02 0.0
6.096916e-01 -3.901470e-02 0.0
6.168658e-01 -3.225430e-02 0.0
6.237010e-01 -2.649182e-02 0.0
6.302501e-01 -2.157589e-02 0.0
6.365577e-01 -1.737922e-02 0.0
6.426618e-01 -1.379436e-02 0.0
6.485946e-01 -1.073042e-02 0.0
6.543835e-01 -8.110330e-03 0.0
6.600520e-01 -5.868649e-03 0.0
6.656205e-01 -3.949748e-03 0.0
6.711061e-01 -2.306179e-03 0.0
6.765234e-01 -8.976376e-04 0.0
6.818851e-01 3.100617e-04 0.0
6.872019e-01 1.346254e-03 0.0
6.924832e-01 2.235960e-03 0.0
6.977370e-01 3.000525e-03 0.0
7.029699e-01 3.658161e-03 0.0
7.081877e-01 4.224416e-03 0.0
7.133954e-01 4.712563e-03 0.0
7.185972e-01 5.133933e-03 0.0
7.237966e-01 5.498204e-03 0.0
7.289966e-01 5.813640e-03 0.0
7.341998e-01 6.087297e-03 0.0
7.394083e-01 6.325204e-03 0.0
7.446239e-01 6.532506e-03 0.0
7.498482e-01 6.713601e-03 0.0
7.550823e-01 6.872242e-03 0.0
7.603274e-01 7.011636e-03 0.0
7.655841e-01 7.134518e-03 0.0
7.708532e-01 7.243226e-03 0.0
7.761352e-01 7.339754e-03 0.0
7.814306e-01 7.425804e-03 0.0
7.867395e-01 7.502828e-03 0.0
7.920622e-01 7.572065e-03 0.0
7.973987e-01 7.634571e-03 0.0
8.027492e-01 7.691245e-03 0.0
8.081136e-01 7.742852e-03 0.0
8.134918e-01 7.790043e-03 0.0
8.188837e-01 7.833371e-03 0.0
8.242892e-01 7.873302e-03 0.0
8.297079e-01 7.910231e-03 0.0
8.351397e-01 7.944487e-03 0.0
8.405843e-01 7.976343e-03 0.0
8.460413e-01 8.006024e-03 0.0
8.515105e-01 8.033705e-03 0.0
8.569914e-01 8.059519e-03 0.0
8.624836e-01 8.083556e-03 0.0
8.679867e-01 8.105862e-03 0.0
8.735001e-01 8.126431e-03 0.0
8.790233e-01 8.145205e-03 0.0
8.845556e-01 8.162053e-03 0.0
8.900963e-01 8.176762e-03 0.0
8.956445e-01 8.189008e-03 0.0
9.011990e-01 8.198322e-03 0.0
9.067585e-01 8.204044e-03 0.0
9.123213e-01 8.205259e-03 0.0
9.178853e-01 8.200711e-03 0.0
9.234474e-01 8.188686e-03 0.0
9.290041e-01 8.166867e-03 0.0
9.345503e-01 8.132137e-03 0.0
9.400793e-01 8.080343e-03 0.0
9.455821e-01 8.006017e-03 0.0
9.510465e-01 7.902068e-03 0.0
9.564560e-01 7.759515e-03 0.0
9.617883e-01 7.567355e-03 0.0
9.670138e-01 7.312791e-03 0.0
9.720933e-01 6.982170e-03 0.0
9.769763e-01 6.563169e-03 0.0
9.816014e-01 6.048878e-03 0.0
9.858989e-01 5.444307e-03 0.0
9.898016e-01 4.774976e-03 0.0
9.932662e-01 4.095180e-03 0.0
9.963058e-01 3.490116e-03 0.0
9.989995e-01 3.034724e-03 0.0
0.000000e+00 9.883753e-04 0.0
0.000000e+00 0.000000e+00 0.0
0.000000e+00 0.000000e+00 0.0
0.000000e+00 0.000000e+00 0.0
0.000000e+00 0.000000e+00 0.0
0.000000e+00 0.000000e+00 0.0
0.000000e+00 0.000000e+00 0.0
0.000000e+00 0.000000e+00 0.0
0.000000e+00 0.000000e+00 0.0
0.000000e+00 0.000000e+00 0.0
0.000000e+00 0.000000e+00 0.0
0.000000e+00 9.199180e-01 0.0
1.232624e-01 -6.170407e-01 0.0
3.068873e-01 -7.330498e-01 0.0
4.065898e-01 -5.786596e-01 0.0
4.601853e-01 -4.534105e-01 0.0
4.921786e-01 -3.624463e-01 0.0
5.137655e-01 -2.949093e-01 0.0
5.299478e-01 -2.429854e-01 0.0
5.430615e-01 -2.018957e-01 0.0
5.542711e-01 -1.686810e-01 0.0
5.642005e-01 -1.414210e-01 0.0
5.732096e-01 -1.188043e-01 0.0
5.815211e-01 -9.989292e-02 0.0
5.892827e-01 -8.399000e-02 0.0
5.965985e-01 -7.056115e-02 0.0
6.035460e-01 -5.918638e-02 0.0
6.101856e-01 -4.952911e-02 0.0