# vtk DataFile Version 3.0
Vector Field
ASCII
DATASET RECTILINEAR_GRID
DIMENSIONS 102 22 1
X_COORDINATES 102 double
0.000000 0.100000 0.200000 0.300000 0.400000 0.500000 0.600000 0.700000 0.800000 0.900000 1.000000 1.100000 1.200000 1.300000 1.400000 1.500000 1.600000 1.700000 1.800000 1.900000 2.000000 2.100000 2.200000 2.300000 2.400000 2.500000 2.600000 2.700000 2.800000 2.900000 3.000000 3.100000 3.200000 3.300000 3.400000 3.500000 3.600000 3.700000 3.800000 3.900000 4.000000 4.100000 4.200000 4.300000 4.400000 4.500000 4.600000 4.700000 4.800000 4.900000 5.000000 5.100000 5.200000 5.300000 5.400000 5.500000 5.600000 5.700000 5.800000 5.900000 6.000000 6.100000 6.200000 6.300000 6.400000 6.500000 6.600000 6.700000 6.800000 6.900000 7.000000 7.100000 7.200000 7.300000 7.400000 7.500000 7.600000 7.700000 7.800000 7.900000 8.000000 8.100000 8.200000 8.300000 8.400000 8.500000 8.600000 8.700000 8.800000 8.900000 9.000000 9.100000 9.200000 9.300000 9.400000 9.500000 9.600000 9.700000 9.800000 9.900000 10.000000 10.100000 
Y_COORDINATES 22 double
0.000000 0.100000 0.200000 0.300000 0.400000 0.500000 0.600000 0.700000 0.800000 0.900000 1.000000 1.100000 1.200000 1.300000 1.400000 1.500000 1.600000 1.700000 1.800000 1.900000 2.000000 2.100000 
Z_COORDINATES 1 double
0.0
POINT_DATA 2244
VECTORS Velocity double
0.000000e+00 0.000000e+00 0.0
-0.000000e+00 0.000000e+00 0.0
-0.000000e+00 0.000000e+00 0.0
-0.000000e+00 0.000000e+00 0.0
-0.000000e+00 0.000000e+00 0.0
-0.000000e+00 0.000000e+00 0.0
-0.000000e+00 0.000000e+00 0.0
-0.000000e+00 0.000000e+00 0.0
-0.000000e+00 0.000000e+00 0.0
-0.000000e+00 0.000000e+00 0.0
-0.000000e+00 0.000000e+00 0.0
5.219644e-04 0.000000e+00 0.0
4.905670e-03 0.000000e+00 0.0
1.167622e-02 0.000000e+00 0.0
1.964683e-02 0.000000e+00 0.0
2.843659e-02 0.000000e+00 0.0
3.814205e-02 0.000000e+00 0.0
4.904981e-02 0.000000e+00 0.0
6.150602e-02 0.000000e+00 0.0
7.585438e-02 0.000000e+00 0.0
9.236467e-02 0.000000e+00 0.0
1.111229e-01 0.000000e+00 0.0
1.318575e-01 0.000000e+00 0.0
1.537523e-01 0.000000e+00 0.0
1.752064e-01 0.000000e+00 0.0
1.935035e-01 0.000000e+00 0.0
2.051331e-01 0.000000e+00 0.0
2.061317e-01 0.000000e+00 0.0
1.934006e-01 0.000000e+00 0.0
1.660144e-01 0.000000e+00 0.0
1.256629e-01 0.000000e+00 0.0
7.639955e-02 0.000000e+00 0.0
2.094911e-02 0.000000e+00 0.0
-3.381187e-02 0.000000e+00 0.0
-8.068214e-02 0.000000e+00 0.0
-1.177095e-01 0.000000e+00 0.0
-1.451187e-01 0.000000e+00 0.0
-1.640406e-01 0.000000e+00 0.0
-1.759325e-01 0.000000e+00 0.0
-1.822953e-01 0.000000e+00 0.0
-1.845456e-01 0.000000e+00 0.0
-1.839555e-01 0.000000e+00 0.0
-1.812711e-01 0.000000e+00 0.0
-1.770466e-01 0.000000e+00 0.0
-1.718453e-01 0.000000e+00 0.0
-1.661319e-01 0.000000e+00 0.0
-1.602555e-01 0.000000e+00 0.0
-1.544495e-01 0.000000e+00 0.0
-1.488510e-01 0.000000e+00 0.0
-1.435467e-01 0.000000e+00 0.0
-1.385791e-01 0.000000e+00 0.0
-1.339642e-01 0.000000e+00 0.0
-1.297008e-01 0.000000e+00 0.0
-1.257776e-01 0.000000e+00 0.0
-1.221774e-01 0.000000e+00 0.0
-1.188802e-01 0.000000e+00 0.0
-1.158651e-01 0.000000e+00 0.0
-1.131111e-01 0.000000e+00 0.0
-1.105979e-01 0.000000e+00 0.0
-1.083062e-01 0.000000e+00 0.0
-1.062177e-01 0.000000e+00 0.0
-1.043150e-01 0.000000e+00 0.0
-1.025822e-01 0.000000e+00 0.0
-1.010040e-01 0.000000e+00 0.0
-9.956656e-02 0.000000e+00 0.0
-9.825691e-02 0.000000e+00 0.0
-9.706310e-02 0.000000e+00 0.0
-9.597417e-02 0.000000e+00 0.0
-9.498011e-02 0.000000e+00 0.0
-9.407179e-02 0.000000e+00 0.0
-9.324091e-02 0.000000e+00 0.0
-9.247997e-02 0.000000e+00 0.0
-9.178219e-02 0.000000e+00 0.0
-9.114151e-02 0.000000e+00 0.0
-9.055251e-02 0.000000e+00 0.0
-9.001043e-02 0.000000e+00 0.0
-8.951104e-02 0.000000e+00 0.0
-8.905067e-02 0.000000e+00 0.0
-8.862613e-02 0.000000e+00 0.0
-8.823474e-02 0.000000e+00 0.0
-8.787426e-02 0.000000e+00 0.0
-8.754289e-02 0.000000e+00 0.0
-8.723927e-02 0.000000e+00 0.0
-8.696245e-02 0.000000e+00 0.0
-8.671189e-02 0.000000e+00 0.0
-8.648748e-02 0.000000e+00 0.0
-8.628951e-02 0.000000e+00 0.0
-8.611872e-02 0.000000e+00 0.0
-8.597630e-02 0.000000e+00 0.0
-8.586393e-02 0.000000e+00 0.0
-8.578382e-02 0.000000e+00 0.0
-8.573888e-02 0.000000e+00 0.0
-8.573285e-02 0.000000e+00 0.0
-8.576832e-02 0.000000e+00 0.0
-8.584333e-02 0.000000e+00 0.0
-8.595141e-02 0.000000e+00 0.0
-8.608669e-02 0.000000e+00 0.0
-8.623786e-02 0.000000e+00 0.0
-8.638348e-02 0.000000e+00 0.0
-8.648005e-02 0.000000e+00 0.0
-8.648005e-02 0.000000e+00 0.0
0.000000e+00 0.000000e+00 0.0
0.000000e+00 0.000000e+00 0.0
0.000000e+00 0.000000e+00 0.0
0.000000e+00 0.000000e+00 0.0
0.000000e+00 0.000000e+00 0.0
0.000000e+00 0.000000e+00 0.0
0.000000e+00 0.000000e+00 0.0
0.000000e+00 0.000000e+00 0.0
0.000000e+00 0.000000e+00 0.0
0.000000e+00 0.000000e+00 0.0
0.000000e+00 0.000000e+00 0.0
0.000000e+00 -5.207153e-04 0.0
-5.248028e-04 5.134154e-04 0.0
-4.893073e-03 4.379173e-03 0.0
-1.166083e-02 6.778119e-03 0.0
-1.964174e-02 7.982125e-03 0.0
-2.844506e-02 8.795614e-03 0.0
-3.815595e-02 9.702322e-03 0.0
-4.905789e-02 1.090025e-02 0.0
-6.150335e-02 1.245208e-02 0.0
-7.584544e-02 1.435165e-02 0.0
-9.235864e-02 1.651858e-02 0.0
-1.111258e-01 1.876521e-02 0.0
-1.318681e-01 2.073580e-02 0.0
-1.537633e-01 2.189058e-02 0.0
-1.752109e-01 2.144902e-02 0.0
-1.935005e-01 1.829565e-02 0.0
-2.051270e-01 1.163262e-02 0.0
-2.061284e-01 1.003143e-03 0.0
-1.934022e-01 -1.272961e-02 0.0
-1.660182e-01 -2.738930e-02 0.0
-1.256635e-01 -4.035757e-02 0.0
-7.639417e-02 -4.926824e-02 0.0
-2.093897e-02 -5.545166e-02 0.0
3.382188e-02 -5.475801e-02 0.0
8.068848e-02 -4.686622e-02 0.0
1.177122e-01 -3.702505e-02 0.0
1.451201e-01 -2.740898e-02 0.0
1.640428e-01 -1.892231e-02 0.0
1.759355e-01 -1.189131e-02 0.0
1.822982e-01 -6.361100e-03 0.0
1.845474e-01 -2.248153e-03 0.0
1.839563e-01 5.916336e-04 0.0
1.812714e-01 2.685447e-03 0.0
1.770467e-01 4.225263e-03 0.0
1.718455e-01 5.201993e-03 0.0
1.661321e-01 5.714119e-03 0.0
1.602556e-01 5.877230e-03 0.0
1.544496e-01 5.806795e-03 0.0
1.488510e-01 5.599278e-03 0.0
1.435467e-01 5.304960e-03 0.0
1.385791e-01 4.968274e-03 0.0
1.339642e-01 4.615563e-03 0.0
1.297008e-01 4.263989e-03 0.0
1.257776e-01 3.923827e-03 0.0
1.221775e-01 3.600817e-03 0.0
1.188803e-01 3.297786e-03 0.0
1.158652e-01 3.015739e-03 0.0
1.131112e-01 2.754612e-03 0.0
1.105980e-01 2.513770e-03 0.0
1.083064e-01 2.292294e-03 0.0
1.062178e-01 2.089147e-03 0.0
1.043152e-01 1.903243e-03 0.0
1.025824e-01 1.733485e-03 0.0
1.010042e-01 1.578781e-03 0.0
9.956678e-02 1.438055e-03 0.0
9.825711e-02 1.310259e-03 0.0
9.706330e-02 1.194393e-03 0.0
9.597439e-02 1.089494e-03 0.0
9.498038e-02 9.946358e-04 0.0
9.407210e-02 9.089228e-04 0.0
9.324123e-02 8.315003e-04 0.0
9.248028e-02 7.615697e-04 0.0
9.178249e-02 6.983921e-04 0.0
9.114180e-02 6.412792e-04 0.0
9.055283e-02 5.895809e-04 0.0
9.001077e-02 5.426812e-04 0.0
8.951140e-02 5.000000e-04 0.0
8.905104e-02 4.609944e-04 0.0
8.862651e-02 4.251562e-04 0.0
8.823512e-02 3.920070e-04 0.0
8.787464e-02 3.610922e-04 0.0
8.754329e-02 3.319748e-04 0.0
8.723968e-02 3.042287e-04 0.0
8.696288e-02 2.774346e-04 0.0
8.671233e-02 2.511760e-04 0.0
8.648793e-02 2.250355e-04 0.0
8.628996e-02 1.985907e-04 0.0
8.611918e-02 1.714077e-04 0.0
8.597678e-02 1.430348e-04 0.0
8.586442e-02 1.129903e-04 0.0
8.578432e-02 8.072853e-05 0.0
8.573940e-02 4.555888e-05 0.0
8.573337e-02 6.651947e-06 0.0
8.576885e-02 -3.484662e-05 0.0
8.584386e-02 -7.437982e-05 0.0
8.595196e-02 -1.074635e-04 0.0
8.608724e-02 -1.346499e-04 0.0
8.623840e-02 -1.505396e-04 0.0
8.638403e-02 -1.449957e-04 0.0
8.648060e-02 -9.594743e-05 0.0
8.648005e-02 1.173266e-06 0.0
0.000000e+00 1.186331e-06 0.0
0.000000e+00 0.000000e+00 0.0
0.000000e+00 0.000000e+00 0.0
0.000000e+00 0.000000e+00 0.0
0.000000e+00 0.000000e+00 0.0
0.000000e+00 0.000000e+00 0.0
0.000000e+00 0.000000e+00 0.0
0.000000e+00 0.000000e+00 0.0
0.000000e+00 0.000000e+00 0.0
0.000000e+00 0.000000e+00 0.0
0.000000e+00 0.000000e+00 0.0
0.000000e+00 -6.332116e-03 0.0
-5.812622e-03 6.333189e-03 0.0
-1.942689e-02 1.800120e-02 0.0
-3.732172e-02 2.467067e-02 0.0
-5.735394e-02 2.800556e-02 0.0
-7.870221e-02 3.013684e-02 0.0
-1.012719e-01 3.227220e-02 0.0
-1.251957e-01 3.483057e-02 0.0
-1.505543e-01 3.781758e-02 0.0
-1.771994e-01 4.099857e-02 0.0
-2.045992e-01 4.391389e-02 0.0
-2.317223e-01 4.588194e-02 0.0
-2.568694e-01 4.588010e-02 0.0
-2.775852e-01 4.260887e-02 0.0
-2.907349e-01 3.460444e-02 0.0
-2.925062e-01 2.007087e-02 0.0
-2.782052e-01 -2.668874e-03 0.0
-2.451092e-01 -3.209721e-02 0.0
-1.944126e-01 -6.343026e-02 0.0
-1.290057e-01 -9.279701e-02 0.0
-5.151525e-02 -1.178456e-01 0.0
3.294447e-02 -1.337242e-01 0.0
1.134294e-01 -1.359348e-01 0.0
1.848182e-01 -1.261478e-01 0.0
2.471069e-01 -1.091570e-01 0.0
2.995170e-01 -8.943631e-02 0.0
3.419683e-01 -6.985967e-02 0.0
3.750071e-01 -5.195965e-02 0.0
3.995425e-01 -3.642567e-02 0.0
4.166515e-01 -2.346998e-02 0.0
4.274489e-01 -1.304579e-02 0.0
4.329972e-01 -4.956841e-03 0.0
4.345892e-01 1.093496e-03 0.0
4.330712e-01 5.743537e-03 0.0
4.291228e-01 9.150696e-03 0.0
4.233321e-01 1.150502e-02 0.0
4.161844e-01 1.302517e-02 0.0
4.080937e-01 1.389762e-02 0.0
3.994337e-01 1.425936e-02 0.0
3.905085e-01 1.423032e-02 0.0
3.815331e-01 1.394386e-02 0.0
3.726701e-01 1.347875e-02 0.0
3.640355e-01 1.289872e-02 0.0
3.557099e-01 1.224966e-02 0.0
3.477461e-01 1.156472e-02 0.0
3.401766e-01 1.086746e-02 0.0
3.330181e-01 1.017436e-02 0.0
3.262761e-01 9.496757e-03 0.0
3.199477e-01 8.842354e-03 0.0
3.140239e-01 8.216298e-03 0.0
3.084913e-01 7.621889e-03 0.0
3.033337e-01 7.061057e-03 0.0
2.985326e-01 6.534699e-03 0.0
2.940686e-01 6.042930e-03 0.0
2.899215e-01 5.585266e-03 0.0
2.860711e-01 5.160790e-03 0.0
2.824974e-01 4.768260e-03 0.0
2.791809e-01 4.406195e-03 0.0
2.761028e-01 4.072934e-03 0.0
2.732452e-01 3.766704e-03 0.0
2.705912e-01 3.485678e-03 0.0
2.681249e-01 3.228025e-03 0.0
2.658315e-01 2.991931e-03 0.0
2.636973e-01 2.775608e-03 0.0
2.617097e-01 2.577305e-03 0.0
2.598573e-01 2.395323e-03 0.0
2.581294e-01 2.228022e-03 0.0
2.565168e-01 2.073827e-03 0.0
2.550108e-01 1.931224e-03 0.0
2.536042e-01 1.798753e-03 0.0
2.522905e-01 1.675005e-03 0.0
2.510640e-01 1.558607e-03 0.0
2.499202e-01 1.448214e-03 0.0
2.488553e-01 1.342498e-03 0.0
2.478665e-01 1.240134e-03 0.0
2.469519e-01 1.139796e-03 0.0
2.461105e-01 1.040133e-03 0.0
2.453424e-01 9.397613e-04 0.0
2.446483e-01 8.372539e-04 0.0
2.440303e-01 7.311406e-04 0.0
2.434913e-01 6.199184e-04 0.0
2.430349e-01 5.020972e-04 0.0
2.426653e-01 3.764703e-04 0.0
2.423872e-01 2.433507e-04 0.0
2.422076e-01 1.054095e-04 0.0
2.421335e-01 -3.315398e-05 0.0
2.421554e-01 -1.563896e-04 0.0
2.422469e-01 -2.419266e-04 0.0
2.423686e-01 -2.664723e-04 0.0
2.424650e-01 -1.921977e-04 0.0
2.424634e-01 2.902254e-06 0.0
0.000000e+00 2.932686e-06 0.0
0.000000e+00 0.000000e+00 0.0
0.000000e+00 0.000000e+00 0.0
0.000000e+00 0.000000e+00 0.0
0.000000e+00 0.000000e+00 0.0
0.000000e+00 0.000000e+00 0.0
0.000000e+00 0.000000e+00 0.0
0.000000e+00 0.000000e+00 0.0
0.000000e+00 0.000000e+00 0.0
0.000000e+00 0.000000e+00 0.0
0.000000e+00 0.000000e+00 0.0
0.000000e+00 -1.694783e-02 0.0
-1.060968e-02 1.695418e-02 0.0
-3.134589e-02 3.873909e-02 0.0
-5.605539e-02 4.937363e-02 0.0
-8.179266e-02 5.373465e-02 0.0
-1.074478e-01 5.578927e-02 0.0
-1.326528e-01 5.748140e-02 0.0
-1.571739e-01 5.935875e-02 0.0
-1.806607e-01 6.130838e-02 0.0
-2.025103e-01 6.284605e-02 0.0
-2.217253e-01 6.312298e-02 0.0
-2.369550e-01 6.110693e-02 0.0
-2.463749e-01 5.530011e-02 0.0
-2.474994e-01 4.373818e-02 0.0
-2.365224e-01 2.363221e-02 0.0
-2.069718e-01 -9.478250e-03 0.0
-1.587260e-01 -5.091794e-02 0.0
-9.309431e-02 -9.773362e-02 0.0
-1.334043e-02 -1.431866e-01 0.0
7.358577e-02 -1.797219e-01 0.0
1.582994e-01 -2.025553e-01 0.0
2.360707e-01 -2.114928e-01 0.0
3.047071e-01 -2.045714e-01 0.0
3.647052e-01 -1.861482e-01 0.0
4.169816e-01 -1.614352e-01 0.0
4.619557e-01 -1.344103e-01 0.0
4.998622e-01 -1.077648e-01 0.0
5.310025e-01 -8.309862e-02 0.0
5.558050e-01 -6.122773e-02 0.0
5.747988e-01 -4.246409e-02 0.0
5.885701e-01 -2.681738e-02 0.0
5.977332e-01 -1.411988e-02 0.0
6.029298e-01 -4.102829e-03 0.0
6.050835e-01 3.590153e-03 0.0
6.047023e-01 9.532138e-03 0.0
6.022376e-01 1.396992e-02 0.0
5.980853e-01 1.717756e-02 0.0
5.925854e-01 1.939767e-02 0.0
5.860110e-01 2.083397e-02 0.0
5.785782e-01 2.166326e-02 0.0
5.705328e-01 2.198943e-02 0.0
5.620932e-01 2.191846e-02 0.0
5.534322e-01 2.155991e-02 0.0
5.446897e-01 2.099231e-02 0.0
5.359775e-01 2.027709e-02 0.0
5.273836e-01 1.946151e-02 0.0
5.189765e-01 1.858164e-02 0.0
5.108083e-01 1.766508e-02 0.0
5.029177e-01 1.673311e-02 0.0
4.953320e-01 1.580216e-02 0.0
4.880692e-01 1.488491e-02 0.0
4.811394e-01 1.399100e-02 0.0
4.745467e-01 1.312760e-02 0.0
4.682899e-01 1.229986e-02 0.0
4.623640e-01 1.151132e-02 0.0
4.567608e-01 1.076413e-02 0.0
4.514698e-01 1.005940e-02 0.0
4.464789e-01 9.397320e-03 0.0
4.417746e-01 8.777360e-03 0.0
4.373430e-01 8.198450e-03 0.0
4.331697e-01 7.659105e-03 0.0
4.292404e-01 7.157537e-03 0.0
4.255407e-01 6.691732e-03 0.0
4.220570e-01 6.259503e-03 0.0
4.187759e-01 5.858559e-03 0.0
4.156849e-01 5.486548e-03 0.0
4.127720e-01 5.141094e-03 0.0
4.100261e-01 4.819822e-03 0.0
4.074371e-01 4.520367e-03 0.0
4.049957e-01 4.240385e-03 0.0
4.026933e-01 3.977552e-03 0.0
4.005225e-01 3.729556e-03 0.0
3.984768e-01 3.494092e-03 0.0
3.965506e-01 3.268853e-03 0.0
3.947394e-01 3.051516e-03 0.0
3.930396e-01 2.839723e-03 0.0
3.914488e-01 2.631055e-03 0.0
3.899658e-01 2.423011e-03 0.0
3.885902e-01 2.212996e-03 0.0
3.873232e-01 1.998333e-03 0.0
3.861669e-01 1.776300e-03 0.0
3.851250e-01 1.544247e-03 0.0
3.842017e-01 1.299941e-03 0.0
3.834027e-01 1.042428e-03 0.0
3.827352e-01 7.730740e-04 0.0
3.822053e-01 4.969935e-04 0.0
3.818199e-01 2.291808e-04 0.0
3.815820e-01 -3.878932e-06 0.0
3.814697e-01 -1.539998e-04 0.0
3.814439e-01 -1.662945e-04 0.0
3.814417e-01 5.323599e-06 0.0
0.000000e+00 5.379192e-06 0.0
0.000000e+00 0.000000e+00 0.0
0.000000e+00 0.000000e+00 0.0
0.000000e+00 0.000000e+00 0.0
0.000000e+00 0.000000e+00 0.0
0.000000e+00 0.000000e+00 0.0
0.000000e+00 0.000000e+00 0.0
0.000000e+00 0.000000e+00 0.0
0.000000e+00 0.000000e+00 0.0
0.000000e+00 0.000000e+00 0.0
0.000000e+00 0.000000e+00 0.0
0.000000e+00 -3.008304e-02 0.0
-1.312526e-02 3.009099e-02 0.0
-3.665549e-02 6.226639e-02 0.0
-6.234618e-02 7.505590e-02 0.0
-8.683019e-02 7.821200e-02 0.0
-1.090136e-01 7.797269e-02 0.0
-1.284732e-01 7.694674e-02 0.0
-1.448673e-01 7.575885e-02 0.0
-1.577635e-01 7.420567e-02 0.0
-1.666007e-01 7.167847e-02 0.0
-1.704093e-01 6.692528e-02 0.0
-1.677848e-01 5.847952e-02 0.0
-1.562858e-01 4.380383e-02 0.0
-1.323694e-01 1.982729e-02 0.0
-8.804897e-02 -2.068461e-02 0.0
-2.459084e-02 -7.293738e-02 0.0
5.433260e-02 -1.298460e-01 0.0
1.394198e-01 -1.828249e-01 0.0
2.237757e-01 -2.275429e-01 0.0
3.029775e-01 -2.589204e-01 0.0
3.745208e-01 -2.740948e-01 0.0
4.357767e-01 -2.727476e-01 0.0
4.874897e-01 -2.562863e-01 0.0
5.317766e-01 -2.304375e-01 0.0
5.700487e-01 -1.997079e-01 0.0
6.031135e-01 -1.674738e-01 0.0
6.314208e-01 -1.360704e-01 0.0
6.552708e-01 -1.069478e-01 0.0
6.749300e-01 -8.088714e-02 0.0
6.906774e-01 -5.821198e-02 0.0
7.028158e-01 -3.895591e-02 0.0
7.116735e-01 -2.297737e-02 0.0
7.176087e-01 -1.003767e-02 0.0
7.210438e-01 1.553416e-04 0.0
7.224506e-01 8.125539e-03 0.0
7.221542e-01 1.426652e-02 0.0
7.204149e-01 1.891693e-02 0.0
7.174541e-01 2.235861e-02 0.0
7.134635e-01 2.482471e-02 0.0
7.086190e-01 2.650796e-02 0.0
7.030514e-01 2.755719e-02 0.0
6.968723e-01 2.809778e-02 0.0
6.902231e-01 2.820920e-02 0.0
6.832305e-01 2.798513e-02 0.0
6.760023e-01 2.750544e-02 0.0
6.686309e-01 2.683305e-02 0.0
6.611951e-01 2.601759e-02 0.0
6.537617e-01 2.509865e-02 0.0
6.463867e-01 2.410826e-02 0.0
6.391165e-01 2.307259e-02 0.0
6.319886e-01 2.201299e-02 0.0
6.250329e-01 2.094681e-02 0.0
6.182727e-01 1.988798e-02 0.0
6.117251e-01 1.884755e-02 0.0
6.054025e-01 1.783412e-02 0.0
5.993125e-01 1.685420e-02 0.0
5.934596e-01 1.591253e-02 0.0
5.878448e-01 1.501235e-02 0.0
5.824667e-01 1.415562e-02 0.0
5.773220e-01 1.334330e-02 0.0
5.724057e-01 1.257550e-02 0.0
5.677117e-01 1.185164e-02 0.0
5.632330e-01 1.117061e-02 0.0
5.589619e-01 1.053082e-02 0.0
5.548903e-01 9.930344e-03 0.0
5.510100e-01 9.367014e-03 0.0
5.473128e-01 8.838449e-03 0.0
5.437906e-01 8.342122e-03 0.0
5.404358e-01 7.875395e-03 0.0
5.372408e-01 7.435545e-03 0.0
5.341987e-01 7.019772e-03 0.0
5.313032e-01 6.625212e-03 0.0
5.285486e-01 6.248930e-03 0.0
5.259297e-01 5.887928e-03 0.0
5.234422e-01 5.539129e-03 0.0
5.210827e-01 5.199359e-03 0.0
5.188487e-01 4.865306e-03 0.0
5.167383e-01 4.533491e-03 0.0
5.147512e-01 4.200257e-03 0.0
5.128880e-01 3.861766e-03 0.0
5.111504e-01 3.514044e-03 0.0
5.095417e-01 3.153086e-03 0.0
5.080667e-01 2.775159e-03 0.0
5.067318e-01 2.377436e-03 0.0
5.055461e-01 1.958996e-03 0.0
5.045206e-01 1.522586e-03 0.0
5.036712e-01 1.078761e-03 0.0
5.030170e-01 6.505134e-04 0.0
5.025799e-01 2.832426e-04 0.0
5.023652e-01 4.862432e-05 0.0
5.023627e-01 7.983186e-06 0.0
0.000000e+00 8.067133e-06 0.0
0.000000e+00 0.000000e+00 0.0
0.000000e+00 0.000000e+00 0.0
0.000000e+00 0.000000e+00 0.0
0.000000e+00 0.000000e+00 0.0
0.000000e+00 0.000000e+00 0.0
0.000000e+00 0.000000e+00 0.0
0.000000e+00 0.000000e+00 0.0
0.000000e+00 0.000000e+00 0.0
0.000000e+00 0.000000e+00 0.0
0.000000e+00 0.000000e+00 0.0
0.000000e+00 -4.358571e-02 0.0
-1.349118e-02 4.359171e-02 0.0
-3.552688e-02 8.429615e-02 0.0
-5.694292e-02 9.646418e-02 0.0
-7.478883e-02 9.605469e-02 0.0
-8.838440e-02 9.157189e-02 0.0
-9.748694e-02 8.605658e-02 0.0
-1.018370e-01 8.011401e-02 0.0
-1.009448e-01 7.331240e-02 0.0
-9.431687e-02 6.504495e-02 0.0
-8.024926e-02 5.285244e-02 0.0
-5.651384e-02 3.474352e-02 0.0
-1.602482e-02 3.319202e-03 0.0
4.576736e-02 -4.195952e-02 0.0
1.214926e-01 -9.640802e-02 0.0
2.047129e-01 -1.561607e-01 0.0
2.893309e-01 -2.144691e-01 0.0
3.708040e-01 -2.643006e-01 0.0
4.446425e-01 -3.013796e-01 0.0
5.084934e-01 -3.227672e-01 0.0
5.616278e-01 -3.272264e-01 0.0
6.038342e-01 -3.149548e-01 0.0
6.384216e-01 -2.908764e-01 0.0
6.675367e-01 -2.595544e-01 0.0
6.925319e-01 -2.247026e-01 0.0
7.141973e-01 -1.891374e-01 0.0
7.329698e-01 -1.548415e-01 0.0
7.490882e-01 -1.230660e-01 0.0
7.627012e-01 -9.450067e-02 0.0
7.739298e-01 -6.944093e-02 0.0
7.829017e-01 -4.792779e-02 0.0
7.897641e-01 -2.983934e-02 0.0
7.946801e-01 -1.495335e-02 0.0
7.978347e-01 -2.999005e-03 0.0
7.995392e-01 6.421176e-03 0.0
8.000066e-01 1.379924e-02 0.0
7.994024e-01 1.952131e-02 0.0
7.978661e-01 2.389503e-02 0.0
7.955216e-01 2.716937e-02 0.0
7.924824e-01 2.954733e-02 0.0
7.888465e-01 3.119331e-02 0.0
7.847008e-01 3.224356e-02 0.0
7.801026e-01 3.280761e-02 0.0
7.751229e-01 3.296494e-02 0.0
7.698373e-01 3.279125e-02 0.0
7.643131e-01 3.235738e-02 0.0
7.586113e-01 3.171955e-02 0.0
7.527865e-01 3.092363e-02 0.0
7.468871e-01 3.000775e-02 0.0
7.409559e-01 2.900400e-02 0.0
7.350296e-01 2.793947e-02 0.0
7.291398e-01 2.683673e-02 0.0
7.233134e-01 2.571452e-02 0.0
7.175728e-01 2.458828e-02 0.0
7.119365e-01 2.347055e-02 0.0
7.064195e-01 2.237140e-02 0.0
7.010336e-01 2.129867e-02 0.0
6.957877e-01 2.025837e-02 0.0
6.906886e-01 1.925487e-02 0.0
6.857408e-01 1.829122e-02 0.0
6.809472e-01 1.736932e-02 0.0
6.763089e-01 1.649010e-02 0.0
6.718260e-01 1.565368e-02 0.0
6.674975e-01 1.485951e-02 0.0
6.633215e-01 1.410649e-02 0.0
6.592956e-01 1.339308e-02 0.0
6.554168e-01 1.271738e-02 0.0
6.516819e-01 1.207718e-02 0.0
6.480874e-01 1.147003e-02 0.0
6.446299e-01 1.089329e-02 0.0
6.413057e-01 1.034410e-02 0.0
6.381116e-01 9.819465e-03 0.0
6.350445e-01 9.316207e-03 0.0
6.321016e-01 8.831007e-03 0.0
6.292805e-01 8.360384e-03 0.0
6.265794e-01 7.900676e-03 0.0
6.239968e-01 7.447993e-03 0.0
6.215323e-01 6.998161e-03 0.0
6.191860e-01 6.546714e-03 0.0
6.169591e-01 6.088874e-03 0.0
6.148537e-01 5.619554e-03 0.0
6.128736e-01 5.133422e-03 0.0
6.110238e-01 4.625074e-03 0.0
6.093120e-01 4.089417e-03 0.0
6.077488e-01 3.522344e-03 0.0
6.063496e-01 2.921985e-03 0.0
6.051373e-01 2.291232e-03 0.0
6.041465e-01 1.641517e-03 0.0
6.034297e-01 1.000212e-03 0.0
6.030567e-01 4.217585e-04 0.0
6.030544e-01 1.048187e-05 0.0
0.000000e+00 1.059246e-05 0.0
0.000000e+00 0.000000e+00 0.0
0.000000e+00 0.000000e+00 0.0
0.000000e+00 0.000000e+00 0.0
0.000000e+00 0.000000e+00 0.0
0.000000e+00 0.000000e+00 0.0
0.000000e+00 0.000000e+00 0.0
0.000000e+00 0.000000e+00 0.0
0.000000e+00 0.000000e+00 0.0
0.000000e+00 0.000000e+00 0.0
0.000000e+00 0.000000e+00 0.0
0.000000e+00 -5.673123e-02 0.0
-1.313537e-02 5.673494e-02 0.0
-3.053791e-02 1.016920e-01 0.0
-4.350287e-02 1.094220e-01 0.0
-5.070667e-02 1.032566e-01 0.0
-5.214263e-02 9.301231e-02 0.0
-4.787655e-02 8.179700e-02 0.0
-3.768552e-02 6.992592e-02 0.0
-2.017060e-02 5.579438e-02 0.0
6.145813e-03 3.872239e-02 0.0
4.580682e-02 1.318761e-02 0.0
1.040953e-01 -2.354325e-02 0.0
1.773728e-01 -6.995261e-02 0.0
2.600947e-01 -1.246768e-01 0.0
3.470073e-01 -1.833208e-01 0.0
4.319272e-01 -2.410853e-01 0.0
5.098592e-01 -2.924058e-01 0.0
5.778001e-01 -3.322421e-01 0.0
6.339679e-01 -3.575439e-01 0.0
6.780555e-01 -3.668506e-01 0.0
7.105547e-01 -3.597244e-01 0.0
7.347865e-01 -3.391888e-01 0.0
7.535416e-01 -3.096342e-01 0.0
7.687695e-01 -2.747831e-01 0.0
7.816974e-01 -2.376290e-01 0.0
7.930254e-01 -2.004635e-01 0.0
8.031149e-01 -1.649303e-01 0.0
8.121053e-01 -1.320568e-01 0.0
8.200179e-01 -1.024138e-01 0.0
8.268260e-01 -7.624921e-02 0.0
8.325067e-01 -5.360817e-02 0.0
8.370589e-01 -3.439114e-02 0.0
8.404940e-01 -1.838810e-02 0.0
8.428455e-01 -5.350346e-03 0.0
8.442462e-01 5.020541e-03 0.0
8.448066e-01 1.323899e-02 0.0
8.446176e-01 1.971038e-02 0.0
8.437616e-01 2.475126e-02 0.0
8.423156e-01 2.861556e-02 0.0
8.403526e-01 3.151041e-02 0.0
8.379400e-01 3.360617e-02 0.0
8.351391e-01 3.504461e-02 0.0
8.320033e-01 3.594351e-02 0.0
8.285693e-01 3.639910e-02 0.0
8.248742e-01 3.648648e-02 0.0
8.209593e-01 3.627243e-02 0.0
8.168641e-01 3.581495e-02 0.0
8.126255e-01 3.516241e-02 0.0
8.082775e-01 3.435594e-02 0.0
8.038507e-01 3.343094e-02 0.0
7.993724e-01 3.241799e-02 0.0
7.948665e-01 3.134277e-02 0.0
7.903542e-01 3.022694e-02 0.0
7.858539e-01 2.908864e-02 0.0
7.813818e-01 2.794289e-02 0.0
7.769514e-01 2.680199e-02 0.0
7.725744e-01 2.567584e-02 0.0
7.682607e-01 2.457224e-02 0.0
7.640185e-01 2.349724e-02 0.0
7.598545e-01 2.245535e-02 0.0
7.557742e-01 2.144978e-02 0.0
7.517819e-01 2.048258e-02 0.0
7.478808e-01 1.955487e-02 0.0
7.440736e-01 1.866696e-02 0.0
7.403617e-01 1.781848e-02 0.0
7.367465e-01 1.700852e-02 0.0
7.332283e-01 1.623567e-02 0.0
7.298075e-01 1.549814e-02 0.0
7.264839e-01 1.479380e-02 0.0
7.232571e-01 1.412022e-02 0.0
7.201268e-01 1.347467e-02 0.0
7.170922e-01 1.285422e-02 0.0
7.141529e-01 1.225566e-02 0.0
7.113084e-01 1.167558e-02 0.0
7.085587e-01 1.111032e-02 0.0
7.059036e-01 1.055597e-02 0.0
7.033434e-01 1.000834e-02 0.0
7.008789e-01 9.462787e-03 0.0
6.985115e-01 8.914280e-03 0.0
6.962432e-01 8.357326e-03 0.0
6.940770e-01 7.785930e-03 0.0
6.920170e-01 7.193573e-03 0.0
6.900691e-01 6.573225e-03 0.0
6.882412e-01 5.917437e-03 0.0
6.865452e-01 5.218534e-03 0.0
6.849983e-01 4.469022e-03 0.0
6.836273e-01 3.662403e-03 0.0
6.824744e-01 2.794544e-03 0.0
6.816077e-01 1.867152e-03 0.0
6.811291e-01 9.004881e-04 0.0
6.811273e-01 1.249125e-05 0.0
0.000000e+00 1.262350e-05 0.0
0.000000e+00 0.000000e+00 0.0
0.000000e+00 0.000000e+00 0.0
0.000000e+00 0.000000e+00 0.0
0.000000e+00 0.000000e+00 0.0
0.000000e+00 0.000000e+00 0.0
0.000000e+00 0.000000e+00 0.0
0.000000e+00 0.000000e+00 0.0
0.000000e+00 0.000000e+00 0.0
0.000000e+00 0.000000e+00 0.0
0.000000e+00 0.000000e+00 0.0
0.000000e+00 -7.038071e-02 0.0
-1.364161e-02 7.038237e-02 0.0
-2.292537e-02 1.109690e-01 0.0
-2.233807e-02 1.088293e-01 0.0
-1.389085e-02 9.480984e-02 0.0
1.801268e-03 7.732613e-02 0.0
2.485929e-02 5.874551e-02 0.0
5.555997e-02 3.922687e-02 0.0
9.750658e-02 1.384344e-02 0.0
1.555562e-01 -1.933354e-02 0.0
2.278220e-01 -5.908083e-02 0.0
3.099638e-01 -1.056816e-01 0.0
3.976378e-01 -1.576204e-01 0.0
4.853582e-01 -2.123939e-01 0.0
5.681536e-01 -2.661183e-01 0.0
6.416401e-01 -3.145770e-01 0.0
7.028876e-01 -3.536567e-01 0.0
7.507587e-01 -3.801120e-01 0.0
7.854550e-01 -3.922358e-01 0.0
8.080723e-01 -3.894650e-01 0.0
8.214798e-01 -3.731325e-01 0.0
8.291218e-01 -3.468336e-01 0.0
8.334963e-01 -3.140107e-01 0.0
8.362845e-01 -2.775708e-01 0.0
8.385015e-01 -2.398441e-01 0.0
8.406918e-01 -2.026523e-01 0.0
8.431113e-01 -1.673496e-01 0.0
8.457814e-01 -1.347276e-01 0.0
8.485990e-01 -1.052318e-01 0.0
8.514053e-01 -7.905548e-02 0.0
8.540497e-01 -5.625213e-02 0.0
8.564097e-01 -3.675076e-02 0.0
8.583670e-01 -2.034514e-02 0.0
8.598360e-01 -6.819237e-03 0.0
8.607846e-01 4.072087e-03 0.0
8.612236e-01 1.280005e-02 0.0
8.611761e-01 1.975800e-02 0.0
8.606758e-01 2.525179e-02 0.0
8.597630e-01 2.952850e-02 0.0
8.584816e-01 3.279196e-02 0.0
8.568756e-01 3.521236e-02 0.0
8.549874e-01 3.693299e-02 0.0
8.528562e-01 3.807482e-02 0.0
8.505158e-01 3.873970e-02 0.0
8.479896e-01 3.901283e-02 0.0
8.452995e-01 3.896268e-02 0.0
8.424694e-01 3.864519e-02 0.0
8.395229e-01 3.810904e-02 0.0
8.364822e-01 3.739682e-02 0.0
8.333674e-01 3.654590e-02 0.0
8.301961e-01 3.558945e-02 0.0
8.269841e-01 3.455495e-02 0.0
8.237452e-01 3.346588e-02 0.0
8.204920e-01 3.234202e-02 0.0
8.172352e-01 3.119990e-02 0.0
8.139842e-01 3.005313e-02 0.0
8.107475e-01 2.891279e-02 0.0
8.075321e-01 2.778776e-02 0.0
8.043444e-01 2.668504e-02 0.0
8.011899e-01 2.560998e-02 0.0
7.980733e-01 2.456653e-02 0.0
7.949987e-01 2.355741e-02 0.0
7.919694e-01 2.258433e-02 0.0
7.889884e-01 2.164811e-02 0.0
7.860582e-01 2.074885e-02 0.0
7.831808e-01 1.988601e-02 0.0
7.803581e-01 1.905853e-02 0.0
7.775915e-01 1.826490e-02 0.0
7.748823e-01 1.750319e-02 0.0
7.722315e-01 1.677116e-02 0.0
7.696402e-01 1.606619e-02 0.0
7.671091e-01 1.538543e-02 0.0
7.646393e-01 1.472568e-02 0.0
7.622315e-01 1.408348e-02 0.0
7.598870e-01 1.345507e-02 0.0
7.576067e-01 1.283645e-02 0.0
7.553919e-01 1.222326e-02 0.0
7.532443e-01 1.161053e-02 0.0
7.511660e-01 1.099281e-02 0.0
7.491594e-01 1.036406e-02 0.0
7.472279e-01 9.717561e-03 0.0
7.453759e-01 9.045790e-03 0.0
7.436090e-01 8.340264e-03 0.0
7.419353e-01 7.591339e-03 0.0
7.403661e-01 6.787899e-03 0.0
7.389184e-01 5.916848e-03 0.0
7.376187e-01 4.962270e-03 0.0
7.365094e-01 3.903998e-03 0.0
7.356601e-01 2.716609e-03 0.0
7.351801e-01 1.380744e-03 0.0
7.351789e-01 1.379906e-05 0.0
0.000000e+00 1.394618e-05 0.0
0.000000e+00 0.000000e+00 0.0
0.000000e+00 0.000000e+00 0.0
0.000000e+00 0.000000e+00 0.0
0.000000e+00 0.000000e+00 0.0
0.000000e+00 0.000000e+00 0.0
0.000000e+00 0.000000e+00 0.0
0.000000e+00 0.000000e+00 0.0
0.000000e+00 0.000000e+00 0.0
0.000000e+00 0.000000e+00 0.0
0.000000e+00 0.000000e+00 0.0
0.000000e+00 -8.411124e-02 0.0
-1.372377e-02 8.411105e-02 0.0
-5.694957e-03 1.029336e-01 0.0
1.881023e-02 8.431938e-02 0.0
5.203413e-02 6.158724e-02 0.0
9.288011e-02 3.648660e-02 0.0
1.440417e-01 7.589991e-03 0.0
2.085325e-01 -2.526363e-02 0.0
2.838437e-01 -6.147302e-02 0.0
3.665360e-01 -1.020317e-01 0.0
4.538428e-01 -1.463883e-01 0.0
5.418205e-01 -1.936544e-01 0.0
6.262690e-01 -2.420630e-01 0.0
7.030100e-01 -2.891334e-01 0.0
7.686565e-01 -3.317686e-01 0.0
8.209107e-01 -3.668363e-01 0.0
8.588918e-01 -3.916394e-01 0.0
8.831452e-01 -4.043624e-01 0.0
8.952132e-01 -4.042996e-01 0.0
8.975671e-01 -3.918173e-01 0.0
8.939277e-01 -3.694950e-01 0.0
8.871083e-01 -3.400168e-01 0.0
8.791647e-01 -3.060679e-01 0.0
8.714271e-01 -2.698319e-01 0.0
8.646441e-01 -2.330594e-01 0.0
8.591698e-01 -1.971773e-01 0.0
8.551432e-01 -1.633233e-01 0.0
8.524587e-01 -1.320437e-01 0.0
8.509120e-01 -1.036853e-01 0.0
8.502653e-01 -7.840850e-02 0.0
8.502600e-01 -5.624640e-02 0.0
8.506404e-01 -3.713081e-02 0.0
8.512025e-01 -2.090706e-02 0.0
8.517752e-01 -7.391941e-03 0.0
8.522213e-01 3.626161e-03 0.0
8.524535e-01 1.256794e-02 0.0
8.524324e-01 1.977922e-02 0.0
8.521474e-01 2.553702e-02 0.0
8.516054e-01 3.007067e-02 0.0
8.508239e-01 3.357358e-02 0.0
8.498260e-01 3.621040e-02 0.0
8.486371e-01 3.812213e-02 0.0
8.472824e-01 3.942964e-02 0.0
8.457858e-01 4.023646e-02 0.0
8.441677e-01 4.063112e-02 0.0
8.424419e-01 4.068860e-02 0.0
8.406222e-01 4.046500e-02 0.0
8.387232e-01 4.000820e-02 0.0
8.367586e-01 3.936168e-02 0.0
8.347404e-01 3.856422e-02 0.0
8.326800e-01 3.764997e-02 0.0
8.305871e-01 3.664805e-02 0.0
8.284698e-01 3.558322e-02 0.0
8.263356e-01 3.447638e-02 0.0
8.241908e-01 3.334497e-02 0.0
8.220407e-01 3.220339e-02 0.0
8.198903e-01 3.106341e-02 0.0
8.177437e-01 2.993449e-02 0.0
8.156047e-01 2.882415e-02 0.0
8.134767e-01 2.773816e-02 0.0
8.113625e-01 2.668083e-02 0.0
8.092649e-01 2.565522e-02 0.0
8.071861e-01 2.466330e-02 0.0
8.051282e-01 2.370616e-02 0.0
8.030931e-01 2.278410e-02 0.0
8.010825e-01 2.189677e-02 0.0
7.990979e-01 2.104326e-02 0.0
7.971408e-01 2.022219e-02 0.0
7.952125e-01 1.943174e-02 0.0
7.933141e-01 1.866972e-02 0.0
7.914468e-01 1.793360e-02 0.0
7.896119e-01 1.722051e-02 0.0
7.878104e-01 1.652729e-02 0.0
7.860437e-01 1.585041e-02 0.0
7.843130e-01 1.518597e-02 0.0
7.826196e-01 1.452999e-02 0.0
7.809650e-01 1.387804e-02 0.0
7.793508e-01 1.322484e-02 0.0
7.777792e-01 1.256462e-02 0.0
7.762525e-01 1.189093e-02 0.0
7.747737e-01 1.119652e-02 0.0
7.733466e-01 1.047304e-02 0.0
7.719762e-01 9.710849e-03 0.0
7.706692e-01 8.898467e-03 0.0
7.694354e-01 8.021877e-03 0.0
7.682892e-01 7.063240e-03 0.0
7.672530e-01 5.998679e-03 0.0
7.663626e-01 4.794503e-03 0.0
7.656769e-01 3.402490e-03 0.0
7.652879e-01 1.769970e-03 0.0
7.652875e-01 1.431699e-05 0.0
0.000000e+00 1.447161e-05 0.0
0.000000e+00 0.000000e+00 0.0
0.000000e+00 0.000000e+00 0.0
0.000000e+00 0.000000e+00 0.0
0.000000e+00 0.000000e+00 0.0
0.000000e+00 0.000000e+00 0.0
0.000000e+00 0.000000e+00 0.0
0.000000e+00 0.000000e+00 0.0
0.000000e+00 0.000000e+00 0.0
0.000000e+00 0.000000e+00 0.0
0.000000e+00 0.000000e+00 0.0
0.000000e+00 -7.895971e-02 0.0
5.157489e-03 7.895912e-02 0.0
5.420983e-02 5.387547e-02 0.0
1.182010e-01 2.032375e-02 0.0
1.920606e-01 -1.227017e-02 0.0
2.728333e-01 -4.427867e-02 0.0
3.573502e-01 -7.692110e-02 0.0
4.439028e-01 -1.118174e-01 0.0
5.312725e-01 -1.488492e-01 0.0
6.171202e-01 -1.878845e-01 0.0
6.988940e-01 -2.281608e-01 0.0
7.737414e-01 -2.684958e-01 0.0
8.388886e-01 -3.072054e-01 0.0
8.919848e-01 -3.422302e-01 0.0
9.315293e-01 -3.713178e-01 0.0