# vtk DataFile Version 3.0
Vector Field
ASCII
DATASET RECTILINEAR_GRID
DIMENSIONS 102 22 1
X_COORDINATES 102 double
0.000000 0.100000 0.200000 0.300000 0.400000 0.500000 0.600000 0.700000 0.800000 0.900000 1.000000 1.100000 1.200000 1.300000 1.400000 1.500000 1.600000 1.700000 1.800000 1.900000 2.000000 2.100000 2.200000 2.300000 2.400000 2.500000 2.600000 2.700000 2.800000 2.900000 3.000000 3.100000 3.200000 3.300000 3.400000 3.500000 3.600000 3.700000 3.800000 3.900000 4.000000 4.100000 4.200000 4.300000 4.400000 4.500000 4.600000 4.700000 4.800000 4.900000 5.000000 5.100000 5.200000 5.300000 5.400000 5.500000 5.600000 5.700000 5.800000 5.900000 6.000000 6.100000 6.200000 6.300000 6.400000 6.500000 6.600000 6.700000 6.800000 6.900000 7.000000 7.100000 7.200000 7.300000 7.400000 7.500000 7.600000 7.700000 7.800000 7.900000 8.000000 8.100000 8.200000 8.300000 8.400000 8.500000 8.600000 8.700000 8.800000 8.900000 9.000000 9.100000 9.200000 9.300000 9.400000 9.500000 9.600000 9.700000 9.800000 9.900000 10.000000 10.100000 
Y_COORDINATES 22 double
0.000000 0.100000 0.200000 0.300000 0.400000 0.500000 0.600000 0.700000 0.800000 0.900000 1.000000 1.100000 1.200000 1.300000 1.400000 1.500000 1.600000 1.700000 1.800000 1.900000 2.000000 2.100000 
Z_COORDINATES 1 double
0.0
POINT_DATA 2244
VECTORS Velocity double
0.000000e+00 0.000000e+00 0.0
-0.000000e+00 0.000000e+00 0.0
-0.000000e+00 0.000000e+00 0.0
-0.000000e+00 0.000000e+00 0.0
-0.000000e+00 0.000000e+00 0.0
-0.000000e+00 0.000000e+00 0.0
-0.000000e+00 0.000000e+00 0.0
-0.000000e+00 0.000000e+00 0.0
-0.000000e+00 0.000000e+00 0.0
-0.000000e+00 0.000000e+00 0.0
-0.000000e+00 0.000000e+00 0.0
4.169543e-04 0.000000e+00 0.0
4.746590e-03 0.000000e+00 0.0
1.137342e-02 0.000000e+00 0.0
1.909855e-02 0.000000e+00 0.0
2.751539e-02 0.000000e+00 0.0
3.668851e-02 0.000000e+00 0.0
4.687447e-02 0.000000e+00 0.0
5.839400e-02 0.000000e+00 0.0
7.157664e-02 0.000000e+00 0.0
8.670170e-02 0.000000e+00 0.0
1.039079e-01 0.000000e+00 0.0
1.230480e-01 0.000000e+00 0.0
1.435164e-01 0.000000e+00 0.0
1.640596e-01 0.000000e+00 0.0
1.824921e-01 0.000000e+00 0.0
1.959031e-01 0.000000e+00 0.0
2.007870e-01 0.000000e+00 0.0
1.937753e-01 0.000000e+00 0.0
1.733610e-01 0.000000e+00 0.0
1.395807e-01 0.000000e+00 0.0
9.561778e-02 0.000000e+00 0.0
4.478649e-02 0.000000e+00 0.0
-8.576055e-03 0.000000e+00 0.0
-5.720764e-02 0.000000e+00 0.0
-9.722404e-02 0.000000e+00 0.0
-1.279477e-01 0.000000e+00 0.0
-1.500674e-01 0.000000e+00 0.0
-1.648209e-01 0.000000e+00 0.0
-1.736065e-01 0.000000e+00 0.0
-1.777958e-01 0.000000e+00 0.0
-1.786525e-01 0.000000e+00 0.0
-1.771981e-01 0.000000e+00 0.0
-1.739402e-01 0.000000e+00 0.0
-1.694388e-01 0.000000e+00 0.0
-1.641945e-01 0.000000e+00 0.0
-1.585998e-01 0.000000e+00 0.0
-1.529427e-01 0.000000e+00 0.0
-1.474000e-01 0.000000e+00 0.0
-1.420797e-01 0.000000e+00 0.0
-1.370459e-01 0.000000e+00 0.0
-1.323283e-01 0.000000e+00 0.0
-1.279351e-01 0.000000e+00 0.0
-1.238612e-01 0.000000e+00 0.0
-1.200931e-01 0.000000e+00 0.0
-1.166126e-01 0.000000e+00 0.0
-1.133996e-01 0.000000e+00 0.0
-1.104328e-01 0.000000e+00 0.0
-1.076913e-01 0.000000e+00 0.0
-1.051546e-01 0.000000e+00 0.0
-1.028033e-01 0.000000e+00 0.0
-1.006192e-01 0.000000e+00 0.0
-9.858508e-02 0.000000e+00 0.0
-9.668529e-02 0.000000e+00 0.0
-9.490551e-02 0.000000e+00 0.0
-9.323284e-02 0.000000e+00 0.0
-9.165587e-02 0.000000e+00 0.0
-9.016466e-02 0.000000e+00 0.0
-8.875072e-02 0.000000e+00 0.0
-8.740703e-02 0.000000e+00 0.0
-8.612794e-02 0.000000e+00 0.0
-8.490911e-02 0.000000e+00 0.0
-8.374745e-02 0.000000e+00 0.0
-8.264100e-02 0.000000e+00 0.0
-8.158878e-02 0.000000e+00 0.0
-8.059069e-02 0.000000e+00 0.0
-7.964736e-02 0.000000e+00 0.0
-7.875996e-02 0.000000e+00 0.0
-7.793011e-02 0.000000e+00 0.0
-7.715965e-02 0.000000e+00 0.0
-7.645057e-02 0.000000e+00 0.0
-7.580479e-02 0.000000e+00 0.0
-7.522409e-02 0.000000e+00 0.0
-7.470997e-02 0.000000e+00 0.0
-7.426353e-02 0.000000e+00 0.0
-7.388544e-02 0.000000e+00 0.0
-7.357582e-02 0.000000e+00 0.0
-7.333424e-02 0.000000e+00 0.0
-7.315964e-02 0.000000e+00 0.0
-7.305029e-02 0.000000e+00 0.0
-7.300365e-02 0.000000e+00 0.0
-7.301608e-02 0.000000e+00 0.0
-7.308219e-02 0.000000e+00 0.0
-7.319392e-02 0.000000e+00 0.0
-7.334060e-02 0.000000e+00 0.0
-7.351372e-02 0.000000e+00 0.0
-7.370237e-02 0.000000e+00 0.0
-7.389268e-02 0.000000e+00 0.0
-7.405580e-02 0.000000e+00 0.0
-7.414325e-02 0.000000e+00 0.0
-7.414325e-02 0.000000e+00 0.0
0.000000e+00 0.000000e+00 0.0
0.000000e+00 0.000000e+00 0.0
0.000000e+00 0.000000e+00 0.0
0.000000e+00 0.000000e+00 0.0
0.000000e+00 0.000000e+00 0.0
0.000000e+00 0.000000e+00 0.0
0.000000e+00 0.000000e+00 0.0
0.000000e+00 0.000000e+00 0.0
0.000000e+00 0.000000e+00 0.0
0.000000e+00 0.000000e+00 0.0
0.000000e+00 0.000000e+00 0.0
0.000000e+00 -6.737049e-04 0.0
-4.180477e-04 6.721809e-04 0.0
-4.747747e-03 4.475826e-03 0.0
-1.137519e-02 6.773568e-03 0.0
-1.910156e-02 7.872500e-03 0.0
-2.752037e-02 8.564933e-03 0.0
-3.669630e-02 9.322061e-03 0.0
-4.688611e-02 1.033594e-02 0.0
-5.841070e-02 1.167071e-02 0.0
-7.159976e-02 1.333519e-02 0.0
-8.673262e-02 1.527899e-02 0.0
-1.039477e-01 1.736125e-02 0.0
-1.230974e-01 1.929576e-02 0.0
-1.435745e-01 2.062326e-02 0.0
-1.641242e-01 2.069582e-02 0.0
-1.825576e-01 1.857955e-02 0.0
-1.959610e-01 1.354953e-02 0.0
-2.008260e-01 5.011132e-03 0.0
-1.937844e-01 -6.895486e-03 0.0
-1.733340e-01 -2.030432e-02 0.0
-1.395145e-01 -3.367332e-02 0.0
-9.551781e-02 -4.385056e-02 0.0
-4.465507e-02 -5.071661e-02 0.0
8.722474e-03 -5.323141e-02 0.0
5.734810e-02 -4.847949e-02 0.0
9.734985e-02 -3.985562e-02 0.0
1.280559e-01 -3.055990e-02 0.0
1.501579e-01 -2.195585e-02 0.0
1.648951e-01 -1.459110e-02 0.0
1.736666e-01 -8.625371e-03 0.0
1.778445e-01 -4.031779e-03 0.0
1.786926e-01 -7.019130e-04 0.0
1.772308e-01 1.607857e-03 0.0
1.739674e-01 3.409635e-03 0.0
1.694620e-01 4.651507e-03 0.0
1.642151e-01 5.393037e-03 0.0
1.586188e-01 5.742378e-03 0.0
1.529612e-01 5.803764e-03 0.0
1.474186e-01 5.688714e-03 0.0
1.420989e-01 5.465861e-03 0.0
1.370662e-01 5.178897e-03 0.0
1.323499e-01 4.862424e-03 0.0
1.279584e-01 4.537626e-03 0.0
1.238864e-01 4.218105e-03 0.0
1.201205e-01 3.912062e-03 0.0
1.166426e-01 3.624078e-03 0.0
1.134323e-01 3.356411e-03 0.0
1.104686e-01 3.109854e-03 0.0
1.077304e-01 2.884310e-03 0.0
1.051974e-01 2.679152e-03 0.0
1.028501e-01 2.493444e-03 0.0
1.006702e-01 2.326061e-03 0.0
9.864060e-02 2.175763e-03 0.0
9.674552e-02 2.041224e-03 0.0
9.497060e-02 1.921061e-03 0.0
9.330291e-02 1.813844e-03 0.0
9.173094e-02 1.718118e-03 0.0
9.024467e-02 1.632415e-03 0.0
8.883554e-02 1.555277e-03 0.0
8.749642e-02 1.485270e-03 0.0
8.622156e-02 1.421006e-03 0.0
8.500655e-02 1.361166e-03 0.0
8.384818e-02 1.304514e-03 0.0
8.274442e-02 1.249918e-03 0.0
8.169420e-02 1.196366e-03 0.0
8.069737e-02 1.142982e-03 0.0
7.975449e-02 1.089029e-03 0.0
7.886672e-02 1.033922e-03 0.0
7.803565e-02 9.772293e-04 0.0
7.726313e-02 9.186732e-04 0.0
7.655115e-02 8.581249e-04 0.0
7.590171e-02 7.955979e-04 0.0
7.531662e-02 7.312363e-04 0.0
7.479748e-02 6.653010e-04 0.0
7.434548e-02 5.981535e-04 0.0
7.396139e-02 5.302386e-04 0.0
7.364548e-02 4.620672e-04 0.0
7.339743e-02 3.942018e-04 0.0
7.321634e-02 3.272501e-04 0.0
7.310061e-02 2.618806e-04 0.0
7.304788e-02 1.988838e-04 0.0
7.305470e-02 1.393308e-04 0.0
7.311597e-02 8.488632e-05 0.0
7.322397e-02 3.815589e-05 0.0
7.336785e-02 2.276897e-06 0.0
7.353903e-02 -2.502342e-05 0.0
7.372632e-02 -4.113417e-05 0.0
7.391577e-02 -4.329871e-05 0.0
7.407849e-02 -1.655714e-05 0.0
7.416554e-02 5.909818e-05 0.0
7.414325e-02 1.684527e-04 0.0
0.000000e+00 1.688308e-04 0.0
0.000000e+00 0.000000e+00 0.0
0.000000e+00 0.000000e+00 0.0
0.000000e+00 0.000000e+00 0.0
0.000000e+00 0.000000e+00 0.0
0.000000e+00 0.000000e+00 0.0
0.000000e+00 0.000000e+00 0.0
0.000000e+00 0.000000e+00 0.0
0.000000e+00 0.000000e+00 0.0
0.000000e+00 0.000000e+00 0.0
0.000000e+00 0.000000e+00 0.0
0.000000e+00 -6.327810e-03 0.0
-5.508889e-03 6.327196e-03 0.0
-1.875174e-02 1.775680e-02 0.0
-3.609875e-02 2.415870e-02 0.0
-5.538690e-02 2.719877e-02 0.0
-7.577807e-02 2.899422e-02 0.0
-9.717510e-02 3.075722e-02 0.0
-1.197312e-01 3.293012e-02 0.0
-1.435780e-01 3.555566e-02 0.0
-1.686702e-01 3.846547e-02 0.0
-1.946438e-01 4.129080e-02 0.0
-2.207008e-01 4.345633e-02 0.0
-2.454555e-01 4.408860e-02 0.0
-2.668111e-01 4.201697e-02 0.0
-2.818566e-01 3.577946e-02 0.0
-2.873009e-01 2.406190e-02 0.0
-2.792141e-01 5.500919e-03 0.0
-2.536226e-01 -2.054231e-02 0.0
-2.106056e-01 -4.987432e-02 0.0
-1.528104e-01 -7.806137e-02 0.0
-8.215460e-02 -1.042910e-01 0.0
-2.962445e-03 -1.230046e-01 0.0
7.720763e-02 -1.308486e-01 0.0
1.503088e-01 -1.262944e-01 0.0
2.146691e-01 -1.128017e-01 0.0
2.697694e-01 -9.491783e-02 0.0
3.152689e-01 -7.602124e-02 0.0
3.514446e-01 -5.809344e-02 0.0
3.790172e-01 -4.212553e-02 0.0
3.989451e-01 -2.851517e-02 0.0
4.122802e-01 -1.732882e-02 0.0
4.200662e-01 -8.449739e-03 0.0
4.233568e-01 -1.644599e-03 0.0
4.233290e-01 3.475566e-03 0.0
4.206136e-01 7.404996e-03 0.0
4.158153e-01 1.022940e-02 0.0
4.094572e-01 1.213862e-02 0.0
4.019602e-01 1.333889e-02 0.0
3.937066e-01 1.398050e-02 0.0
3.850222e-01 1.418832e-02 0.0
3.761586e-01 1.408069e-02 0.0
3.672964e-01 1.376267e-02 0.0
3.585695e-01 1.330269e-02 0.0
3.500715e-01 1.275421e-02 0.0
3.418653e-01 1.215636e-02 0.0
3.339901e-01 1.153745e-02 0.0
3.264668e-01 1.091781e-02 0.0
3.193031e-01 1.031172e-02 0.0
3.124964e-01 9.729085e-03 0.0
3.060372e-01 9.176487e-03 0.0
2.999107e-01 8.658085e-03 0.0
2.940987e-01 8.176164e-03 0.0
2.885811e-01 7.731544e-03 0.0
2.833365e-01 7.323878e-03 0.0
2.783438e-01 6.951870e-03 0.0
2.735824e-01 6.613453e-03 0.0
2.690327e-01 6.305940e-03 0.0
2.646771e-01 6.026156e-03 0.0
2.604999e-01 5.770571e-03 0.0
2.564879e-01 5.535408e-03 0.0
2.526302e-01 5.316763e-03 0.0
2.489188e-01 5.110713e-03 0.0
2.453480e-01 4.913418e-03 0.0
2.419149e-01 4.721224e-03 0.0
2.386186e-01 4.530756e-03 0.0
2.354607e-01 4.339002e-03 0.0
2.324445e-01 4.143377e-03 0.0
2.295747e-01 3.941788e-03 0.0
2.268574e-01 3.732671e-03 0.0
2.242992e-01 3.515021e-03 0.0
2.219071e-01 3.288401e-03 0.0
2.196879e-01 3.052931e-03 0.0
2.176480e-01 2.809255e-03 0.0
2.157929e-01 2.558496e-03 0.0
2.141270e-01 2.302197e-03 0.0
2.126531e-01 2.042242e-03 0.0
2.113725e-01 1.780785e-03 0.0
2.102847e-01 1.520168e-03 0.0
2.093872e-01 1.262850e-03 0.0
2.086758e-01 1.011369e-03 0.0
2.081445e-01 7.683559e-04 0.0
2.077853e-01 5.366626e-04 0.0
2.075887e-01 3.196470e-04 0.0
2.075431e-01 1.217990e-04 0.0
2.076332e-01 -4.965070e-05 0.0
2.078231e-01 -1.768346e-04 0.0
2.080754e-01 -2.552694e-04 0.0
2.083488e-01 -2.785880e-04 0.0
2.085886e-01 -2.181940e-04 0.0
2.087213e-01 -3.553153e-05 0.0
2.086770e-01 2.509030e-04 0.0
0.000000e+00 2.489263e-04 0.0
0.000000e+00 0.000000e+00 0.0
0.000000e+00 0.000000e+00 0.0
0.000000e+00 0.000000e+00 0.0
0.000000e+00 0.000000e+00 0.0
0.000000e+00 0.000000e+00 0.0
0.000000e+00 0.000000e+00 0.0
0.000000e+00 0.000000e+00 0.0
0.000000e+00 0.000000e+00 0.0
0.000000e+00 0.000000e+00 0.0
0.000000e+00 0.000000e+00 0.0
0.000000e+00 -1.664944e-02 0.0
-1.017728e-02 1.665061e-02 0.0
-3.035292e-02 3.797055e-02 0.0
-5.436862e-02 4.821253e-02 0.0
-7.929981e-02 5.216808e-02 0.0
-1.040593e-01 5.379182e-02 0.0
-1.283209e-01 5.505694e-02 0.0
-1.519197e-01 5.656700e-02 0.0
-1.745926e-01 5.826670e-02 0.0
-1.958624e-01 5.977337e-02 0.0
-2.149009e-01 6.036749e-02 0.0
-2.305298e-01 5.912335e-02 0.0
-2.411301e-01 5.472699e-02 0.0
-2.447099e-01 4.563488e-02 0.0
-2.377391e-01 2.884677e-02 0.0
-2.148704e-01 1.231377e-03 0.0
-1.737111e-01 -3.562025e-02 0.0
-1.156743e-01 -7.854097e-02 0.0
-4.275515e-02 -1.227554e-01 0.0
4.077822e-02 -1.615566e-01 0.0
1.244065e-01 -1.878812e-01 0.0
2.030815e-01 -2.016415e-01 0.0
2.738893e-01 -2.016182e-01 0.0
3.358175e-01 -1.881844e-01 0.0
3.898297e-01 -1.667758e-01 0.0
4.365685e-01 -1.416185e-01 0.0
4.763372e-01 -1.157518e-01 0.0
5.094012e-01 -9.111932e-02 0.0
5.361240e-01 -6.881018e-02 0.0
5.569762e-01 -4.932927e-02 0.0
5.725019e-01 -3.281641e-02 0.0
5.832857e-01 -1.919544e-02 0.0
5.899478e-01 -8.268493e-03 0.0
5.932229e-01 2.385592e-04 0.0
5.937804e-01 6.885561e-03 0.0
5.921078e-01 1.194022e-02 0.0
5.886066e-01 1.567792e-02 0.0
5.836308e-01 1.835279e-02 0.0
5.774732e-01 2.017620e-02 0.0
5.703684e-01 2.133127e-02 0.0
5.625285e-01 2.195867e-02 0.0
5.541742e-01 2.215516e-02 0.0
5.454924e-01 2.202263e-02 0.0
5.366319e-01 2.165281e-02 0.0
5.277113e-01 2.111510e-02 0.0
5.188234e-01 2.046342e-02 0.0
5.100397e-01 1.973969e-02 0.0
5.014132e-01 1.897632e-02 0.0
4.929822e-01 1.819824e-02 0.0
4.847722e-01 1.742455e-02 0.0
4.767988e-01 1.666963e-02 0.0
4.690690e-01 1.594409e-02 0.0
4.615834e-01 1.525528e-02 0.0
4.543375e-01 1.460787e-02 0.0
4.473234e-01 1.400416e-02 0.0
4.405305e-01 1.344445e-02 0.0
4.339473e-01 1.292731e-02 0.0
4.275617e-01 1.244985e-02 0.0
4.213624e-01 1.200801e-02 0.0
4.153392e-01 1.159676e-02 0.0
4.094837e-01 1.121039e-02 0.0
4.037898e-01 1.084273e-02 0.0
3.982539e-01 1.048738e-02 0.0
3.928753e-01 1.013794e-02 0.0
3.876560e-01 9.788256e-03 0.0
3.826005e-01 9.432606e-03 0.0
3.777161e-01 9.065890e-03 0.0
3.730122e-01 8.683798e-03 0.0
3.685001e-01 8.282955e-03 0.0
3.641922e-01 7.861030e-03 0.0
3.601019e-01 7.416811e-03 0.0
3.562427e-01 6.950230e-03 0.0
3.526278e-01 6.462350e-03 0.0
3.492691e-01 5.955296e-03 0.0
3.461773e-01 5.432164e-03 0.0
3.433607e-01 4.896873e-03 0.0
3.408256e-01 4.354016e-03 0.0
3.385753e-01 3.808677e-03 0.0
3.366100e-01 3.266254e-03 0.0
3.349272e-01 2.732311e-03 0.0
3.335212e-01 2.212480e-03 0.0
3.323834e-01 1.712520e-03 0.0
3.315026e-01 1.238639e-03 0.0
3.308641e-01 7.984044e-04 0.0
3.304497e-01 4.028473e-04 0.0
3.302417e-01 6.930316e-05 0.0
3.302011e-01 -1.765232e-04 0.0
3.302625e-01 -3.018157e-04 0.0
3.303613e-01 -2.788791e-04 0.0
3.304207e-01 -5.685240e-05 0.0
3.303416e-01 3.681937e-04 0.0
0.000000e+00 3.625755e-04 0.0
0.000000e+00 0.000000e+00 0.0
0.000000e+00 0.000000e+00 0.0
0.000000e+00 0.000000e+00 0.0
0.000000e+00 0.000000e+00 0.0
0.000000e+00 0.000000e+00 0.0
0.000000e+00 0.000000e+00 0.0
0.000000e+00 0.000000e+00 0.0
0.000000e+00 0.000000e+00 0.0
0.000000e+00 0.000000e+00 0.0
0.000000e+00 0.000000e+00 0.0
0.000000e+00 -2.951573e-02 0.0
-1.272194e-02 2.951867e-02 0.0
-3.578059e-02 6.106732e-02 0.0
-6.097317e-02 7.344323e-02 0.0
-8.497924e-02 7.621227e-02 0.0
-1.067546e-01 7.560534e-02 0.0
-1.259317e-01 7.427210e-02 0.0
-1.422223e-01 7.289570e-02 0.0
-1.552464e-01 7.132896e-02 0.0
-1.645054e-01 6.907048e-02 0.0
-1.691406e-01 6.504082e-02 0.0
-1.679653e-01 5.798618e-02 0.0
-1.586562e-01 4.545598e-02 0.0
-1.388095e-01 2.582629e-02 0.0
-1.014618e-01 -8.462772e-03 0.0
-4.479652e-02 -5.539578e-02 0.0
2.847542e-02 -1.088541e-01 0.0
1.104203e-01 -1.604478e-01 0.0
1.937794e-01 -2.060764e-01 0.0
2.732842e-01 -2.410233e-01 0.0
3.467288e-01 -2.612876e-01 0.0
4.114371e-01 -2.663117e-01 0.0
4.655216e-01 -2.556647e-01 0.0
5.115746e-01 -2.341993e-01 0.0
5.512315e-01 -2.063946e-01 0.0
5.854823e-01 -1.758312e-01 0.0
6.148916e-01 -1.451230e-01 0.0
6.398090e-01 -1.159986e-01 0.0
6.605099e-01 -8.947288e-02 0.0
6.772639e-01 -6.604515e-02 0.0
6.903584e-01 -4.587283e-02 0.0
7.001032e-01 -2.890207e-02 0.0
7.068291e-01 -1.495633e-02 0.0
7.108895e-01 -3.783697e-03 0.0
7.128294e-01 4.983802e-03 0.0
7.129764e-01 1.183131e-02 0.0
7.115970e-01 1.709548e-02 0.0
7.089189e-01 2.106903e-02 0.0
7.051375e-01 2.399569e-02 0.0
7.004281e-01 2.607875e-02 0.0
6.949425e-01 2.748245e-02 0.0
6.887945e-01 2.834130e-02 0.0
6.820957e-01 2.875951e-02 0.0
6.749742e-01 2.881240e-02 0.0
6.675400e-01 2.858743e-02 0.0
6.598864e-01 2.815513e-02 0.0
6.520917e-01 2.757250e-02 0.0
6.442209e-01 2.688532e-02 0.0
6.363269e-01 2.613036e-02 0.0
6.284523e-01 2.533727e-02 0.0
6.206302e-01 2.452983e-02 0.0
6.128855e-01 2.372688e-02 0.0
6.052360e-01 2.294291e-02 0.0
5.976935e-01 2.218856e-02 0.0
5.902647e-01 2.147104e-02 0.0
5.829528e-01 2.079447e-02 0.0
5.757580e-01 2.016022e-02 0.0
5.686787e-01 1.956727e-02 0.0
5.617124e-01 1.901249e-02 0.0
5.548562e-01 1.849101e-02 0.0
5.481083e-01 1.799650e-02 0.0
5.414675e-01 1.752159e-02 0.0
5.349349e-01 1.705811e-02 0.0
5.285135e-01 1.659751e-02 0.0
5.222087e-01 1.613119e-02 0.0
5.160286e-01 1.565084e-02 0.0
5.099838e-01 1.514875e-02 0.0
5.040877e-01 1.461808e-02 0.0
4.983555e-01 1.405321e-02 0.0
4.928048e-01 1.344989e-02 0.0
4.874543e-01 1.280550e-02 0.0
4.823235e-01 1.211914e-02 0.0
4.774323e-01 1.139169e-02 0.0
4.727999e-01 1.062579e-02 0.0
4.684445e-01 9.825709e-03 0.0
4.643822e-01 8.997238e-03 0.0
4.606270e-01 8.147423e-03 0.0
4.571894e-01 7.284324e-03 0.0
4.540771e-01 6.416726e-03 0.0
4.512937e-01 5.553848e-03 0.0
4.488392e-01 4.705110e-03 0.0
4.467098e-01 3.880025e-03 0.0
4.448981e-01 3.088443e-03 0.0
4.433932e-01 2.341462e-03 0.0
4.421808e-01 1.653385e-03 0.0
4.412438e-01 1.044368e-03 0.0
4.405610e-01 5.444957e-04 0.0
4.401033e-01 1.939870e-04 0.0
4.398243e-01 3.826479e-05 0.0
4.396700e-01 1.355740e-04 0.0
4.395292e-01 5.470378e-04 0.0
0.000000e+00 5.366575e-04 0.0
0.000000e+00 0.000000e+00 0.0
0.000000e+00 0.000000e+00 0.0
0.000000e+00 0.000000e+00 0.0
0.000000e+00 0.000000e+00 0.0
0.000000e+00 0.000000e+00 0.0
0.000000e+00 0.000000e+00 0.0
0.000000e+00 0.000000e+00 0.0
0.000000e+00 0.000000e+00 0.0
0.000000e+00 0.000000e+00 0.0
0.000000e+00 0.000000e+00 0.0
0.000000e+00 -4.289354e-02 0.0
-1.323274e-02 4.289754e-02 0.0
-3.506458e-02 8.293727e-02 0.0
-5.632572e-02 9.474249e-02 0.0
-7.413309e-02 9.405776e-02 0.0
-8.784304e-02 8.935341e-02 0.0
-9.725976e-02 8.372694e-02 0.0
-1.021722e-01 7.784630e-02 0.0
-1.021186e-01 7.131342e-02 0.0
-9.666654e-02 6.365656e-02 0.0
-8.434979e-02 5.276218e-02 0.0
-6.356846e-02 3.724297e-02 0.0
-2.838593e-02 1.031157e-02 0.0
2.788518e-02 -3.040670e-02 0.0
9.914212e-02 -7.968159e-02 0.0
1.792152e-01 -1.354307e-01 0.0
2.622391e-01 -1.918399e-01 0.0
3.438778e-01 -2.420483e-01 0.0
4.194791e-01 -2.816396e-01 0.0
4.859567e-01 -3.074628e-01 0.0
5.423616e-01 -3.176543e-01 0.0
5.878351e-01 -3.117471e-01 0.0
6.248081e-01 -2.925995e-01 0.0
6.555435e-01 -2.648965e-01 0.0
6.816400e-01 -2.324530e-01 0.0
7.040965e-01 -1.982496e-01 0.0
7.234925e-01 -1.644809e-01 0.0
7.401514e-01 -1.326194e-01 0.0
7.542635e-01 -1.035468e-01 0.0
7.659649e-01 -7.770851e-02 0.0
7.753814e-01 -5.525114e-02 0.0
7.826495e-01 -3.613211e-02 0.0
7.879271e-01 -2.019579e-02 0.0
7.913945e-01 -7.212997e-03 0.0
7.933176e-01 3.098842e-03 0.0
7.939448e-01 1.124223e-02 0.0
7.934519e-01 1.762659e-02 0.0
7.919817e-01 2.257732e-02 0.0
7.896582e-01 2.635733e-02 0.0
7.865934e-01 2.918168e-02 0.0
7.828875e-01 3.122642e-02 0.0
7.786300e-01 3.263693e-02 0.0
7.738957e-01 3.353197e-02 0.0
7.687347e-01 3.401155e-02 0.0
7.632139e-01 3.414636e-02 0.0
7.574000e-01 3.400713e-02 0.0
7.513512e-01 3.365938e-02 0.0
7.451184e-01 3.315631e-02 0.0
7.387453e-01 3.254151e-02 0.0
7.322696e-01 3.185114e-02 0.0
7.257224e-01 3.111514e-02 0.0
7.191293e-01 3.035809e-02 0.0
7.125107e-01 2.959970e-02 0.0
7.058821e-01 2.885526e-02 0.0
6.992553e-01 2.813597e-02 0.0
6.926386e-01 2.744927e-02 0.0
6.860378e-01 2.679919e-02 0.0
6.794565e-01 2.618664e-02 0.0
6.728974e-01 2.560978e-02 0.0
6.663622e-01 2.506434e-02 0.0
6.598528e-01 2.454401e-02 0.0
6.533717e-01 2.404079e-02 0.0
6.469225e-01 2.354543e-02 0.0
6.405103e-01 2.304781e-02 0.0
6.341423e-01 2.253738e-02 0.0
6.278276e-01 2.200366e-02 0.0
6.215779e-01 2.143655e-02 0.0
6.154074e-01 2.082677e-02 0.0
6.093324e-01 2.016627e-02 0.0
6.033719e-01 1.944859e-02 0.0
5.975463e-01 1.866920e-02 0.0
5.918778e-01 1.782570e-02 0.0
5.863896e-01 1.691804e-02 0.0
5.811050e-01 1.594850e-02 0.0
5.760472e-01 1.492171e-02 0.0
5.712381e-01 1.384447e-02 0.0
5.666981e-01 1.272556e-02 0.0
5.624451e-01 1.157538e-02 0.0
5.584944e-01 1.040564e-02 0.0
5.548574e-01 9.228964e-03 0.0
5.515421e-01 8.058486e-03 0.0
5.485528e-01 6.907513e-03 0.0
5.458898e-01 5.789486e-03 0.0
5.435509e-01 4.718578e-03 0.0
5.415313e-01 3.711065e-03 0.0
5.398264e-01 2.787368e-03 0.0
5.384339e-01 1.975161e-03 0.0
5.373537e-01 1.312261e-03 0.0
5.365789e-01 8.512692e-04 0.0
5.360975e-01 6.550666e-04 0.0
5.358836e-01 7.991102e-04 0.0
0.000000e+00 7.843338e-04 0.0
0.000000e+00 0.000000e+00 0.0
0.000000e+00 0.000000e+00 0.0
0.000000e+00 0.000000e+00 0.0
0.000000e+00 0.000000e+00 0.0
0.000000e+00 0.000000e+00 0.0
0.000000e+00 0.000000e+00 0.0
0.000000e+00 0.000000e+00 0.0
0.000000e+00 0.000000e+00 0.0
0.000000e+00 0.000000e+00 0.0
0.000000e+00 0.000000e+00 0.0
0.000000e+00 -5.606645e-02 0.0
-1.302693e-02 5.607060e-02 0.0
-3.047946e-02 1.004279e-01 0.0
-4.360532e-02 1.079065e-01 0.0
-5.111468e-02 1.016052e-01 0.0
-5.304557e-02 9.132242e-02 0.0
-4.950076e-02 8.022025e-02 0.0
-4.036959e-02 6.875325e-02 0.0
-2.436657e-02 5.534852e-02 0.0
-3.719672e-04 3.970007e-02 0.0
3.570333e-02 1.672501e-02 0.0
8.950450e-02 -1.652008e-02 0.0
1.586856e-01 -5.883139e-02 0.0
2.377992e-01 -1.094822e-01 0.0
3.226331e-01 -1.644773e-01 0.0
4.071892e-01 -2.199488e-01 0.0
4.863185e-01 -2.709310e-01 0.0
5.567567e-01 -3.124485e-01 0.0
6.163241e-01 -3.411689e-01 0.0
6.641796e-01 -3.552801e-01 0.0
7.006245e-01 -3.540611e-01 0.0
7.275321e-01 -3.386166e-01 0.0
7.480504e-01 -3.130797e-01 0.0
7.643680e-01 -2.811759e-01 0.0
7.779313e-01 -2.459782e-01 0.0
7.896120e-01 -2.098922e-01 0.0
7.998956e-01 -1.747263e-01 0.0
8.090087e-01 -1.416943e-01 0.0
8.170234e-01 -1.115234e-01 0.0
8.239386e-01 -8.458559e-02 0.0
8.297312e-01 -6.100562e-02 0.0
8.343882e-01 -4.075103e-02 0.0
8.379266e-01 -2.369605e-02 0.0
8.403847e-01 -9.632990e-03 0.0
8.418392e-01 1.682444e-03 0.0
8.424198e-01 1.069972e-02 0.0
8.422225e-01 1.786203e-02 0.0
8.413297e-01 2.350831e-02 0.0
8.398170e-01 2.790811e-02 0.0
8.377559e-01 3.128092e-02 0.0
8.352127e-01 3.380772e-02 0.0
8.322486e-01 3.563913e-02 0.0
8.289178e-01 3.690096e-02 0.0
8.252679e-01 3.769954e-02 0.0
8.213308e-01 3.812160e-02 0.0
8.171387e-01 3.823735e-02 0.0
8.127277e-01 3.810850e-02 0.0
8.081304e-01 3.779171e-02 0.0
8.033761e-01 3.733393e-02 0.0
7.984905e-01 3.677487e-02 0.0
7.934955e-01 3.614821e-02 0.0
7.884096e-01 3.548214e-02 0.0
7.832477e-01 3.479979e-02 0.0
7.780215e-01 3.411952e-02 0.0
7.727403e-01 3.345528e-02 0.0
7.674109e-01 3.281681e-02 0.0
7.620382e-01 3.221003e-02 0.0
7.566257e-01 3.163727e-02 0.0
7.511760e-01 3.109765e-02 0.0
7.456910e-01 3.058741e-02 0.0
7.401728e-01 3.010029e-02 0.0
7.346238e-01 2.962792e-02 0.0
7.290472e-01 2.916024e-02 0.0
7.234471e-01 2.868594e-02 0.0
7.178297e-01 2.819294e-02 0.0
7.122025e-01 2.766898e-02 0.0
7.065752e-01 2.710200e-02 0.0
7.009596e-01 2.648051e-02 0.0
6.953698e-01 2.579420e-02 0.0
6.898221e-01 2.503438e-02 0.0
6.843350e-01 2.419440e-02 0.0
6.789288e-01 2.327005e-02 0.0
6.736252e-01 2.225974e-02 0.0
6.684471e-01 2.116475e-02 0.0
6.634178e-01 1.998917e-02 0.0
6.585605e-01 1.873988e-02 0.0
6.538979e-01 1.742633e-02 0.0
6.494511e-01 1.606025e-02 0.0
6.452396e-01 1.465523e-02 0.0
6.412804e-01 1.322636e-02 0.0
6.375873e-01 1.178967e-02 0.0
6.341714e-01 1.036157e-02 0.0
6.310407e-01 8.958310e-03 0.0
6.282013e-01 7.596101e-03 0.0
6.256587e-01 6.291756e-03 0.0
6.234207e-01 5.063569e-03 0.0
6.215012e-01 3.932732e-03 0.0
6.199262e-01 2.925440e-03 0.0
6.187379e-01 2.077691e-03 0.0
6.179888e-01 1.442252e-03 0.0
6.177273e-01 1.098744e-03 0.0
0.000000e+00 1.080461e-03 0.0
0.000000e+00 0.000000e+00 0.0
0.000000e+00 0.000000e+00 0.0
0.000000e+00 0.000000e+00 0.0
0.000000e+00 0.000000e+00 0.0
0.000000e+00 0.000000e+00 0.0
0.000000e+00 0.000000e+00 0.0
0.000000e+00 0.000000e+00 0.0
0.000000e+00 0.000000e+00 0.0
0.000000e+00 0.000000e+00 0.0
0.000000e+00 0.000000e+00 0.0
0.000000e+00 -6.980552e-02 0.0
-1.359256e-02 6.980928e-02 0.0
-2.310572e-02 1.099792e-01 0.0
-2.291098e-02 1.077499e-01 0.0
-1.504412e-02 9.377650e-02 0.0
-2.483178e-04 7.656474e-02 0.0
2.163210e-02 5.837795e-02 0.0
5.064566e-02 3.977780e-02 0.0
8.998107e-02 1.605124e-02 0.0
1.446067e-01 -1.488740e-02 0.0
2.132986e-01 -5.192877e-02 0.0
2.921295e-01 -9.531292e-02 0.0
3.772646e-01 -1.439283e-01 0.0
4.635832e-01 -1.957627e-01 0.0
5.465215e-01 -2.473775e-01 0.0
6.216902e-01 -2.950793e-01 0.0
6.858531e-01 -3.350558e-01 0.0
7.374542e-01 -3.640114e-01 0.0
7.762571e-01 -3.799337e-01 0.0
8.030733e-01 -3.820582e-01 0.0
8.194976e-01 -3.704472e-01 0.0
8.291559e-01 -3.482368e-01 0.0
8.347542e-01 -3.186399e-01 0.0
8.381805e-01 -2.845641e-01 0.0
8.406432e-01 -2.484028e-01 0.0
8.428258e-01 -2.120367e-01 0.0
8.450924e-01 -1.769548e-01 0.0
8.475572e-01 -1.441210e-01 0.0
8.501733e-01 -1.141013e-01 0.0
8.528163e-01 -8.719046e-02 0.0
8.553353e-01 -6.348649e-02 0.0
8.575893e-01 -4.296692e-02 0.0
8.594782e-01 -2.554684e-02 0.0
8.609117e-01 -1.102839e-02 0.0
8.618334e-01 7.989185e-04 0.0
8.622431e-01 1.032814e-02 0.0
8.621572e-01 1.798601e-02 0.0
8.616043e-01 2.409939e-02 0.0
8.606206e-01 2.892989e-02 0.0
8.592471e-01 3.269260e-02 0.0
8.575257e-01 3.556721e-02 0.0
8.554977e-01 3.770527e-02 0.0
8.532015e-01 3.923528e-02 0.0
8.506724e-01 4.026674e-02 0.0
8.479400e-01 4.089218e-02 0.0
8.450254e-01 4.119002e-02 0.0
8.419471e-01 4.122498e-02 0.0
8.387239e-01 4.105304e-02 0.0
8.353739e-01 4.072200e-02 0.0
8.319134e-01 4.027350e-02 0.0
8.283562e-01 3.974359e-02 0.0
8.247135e-01 3.916291e-02 0.0
8.209945e-01 3.855692e-02 0.0
8.172060e-01 3.794612e-02 0.0
8.133531e-01 3.734630e-02 0.0
8.094393e-01 3.676880e-02 0.0
8.054666e-01 3.622078e-02 0.0
8.014365e-01 3.570554e-02 0.0
7.973494e-01 3.522284e-02 0.0
7.932057e-01 3.476924e-02 0.0
7.890057e-01 3.433850e-02 0.0
7.847497e-01 3.392196e-02 0.0
7.804392e-01 3.350896e-02 0.0
7.760760e-01 3.308727e-02 0.0
7.716634e-01 3.264363e-02 0.0
7.672060e-01 3.216448e-02 0.0
7.627099e-01 3.163625e-02 0.0
7.581829e-01 3.104563e-02 0.0
7.536348e-01 3.038040e-02 0.0
7.490774e-01 2.962989e-02 0.0
7.445244e-01 2.878551e-02 0.0
7.399914e-01 2.784119e-02 0.0
7.354956e-01 2.679370e-02 0.0
7.310556e-01 2.564290e-02 0.0
7.266910e-01 2.439186e-02 0.0
7.224221e-01 2.304687e-02 0.0
7.182694e-01 2.161721e-02 0.0
7.142528e-01 2.011496e-02 0.0
7.103916e-01 1.855457e-02 0.0
7.067037e-01 1.695243e-02 0.0
7.032050e-01 1.532646e-02 0.0
6.999094e-01 1.369526e-02 0.0
6.968291e-01 1.207677e-02 0.0
6.939753e-01 1.048808e-02 0.0
6.913599e-01 8.945251e-03 0.0
6.889986e-01 7.462951e-03 0.0
6.869157e-01 6.053756e-03 0.0
6.851519e-01 4.727432e-03 0.0
6.837764e-01 3.491334e-03 0.0
6.828997e-01 2.357056e-03 0.0
6.826370e-01 1.399564e-03 0.0
0.000000e+00 1.378961e-03 0.0
0.000000e+00 0.000000e+00 0.0
0.000000e+00 0.000000e+00 0.0
0.000000e+00 0.000000e+00 0.0
0.000000e+00 0.000000e+00 0.0
0.000000e+00 0.000000e+00 0.0
0.000000e+00 0.000000e+00 0.0
0.000000e+00 0.000000e+00 0.0
0.000000e+00 0.000000e+00 0.0
0.000000e+00 0.000000e+00 0.0
0.000000e+00 0.000000e+00 0.0
0.000000e+00 -8.361371e-02 0.0
-1.366155e-02 8.361696e-02 0.0
-6.034813e-03 1.023906e-01 0.0
1.778878e-02 8.396438e-02 0.0
5.013286e-02 6.147054e-02 0.0
8.961809e-02 3.711763e-02 0.0
1.387042e-01 9.330003e-03 0.0
2.005985e-01 -2.207840e-02 0.0
2.731748e-01 -5.648693e-02 0.0
3.531660e-01 -9.484055e-02 0.0
4.380474e-01 -1.367720e-01 0.0
5.242978e-01 -1.815252e-01 0.0
6.080452e-01 -2.276376e-01 0.0
6.853119e-01 -2.729914e-01 0.0
7.527904e-01 -3.148179e-01 0.0
8.080137e-01 -3.502644e-01 0.0
8.497325e-01 -3.767365e-01 0.0
8.780611e-01 -3.923019e-01 0.0
8.941596e-01 -3.959941e-01 0.0
8.997642e-01 -3.876247e-01 0.0
8.984325e-01 -3.690774e-01 0.0
8.930768e-01 -3.428430e-01 0.0
8.858889e-01 -3.114138e-01 0.0
8.783925e-01 -2.770297e-01 0.0
8.715186e-01 -2.414907e-01 0.0
8.657337e-01 -2.062137e-01 0.0
8.612743e-01 -1.724573e-01 0.0
8.581337e-01 -1.409423e-01 0.0
8.561547e-01 -1.120843e-01 0.0
8.551191e-01 -8.611673e-02 0.0
8.547927e-01 -6.312197e-02 0.0
8.549437e-01 -4.307982e-02 0.0
8.553416e-01 -2.590664e-02 0.0
8.558055e-01 -1.145408e-02 0.0
8.561875e-01 4.549705e-04 0.0
8.563791e-01 1.017465e-02 0.0
8.563269e-01 1.807635e-02 0.0
8.560108e-01 2.445365e-02 0.0
8.554313e-01 2.954750e-02 0.0
8.546016e-01 3.356044e-02 0.0
8.535418e-01 3.666510e-02 0.0
8.522755e-01 3.900970e-02 0.0
8.508269e-01 4.072200e-02 0.0
8.492196e-01 4.191222e-02 0.0
8.474747e-01 4.267520e-02 0.0
8.456103e-01 4.309255e-02 0.0
8.436393e-01 4.323405e-02 0.0
8.415718e-01 4.315873e-02 0.0
8.394187e-01 4.291320e-02 0.0
8.371902e-01 4.254011e-02 0.0
8.348947e-01 4.207722e-02 0.0
8.325388e-01 4.155697e-02 0.0
8.301273e-01 4.100655e-02 0.0
8.276635e-01 4.044799e-02 0.0
8.251496e-01 3.989839e-02 0.0
8.225863e-01 3.937020e-02 0.0
8.199737e-01 3.887147e-02 0.0
8.173112e-01 3.840614e-02 0.0
8.145978e-01 3.797440e-02 0.0
8.118321e-01 3.757305e-02 0.0
8.090129e-01 3.719586e-02 0.0
8.061390e-01 3.683400e-02 0.0
8.032096e-01 3.647642e-02 0.0
8.002248e-01 3.611029e-02 0.0
7.971850e-01 3.572148e-02 0.0
7.940921e-01 3.529558e-02 0.0
7.909483e-01 3.481813e-02 0.0
7.877577e-01 3.427439e-02 0.0
7.845255e-01 3.365068e-02 0.0
7.812587e-01 3.293481e-02 0.0
7.779657e-01 3.211664e-02 0.0
7.746566e-01 3.118850e-02 0.0
7.713427e-01 3.014565e-02 0.0
7.680372e-01 2.898659e-02 0.0
7.647540e-01 2.771321e-02 0.0
7.615081e-01 2.633088e-02 0.0
7.583151e-01 2.484830e-02 0.0
7.551909e-01 2.327727e-02 0.0
7.521513e-01 2.163231e-02 0.0
7.492116e-01 1.993025e-02 0.0
7.463863e-01 1.818986e-02 0.0
7.436883e-01 1.643140e-02 0.0
7.411297e-01 1.467354e-02 0.0
7.387227e-01 1.293315e-02 0.0
7.364813e-01 1.122482e-02 0.0
7.344233e-01 9.559117e-03 0.0
7.325753e-01 7.939874e-03 0.0
7.309807e-01 6.360114e-03 0.0
7.297134e-01 4.796734e-03 0.0
7.288963e-01 3.212355e-03 0.0
7.286802e-01 1.653789e-03 0.0
0.000000e+00 1.632020e-03 0.0
0.000000e+00 0.000000e+00 0.0
0.000000e+00 0.000000e+00 0.0
0.000000e+00 0.000000e+00 0.0
0.000000e+00 0.000000e+00 0.0
0.000000e+00 0.000000e+00 0.0
0.000000e+00 0.000000e+00 0.0
0.000000e+00 0.000000e+00 0.0
0.000000e+00 0.000000e+00 0.0
0.000000e+00 0.000000e+00 0.0
0.000000e+00 0.000000e+00 0.0
0.000000e+00 -7.865819e-02 0.0
5.102936e-03 7.866015e-02 0.0
5.345588e-02 5.407576e-02 0.0
1.163292e-01 2.112916e-02 0.0
1.884664e-01 -1.062850e-02 0.0
2.673075e-01 -4.168533e-02 0.0
3.497842e-01 -7.310865e-02 0.0
4.342886e-01 -1.065446e-01 0.0
5.197567e-01 -1.419169e-01 0.0
6.040885e-01 -1.791342e-01 0.0
6.849300e-01 -2.175754e-01 0.0
7.596630e-01 -2.562200e-01 0.0
8.256766e-01 -2.936131e-01 0.0
8.806605e-01 -3.279372e-01 0.0
9.230220e-01 -3.571412e-01 0.0