# vtk DataFile Version 3.0
Vector Field
ASCII
DATASET RECTILINEAR_GRID
DIMENSIONS 102 22 1
X_COORDINATES 102 double
0.000000 0.100000 0.200000 0.300000 0.400000 0.500000 0.600000 0.700000 0.800000 0.900000 1.000000 1.100000 1.200000 1.300000 1.400000 1.500000 1.600000 1.700000 1.800000 1.900000 2.000000 2.100000 2.200000 2.300000 2.400000 2.500000 2.600000 2.700000 2.800000 2.900000 3.000000 3.100000 3.200000 3.300000 3.400000 3.500000 3.600000 3.700000 3.800000 3.900000 4.000000 4.100000 4.200000 4.300000 4.400000 4.500000 4.600000 4.700000 4.800000 4.900000 5.000000 5.100000 5.200000 5.300000 5.400000 5.500000 5.600000 5.700000 5.800000 5.900000 6.000000 6.100000 6.200000 6.300000 6.400000 6.500000 6.600000 6.700000 6.800000 6.900000 7.000000 7.100000 7.200000 7.300000 7.400000 7.500000 7.600000 7.700000 7.800000 7.900000 8.000000 8.100000 8.200000 8.300000 8.400000 8.500000 8.600000 8.700000 8.800000 8.900000 9.000000 9.100000 9.200000 9.300000 9.400000 9.500000 9.600000 9.700000 9.800000 9.900000 10.000000 10.100000 
Y_COORDINATES 22 double
0.000000 0.100000 0.200000 0.300000 0.400000 0.500000 0.600000 0.700000 0.800000 0.900000 1.000000 1.100000 1.200000 1.300000 1.400000 1.500000 1.600000 1.700000 1.800000 1.900000 2.000000 2.100000 
Z_COORDINATES 1 double
0.0
POINT_DATA 2244
VECTORS Velocity double
0.000000e+00 0.000000e+00 0.0
-0.000000e+00 0.000000e+00 0.0
-0.000000e+00 0.000000e+00 0.0
-0.000000e+00 0.000000e+00 0.0
-0.000000e+00 0.000000e+00 0.0
-0.000000e+00 0.000000e+00 0.0
-0.000000e+00 0.000000e+00 0.0
-0.000000e+00 0.000000e+00 0.0
-0.000000e+00 0.000000e+00 0.0
-0.000000e+00 0.000000e+00 0.0
-0.000000e+00 0.000000e+00 0.0
5.159393e-04 0.000000e+00 0.0
4.879093e-03 0.000000e+00 0.0
1.162886e-02 0.000000e+00 0.0
1.957675e-02 0.000000e+00 0.0
2.833294e-02 0.000000e+00 0.0
3.798342e-02 0.000000e+00 0.0
4.880848e-02 0.000000e+00 0.0
6.115306e-02 0.000000e+00 0.0
7.536342e-02 0.000000e+00 0.0
9.171397e-02 0.000000e+00 0.0
1.102974e-01 0.000000e+00 0.0
1.308569e-01 0.000000e+00 0.0
1.526021e-01 0.000000e+00 0.0
1.739784e-01 0.000000e+00 0.0
1.923288e-01 0.000000e+00 0.0
2.042114e-01 0.000000e+00 0.0
2.057021e-01 0.000000e+00 0.0
1.936462e-01 0.000000e+00 0.0
1.670533e-01 0.000000e+00 0.0
1.274161e-01 0.000000e+00 0.0
7.870265e-02 0.000000e+00 0.0
2.372227e-02 0.000000e+00 0.0
-3.104933e-02 0.000000e+00 0.0
-7.817210e-02 0.000000e+00 0.0
-1.155589e-01 0.000000e+00 0.0
-1.433565e-01 0.000000e+00 0.0
-1.626479e-01 0.000000e+00 0.0
-1.748623e-01 0.000000e+00 0.0
-1.814887e-01 0.000000e+00 0.0
-1.839431e-01 0.000000e+00 0.0
-1.835034e-01 0.000000e+00 0.0
-1.809514e-01 0.000000e+00 0.0
-1.768356e-01 0.000000e+00 0.0
-1.717149e-01 0.000000e+00 0.0
-1.660551e-01 0.000000e+00 0.0
-1.602091e-01 0.000000e+00 0.0
-1.544196e-01 0.000000e+00 0.0
-1.488289e-01 0.000000e+00 0.0
-1.435279e-01 0.000000e+00 0.0
-1.385607e-01 0.000000e+00 0.0
-1.339436e-01 0.000000e+00 0.0
-1.296755e-01 0.000000e+00 0.0
-1.257454e-01 0.000000e+00 0.0
-1.221367e-01 0.000000e+00 0.0
-1.188306e-01 0.000000e+00 0.0
-1.158068e-01 0.000000e+00 0.0
-1.130444e-01 0.000000e+00 0.0
-1.105231e-01 0.000000e+00 0.0
-1.082232e-01 0.000000e+00 0.0
-1.061262e-01 0.000000e+00 0.0
-1.042150e-01 0.000000e+00 0.0
-1.024735e-01 0.000000e+00 0.0
-1.008868e-01 0.000000e+00 0.0
-9.944106e-02 0.000000e+00 0.0
-9.812320e-02 0.000000e+00 0.0
-9.692125e-02 0.000000e+00 0.0
-9.582421e-02 0.000000e+00 0.0
-9.482203e-02 0.000000e+00 0.0
-9.390558e-02 0.000000e+00 0.0
-9.306656e-02 0.000000e+00 0.0
-9.229747e-02 0.000000e+00 0.0
-9.159151e-02 0.000000e+00 0.0
-9.094261e-02 0.000000e+00 0.0
-9.034537e-02 0.000000e+00 0.0
-8.979499e-02 0.000000e+00 0.0
-8.928723e-02 0.000000e+00 0.0
-8.881842e-02 0.000000e+00 0.0
-8.838536e-02 0.000000e+00 0.0
-8.798537e-02 0.000000e+00 0.0
-8.761623e-02 0.000000e+00 0.0
-8.727615e-02 0.000000e+00 0.0
-8.696379e-02 0.000000e+00 0.0
-8.667821e-02 0.000000e+00 0.0
-8.641889e-02 0.000000e+00 0.0
-8.618575e-02 0.000000e+00 0.0
-8.597914e-02 0.000000e+00 0.0
-8.579984e-02 0.000000e+00 0.0
-8.564909e-02 0.000000e+00 0.0
-8.552862e-02 0.000000e+00 0.0
-8.544061e-02 0.000000e+00 0.0
-8.538786e-02 0.000000e+00 0.0
-8.537389e-02 0.000000e+00 0.0
-8.540273e-02 0.000000e+00 0.0
-8.547290e-02 0.000000e+00 0.0
-8.557855e-02 0.000000e+00 0.0
-8.571230e-02 0.000000e+00 0.0
-8.586330e-02 0.000000e+00 0.0
-8.600924e-02 0.000000e+00 0.0
-8.610541e-02 0.000000e+00 0.0
-8.610541e-02 0.000000e+00 0.0
0.000000e+00 0.000000e+00 0.0
0.000000e+00 0.000000e+00 0.0
0.000000e+00 0.000000e+00 0.0
0.000000e+00 0.000000e+00 0.0
0.000000e+00 0.000000e+00 0.0
0.000000e+00 0.000000e+00 0.0
0.000000e+00 0.000000e+00 0.0
0.000000e+00 0.000000e+00 0.0
0.000000e+00 0.000000e+00 0.0
0.000000e+00 0.000000e+00 0.0
0.000000e+00 0.000000e+00 0.0
0.000000e+00 -5.252119e-04 0.0
-5.079226e-04 5.333625e-04 0.0
-4.882382e-03 4.376834e-03 0.0
-1.164206e-02 6.756059e-03 0.0
-1.959370e-02 7.947385e-03 0.0
-2.834531e-02 8.752355e-03 0.0
-3.798588e-02 9.648414e-03 0.0
-4.880122e-02 1.082875e-02 0.0
-6.114136e-02 1.235532e-02 0.0
-7.535446e-02 1.422578e-02 0.0
-9.171269e-02 1.636632e-02 0.0
-1.103066e-01 1.859559e-02 0.0
-1.308759e-01 2.056560e-02 0.0
-1.526272e-01 2.174573e-02 0.0
-1.740031e-01 2.137330e-02 0.0
-1.923444e-01 1.834672e-02 0.0
-2.042122e-01 1.188186e-02 0.0
-2.056884e-01 1.494069e-03 0.0
-1.936262e-01 -1.204863e-02 0.0
-1.670373e-01 -2.658650e-02 0.0
-1.274097e-01 -3.963539e-02 0.0
-7.870143e-02 -4.871835e-02 0.0
-2.371353e-02 -5.499048e-02 0.0
3.107258e-02 -5.477655e-02 0.0
7.820817e-02 -4.711811e-02 0.0
1.155960e-01 -3.737204e-02 0.0
1.433810e-01 -2.777820e-02 0.0
1.626549e-01 -1.927556e-02 0.0
1.748583e-01 -1.220673e-02 0.0
1.814857e-01 -6.625098e-03 0.0
1.839488e-01 -2.453305e-03 0.0
1.835162e-01 4.460227e-04 0.0
1.809640e-01 2.563725e-03 0.0
1.768412e-01 4.129191e-03 0.0
1.717127e-01 5.131038e-03 0.0
1.660491e-01 5.665533e-03 0.0
1.602047e-01 5.848583e-03 0.0
1.544194e-01 5.792392e-03 0.0
1.488323e-01 5.596004e-03 0.0
1.435323e-01 5.308726e-03 0.0
1.385634e-01 4.975974e-03 0.0
1.339437e-01 4.625137e-03 0.0
1.296739e-01 4.274582e-03 0.0
1.257436e-01 3.935333e-03 0.0
1.221360e-01 3.613333e-03 0.0
1.188313e-01 3.311226e-03 0.0
1.158083e-01 3.029771e-03 0.0
1.130459e-01 2.768825e-03 0.0
1.105242e-01 2.527879e-03 0.0
1.082239e-01 2.306226e-03 0.0
1.061269e-01 2.102977e-03 0.0
1.042158e-01 1.917070e-03 0.0
1.024746e-01 1.747340e-03 0.0
1.008882e-01 1.592622e-03 0.0
9.944249e-02 1.451825e-03 0.0
9.812467e-02 1.323940e-03 0.0
9.692278e-02 1.208011e-03 0.0
9.582582e-02 1.103086e-03 0.0
9.482375e-02 1.008216e-03 0.0
9.390738e-02 9.224872e-04 0.0
9.306844e-02 8.450492e-04 0.0
9.229943e-02 7.751251e-04 0.0
9.159358e-02 7.119882e-04 0.0
9.094483e-02 6.549427e-04 0.0
9.034772e-02 6.033205e-04 0.0
8.979744e-02 5.564923e-04 0.0
8.928977e-02 5.138768e-04 0.0
8.882103e-02 4.749393e-04 0.0
8.838807e-02 4.391771e-04 0.0
8.798819e-02 4.061081e-04 0.0
8.761916e-02 3.752659e-04 0.0
8.727918e-02 3.462022e-04 0.0
8.696690e-02 3.184862e-04 0.0
8.668142e-02 2.916992e-04 0.0
8.642221e-02 2.654262e-04 0.0
8.618919e-02 2.392470e-04 0.0
8.598270e-02 2.127278e-04 0.0
8.580351e-02 1.854230e-04 0.0
8.565288e-02 1.568726e-04 0.0
8.553249e-02 1.266057e-04 0.0
8.544458e-02 9.412360e-05 0.0
8.539193e-02 5.885513e-05 0.0
8.537808e-02 2.005993e-05 0.0
8.540701e-02 -2.273120e-05 0.0
8.547726e-02 -6.405108e-05 0.0
8.558296e-02 -9.950940e-05 0.0
8.571673e-02 -1.276031e-04 0.0
8.586774e-02 -1.448518e-04 0.0
8.601367e-02 -1.398065e-04 0.0
8.610984e-02 -9.005154e-05 0.0
8.610541e-02 1.055106e-05 0.0
0.000000e+00 1.063123e-05 0.0
0.000000e+00 0.000000e+00 0.0
0.000000e+00 0.000000e+00 0.0
0.000000e+00 0.000000e+00 0.0
0.000000e+00 0.000000e+00 0.0
0.000000e+00 0.000000e+00 0.0
0.000000e+00 0.000000e+00 0.0
0.000000e+00 0.000000e+00 0.0
0.000000e+00 0.000000e+00 0.0
0.000000e+00 0.000000e+00 0.0
0.000000e+00 0.000000e+00 0.0
0.000000e+00 -6.325075e-03 0.0
-5.788045e-03 6.328219e-03 0.0
-1.936978e-02 1.795298e-02 0.0
-3.720320e-02 2.458663e-02 0.0
-5.714383e-02 2.789048e-02 0.0
-7.837398e-02 2.998982e-02 0.0
-1.008048e-01 3.208825e-02 0.0
-1.245740e-01 3.460537e-02 0.0
-1.497669e-01 3.755187e-02 0.0
-1.762444e-01 4.070328e-02 0.0
-2.034932e-01 4.361191e-02 0.0
-2.305104e-01 4.560793e-02 0.0
-2.556347e-01 4.568627e-02 0.0
-2.764520e-01 4.256288e-02 0.0
-2.898497e-01 3.477649e-02 0.0
-2.920659e-01 2.057296e-02 0.0
-2.785053e-01 -1.669277e-03 0.0
-2.462585e-01 -3.074873e-02 0.0
-1.964088e-01 -6.190311e-02 0.0
-1.318286e-01 -9.117700e-02 0.0
-5.504809e-02 -1.164238e-01 0.0
2.891847e-02 -1.326841e-01 0.0
1.095039e-01 -1.355659e-01 0.0
1.810736e-01 -1.263334e-01 0.0
2.436412e-01 -1.096785e-01 0.0
2.963878e-01 -9.012080e-02 0.0
3.391980e-01 -7.059620e-02 0.0
3.725975e-01 -5.268072e-02 0.0
3.974822e-01 -3.708985e-02 0.0
4.149177e-01 -2.405295e-02 0.0
4.260094e-01 -1.353661e-02 0.0
4.318154e-01 -5.355882e-03 0.0
4.336001e-01 7.780580e-04 0.0
4.322512e-01 5.474935e-03 0.0
4.284453e-01 8.935235e-03 0.0
4.227741e-01 1.133821e-02 0.0
4.157274e-01 1.289920e-02 0.0
4.077162e-01 1.380801e-02 0.0
3.991149e-01 1.420034e-02 0.0
3.902323e-01 1.419255e-02 0.0
3.812864e-01 1.392201e-02 0.0
3.724431e-01 1.346860e-02 0.0
3.638208e-01 1.289785e-02 0.0
3.555017e-01 1.225641e-02 0.0
3.475397e-01 1.157771e-02 0.0
3.399677e-01 1.088535e-02 0.0
3.328034e-01 1.019587e-02 0.0
3.260527e-01 9.520856e-03 0.0
3.197135e-01 8.868375e-03 0.0
3.137773e-01 8.243894e-03 0.0
3.082310e-01 7.650875e-03 0.0
3.030585e-01 7.091264e-03 0.0
2.982416e-01 6.565912e-03 0.0
2.937609e-01 6.074913e-03 0.0
2.895965e-01 5.617836e-03 0.0
2.857281e-01 5.193848e-03 0.0
2.821360e-01 4.801778e-03 0.0
2.788005e-01 4.440165e-03 0.0
2.757030e-01 4.107340e-03 0.0
2.728255e-01 3.801519e-03 0.0
2.701513e-01 3.520894e-03 0.0
2.676643e-01 3.263656e-03 0.0
2.653500e-01 3.028008e-03 0.0
2.631944e-01 2.812157e-03 0.0
2.611850e-01 2.614339e-03 0.0
2.593103e-01 2.432845e-03 0.0
2.575597e-01 2.266036e-03 0.0
2.559239e-01 2.112343e-03 0.0
2.543945e-01 1.970251e-03 0.0
2.529639e-01 1.838290e-03 0.0
2.516258e-01 1.715029e-03 0.0
2.503745e-01 1.599079e-03 0.0
2.492056e-01 1.489085e-03 0.0
2.481152e-01 1.383711e-03 0.0
2.471006e-01 1.281628e-03 0.0
2.461600e-01 1.181489e-03 0.0
2.452925e-01 1.081913e-03 0.0
2.444980e-01 9.814842e-04 0.0
2.437778e-01 8.787452e-04 0.0
2.431338e-01 7.722120e-04 0.0
2.425691e-01 6.603889e-04 0.0
2.420878e-01 5.418138e-04 0.0
2.416943e-01 4.152140e-04 0.0
2.413929e-01 2.802213e-04 0.0
2.411906e-01 1.399190e-04 0.0
2.410938e-01 -1.103363e-06 0.0
2.410970e-01 -1.291912e-04 0.0
2.411745e-01 -2.207552e-04 0.0
2.412841e-01 -2.478211e-04 0.0
2.413697e-01 -1.740302e-04 0.0
2.413560e-01 2.583666e-05 0.0
0.000000e+00 2.610853e-05 0.0
0.000000e+00 0.000000e+00 0.0
0.000000e+00 0.000000e+00 0.0
0.000000e+00 0.000000e+00 0.0
0.000000e+00 0.000000e+00 0.0
0.000000e+00 0.000000e+00 0.0
0.000000e+00 0.000000e+00 0.0
0.000000e+00 0.000000e+00 0.0
0.000000e+00 0.000000e+00 0.0
0.000000e+00 0.000000e+00 0.0
0.000000e+00 0.000000e+00 0.0
0.000000e+00 -1.691217e-02 0.0
-1.058075e-02 1.691246e-02 0.0
-3.126235e-02 3.863080e-02 0.0
-5.589240e-02 4.921662e-02 0.0
-8.153180e-02 5.353464e-02 0.0
-1.070807e-01 5.554611e-02 0.0
-1.321800e-01 5.719489e-02 0.0
-1.566041e-01 5.903415e-02 0.0
-1.800094e-01 6.095840e-02 0.0
-2.018050e-01 6.249697e-02 0.0
-2.210130e-01 6.281577e-02 0.0
-2.363019e-01 6.089283e-02 0.0
-2.458683e-01 5.525102e-02 0.0
-2.472828e-01 4.398050e-02 0.0
-2.367821e-01 2.428384e-02 0.0
-2.079990e-01 -8.200690e-03 0.0
-1.605491e-01 -4.911278e-02 0.0
-9.573656e-02 -9.556261e-02 0.0
-1.670480e-02 -1.409432e-01 0.0
6.991081e-02 -1.778016e-01 0.0
1.545535e-01 -2.010691e-01 0.0
2.324860e-01 -2.106094e-01 0.0
3.013971e-01 -2.044644e-01 0.0
3.616318e-01 -1.865586e-01 0.0
4.141195e-01 -1.621656e-01 0.0
4.593023e-01 -1.353104e-01 0.0
4.974256e-01 -1.087266e-01 0.0
5.287919e-01 -8.404782e-02 0.0
5.538240e-01 -6.211557e-02 0.0
5.730418e-01 -4.326195e-02 0.0
5.870233e-01 -2.751237e-02 0.0
5.963785e-01 -1.471074e-02 0.0
6.017491e-01 -4.595546e-03 0.0
6.040386e-01 3.182917e-03 0.0
6.037752e-01 9.199139e-03 0.0
6.014150e-01 1.370186e-02 0.0
5.973537e-01 1.696504e-02 0.0
5.919331e-01 1.923209e-02 0.0
5.854294e-01 2.070578e-02 0.0
5.780546e-01 2.156763e-02 0.0
5.700551e-01 2.192152e-02 0.0
5.616522e-01 2.187219e-02 0.0
5.530197e-01 2.153204e-02 0.0
5.442986e-01 2.097987e-02 0.0
5.356011e-01 2.027745e-02 0.0
5.270161e-01 1.947225e-02 0.0
5.186128e-01 1.860069e-02 0.0
5.104440e-01 1.769086e-02 0.0
5.025492e-01 1.676454e-02 0.0
4.949562e-01 1.583850e-02 0.0
4.876832e-01 1.492556e-02 0.0
4.807407e-01 1.403539e-02 0.0
4.741331e-01 1.317517e-02 0.0
4.678595e-01 1.235012e-02 0.0
4.619150e-01 1.156388e-02 0.0
4.562917e-01 1.081874e-02 0.0
4.509792e-01 1.011589e-02 0.0
4.459654e-01 9.455540e-03 0.0
4.412372e-01 8.837196e-03 0.0
4.367805e-01 8.259800e-03 0.0
4.325811e-01 7.721906e-03 0.0
4.286246e-01 7.221763e-03 0.0
4.248969e-01 6.757375e-03 0.0
4.213841e-01 6.326561e-03 0.0
4.180730e-01 5.927022e-03 0.0
4.149511e-01 5.556408e-03 0.0
4.120064e-01 5.212351e-03 0.0
4.092279e-01 4.892481e-03 0.0
4.066053e-01 4.594433e-03 0.0
4.041294e-01 4.315842e-03 0.0
4.017917e-01 4.054357e-03 0.0
3.995847e-01 3.807645e-03 0.0
3.975020e-01 3.573389e-03 0.0
3.955381e-01 3.349271e-03 0.0
3.936884e-01 3.132948e-03 0.0
3.919495e-01 2.922028e-03 0.0
3.903190e-01 2.714040e-03 0.0
3.887957e-01 2.506427e-03 0.0
3.873795e-01 2.296538e-03 0.0
3.860717e-01 2.081639e-03 0.0
3.848748e-01 1.858953e-03 0.0
3.837925e-01 1.625764e-03 0.0
3.828296e-01 1.379703e-03 0.0
3.819920e-01 1.119485e-03 0.0
3.812870e-01 8.465343e-04 0.0
3.807214e-01 5.660631e-04 0.0
3.803015e-01 2.923973e-04 0.0
3.800291e-01 5.326198e-05 0.0
3.798877e-01 -1.048418e-04 0.0
3.798385e-01 -1.232073e-04 0.0
3.798182e-01 4.776251e-05 0.0
0.000000e+00 4.832040e-05 0.0
0.000000e+00 0.000000e+00 0.0
0.000000e+00 0.000000e+00 0.0
0.000000e+00 0.000000e+00 0.0
0.000000e+00 0.000000e+00 0.0
0.000000e+00 0.000000e+00 0.0
0.000000e+00 0.000000e+00 0.0
0.000000e+00 0.000000e+00 0.0
0.000000e+00 0.000000e+00 0.0
0.000000e+00 0.000000e+00 0.0
0.000000e+00 0.000000e+00 0.0
0.000000e+00 -3.002175e-02 0.0
-1.310686e-02 3.002015e-02 0.0
-3.659286e-02 6.211443e-02 0.0
-6.222783e-02 7.485366e-02 0.0
-8.665525e-02 7.796827e-02 0.0
-1.087934e-01 7.769183e-02 0.0
-1.282277e-01 7.663524e-02 0.0
-1.446201e-01 7.542956e-02 0.0
-1.575410e-01 7.387888e-02 0.0
-1.664351e-01 7.138830e-02 0.0
-1.703480e-01 6.672474e-02 0.0
-1.679037e-01 5.844619e-02 0.0
-1.566731e-01 4.402121e-02 0.0
-1.332512e-01 2.056421e-02 0.0
-8.971354e-02 -1.924495e-02 0.0
-2.699345e-02 -7.091271e-02 0.0
5.140784e-02 -1.275119e-01 0.0
1.362067e-01 -1.803671e-01 0.0
2.205022e-01 -2.252480e-01 0.0
2.997779e-01 -2.570830e-01 0.0
3.715640e-01 -2.728520e-01 0.0
4.332399e-01 -2.722740e-01 0.0
4.852200e-01 -2.564328e-01 0.0
5.296932e-01 -2.310276e-01 0.0
5.681062e-01 -2.005834e-01 0.0
6.012931e-01 -1.685054e-01 0.0
6.297215e-01 -1.371587e-01 0.0
6.536982e-01 -1.080203e-01 0.0
6.734871e-01 -8.189564e-02 0.0
6.893608e-01 -5.912811e-02 0.0
7.016170e-01 -3.976640e-02 0.0
7.105829e-01 -2.367918e-02 0.0
7.166166e-01 -1.063253e-02 0.0
7.201359e-01 -3.372015e-04 0.0
7.216180e-01 7.719710e-03 0.0
7.213895e-01 1.393499e-02 0.0
7.197103e-01 1.864845e-02 0.0
7.168019e-01 2.214283e-02 0.0
7.128559e-01 2.465224e-02 0.0
7.080514e-01 2.637203e-02 0.0
7.025217e-01 2.745160e-02 0.0
6.963752e-01 2.802006e-02 0.0
6.897529e-01 2.815661e-02 0.0
6.827816e-01 2.795361e-02 0.0
6.755695e-01 2.749157e-02 0.0
6.682094e-01 2.683388e-02 0.0
6.607806e-01 2.603074e-02 0.0
6.533504e-01 2.512236e-02 0.0
6.459752e-01 2.414125e-02 0.0
6.387015e-01 2.311384e-02 0.0
6.315672e-01 2.206161e-02 0.0
6.246023e-01 2.100191e-02 0.0
6.178303e-01 1.994877e-02 0.0
6.112686e-01 1.891335e-02 0.0
6.049297e-01 1.790440e-02 0.0
5.988215e-01 1.692856e-02 0.0
5.929483e-01 1.599067e-02 0.0
5.873115e-01 1.509399e-02 0.0
5.819097e-01 1.424053e-02 0.0
5.767398e-01 1.343131e-02 0.0
5.717968e-01 1.266647e-02 0.0
5.670747e-01 1.194551e-02 0.0
5.625665e-01 1.126731e-02 0.0
5.582643e-01 1.063030e-02 0.0
5.541604e-01 1.003258e-02 0.0
5.502464e-01 9.471966e-03 0.0
5.465143e-01 8.946104e-03 0.0
5.429559e-01 8.452477e-03 0.0
5.395636e-01 7.988441e-03 0.0
5.363298e-01 7.551246e-03 0.0
5.332477e-01 7.138063e-03 0.0
5.303109e-01 6.746003e-03 0.0
5.275138e-01 6.372122e-03 0.0
5.248513e-01 6.013404e-03 0.0
5.223192e-01 5.666743e-03 0.0
5.199139e-01 5.328915e-03 0.0
5.176331e-01 4.996541e-03 0.0
5.154751e-01 4.666063e-03 0.0
5.134395e-01 4.333738e-03 0.0
5.115271e-01 3.995634e-03 0.0
5.097400e-01 3.647660e-03 0.0
5.080818e-01 3.285671e-03 0.0
5.065574e-01 2.905732e-03 0.0
5.051738e-01 2.504736e-03 0.0
5.039403e-01 2.081592e-03 0.0
5.028691e-01 1.638892e-03 0.0
5.019763e-01 1.186827e-03 0.0
5.012826e-01 7.485819e-04 0.0
5.008105e-01 3.689060e-04 0.0
5.005674e-01 1.215134e-04 0.0
5.005446e-01 7.218718e-05 0.0
0.000000e+00 7.306423e-05 0.0
0.000000e+00 0.000000e+00 0.0
0.000000e+00 0.000000e+00 0.0
0.000000e+00 0.000000e+00 0.0
0.000000e+00 0.000000e+00 0.0
0.000000e+00 0.000000e+00 0.0
0.000000e+00 0.000000e+00 0.0
0.000000e+00 0.000000e+00 0.0
0.000000e+00 0.000000e+00 0.0
0.000000e+00 0.000000e+00 0.0
0.000000e+00 0.000000e+00 0.0
0.000000e+00 -4.351501e-02 0.0
-1.349270e-02 4.351174e-02 0.0
-3.551368e-02 8.413491e-02 0.0
-5.691406e-02 9.625788e-02 0.0
-7.475692e-02 9.581763e-02 0.0
-8.837047e-02 9.131198e-02 0.0
-9.751750e-02 8.578657e-02 0.0
-1.019404e-01 7.985329e-02 0.0
-1.011488e-01 7.308536e-02 0.0
-9.465774e-02 6.489376e-02 0.0
-8.079165e-02 5.285536e-02 0.0
-5.740012e-02 3.505390e-02 0.0
-1.752722e-02 4.151576e-03 0.0
4.366454e-02 -4.062024e-02 0.0
1.189312e-01 -9.450277e-02 0.0
2.018630e-01 -1.538390e-01 0.0
2.863455e-01 -2.119962e-01 0.0
3.678868e-01 -2.619165e-01 0.0
4.419595e-01 -2.993289e-01 0.0
5.061439e-01 -3.212686e-01 0.0
5.597192e-01 -3.264189e-01 0.0
6.022518e-01 -3.147942e-01 0.0
6.370620e-01 -2.912350e-01 0.0
6.663219e-01 -2.602889e-01 0.0
6.914124e-01 -2.256816e-01 0.0
7.131494e-01 -1.902488e-01 0.0
7.319879e-01 -1.559963e-01 0.0
7.481736e-01 -1.241983e-01 0.0
7.618534e-01 -9.556650e-02 0.0
7.731446e-01 -7.041469e-02 0.0
7.821729e-01 -4.879570e-02 0.0
7.890870e-01 -3.059686e-02 0.0
7.940517e-01 -1.559943e-02 0.0
7.972498e-01 -3.533907e-03 0.0
7.989955e-01 5.978192e-03 0.0
7.994997e-01 1.343547e-02 0.0
7.989270e-01 1.922425e-02 0.0
7.974173e-01 2.365363e-02 0.0
7.950951e-01 2.697438e-02 0.0
7.920754e-01 2.939172e-02 0.0
7.884565e-01 3.107149e-02 0.0
7.843268e-01 3.215180e-02 0.0
7.797438e-01 3.274205e-02 0.0
7.747763e-01 3.292343e-02 0.0
7.694995e-01 3.277008e-02 0.0
7.639812e-01 3.235349e-02 0.0
7.582825e-01 3.173060e-02 0.0
7.524584e-01 3.094788e-02 0.0
7.465574e-01 3.004387e-02 0.0
7.406221e-01 2.905086e-02 0.0
7.346895e-01 2.799597e-02 0.0
7.287911e-01 2.690184e-02 0.0
7.229541e-01 2.578735e-02 0.0
7.172009e-01 2.466809e-02 0.0
7.115502e-01 2.355676e-02 0.0
7.060168e-01 2.246352e-02 0.0
7.006128e-01 2.139633e-02 0.0
6.953471e-01 2.036120e-02 0.0
6.902266e-01 1.936260e-02 0.0
6.852559e-01 1.840364e-02 0.0
6.804378e-01 1.748627e-02 0.0
6.757735e-01 1.661148e-02 0.0
6.712630e-01 1.577940e-02 0.0
6.669054e-01 1.498951e-02 0.0
6.626988e-01 1.424070e-02 0.0
6.586410e-01 1.353147e-02 0.0
6.547288e-01 1.285993e-02 0.0
6.509590e-01 1.222389e-02 0.0
6.473282e-01 1.162089e-02 0.0
6.438328e-01 1.104823e-02 0.0
6.404694e-01 1.050305e-02 0.0
6.372347e-01 9.982321e-03 0.0
6.341256e-01 9.482852e-03 0.0
6.311394e-01 9.001301e-03 0.0
6.282736e-01 8.534148e-03 0.0
6.255265e-01 8.077680e-03 0.0
6.228967e-01 7.627918e-03 0.0
6.203838e-01 7.180588e-03 0.0
6.179881e-01 6.731112e-03 0.0
6.157108e-01 6.274580e-03 0.0
6.135543e-01 5.805745e-03 0.0
6.115226e-01 5.319071e-03 0.0
6.096211e-01 4.808890e-03 0.0
6.078577e-01 4.269776e-03 0.0
6.062436e-01 3.697284e-03 0.0
6.047950e-01 3.089162e-03 0.0
6.035356e-01 2.447808e-03 0.0
6.025015e-01 1.784268e-03 0.0
6.017467e-01 1.125412e-03 0.0
6.013433e-01 5.265060e-04 0.0
6.013215e-01 9.562996e-05 0.0
0.000000e+00 9.681507e-05 0.0
0.000000e+00 0.000000e+00 0.0
0.000000e+00 0.000000e+00 0.0
0.000000e+00 0.000000e+00 0.0
0.000000e+00 0.000000e+00 0.0
0.000000e+00 0.000000e+00 0.0
0.000000e+00 0.000000e+00 0.0
0.000000e+00 0.000000e+00 0.0
0.000000e+00 0.000000e+00 0.0
0.000000e+00 0.000000e+00 0.0
0.000000e+00 0.000000e+00 0.0
0.000000e+00 -5.666751e-02 0.0
-1.315324e-02 5.666256e-02 0.0
-3.056698e-02 1.015496e-01 0.0
-4.355149e-02 1.092475e-01 0.0
-5.079298e-02 1.030661e-01 0.0
-5.229254e-02 9.281754e-02 0.0
-4.811864e-02 8.161564e-02 0.0
-3.805644e-02 6.979067e-02 0.0
-2.071591e-02 5.574212e-02 0.0
5.331128e-03 3.884321e-02 0.0
4.458309e-02 1.360126e-02 0.0
1.023721e-01 -2.273414e-02 0.0
1.752129e-01 -6.868415e-02 0.0
2.575665e-01 -1.229657e-01 0.0
3.442962e-01 -1.812248e-01 0.0
4.292274e-01 -2.387681e-01 0.0
5.073240e-01 -2.900978e-01 0.0
5.755621e-01 -3.301632e-01 0.0
6.321117e-01 -3.558836e-01 0.0
6.766084e-01 -3.657616e-01 0.0
7.095052e-01 -3.593045e-01 0.0
7.340298e-01 -3.393079e-01 0.0
7.529709e-01 -3.101729e-01 0.0
7.683029e-01 -2.756263e-01 0.0
7.812843e-01 -2.386710e-01 0.0
7.926413e-01 -2.016086e-01 0.0
8.027527e-01 -1.661027e-01 0.0
8.117638e-01 -1.332004e-01 0.0
8.196958e-01 -1.034914e-01 0.0
8.265213e-01 -7.723880e-02 0.0
8.322165e-01 -5.449384e-02 0.0
8.367843e-01 -3.516799e-02 0.0
8.402390e-01 -1.905442e-02 0.0
8.426158e-01 -5.907490e-03 0.0
8.440361e-01 4.562651e-03 0.0
8.446130e-01 1.286263e-02 0.0
8.444372e-01 1.940192e-02 0.0
8.435914e-01 2.449966e-02 0.0
8.421535e-01 2.841205e-02 0.0
8.401975e-01 3.134828e-02 0.0
8.377905e-01 3.348012e-02 0.0
8.349943e-01 3.495039e-02 0.0
8.318617e-01 3.587702e-02 0.0
8.284304e-01 3.635677e-02 0.0
8.247362e-01 3.646569e-02 0.0
8.208206e-01 3.627022e-02 0.0
8.167233e-01 3.582921e-02 0.0
8.124812e-01 3.519150e-02 0.0
8.081283e-01 3.439850e-02 0.0
8.036951e-01 3.348578e-02 0.0
7.992088e-01 3.248391e-02 0.0
7.946935e-01 3.141868e-02 0.0
7.901705e-01 3.031194e-02 0.0
7.856582e-01 2.918198e-02 0.0
7.811726e-01 2.804399e-02 0.0
7.767274e-01 2.691034e-02 0.0
7.723343e-01 2.579100e-02 0.0
7.680032e-01 2.469386e-02 0.0
7.637423e-01 2.362503e-02 0.0
7.595585e-01 2.258911e-02 0.0
7.554571e-01 2.158936e-02 0.0
7.514423e-01 2.062788e-02 0.0
7.475175e-01 1.970581e-02 0.0
7.436851e-01 1.882346e-02 0.0
7.399469e-01 1.798050e-02 0.0
7.363040e-01 1.717604e-02 0.0
7.327569e-01 1.640870e-02 0.0
7.293057e-01 1.567668e-02 0.0
7.259504e-01 1.497784e-02 0.0
7.226905e-01 1.430969e-02 0.0
7.195257e-01 1.366951e-02 0.0
7.164553e-01 1.305432e-02 0.0
7.134789e-01 1.246091e-02 0.0
7.105960e-01 1.188582e-02 0.0
7.078065e-01 1.132534e-02 0.0
7.051102e-01 1.077555e-02 0.0
7.025077e-01 1.023211e-02 0.0
6.999996e-01 9.690273e-03 0.0
6.975875e-01 9.144866e-03 0.0
6.952735e-01 8.590238e-03 0.0
6.930607e-01 8.020197e-03 0.0
6.909534e-01 7.427972e-03 0.0
6.889578e-01 6.806211e-03 0.0
6.870821e-01 6.147054e-03 0.0
6.853387e-01 5.442351e-03 0.0
6.837455e-01 4.684026e-03 0.0
6.823301e-01 3.864852e-03 0.0
6.811361e-01 2.979865e-03 0.0
6.802333e-01 2.029875e-03 0.0
6.797266e-01 1.034855e-03 0.0
6.797085e-01 1.153032e-04 0.0
0.000000e+00 1.167485e-04 0.0
0.000000e+00 0.000000e+00 0.0
0.000000e+00 0.000000e+00 0.0
0.000000e+00 0.000000e+00 0.0
0.000000e+00 0.000000e+00 0.0
0.000000e+00 0.000000e+00 0.0
0.000000e+00 0.000000e+00 0.0
0.000000e+00 0.000000e+00 0.0
0.000000e+00 0.000000e+00 0.0
0.000000e+00 0.000000e+00 0.0
0.000000e+00 0.000000e+00 0.0
0.000000e+00 -7.032809e-02 0.0
-1.366254e-02 7.032245e-02 0.0
-2.297233e-02 1.108621e-01 0.0
-2.242867e-02 1.087095e-01 0.0
-1.405097e-02 9.469486e-02 0.0
1.529423e-03 7.724198e-02 0.0
2.444193e-02 5.870470e-02 0.0
5.494150e-02 3.928951e-02 0.0
9.658572e-02 1.409465e-02 0.0
1.542587e-01 -1.883292e-02 0.0
2.261362e-01 -5.827698e-02 0.0
3.079249e-01 -1.045201e-01 0.0
3.953424e-01 -1.560954e-01 0.0
4.829422e-01 -2.105575e-01 0.0
5.657936e-01 -2.640708e-01 0.0
6.395005e-01 -3.124759e-01 0.0
7.010867e-01 -3.516909e-01 0.0
7.493725e-01 -3.784564e-01 0.0
7.845150e-01 -3.910272e-01 0.0
8.075840e-01 -3.888230e-01 0.0
8.213027e-01 -3.730116e-01 0.0
8.291479e-01 -3.471458e-01 0.0
8.336333e-01 -3.146597e-01 0.0
8.364653e-01 -2.784653e-01 0.0
8.386875e-01 -2.408989e-01 0.0
8.408635e-01 -2.037833e-01 0.0
8.432631e-01 -1.684949e-01 0.0
8.459124e-01 -1.358414e-01 0.0
8.487092e-01 -1.062841e-01 0.0
8.514973e-01 -8.002795e-02 0.0
8.541239e-01 -5.712395e-02 0.0
8.564734e-01 -3.751927e-02 0.0
8.584286e-01 -2.100809e-02 0.0
8.599031e-01 -7.377694e-03 0.0
8.608588e-01 3.611416e-03 0.0
8.613046e-01 1.241981e-02 0.0
8.612623e-01 1.944509e-02 0.0
8.607658e-01 2.499600e-02 0.0
8.598561e-01 2.932185e-02 0.0
8.585773e-01 3.262820e-02 0.0
8.569731e-01 3.508637e-02 0.0
8.550858e-01 3.684027e-02 0.0
8.529539e-01 3.801106e-02 0.0
8.506114e-01 3.870098e-02 0.0
8.480824e-01 3.899589e-02 0.0
8.453888e-01 3.896506e-02 0.0
8.425543e-01 3.866508e-02 0.0
8.396026e-01 3.814488e-02 0.0
8.365557e-01 3.744712e-02 0.0
8.334336e-01 3.660952e-02 0.0
8.302541e-01 3.566506e-02 0.0
8.270329e-01 3.464143e-02 0.0
8.237841e-01 3.356232e-02 0.0
8.205200e-01 3.244770e-02 0.0
8.172514e-01 3.131420e-02 0.0
8.139878e-01 3.017553e-02 0.0
8.107375e-01 2.904284e-02 0.0
8.075078e-01 2.792511e-02 0.0
8.043050e-01 2.682943e-02 0.0
8.011346e-01 2.576123e-02 0.0
7.980011e-01 2.472452e-02 0.0
7.949085e-01 2.372205e-02 0.0
7.918604e-01 2.275554e-02 0.0
7.888596e-01 2.182584e-02 0.0
7.859086e-01 2.093309e-02 0.0
7.830095e-01 2.007677e-02 0.0
7.801640e-01 1.925586e-02 0.0
7.773735e-01 1.846881e-02 0.0
7.746393e-01 1.771368e-02 0.0
7.719624e-01 1.698818e-02 0.0
7.693438e-01 1.628969e-02 0.0
7.667845e-01 1.561532e-02 0.0
7.642852e-01 1.496185e-02 0.0
7.618469e-01 1.432576e-02 0.0
7.594706e-01 1.370324e-02 0.0
7.571574e-01 1.309034e-02 0.0
7.549087e-01 1.248246e-02 0.0
7.527261e-01 1.187451e-02 0.0
7.506117e-01 1.126090e-02 0.0
7.485682e-01 1.063540e-02 0.0
7.465990e-01 9.991071e-03 0.0
7.447085e-01 9.320102e-03 0.0
7.429028e-01 8.613633e-03 0.0
7.411899e-01 7.861540e-03 0.0
7.395818e-01 7.052116e-03 0.0
7.380960e-01 6.171521e-03 0.0
7.367596e-01 5.202868e-03 0.0
7.356163e-01 4.124775e-03 0.0
7.347375e-01 2.910363e-03 0.0
7.342350e-01 1.538946e-03 0.0
7.342226e-01 1.294532e-04 0.0
0.000000e+00 1.310894e-04 0.0
0.000000e+00 0.000000e+00 0.0
0.000000e+00 0.000000e+00 0.0
0.000000e+00 0.000000e+00 0.0
0.000000e+00 0.000000e+00 0.0
0.000000e+00 0.000000e+00 0.0
0.000000e+00 0.000000e+00 0.0
0.000000e+00 0.000000e+00 0.0
0.000000e+00 0.000000e+00 0.0
0.000000e+00 0.000000e+00 0.0
0.000000e+00 0.000000e+00 0.0
0.000000e+00 -8.406453e-02 0.0
-1.373911e-02 8.405905e-02 0.0
-5.750766e-03 1.028773e-01 0.0
1.868138e-02 8.428355e-02 0.0
5.180430e-02 6.157826e-02 0.0
9.248859e-02 3.656158e-02 0.0
1.434066e-01 7.786912e-03 0.0
2.076012e-01 -2.490785e-02 0.0
2.826106e-01 -6.091816e-02 0.0
3.650095e-01 -1.012341e-01 0.0
4.520572e-01 -1.453239e-01 0.0
5.398576e-01 -1.923163e-01 0.0
6.242496e-01 -2.404804e-01 0.0
7.010758e-01 -2.873766e-01 0.0
7.669512e-01 -3.299431e-01 0.0
8.195494e-01 -3.650775e-01 0.0
8.579438e-01 -3.900927e-01 0.0
8.826390e-01 -4.031565e-01 0.0
8.951485e-01 -4.035338e-01 0.0
8.978359e-01 -3.915008e-01 0.0
8.944229e-01 -3.695887e-01 0.0
8.877365e-01 -3.404561e-01 0.0
8.798459e-01 -3.067734e-01 0.0
8.721064e-01 -2.707324e-01 0.0
8.652930e-01 -2.340879e-01 0.0
8.597708e-01 -1.982568e-01 0.0
8.556924e-01 -1.644084e-01 0.0
8.529553e-01 -1.330981e-01 0.0
8.513564e-01 -1.046837e-01 0.0
8.506598e-01 -7.933369e-02 0.0
8.506163e-01 -5.708318e-02 0.0
8.509693e-01 -3.787241e-02 0.0
8.515143e-01 -2.155014e-02 0.0
8.520784e-01 -7.937325e-03 0.0
8.525220e-01 3.171574e-03 0.0
8.527542e-01 1.218941e-02 0.0
8.527340e-01 1.946564e-02 0.0
8.524502e-01 2.527970e-02 0.0
8.519099e-01 2.986271e-02 0.0
8.511305e-01 3.340931e-02 0.0
8.501343e-01 3.608489e-02 0.0
8.489462e-01 3.803078e-02 0.0
8.475911e-01 3.936809e-02 0.0
8.460927e-01 4.020074e-02 0.0
8.444719e-01 4.061791e-02 0.0
8.427431e-01 4.069517e-02 0.0
8.409198e-01 4.048988e-02 0.0
8.390165e-01 4.004987e-02 0.0
8.370467e-01 3.941861e-02 0.0
8.350228e-01 3.863505e-02 0.0
8.329561e-01 3.773339e-02 0.0
8.308561e-01 3.674293e-02 0.0
8.287314e-01 3.568865e-02 0.0
8.265891e-01 3.459160e-02 0.0
8.244356e-01 3.346934e-02 0.0
8.222763e-01 3.233637e-02 0.0
8.201162e-01 3.120454e-02 0.0
8.179594e-01 3.008344e-02 0.0
8.158098e-01 2.898067e-02 0.0
8.136706e-01 2.790209e-02 0.0
8.115447e-01 2.685207e-02 0.0
8.094347e-01 2.583367e-02 0.0
8.073429e-01 2.484891e-02 0.0
8.052714e-01 2.389890e-02 0.0
8.032222e-01 2.298400e-02 0.0
8.011967e-01 2.210387e-02 0.0
7.991966e-01 2.125764e-02 0.0
7.972231e-01 2.044387e-02 0.0
7.952777e-01 1.966074e-02 0.0
7.933614e-01 1.890601e-02 0.0
7.914756e-01 1.817714e-02 0.0
7.896213e-01 1.747125e-02 0.0
7.877997e-01 1.678512e-02 0.0
7.860120e-01 1.611516e-02 0.0
7.842595e-01 1.545736e-02 0.0
7.825434e-01 1.480802e-02 0.0
7.808653e-01 1.416221e-02 0.0
7.792269e-01 1.351456e-02 0.0
7.776303e-01 1.285919e-02 0.0
7.760779e-01 1.218945e-02 0.0
7.745728e-01 1.149783e-02 0.0
7.731189e-01 1.077568e-02 0.0
7.717212e-01 1.001292e-02 0.0
7.703869e-01 9.197547e-03 0.0
7.691258e-01 8.314876e-03 0.0
7.679528e-01 7.346185e-03 0.0
7.668909e-01 6.266436e-03 0.0
7.659769e-01 5.040405e-03 0.0
7.652710e-01 3.617886e-03 0.0
7.648676e-01 1.944039e-03 0.0
7.648615e-01 1.372782e-04 0.0
0.000000e+00 1.390279e-04 0.0
0.000000e+00 0.000000e+00 0.0
0.000000e+00 0.000000e+00 0.0
0.000000e+00 0.000000e+00 0.0
0.000000e+00 0.000000e+00 0.0
0.000000e+00 0.000000e+00 0.0
0.000000e+00 0.000000e+00 0.0
0.000000e+00 0.000000e+00 0.0
0.000000e+00 0.000000e+00 0.0
0.000000e+00 0.000000e+00 0.0
0.000000e+00 0.000000e+00 0.0
0.000000e+00 -7.893036e-02 0.0
5.131103e-03 7.892645e-02 0.0
5.411378e-02 5.389927e-02 0.0
1.179866e-01 2.041736e-02 0.0
1.916521e-01 -1.208108e-02 0.0
2.722012e-01 -4.398442e-02 0.0
3.564822e-01 -7.649503e-02 0.0
4.428049e-01 -1.112338e-01 0.0
5.299689e-01 -1.480852e-01 0.0
6.156564e-01 -1.869226e-01 0.0
6.973350e-01 -2.270003e-01 0.0
7.721796e-01 -2.671556e-01 0.0
8.374370e-01 -3.057309e-01 0.0
8.907587e-01 -3.406928e-01 0.0
9.306264e-01 -3.698103e-01 0.0