# vtk DataFile Version 3.0
Vector Field
ASCII
DATASET RECTILINEAR_GRID
DIMENSIONS 102 22 1
X_COORDINATES 102 double
0.000000 0.100000 0.200000 0.300000 0.400000 0.500000 0.600000 0.700000 0.800000 0.900000 1.000000 1.100000 1.200000 1.300000 1.400000 1.500000 1.600000 1.700000 1.800000 1.900000 2.000000 2.100000 2.200000 2.300000 2.400000 2.500000 2.600000 2.700000 2.800000 2.900000 3.000000 3.100000 3.200000 3.300000 3.400000 3.500000 3.600000 3.700000 3.800000 3.900000 4.000000 4.100000 4.200000 4.300000 4.400000 4.500000 4.600000 4.700000 4.800000 4.900000 5.000000 5.100000 5.200000 5.300000 5.400000 5.500000 5.600000 5.700000 5.800000 5.900000 6.000000 6.100000 6.200000 6.300000 6.400000 6.500000 6.600000 6.700000 6.800000 6.900000 7.000000 7.100000 7.200000 7.300000 7.400000 7.500000 7.600000 7.700000 7.800000 7.900000 8.000000 8.100000 8.200000 8.300000 8.400000 8.500000 8.600000 8.700000 8.800000 8.900000 9.000000 9.100000 9.200000 9.300000 9.400000 9.500000 9.600000 9.700000 9.800000 9.900000 10.000000 10.100000 
Y_COORDINATES 22 double
0.000000 0.100000 0.200000 0.300000 0.400000 0.500000 0.600000 0.700000 0.800000 0.900000 1.000000 1.100000 1.200000 1.300000 1.400000 1.500000 1.600000 1.700000 1.800000 1.900000 2.000000 2.100000 
Z_COORDINATES 1 double
0.0
POINT_DATA 2244
VECTORS Velocity double
0.000000e+00 0.000000e+00 0.0
-0.000000e+00 0.000000e+00 0.0
-0.000000e+00 0.000000e+00 0.0
-0.000000e+00 0.000000e+00 0.0
-0.000000e+00 0.000000e+00 0.0
-0.000000e+00 0.000000e+00 0.0
-0.000000e+00 0.000000e+00 0.0
-0.000000e+00 0.000000e+00 0.0
-0.000000e+00 0.000000e+00 0.0
-0.000000e+00 0.000000e+00 0.0
-0.000000e+00 0.000000e+00 0.0
4.859185e-04 0.000000e+00 0.0
4.829915e-03 0.000000e+00 0.0
1.151630e-02 0.000000e+00 0.0
1.935182e-02 0.000000e+00 0.0
2.793840e-02 0.000000e+00 0.0
3.735275e-02 0.000000e+00 0.0
4.786547e-02 0.000000e+00 0.0
5.981145e-02 0.000000e+00 0.0
7.352961e-02 0.000000e+00 0.0
8.929655e-02 0.000000e+00 0.0
1.072274e-01 0.000000e+00 0.0
1.271196e-01 0.000000e+00 0.0
1.482751e-01 0.000000e+00 0.0
1.692962e-01 0.000000e+00 0.0
1.877560e-01 0.000000e+00 0.0
2.004721e-01 0.000000e+00 0.0
2.036836e-01 0.000000e+00 0.0
1.940934e-01 0.000000e+00 0.0
1.704693e-01 0.000000e+00 0.0
1.335654e-01 0.000000e+00 0.0
8.700180e-02 0.000000e+00 0.0
3.385430e-02 0.000000e+00 0.0
-2.046997e-02 0.000000e+00 0.0
-6.842171e-02 0.000000e+00 0.0
-1.071257e-01 0.000000e+00 0.0
-1.363521e-01 0.000000e+00 0.0
-1.570057e-01 0.000000e+00 0.0
-1.704328e-01 0.000000e+00 0.0
-1.780851e-01 0.000000e+00 0.0
-1.813594e-01 0.000000e+00 0.0
-1.815266e-01 0.000000e+00 0.0
-1.794872e-01 0.000000e+00 0.0
-1.757717e-01 0.000000e+00 0.0
-1.709409e-01 0.000000e+00 0.0
-1.654775e-01 0.000000e+00 0.0
-1.597523e-01 0.000000e+00 0.0
-1.540345e-01 0.000000e+00 0.0
-1.484773e-01 0.000000e+00 0.0
-1.431793e-01 0.000000e+00 0.0
-1.381944e-01 0.000000e+00 0.0
-1.335463e-01 0.000000e+00 0.0
-1.292392e-01 0.000000e+00 0.0
-1.252653e-01 0.000000e+00 0.0
-1.216097e-01 0.000000e+00 0.0
-1.182540e-01 0.000000e+00 0.0
-1.151779e-01 0.000000e+00 0.0
-1.123610e-01 0.000000e+00 0.0
-1.097832e-01 0.000000e+00 0.0
-1.074252e-01 0.000000e+00 0.0
-1.052687e-01 0.000000e+00 0.0
-1.032961e-01 0.000000e+00 0.0
-1.014911e-01 0.000000e+00 0.0
-9.983849e-02 0.000000e+00 0.0
-9.832377e-02 0.000000e+00 0.0
-9.693359e-02 0.000000e+00 0.0
-9.565553e-02 0.000000e+00 0.0
-9.447805e-02 0.000000e+00 0.0
-9.339050e-02 0.000000e+00 0.0
-9.238309e-02 0.000000e+00 0.0
-9.144682e-02 0.000000e+00 0.0
-9.057349e-02 0.000000e+00 0.0
-8.975565e-02 0.000000e+00 0.0
-8.898661e-02 0.000000e+00 0.0
-8.826037e-02 0.000000e+00 0.0
-8.757168e-02 0.000000e+00 0.0
-8.691597e-02 0.000000e+00 0.0
-8.628940e-02 0.000000e+00 0.0
-8.568884e-02 0.000000e+00 0.0
-8.511187e-02 0.000000e+00 0.0
-8.455680e-02 0.000000e+00 0.0
-8.402268e-02 0.000000e+00 0.0
-8.350931e-02 0.000000e+00 0.0
-8.301722e-02 0.000000e+00 0.0
-8.254772e-02 0.000000e+00 0.0
-8.210287e-02 0.000000e+00 0.0
-8.168548e-02 0.000000e+00 0.0
-8.129910e-02 0.000000e+00 0.0
-8.094800e-02 0.000000e+00 0.0
-8.063708e-02 0.000000e+00 0.0
-8.037181e-02 0.000000e+00 0.0
-8.015799e-02 0.000000e+00 0.0
-8.000149e-02 0.000000e+00 0.0
-7.990763e-02 0.000000e+00 0.0
-7.988038e-02 0.000000e+00 0.0
-7.992073e-02 0.000000e+00 0.0
-8.002192e-02 0.000000e+00 0.0
-8.016246e-02 0.000000e+00 0.0
-8.030584e-02 0.000000e+00 0.0
-8.038474e-02 0.000000e+00 0.0
-8.038474e-02 0.000000e+00 0.0
0.000000e+00 0.000000e+00 0.0
0.000000e+00 0.000000e+00 0.0
0.000000e+00 0.000000e+00 0.0
0.000000e+00 0.000000e+00 0.0
0.000000e+00 0.000000e+00 0.0
0.000000e+00 0.000000e+00 0.0
0.000000e+00 0.000000e+00 0.0
0.000000e+00 0.000000e+00 0.0
0.000000e+00 0.000000e+00 0.0
0.000000e+00 0.000000e+00 0.0
0.000000e+00 0.000000e+00 0.0
0.000000e+00 -5.761918e-04 0.0
-4.862877e-04 5.756406e-04 0.0
-4.830451e-03 4.395541e-03 0.0
-1.151735e-02 6.738278e-03 0.0
-1.935376e-02 7.887792e-03 0.0
-2.794169e-02 8.639307e-03 0.0
-3.735793e-02 9.467616e-03 0.0
-4.787319e-02 1.056664e-02 0.0
-5.982244e-02 1.200063e-02 0.0
-7.354469e-02 1.377363e-02 0.0
-8.931651e-02 1.582319e-02 0.0
-1.072529e-01 1.798773e-02 0.0
-1.271507e-01 1.994917e-02 0.0
-1.483113e-01 2.121199e-02 0.0
-1.693355e-01 2.107564e-02 0.0
-1.877948e-01 1.851068e-02 0.0
-2.005045e-01 1.276105e-02 0.0
-2.037023e-01 3.249204e-03 0.0
-1.940921e-01 -9.558801e-03 0.0
-1.704437e-01 -2.359709e-02 0.0
-1.335169e-01 -3.687542e-02 0.0
-8.693496e-02 -4.653052e-02 0.0
-3.377154e-02 -5.311205e-02 0.0
2.055856e-02 -5.427872e-02 0.0
6.850416e-02 -4.789421e-02 0.0
1.071976e-01 -3.864203e-02 0.0
1.364123e-01 -2.916335e-02 0.0
1.570546e-01 -2.059092e-02 0.0
1.704717e-01 -1.336574e-02 0.0
1.781155e-01 -7.592418e-03 0.0
1.813831e-01 -3.216162e-03 0.0
1.815452e-01 -1.107823e-04 0.0
1.795016e-01 2.095072e-03 0.0
1.757827e-01 3.770213e-03 0.0
1.709494e-01 4.884697e-03 0.0
1.654844e-01 5.516388e-03 0.0
1.597583e-01 5.777509e-03 0.0
1.540399e-01 5.769782e-03 0.0
1.484825e-01 5.608741e-03 0.0
1.431846e-01 5.349351e-03 0.0
1.381998e-01 5.036162e-03 0.0
1.335520e-01 4.699172e-03 0.0
1.292453e-01 4.358056e-03 0.0
1.252719e-01 4.024811e-03 0.0
1.216169e-01 3.706422e-03 0.0
1.182617e-01 3.406581e-03 0.0
1.151862e-01 3.126882e-03 0.0
1.123699e-01 2.867651e-03 0.0
1.097928e-01 2.628498e-03 0.0
1.074355e-01 2.408666e-03 0.0
1.052797e-01 2.207222e-03 0.0
1.033079e-01 2.023165e-03 0.0
1.015038e-01 1.855470e-03 0.0
9.985211e-02 1.703120e-03 0.0
9.833839e-02 1.565117e-03 0.0
9.694929e-02 1.440485e-03 0.0
9.567240e-02 1.328282e-03 0.0
9.449620e-02 1.227593e-03 0.0
9.341004e-02 1.137542e-03 0.0
9.240415e-02 1.057283e-03 0.0
9.146954e-02 9.860033e-04 0.0
9.059801e-02 9.229206e-04 0.0
8.978212e-02 8.672776e-04 0.0
8.901518e-02 8.183380e-04 0.0
8.829119e-02 7.753812e-04 0.0
8.760488e-02 7.376970e-04 0.0
8.695169e-02 7.045804e-04 0.0
8.632776e-02 6.753269e-04 0.0
8.572992e-02 6.492287e-04 0.0
8.515575e-02 6.255720e-04 0.0
8.460350e-02 6.036344e-04 0.0
8.407221e-02 5.826841e-04 0.0
8.356163e-02 5.619791e-04 0.0
8.307225e-02 5.407689e-04 0.0
8.260535e-02 5.182967e-04 0.0
8.216294e-02 4.938038e-04 0.0
8.174780e-02 4.665354e-04 0.0
8.136344e-02 4.357499e-04 0.0
8.101410e-02 4.007338e-04 0.0
8.070467e-02 3.608285e-04 0.0
8.044058e-02 3.154778e-04 0.0
8.022767e-02 2.643104e-04 0.0
8.007178e-02 2.072793e-04 0.0
7.997830e-02 1.448816e-04 0.0
7.995120e-02 7.849162e-05 0.0
7.999158e-02 1.101687e-05 0.0
8.009269e-02 -4.972138e-05 0.0
8.023316e-02 -8.907407e-05 0.0
8.037653e-02 -9.197609e-05 0.0
8.045560e-02 -2.766835e-05 0.0
8.038474e-02 1.222474e-04 0.0
0.000000e+00 1.231399e-04 0.0
0.000000e+00 0.000000e+00 0.0
0.000000e+00 0.000000e+00 0.0
0.000000e+00 0.000000e+00 0.0
0.000000e+00 0.000000e+00 0.0
0.000000e+00 0.000000e+00 0.0
0.000000e+00 0.000000e+00 0.0
0.000000e+00 0.000000e+00 0.0
0.000000e+00 0.000000e+00 0.0
0.000000e+00 0.000000e+00 0.0
0.000000e+00 0.000000e+00 0.0
0.000000e+00 -6.305293e-03 0.0
-5.678291e-03 6.305310e-03 0.0
-1.909307e-02 1.782372e-02 0.0
-3.668496e-02 2.434357e-02 0.0
-5.630479e-02 2.752103e-02 0.0
-7.712723e-02 2.947514e-02 0.0
-9.906035e-02 3.141414e-02 0.0
-1.222502e-01 3.376988e-02 0.0
-1.468055e-01 3.656933e-02 0.0
-1.726337e-01 3.961524e-02 0.0
-1.992941e-01 4.249697e-02 0.0
-2.258821e-01 4.458912e-02 0.0
-2.508692e-01 4.494970e-02 0.0
-2.719918e-01 4.234800e-02 0.0
-2.862245e-01 3.532173e-02 0.0
-2.900514e-01 2.235104e-02 0.0
-2.792234e-01 1.946434e-03 0.0
-2.501763e-01 -2.578456e-02 0.0
-2.035364e-01 -5.618522e-02 0.0
-1.421036e-01 -8.501651e-02 0.0
-6.809281e-02 -1.108728e-01 0.0
1.376829e-02 -1.283782e-01 0.0
9.432113e-02 -1.336515e-01 0.0
1.666815e-01 -1.266257e-01 0.0
2.302022e-01 -1.114015e-01 0.0
2.841461e-01 -9.257249e-02 0.0
3.282911e-01 -7.329499e-02 0.0
3.630505e-01 -5.533685e-02 0.0
3.892407e-01 -3.954260e-02 0.0
4.078806e-01 -2.621893e-02 0.0
4.200545e-01 -1.537659e-02 0.0
4.268175e-01 -6.860391e-03 0.0
4.293317e-01 -4.057656e-04 0.0
4.286270e-01 4.488302e-03 0.0
4.253574e-01 8.167718e-03 0.0
4.201221e-01 1.076513e-02 0.0
4.134305e-01 1.248250e-02 0.0
4.056873e-01 1.352644e-02 0.0
3.972787e-01 1.403071e-02 0.0
3.885241e-01 1.411737e-02 0.0
3.796567e-01 1.391693e-02 0.0
3.708508e-01 1.351845e-02 0.0
3.622322e-01 1.299014e-02 0.0
3.538891e-01 1.238130e-02 0.0
3.458809e-01 1.172797e-02 0.0
3.382449e-01 1.105603e-02 0.0
3.310015e-01 1.038373e-02 0.0
3.241588e-01 9.723715e-03 0.0
3.177160e-01 9.084695e-03 0.0
3.116655e-01 8.472551e-03 0.0
3.059950e-01 7.891146e-03 0.0
3.006887e-01 7.342881e-03 0.0
2.957285e-01 6.829070e-03 0.0
2.910948e-01 6.350212e-03 0.0
2.867671e-01 5.906191e-03 0.0
2.827246e-01 5.496426e-03 0.0
2.789463e-01 5.119985e-03 0.0
2.754116e-01 4.775672e-03 0.0
2.721005e-01 4.462098e-03 0.0
2.689935e-01 4.177730e-03 0.0
2.660719e-01 3.920929e-03 0.0
2.633183e-01 3.689974e-03 0.0
2.607159e-01 3.483076e-03 0.0
2.582493e-01 3.298389e-03 0.0
2.559040e-01 3.134010e-03 0.0
2.536672e-01 2.987975e-03 0.0
2.515269e-01 2.858259e-03 0.0
2.494729e-01 2.742767e-03 0.0
2.474962e-01 2.639334e-03 0.0
2.455894e-01 2.545721e-03 0.0
2.437468e-01 2.459617e-03 0.0
2.419643e-01 2.378638e-03 0.0
2.402393e-01 2.300334e-03 0.0
2.385713e-01 2.222198e-03 0.0
2.369613e-01 2.141681e-03 0.0
2.354123e-01 2.056208e-03 0.0
2.339291e-01 1.963201e-03 0.0
2.325181e-01 1.860111e-03 0.0
2.311878e-01 1.744459e-03 0.0
2.299481e-01 1.613908e-03 0.0
2.288107e-01 1.466376e-03 0.0
2.277881e-01 1.300242e-03 0.0
2.268941e-01 1.114706e-03 0.0
2.261420e-01 9.104145e-04 0.0
2.255433e-01 6.905814e-04 0.0
2.251046e-01 4.630857e-04 0.0
2.248236e-01 2.447562e-04 0.0
2.246816e-01 6.627817e-05 0.0
2.246286e-01 -2.558576e-05 0.0
2.245793e-01 3.509098e-05 0.0
2.243838e-01 3.311205e-04 0.0
0.000000e+00 3.328360e-04 0.0
0.000000e+00 0.000000e+00 0.0
0.000000e+00 0.000000e+00 0.0
0.000000e+00 0.000000e+00 0.0
0.000000e+00 0.000000e+00 0.0
0.000000e+00 0.000000e+00 0.0
0.000000e+00 0.000000e+00 0.0
0.000000e+00 0.000000e+00 0.0
0.000000e+00 0.000000e+00 0.0
0.000000e+00 0.000000e+00 0.0
0.000000e+00 0.000000e+00 0.0
0.000000e+00 -1.676837e-02 0.0
-1.041274e-02 1.676943e-02 0.0
-3.085583e-02 3.828022e-02 0.0
-5.519197e-02 4.869312e-02 0.0
-8.049185e-02 5.283431e-02 0.0
-1.056638e-01 5.466052e-02 0.0
-1.303660e-01 5.612976e-02 0.0
-1.544031e-01 5.782036e-02 0.0
-1.774709e-01 5.965055e-02 0.0
-1.990337e-01 6.119145e-02 0.0
-2.181843e-01 6.166094e-02 0.0
-2.336616e-01 6.007985e-02 0.0
-2.437471e-01 5.504856e-02 0.0
-2.462279e-01 4.484223e-02 0.0
-2.374441e-01 2.655133e-02 0.0
-2.115156e-01 -3.563996e-03 0.0
-1.671152e-01 -4.244065e-02 0.0
-1.054653e-01 -8.742101e-02 0.0
-2.923277e-02 -1.324043e-01 0.0
5.610884e-02 -1.703447e-01 0.0
1.403962e-01 -1.951468e-01 0.0
2.187851e-01 -2.067537e-01 0.0
2.886528e-01 -2.035059e-01 0.0
3.497171e-01 -1.876766e-01 0.0
4.029628e-01 -1.646338e-01 0.0
4.489225e-01 -1.385188e-01 0.0
4.878625e-01 -1.122216e-01 0.0
5.200654e-01 -8.752628e-02 0.0
5.459266e-01 -6.539041e-02 0.0
5.659457e-01 -4.622465e-02 0.0
5.806874e-01 -3.010489e-02 0.0
5.907513e-01 -1.691086e-02 0.0
5.967692e-01 -6.410314e-03 0.0
5.995593e-01 1.711614e-03 0.0
5.997176e-01 8.022898e-03 0.0
5.977167e-01 1.277940e-02 0.0
5.939555e-01 1.625705e-02 0.0
5.887876e-01 1.870779e-02 0.0
5.824952e-01 2.033654e-02 0.0
5.752989e-01 2.132703e-02 0.0
5.674308e-01 2.179847e-02 0.0
5.591149e-01 2.184775e-02 0.0
5.505304e-01 2.158805e-02 0.0
5.418235e-01 2.110160e-02 0.0
5.331111e-01 2.045380e-02 0.0
5.244854e-01 1.969510e-02 0.0
5.160184e-01 1.886413e-02 0.0
5.077651e-01 1.799046e-02 0.0
4.997663e-01 1.709690e-02 0.0
4.920511e-01 1.620109e-02 0.0
4.846390e-01 1.531669e-02 0.0
4.775411e-01 1.445418e-02 0.0
4.707620e-01 1.362154e-02 0.0
4.643010e-01 1.282468e-02 0.0
4.581527e-01 1.206785e-02 0.0
4.523086e-01 1.135392e-02 0.0
4.467574e-01 1.068465e-02 0.0
4.414856e-01 1.006087e-02 0.0
4.364784e-01 9.482681e-03 0.0
4.317200e-01 8.949557e-03 0.0
4.271938e-01 8.460472e-03 0.0
4.228833e-01 8.013973e-03 0.0
4.187715e-01 7.608244e-03 0.0
4.148421e-01 7.241146e-03 0.0
4.110793e-01 6.910247e-03 0.0
4.074679e-01 6.612838e-03 0.0
4.039936e-01 6.345943e-03 0.0
4.006434e-01 6.106329e-03 0.0
3.974057e-01 5.890505e-03 0.0
3.942700e-01 5.694736e-03 0.0
3.912280e-01 5.515047e-03 0.0
3.882728e-01 5.347235e-03 0.0
3.853997e-01 5.186886e-03 0.0
3.826059e-01 5.029393e-03 0.0
3.798910e-01 4.869991e-03 0.0
3.772568e-01 4.703796e-03 0.0
3.747076e-01 4.525852e-03 0.0
3.722499e-01 4.331184e-03 0.0
3.698929e-01 4.114868e-03 0.0
3.676481e-01 3.872140e-03 0.0
3.655293e-01 3.598555e-03 0.0
3.635527e-01 3.290266e-03 0.0
3.617363e-01 2.944510e-03 0.0
3.600996e-01 2.560472e-03 0.0
3.586628e-01 2.140855e-03 0.0
3.574445e-01 1.694779e-03 0.0
3.564596e-01 1.243072e-03 0.0
3.557128e-01 8.264923e-04 0.0
3.551845e-01 5.161271e-04 0.0
3.548210e-01 4.120042e-04 0.0
3.545279e-01 6.375565e-04 0.0
0.000000e+00 6.404806e-04 0.0
0.000000e+00 0.000000e+00 0.0
0.000000e+00 0.000000e+00 0.0
0.000000e+00 0.000000e+00 0.0
0.000000e+00 0.000000e+00 0.0
0.000000e+00 0.000000e+00 0.0
0.000000e+00 0.000000e+00 0.0
0.000000e+00 0.000000e+00 0.0
0.000000e+00 0.000000e+00 0.0
0.000000e+00 0.000000e+00 0.0
0.000000e+00 0.000000e+00 0.0
0.000000e+00 -2.976996e-02 0.0
-1.295116e-02 2.977197e-02 0.0
-3.624663e-02 6.158908e-02 0.0
-6.168206e-02 7.414195e-02 0.0
-8.591860e-02 7.708425e-02 0.0
-1.078933e-01 7.664866e-02 0.0
-1.272144e-01 7.546418e-02 0.0
-1.435674e-01 7.418681e-02 0.0
-1.565474e-01 7.264395e-02 0.0
-1.656278e-01 7.028521e-02 0.0
-1.698981e-01 6.594470e-02 0.0
-1.680762e-01 5.827138e-02 0.0
-1.577741e-01 4.475986e-02 0.0
-1.360950e-01 2.317652e-02 0.0
-9.560182e-02 -1.392847e-02 0.0
-3.578935e-02 -6.336306e-02 0.0
4.048516e-02 -1.187018e-01 0.0
1.240544e-01 -1.709768e-01 0.0
2.080048e-01 -2.163414e-01 0.0
2.874609e-01 -2.497874e-01 0.0
3.600889e-01 -2.677614e-01 0.0
4.232342e-01 -2.698856e-01 0.0
4.762162e-01 -2.564744e-01 0.0
5.214338e-01 -2.328808e-01 0.0
5.604391e-01 -2.036256e-01 0.0
5.941404e-01 -1.722068e-01 0.0
6.230478e-01 -1.411156e-01 0.0
6.474861e-01 -1.119511e-01 0.0
6.677251e-01 -8.561603e-02 0.0
6.840379e-01 -6.252406e-02 0.0
6.967182e-01 -4.277175e-02 0.0
7.060847e-01 -2.626397e-02 0.0
7.124807e-01 -1.279293e-02 0.0
7.162951e-01 -2.089365e-03 0.0
7.180284e-01 6.302990e-03 0.0
7.180139e-01 1.280732e-02 0.0
7.165162e-01 1.776817e-02 0.0
7.137622e-01 2.147520e-02 0.0
7.099452e-01 2.416689e-02 0.0
7.052435e-01 2.604214e-02 0.0
6.997996e-01 2.725573e-02 0.0
6.937180e-01 2.794277e-02 0.0
6.871317e-01 2.818780e-02 0.0
6.801706e-01 2.807613e-02 0.0
6.729451e-01 2.769272e-02 0.0
6.655494e-01 2.710416e-02 0.0
6.580640e-01 2.636297e-02 0.0
6.505568e-01 2.551098e-02 0.0
6.430852e-01 2.458195e-02 0.0
6.356963e-01 2.360343e-02 0.0
6.284284e-01 2.259793e-02 0.0
6.213122e-01 2.158384e-02 0.0
6.143710e-01 2.057615e-02 0.0
6.076222e-01 1.958690e-02 0.0
6.010777e-01 1.862572e-02 0.0
5.947449e-01 1.770010e-02 0.0
5.886272e-01 1.681578e-02 0.0
5.827245e-01 1.597699e-02 0.0
5.770339e-01 1.518665e-02 0.0
5.715503e-01 1.444661e-02 0.0
5.662664e-01 1.375774e-02 0.0
5.611737e-01 1.312011e-02 0.0
5.562623e-01 1.253306e-02 0.0
5.515216e-01 1.199526e-02 0.0
5.469405e-01 1.150478e-02 0.0
5.425076e-01 1.105913e-02 0.0
5.382117e-01 1.065524e-02 0.0
5.340419e-01 1.028953e-02 0.0
5.299879e-01 9.957892e-03 0.0
5.260403e-01 9.655725e-03 0.0
5.221909e-01 9.377934e-03 0.0
5.184325e-01 9.118962e-03 0.0
5.147600e-01 8.872806e-03 0.0
5.111698e-01 8.633047e-03 0.0
5.076603e-01 8.392903e-03 0.0
5.042322e-01 8.145293e-03 0.0
5.008885e-01 7.882897e-03 0.0
4.976349e-01 7.598235e-03 0.0
4.944794e-01 7.283755e-03 0.0
4.914330e-01 6.931959e-03 0.0
4.885094e-01 6.535570e-03 0.0
4.857252e-01 6.087821e-03 0.0
4.831002e-01 5.582925e-03 0.0
4.806572e-01 5.016920e-03 0.0
4.784223e-01 4.389200e-03 0.0
4.764251e-01 3.705319e-03 0.0
4.746995e-01 2.982104e-03 0.0
4.732829e-01 2.256456e-03 0.0
4.722131e-01 1.599431e-03 0.0
4.715061e-01 1.132364e-03 0.0
4.711534e-01 1.003652e-03 0.0
0.000000e+00 1.008330e-03 0.0
0.000000e+00 0.000000e+00 0.0
0.000000e+00 0.000000e+00 0.0
0.000000e+00 0.000000e+00 0.0
0.000000e+00 0.000000e+00 0.0
0.000000e+00 0.000000e+00 0.0
0.000000e+00 0.000000e+00 0.0
0.000000e+00 0.000000e+00 0.0
0.000000e+00 0.000000e+00 0.0
0.000000e+00 0.000000e+00 0.0
0.000000e+00 0.000000e+00 0.0
0.000000e+00 -4.321984e-02 0.0
-1.339893e-02 4.322228e-02 0.0
-3.535077e-02 8.355433e-02 0.0
-5.670549e-02 9.551007e-02 0.0
-7.455096e-02 9.494313e-02 0.0
-8.822735e-02 9.033845e-02 0.0
-9.751622e-02 8.476645e-02 0.0
-1.021809e-01 7.886490e-02 0.0
-1.017455e-01 7.222193e-02 0.0
-9.575832e-02 6.431144e-02 0.0
-8.263820e-02 5.283799e-02 0.0
-6.051263e-02 3.615921e-02 0.0
-2.291386e-02 7.174496e-03 0.0
3.595886e-02 -3.568280e-02 0.0
1.094097e-01 -8.736588e-02 0.0
1.911166e-01 -1.450566e-01 0.0
2.749672e-01 -2.025390e-01 0.0
3.566793e-01 -2.526755e-01 0.0
4.315662e-01 -2.912149e-01 0.0
4.968918e-01 -3.150996e-01 0.0
5.518489e-01 -3.227050e-01 0.0
5.957349e-01 -3.137583e-01 0.0
6.315283e-01 -2.922543e-01 0.0
6.614594e-01 -2.627986e-01 0.0
6.870125e-01 -2.291653e-01 0.0
7.090843e-01 -1.942651e-01 0.0
7.281860e-01 -1.602040e-01 0.0
7.445996e-01 -1.283513e-01 0.0
7.584936e-01 -9.949659e-02 0.0
7.699951e-01 -7.401216e-02 0.0
7.792282e-01 -5.199148e-02 0.0
7.863358e-01 -3.335821e-02 0.0
7.914760e-01 -1.791971e-02 0.0
7.948223e-01 -5.422272e-03 0.0
7.966854e-01 4.453366e-03 0.0
7.972846e-01 1.222145e-02 0.0
7.967898e-01 1.827645e-02 0.0
7.953429e-01 2.293542e-02 0.0
7.930686e-01 2.645466e-02 0.0
7.900805e-01 2.904360e-02 0.0
7.864774e-01 3.087226e-02 0.0
7.823506e-01 3.208301e-02 0.0
7.777643e-01 3.278751e-02 0.0
7.727778e-01 3.307605e-02 0.0
7.674668e-01 3.301706e-02 0.0
7.618994e-01 3.268503e-02 0.0
7.561364e-01 3.213932e-02 0.0
7.502328e-01 3.142803e-02 0.0
7.442371e-01 3.059108e-02 0.0
7.381919e-01 2.966200e-02 0.0
7.321343e-01 2.866898e-02 0.0
7.260957e-01 2.763575e-02 0.0
7.201031e-01 2.658224e-02 0.0
7.141783e-01 2.552503e-02 0.0
7.083396e-01 2.447788e-02 0.0
7.026011e-01 2.345204e-02 0.0
6.969736e-01 2.245664e-02 0.0
6.914651e-01 2.149892e-02 0.0
6.860806e-01 2.058450e-02 0.0
6.808231e-01 1.971760e-02 0.0
6.756930e-01 1.890119e-02 0.0
6.706894e-01 1.813713e-02 0.0
6.658096e-01 1.742631e-02 0.0
6.610496e-01 1.676865e-02 0.0
6.564045e-01 1.616326e-02 0.0
6.518686e-01 1.560840e-02 0.0
6.474358e-01 1.510152e-02 0.0
6.430994e-01 1.463932e-02 0.0
6.388530e-01 1.421769e-02 0.0
6.346903e-01 1.383180e-02 0.0
6.306056e-01 1.347606e-02 0.0
6.265938e-01 1.314418e-02 0.0
6.226508e-01 1.282918e-02 0.0
6.187739e-01 1.252338e-02 0.0
6.149617e-01 1.221849e-02 0.0
6.112147e-01 1.190571e-02 0.0
6.075353e-01 1.157576e-02 0.0
6.039279e-01 1.121899e-02 0.0
6.003996e-01 1.082546e-02 0.0
5.969599e-01 1.038509e-02 0.0
5.936211e-01 9.887748e-03 0.0
5.903988e-01 9.323523e-03 0.0
5.873121e-01 8.683060e-03 0.0
5.843843e-01 7.958168e-03 0.0
5.816439e-01 7.142917e-03 0.0
5.791270e-01 6.235631e-03 0.0
5.768800e-01 5.242541e-03 0.0
5.749655e-01 4.184341e-03 0.0
5.734704e-01 3.107974e-03 0.0
5.725075e-01 2.108617e-03 0.0
5.721409e-01 1.383692e-03 0.0
0.000000e+00 1.390637e-03 0.0
0.000000e+00 0.000000e+00 0.0
0.000000e+00 0.000000e+00 0.0
0.000000e+00 0.000000e+00 0.0
0.000000e+00 0.000000e+00 0.0
0.000000e+00 0.000000e+00 0.0
0.000000e+00 0.000000e+00 0.0
0.000000e+00 0.000000e+00 0.0
0.000000e+00 0.000000e+00 0.0
0.000000e+00 0.000000e+00 0.0
0.000000e+00 0.000000e+00 0.0
0.000000e+00 -5.639240e-02 0.0
-1.312109e-02 5.639475e-02 0.0
-3.057503e-02 1.010217e-01 0.0
-4.365068e-02 1.085991e-01 0.0
-5.104390e-02 1.023497e-01 0.0
-5.277061e-02 9.207856e-02 0.0
-4.891429e-02 8.092354e-02 0.0
-3.930772e-02 6.927173e-02 0.0
-2.260757e-02 5.553519e-02 0.0
2.437263e-03 3.928001e-02 0.0
4.016036e-02 1.512829e-02 0.0
9.606910e-02 -1.973612e-02 0.0
1.672184e-01 -6.396136e-02 0.0
2.480937e-01 -1.165447e-01 0.0
3.340266e-01 -1.732854e-01 0.0
4.188946e-01 -2.299111e-01 0.0
4.975490e-01 -2.811800e-01 0.0
5.668969e-01 -3.220100e-01 0.0
6.249085e-01 -3.492131e-01 0.0
6.709971e-01 -3.611747e-01 0.0
7.055278e-01 -3.572224e-01 0.0
7.311430e-01 -3.393600e-01 0.0
7.507945e-01 -3.118924e-01 0.0
7.665638e-01 -2.785544e-01 0.0
7.797994e-01 -2.423875e-01 0.0
7.912905e-01 -2.057429e-01 0.0
8.014699e-01 -1.703700e-01 0.0
8.105226e-01 -1.373905e-01 0.0
8.184948e-01 -1.074554e-01 0.0
8.253719e-01 -8.087583e-02 0.0
8.311251e-01 -5.773128e-02 0.0
8.357532e-01 -3.797292e-02 0.0
8.392694e-01 -2.142250e-02 0.0
8.417114e-01 -7.850904e-03 0.0
8.431719e-01 3.006257e-03 0.0
8.437775e-01 1.162928e-02 0.0
8.436225e-01 1.844492e-02 0.0
8.427893e-01 2.378198e-02 0.0
8.413547e-01 2.790271e-02 0.0
8.393910e-01 3.102067e-02 0.0
8.369652e-01 3.331149e-02 0.0
8.341400e-01 3.492157e-02 0.0
8.309693e-01 3.597157e-02 0.0
8.274965e-01 3.656227e-02 0.0
8.237520e-01 3.677495e-02 0.0
8.197770e-01 3.667351e-02 0.0
8.156102e-01 3.631950e-02 0.0
8.112883e-01 3.576330e-02 0.0
8.068450e-01 3.504780e-02 0.0
8.023106e-01 3.420983e-02 0.0
7.977121e-01 3.328089e-02 0.0
7.930733e-01 3.228789e-02 0.0
7.884152e-01 3.125376e-02 0.0
7.837557e-01 3.019792e-02 0.0
7.791103e-01 2.913673e-02 0.0
7.744919e-01 2.808388e-02 0.0
7.699112e-01 2.705069e-02 0.0
7.653771e-01 2.604645e-02 0.0
7.608963e-01 2.507864e-02 0.0
7.564741e-01 2.415320e-02 0.0
7.521141e-01 2.327465e-02 0.0
7.478184e-01 2.244624e-02 0.0
7.435880e-01 2.167010e-02 0.0
7.394228e-01 2.094728e-02 0.0
7.353217e-01 2.027780e-02 0.0
7.312827e-01 1.966074e-02 0.0
7.273035e-01 1.909416e-02 0.0
7.233810e-01 1.857520e-02 0.0
7.195121e-01 1.810004e-02 0.0
7.156934e-01 1.766389e-02 0.0
7.119218e-01 1.726106e-02 0.0
7.081944e-01 1.688496e-02 0.0
7.045089e-01 1.652806e-02 0.0
7.008638e-01 1.618192e-02 0.0
6.972585e-01 1.583724e-02 0.0
6.936936e-01 1.548398e-02 0.0
6.901714e-01 1.511142e-02 0.0
6.866955e-01 1.470822e-02 0.0
6.832719e-01 1.426251e-02 0.0
6.799084e-01 1.376200e-02 0.0
6.766155e-01 1.319401e-02 0.0
6.734068e-01 1.254569e-02 0.0
6.702991e-01 1.180409e-02 0.0
6.673143e-01 1.095645e-02 0.0
6.644800e-01 9.990620e-03 0.0
6.618332e-01 8.895866e-03 0.0
6.594248e-01 7.664277e-03 0.0
6.573290e-01 6.293575e-03 0.0
6.556570e-01 4.793411e-03 0.0
6.545719e-01 3.207089e-03 0.0
6.542351e-01 1.733861e-03 0.0
0.000000e+00 1.743330e-03 0.0
0.000000e+00 0.000000e+00 0.0
0.000000e+00 0.000000e+00 0.0
0.000000e+00 0.000000e+00 0.0
0.000000e+00 0.000000e+00 0.0
0.000000e+00 0.000000e+00 0.0
0.000000e+00 0.000000e+00 0.0
0.000000e+00 0.000000e+00 0.0
0.000000e+00 0.000000e+00 0.0
0.000000e+00 0.000000e+00 0.0
0.000000e+00 0.000000e+00 0.0
0.000000e+00 -7.009496e-02 0.0
-1.365086e-02 7.009699e-02 0.0
-2.307280e-02 1.104570e-01 0.0
-2.271576e-02 1.082555e-01 0.0
-1.460514e-02 9.425254e-02 0.0
5.763460e-04 7.691047e-02 0.0
2.297448e-02 5.853880e-02 0.0
5.274256e-02 3.951706e-02 0.0
9.325716e-02 1.503399e-02 0.0
1.495069e-01 -1.695631e-02 0.0
2.199076e-01 -5.525905e-02 0.0
3.003375e-01 -1.001525e-01 0.0
3.867299e-01 -1.503404e-01 0.0
4.737862e-01 -2.035877e-01 0.0
5.567562e-01 -2.562420e-01 0.0
6.312310e-01 -3.043724e-01 0.0
6.940857e-01 -3.440214e-01 0.0
7.439719e-01 -3.718828e-01 0.0
7.808450e-01 -3.860728e-01 0.0
8.056624e-01 -3.859787e-01 0.0
8.206048e-01 -3.721513e-01 0.0
8.292473e-01 -3.479892e-01 0.0
8.342056e-01 -3.168373e-01 0.0
8.372762e-01 -2.816116e-01 0.0
8.395799e-01 -2.446779e-01 0.0
8.417252e-01 -2.078747e-01 0.0
8.440380e-01 -1.726694e-01 0.0
8.465853e-01 -1.399244e-01 0.0
8.492908e-01 -1.101475e-01 0.0
8.520133e-01 -8.358498e-02 0.0
8.545898e-01 -6.029437e-02 0.0
8.569040e-01 -4.027368e-02 0.0
8.588410e-01 -2.334612e-02 0.0
8.603124e-01 -9.308908e-03 0.0
8.612692e-01 2.062864e-03 0.0
8.617176e-01 1.119437e-02 0.0
8.616773e-01 1.849860e-02 0.0
8.611794e-01 2.429322e-02 0.0
8.602625e-01 2.883307e-02 0.0
8.589688e-01 3.232779e-02 0.0
8.573415e-01 3.495218e-02 0.0
8.554230e-01 3.685343e-02 0.0
8.532525e-01 3.815548e-02 0.0
8.508648e-01 3.896342e-02 0.0
8.482873e-01 3.936585e-02 0.0
8.455397e-01 3.943450e-02 0.0
8.426446e-01 3.922799e-02 0.0
8.396252e-01 3.879611e-02 0.0
8.365033e-01 3.818313e-02 0.0
8.332986e-01 3.742795e-02 0.0
8.300288e-01 3.656408e-02 0.0
8.267097e-01 3.562045e-02 0.0
8.233549e-01 3.462191e-02 0.0
8.199766e-01 3.358967e-02 0.0
8.165850e-01 3.254168e-02 0.0
8.131892e-01 3.149309e-02 0.0
8.097967e-01 3.045657e-02 0.0
8.064140e-01 2.944261e-02 0.0
8.030462e-01 2.845985e-02 0.0
7.996976e-01 2.751523e-02 0.0
7.963714e-01 2.661424e-02 0.0
7.930700e-01 2.576101e-02 0.0
7.897950e-01 2.495848e-02 0.0
7.865473e-01 2.420842e-02 0.0
7.833270e-01 2.351151e-02 0.0
7.801338e-01 2.286738e-02 0.0
7.769667e-01 2.227459e-02 0.0
7.738247e-01 2.173063e-02 0.0
7.707062e-01 2.123194e-02 0.0
7.676096e-01 2.077387e-02 0.0
7.645334e-01 2.035070e-02 0.0
7.614760e-01 1.995578e-02 0.0
7.584361e-01 1.958132e-02 0.0
7.554131e-01 1.921836e-02 0.0
7.524068e-01 1.885696e-02 0.0
7.494179e-01 1.848624e-02 0.0
7.464483e-01 1.809446e-02 0.0
7.435009e-01 1.766904e-02 0.0
7.405801e-01 1.719667e-02 0.0
7.376922e-01 1.666330e-02 0.0
7.348455e-01 1.605420e-02 0.0
7.320506e-01 1.535396e-02 0.0
7.293217e-01 1.454644e-02 0.0
7.266769e-01 1.361459e-02 0.0
7.241408e-01 1.254019e-02 0.0
7.217467e-01 1.130332e-02 0.0
7.195430e-01 9.881419e-03 0.0
7.176021e-01 8.247868e-03 0.0
7.160373e-01 6.371622e-03 0.0
7.150226e-01 4.235207e-03 0.0
7.147501e-01 2.019721e-03 0.0
0.000000e+00 2.031602e-03 0.0
0.000000e+00 0.000000e+00 0.0
0.000000e+00 0.000000e+00 0.0
0.000000e+00 0.000000e+00 0.0
0.000000e+00 0.000000e+00 0.0
0.000000e+00 0.000000e+00 0.0
0.000000e+00 0.000000e+00 0.0
0.000000e+00 0.000000e+00 0.0
0.000000e+00 0.000000e+00 0.0
0.000000e+00 0.000000e+00 0.0
0.000000e+00 0.000000e+00 0.0
0.000000e+00 -8.386354e-02 0.0
-1.371693e-02 8.386529e-02 0.0
-5.908026e-03 1.026615e-01 0.0
1.822068e-02 8.414018e-02 0.0
5.095716e-02 6.152946e-02 0.0
9.105637e-02 3.682466e-02 0.0
1.410929e-01 8.515677e-03 0.0
2.041926e-01 -2.356922e-02 0.0
2.780597e-01 -5.881975e-02 0.0
3.593327e-01 -9.821587e-02 0.0
4.453808e-01 -1.412938e-01 0.0
5.324824e-01 -1.872407e-01 0.0
6.166107e-01 -2.344553e-01 0.0
6.936887e-01 -2.806523e-01 0.0
7.603672e-01 -3.229071e-01 0.0
8.142447e-01 -3.582365e-01 0.0
8.542313e-01 -3.839946e-01 0.0
8.806551e-01 -3.982932e-01 0.0
8.948878e-01 -4.002921e-01 0.0
8.988750e-01 -3.899526e-01 0.0
8.963568e-01 -3.696196e-01 0.0
8.902229e-01 -3.418420e-01 0.0
8.826043e-01 -3.092053e-01 0.0
8.749337e-01 -2.739275e-01 0.0
8.680577e-01 -2.377885e-01 0.0
8.623694e-01 -2.021729e-01 0.0
8.580855e-01 -1.683721e-01 0.0
8.551398e-01 -1.369653e-01 0.0
8.533494e-01 -1.083437e-01 0.0
8.524843e-01 -8.270648e-02 0.0
8.523108e-01 -6.010745e-02 0.0
8.525682e-01 -4.051770e-02 0.0
8.530445e-01 -2.380901e-02 0.0
8.535644e-01 -9.815450e-03 0.0
8.539854e-01 1.655344e-03 0.0
8.542079e-01 1.098521e-02 0.0
8.541847e-01 1.853520e-02 0.0
8.538998e-01 2.459159e-02 0.0
8.533564e-01 2.938982e-02 0.0
8.525698e-01 3.312783e-02 0.0
8.515614e-01 3.597400e-02 0.0
8.503557e-01 3.807248e-02 0.0
8.489778e-01 3.954682e-02 0.0
8.474515e-01 4.050318e-02 0.0
8.457982e-01 4.103255e-02 0.0
8.440340e-01 4.121208e-02 0.0
8.421708e-01 4.110456e-02 0.0
8.402226e-01 4.075776e-02 0.0
8.382030e-01 4.021616e-02 0.0
8.361246e-01 3.951972e-02 0.0
8.339986e-01 3.870347e-02 0.0
8.318346e-01 3.779783e-02 0.0
8.296410e-01 3.682897e-02 0.0
8.274248e-01 3.581926e-02 0.0
8.251922e-01 3.478769e-02 0.0
8.229484e-01 3.375031e-02 0.0
8.206978e-01 3.272058e-02 0.0
8.184441e-01 3.170970e-02 0.0
8.161904e-01 3.072694e-02 0.0
8.139392e-01 2.977983e-02 0.0
8.116925e-01 2.887437e-02 0.0
8.094517e-01 2.801521e-02 0.0
8.072179e-01 2.720572e-02 0.0
8.049916e-01 2.644809e-02 0.0
8.027731e-01 2.574341e-02 0.0
8.005623e-01 2.509162e-02 0.0
7.983587e-01 2.449159e-02 0.0
7.961617e-01 2.394105e-02 0.0
7.939704e-01 2.343662e-02 0.0
7.917839e-01 2.297373e-02 0.0
7.896014e-01 2.254665e-02 0.0
7.874218e-01 2.214883e-02 0.0
7.852442e-01 2.177233e-02 0.0
7.830681e-01 2.140783e-02 0.0
7.808935e-01 2.104499e-02 0.0
7.787207e-01 2.067240e-02 0.0
7.765509e-01 2.027766e-02 0.0
7.743860e-01 1.984736e-02 0.0
7.722289e-01 1.936714e-02 0.0
7.700839e-01 1.882170e-02 0.0
7.679568e-01 1.819476e-02 0.0
7.658552e-01 1.746895e-02 0.0
7.637895e-01 1.662552e-02 0.0
7.617736e-01 1.564389e-02 0.0
7.598265e-01 1.450072e-02 0.0
7.579751e-01 1.316820e-02 0.0
7.562588e-01 1.161112e-02 0.0
7.547383e-01 9.781768e-03 0.0
7.535095e-01 7.613791e-03 0.0
7.527210e-01 5.037114e-03 0.0
7.525341e-01 2.220056e-03 0.0
0.000000e+00 2.233898e-03 0.0
0.000000e+00 0.000000e+00 0.0
0.000000e+00 0.000000e+00 0.0
0.000000e+00 0.000000e+00 0.0
0.000000e+00 0.000000e+00 0.0
0.000000e+00 0.000000e+00 0.0
0.000000e+00 0.000000e+00 0.0
0.000000e+00 0.000000e+00 0.0
0.000000e+00 0.000000e+00 0.0
0.000000e+00 0.000000e+00 0.0
0.000000e+00 0.000000e+00 0.0
0.000000e+00 -7.880879e-02 0.0
5.106815e-03 7.880985e-02 0.0
5.378911e-02 5.399263e-02 0.0
1.171804e-01 2.076225e-02 0.0
1.901117e-01 -1.138843e-02 0.0
2.698451e-01 -4.289533e-02 0.0
3.532703e-01 -7.489607e-02 0.0
4.387377e-01 -1.090232e-01 0.0
5.251123e-01 -1.451810e-01 0.0
6.101732e-01 -1.832634e-01 0.0
6.914742e-01 -2.225814e-01 0.0
7.662870e-01 -2.620401e-01 0.0
8.319239e-01 -3.000787e-01 0.0
8.860515e-01 -3.347664e-01 0.0
9.271141e-01 -3.639564e-01 0.0