# vtk DataFile Version 3.0
Vector Field
ASCII
DATASET RECTILINEAR_GRID
DIMENSIONS 102 22 1
X_COORDINATES 102 double
0.000000 0.100000 0.200000 0.300000 0.400000 0.500000 0.600000 0.700000 0.800000 0.900000 1.000000 1.100000 1.200000 1.300000 1.400000 1.500000 1.600000 1.700000 1.800000 1.900000 2.000000 2.100000 2.200000 2.300000 2.400000 2.500000 2.600000 2.700000 2.800000 2.900000 3.000000 3.100000 3.200000 3.300000 3.400000 3.500000 3.600000 3.700000 3.800000 3.900000 4.000000 4.100000 4.200000 4.300000 4.400000 4.500000 4.600000 4.700000 4.800000 4.900000 5.000000 5.100000 5.200000 5.300000 5.400000 5.500000 5.600000 5.700000 5.800000 5.900000 6.000000 6.100000 6.200000 6.300000 6.400000 6.500000 6.600000 6.700000 6.800000 6.900000 7.000000 7.100000 7.200000 7.300000 7.400000 7.500000 7.600000 7.700000 7.800000 7.900000 8.000000 8.100000 8.200000 8.300000 8.400000 8.500000 8.600000 8.700000 8.800000 8.900000 9.000000 9.100000 9.200000 9.300000 9.400000 9.500000 9.600000 9.700000 9.800000 9.900000 10.000000 10.100000 
Y_COORDINATES 22 double
0.000000 0.100000 0.200000 0.300000 0.400000 0.500000 0.600000 0.700000 0.800000 0.900000 1.000000 1.100000 1.200000 1.300000 1.400000 1.500000 1.600000 1.700000 1.800000 1.900000 2.000000 2.100000 
Z_COORDINATES 1 double
0.0
POINT_DATA 2244
VECTORS Velocity double
0.000000e+00 0.000000e+00 0.0
-0.000000e+00 0.000000e+00 0.0
-0.000000e+00 0.000000e+00 0.0
-0.000000e+00 0.000000e+00 0.0
-0.000000e+00 0.000000e+00 0.0
-0.000000e+00 0.000000e+00 0.0
-0.000000e+00 0.000000e+00 0.0
-0.000000e+00 0.000000e+00 0.0
-0.000000e+00 0.000000e+00 0.0
-0.000000e+00 0.000000e+00 0.0
-0.000000e+00 0.000000e+00 0.0
5.087417e-04 0.000000e+00 0.0
4.867896e-03 0.000000e+00 0.0
1.159659e-02 0.000000e+00 0.0
1.950405e-02 0.000000e+00 0.0
2.819766e-02 0.000000e+00 0.0
3.776165e-02 0.000000e+00 0.0
4.847492e-02 0.000000e+00 0.0
6.068045e-02 0.000000e+00 0.0
7.472205e-02 0.000000e+00 0.0
9.087365e-02 0.000000e+00 0.0
1.092346e-01 0.000000e+00 0.0
1.295661e-01 0.000000e+00 0.0
1.511098e-01 0.000000e+00 0.0
1.723664e-01 0.000000e+00 0.0
1.907597e-01 0.000000e+00 0.0
2.029405e-01 0.000000e+00 0.0
2.050431e-01 0.000000e+00 0.0
1.938580e-01 0.000000e+00 0.0
1.683106e-01 0.000000e+00 0.0
1.296327e-01 0.000000e+00 0.0
8.166970e-02 0.000000e+00 0.0
2.732471e-02 0.000000e+00 0.0
-2.740836e-02 0.000000e+00 0.0
-7.484094e-02 0.000000e+00 0.0
-1.126873e-01 0.000000e+00 0.0
-1.409781e-01 0.000000e+00 0.0
-1.607389e-01 0.000000e+00 0.0
-1.733734e-01 0.000000e+00 0.0
-1.803586e-01 0.000000e+00 0.0
-1.831019e-01 0.000000e+00 0.0
-1.828751e-01 0.000000e+00 0.0
-1.805011e-01 0.000000e+00 0.0
-1.765227e-01 0.000000e+00 0.0
-1.715011e-01 0.000000e+00 0.0
-1.659097e-01 0.000000e+00 0.0
-1.601080e-01 0.000000e+00 0.0
-1.543463e-01 0.000000e+00 0.0
-1.487697e-01 0.000000e+00 0.0
-1.434714e-01 0.000000e+00 0.0
-1.384989e-01 0.000000e+00 0.0
-1.338721e-01 0.000000e+00 0.0
-1.295923e-01 0.000000e+00 0.0
-1.256497e-01 0.000000e+00 0.0
-1.220282e-01 0.000000e+00 0.0
-1.187086e-01 0.000000e+00 0.0
-1.156703e-01 0.000000e+00 0.0
-1.128928e-01 0.000000e+00 0.0
-1.103557e-01 0.000000e+00 0.0
-1.080401e-01 0.000000e+00 0.0
-1.059274e-01 0.000000e+00 0.0
-1.040007e-01 0.000000e+00 0.0
-1.022436e-01 0.000000e+00 0.0
-1.006413e-01 0.000000e+00 0.0
-9.917961e-02 0.000000e+00 0.0
-9.784568e-02 0.000000e+00 0.0
-9.662751e-02 0.000000e+00 0.0
-9.551409e-02 0.000000e+00 0.0
-9.449533e-02 0.000000e+00 0.0
-9.356204e-02 0.000000e+00 0.0
-9.270582e-02 0.000000e+00 0.0
-9.191911e-02 0.000000e+00 0.0
-9.119504e-02 0.000000e+00 0.0
-9.052746e-02 0.000000e+00 0.0
-8.991087e-02 0.000000e+00 0.0
-8.934038e-02 0.000000e+00 0.0
-8.881166e-02 0.000000e+00 0.0
-8.832092e-02 0.000000e+00 0.0
-8.786490e-02 0.000000e+00 0.0
-8.744081e-02 0.000000e+00 0.0
-8.704633e-02 0.000000e+00 0.0
-8.667959e-02 0.000000e+00 0.0
-8.633919e-02 0.000000e+00 0.0
-8.602416e-02 0.000000e+00 0.0
-8.573400e-02 0.000000e+00 0.0
-8.546869e-02 0.000000e+00 0.0
-8.522871e-02 0.000000e+00 0.0
-8.501505e-02 0.000000e+00 0.0
-8.482925e-02 0.000000e+00 0.0
-8.467344e-02 0.000000e+00 0.0
-8.455029e-02 0.000000e+00 0.0
-8.446303e-02 0.000000e+00 0.0
-8.441536e-02 0.000000e+00 0.0
-8.441151e-02 0.000000e+00 0.0
-8.445557e-02 0.000000e+00 0.0
-8.454451e-02 0.000000e+00 0.0
-8.466885e-02 0.000000e+00 0.0
-8.481487e-02 0.000000e+00 0.0
-8.496015e-02 0.000000e+00 0.0
-8.505371e-02 0.000000e+00 0.0
-8.505371e-02 0.000000e+00 0.0
0.000000e+00 0.000000e+00 0.0
0.000000e+00 0.000000e+00 0.0
0.000000e+00 0.000000e+00 0.0
0.000000e+00 0.000000e+00 0.0
0.000000e+00 0.000000e+00 0.0
0.000000e+00 0.000000e+00 0.0
0.000000e+00 0.000000e+00 0.0
0.000000e+00 0.000000e+00 0.0
0.000000e+00 0.000000e+00 0.0
0.000000e+00 0.000000e+00 0.0
0.000000e+00 0.000000e+00 0.0
0.000000e+00 -5.401576e-04 0.0
-5.088600e-04 5.399556e-04 0.0
-4.868136e-03 4.377156e-03 0.0
-1.159715e-02 6.746890e-03 0.0
-1.950512e-02 7.925856e-03 0.0
-2.819949e-02 8.712251e-03 0.0
-3.776454e-02 9.582924e-03 0.0
-4.847922e-02 1.073256e-02 0.0
-6.068658e-02 1.222524e-02 0.0
-7.473047e-02 1.406176e-02 0.0
-9.088476e-02 1.617217e-02 0.0
-1.092487e-01 1.838184e-02 0.0
-1.295832e-01 2.035241e-02 0.0
-1.511297e-01 2.156430e-02 0.0
-1.723878e-01 2.127603e-02 0.0
-1.907806e-01 1.841064e-02 0.0
-2.029574e-01 1.219470e-02 0.0
-2.050520e-01 2.112488e-03 0.0
-1.938555e-01 -1.117859e-02 0.0
-1.682945e-01 -2.554315e-02 0.0
-1.296042e-01 -3.867237e-02 0.0
-8.163153e-02 -4.795484e-02 0.0
-2.727829e-02 -5.433536e-02 0.0
2.745701e-02 -5.471742e-02 0.0
7.488585e-02 -4.741095e-02 0.0
1.127261e-01 -3.782234e-02 0.0
1.410101e-01 -2.826620e-02 0.0
1.607646e-01 -1.973653e-02 0.0
1.733934e-01 -1.261097e-02 0.0
1.803739e-01 -6.962604e-03 0.0
1.831134e-01 -2.721614e-03 0.0
1.828839e-01 2.473986e-04 0.0
1.805075e-01 2.394221e-03 0.0
1.765272e-01 3.998228e-03 0.0
1.715043e-01 5.040773e-03 0.0
1.659120e-01 5.610158e-03 0.0
1.601097e-01 5.820215e-03 0.0
1.543477e-01 5.779828e-03 0.0
1.487710e-01 5.594617e-03 0.0
1.434726e-01 5.316239e-03 0.0
1.385002e-01 4.990302e-03 0.0
1.338735e-01 4.644563e-03 0.0
1.295939e-01 4.297536e-03 0.0
1.256515e-01 3.960304e-03 0.0
1.220302e-01 3.639152e-03 0.0
1.187108e-01 3.337280e-03 0.0
1.156728e-01 3.055943e-03 0.0
1.128954e-01 2.795249e-03 0.0
1.103586e-01 2.554667e-03 0.0
1.080431e-01 2.333346e-03 0.0
1.059307e-01 2.130284e-03 0.0
1.040042e-01 1.944422e-03 0.0
1.022474e-01 1.774682e-03 0.0
1.006453e-01 1.619991e-03 0.0
9.918389e-02 1.479295e-03 0.0
9.785021e-02 1.351565e-03 0.0
9.663229e-02 1.235802e-03 0.0
9.551913e-02 1.131044e-03 0.0
9.450065e-02 1.036369e-03 0.0
9.356763e-02 9.509000e-04 0.0
9.271172e-02 8.738034e-04 0.0
9.192531e-02 8.042934e-04 0.0
9.120156e-02 7.416302e-04 0.0
9.053433e-02 6.851195e-04 0.0
8.991810e-02 6.341107e-04 0.0
8.934800e-02 5.879937e-04 0.0
8.881969e-02 5.461961e-04 0.0
8.832939e-02 5.081788e-04 0.0
8.787385e-02 4.734319e-04 0.0
8.745026e-02 4.414692e-04 0.0
8.705633e-02 4.118230e-04 0.0
8.669018e-02 3.840380e-04 0.0
8.635040e-02 3.576647e-04 0.0
8.603603e-02 3.322526e-04 0.0
8.574657e-02 3.073425e-04 0.0
8.548200e-02 2.824587e-04 0.0
8.524278e-02 2.571042e-04 0.0
8.502991e-02 2.307570e-04 0.0
8.484493e-02 2.028715e-04 0.0
8.468993e-02 1.728859e-04 0.0
8.456758e-02 1.402379e-04 0.0
8.448108e-02 1.043852e-04 0.0
8.443415e-02 6.481781e-05 0.0
8.443098e-02 2.105470e-05 0.0
8.447561e-02 -2.674035e-05 0.0
8.456496e-02 -7.146269e-05 0.0
8.468950e-02 -1.066565e-04 0.0
8.483563e-02 -1.282465e-04 0.0
8.498099e-02 -1.274694e-04 0.0
8.507466e-02 -7.578585e-05 0.0
8.505371e-02 3.884071e-05 0.0
0.000000e+00 3.936805e-05 0.0
0.000000e+00 0.000000e+00 0.0
0.000000e+00 0.000000e+00 0.0
0.000000e+00 0.000000e+00 0.0
0.000000e+00 0.000000e+00 0.0
0.000000e+00 0.000000e+00 0.0
0.000000e+00 0.000000e+00 0.0
0.000000e+00 0.000000e+00 0.0
0.000000e+00 0.000000e+00 0.0
0.000000e+00 0.000000e+00 0.0
0.000000e+00 0.000000e+00 0.0
0.000000e+00 -6.313700e-03 0.0
-5.755975e-03 6.313810e-03 0.0
-1.927590e-02 1.790175e-02 0.0
-3.702174e-02 2.449739e-02 0.0
-5.684949e-02 2.775827e-02 0.0
-7.793935e-02 2.980677e-02 0.0
-1.002005e-01 3.184876e-02 0.0
-1.237724e-01 3.430906e-02 0.0
-1.487474e-01 3.720491e-02 0.0
-1.750025e-01 4.032156e-02 0.0
-2.020497e-01 4.322403e-02 0.0
-2.289205e-01 4.525736e-02 0.0
-2.540010e-01 4.543751e-02 0.0
-2.749300e-01 4.249797e-02 0.0
-2.886263e-01 3.497705e-02 0.0
-2.914146e-01 2.120356e-02 0.0
-2.788203e-01 -3.949065e-04 0.0
-2.476922e-01 -2.901100e-02 0.0
-1.989541e-01 -5.991198e-02 0.0
-1.354549e-01 -8.903769e-02 0.0
-5.961559e-02 -1.145070e-01 0.0
2.365382e-02 -1.312196e-01 0.0
1.042751e-01 -1.349520e-01 0.0
1.760726e-01 -1.265102e-01 0.0
2.389961e-01 -1.103298e-01 0.0
2.921836e-01 -9.100516e-02 0.0
3.354756e-01 -7.155355e-02 0.0
3.693594e-01 -5.361567e-02 0.0
3.947042e-01 -3.795105e-02 0.0
4.125611e-01 -2.481490e-02 0.0
4.240312e-01 -1.418705e-02 0.0
4.301741e-01 -5.890844e-03 0.0
4.322179e-01 3.550867e-04 0.0
4.311000e-01 5.120868e-03 0.0
4.274870e-01 8.658368e-03 0.0
4.219728e-01 1.112910e-02 0.0
4.150541e-01 1.274354e-02 0.0
4.071405e-01 1.369805e-02 0.0
3.986113e-01 1.412852e-02 0.0
3.897795e-01 1.415270e-02 0.0
3.808677e-01 1.390675e-02 0.0
3.720448e-01 1.347213e-02 0.0
3.634314e-01 1.291568e-02 0.0
3.551115e-01 1.228479e-02 0.0
3.471415e-01 1.161389e-02 0.0
3.395558e-01 1.092756e-02 0.0
3.323734e-01 1.024304e-02 0.0
3.256010e-01 9.572276e-03 0.0
3.192370e-01 8.923401e-03 0.0
3.132731e-01 8.301875e-03 0.0
3.076968e-01 7.711223e-03 0.0
3.024924e-01 7.153546e-03 0.0
2.976419e-01 6.629881e-03 0.0
2.931260e-01 6.140466e-03 0.0
2.889251e-01 5.684927e-03 0.0
2.850189e-01 5.262432e-03 0.0
2.813875e-01 4.871804e-03 0.0
2.780116e-01 4.511621e-03 0.0
2.748724e-01 4.180290e-03 0.0
2.719518e-01 3.876104e-03 0.0
2.692330e-01 3.597298e-03 0.0
2.666999e-01 3.342081e-03 0.0
2.643375e-01 3.108670e-03 0.0
2.621320e-01 2.895306e-03 0.0
2.600705e-01 2.700275e-03 0.0
2.581412e-01 2.521912e-03 0.0
2.563335e-01 2.358606e-03 0.0
2.546375e-01 2.208803e-03 0.0
2.530446e-01 2.070999e-03 0.0
2.515470e-01 1.943736e-03 0.0
2.501379e-01 1.825588e-03 0.0
2.488115e-01 1.715149e-03 0.0
2.475628e-01 1.611021e-03 0.0
2.463879e-01 1.511790e-03 0.0
2.452839e-01 1.416011e-03 0.0
2.442489e-01 1.322178e-03 0.0
2.432819e-01 1.228710e-03 0.0
2.423834e-01 1.133938e-03 0.0
2.415549e-01 1.036098e-03 0.0
2.407991e-01 9.333451e-04 0.0
2.401202e-01 8.238023e-04 0.0
2.395236e-01 7.056528e-04 0.0
2.390157e-01 5.773355e-04 0.0
2.386035e-01 4.379637e-04 0.0
2.382929e-01 2.885059e-04 0.0
2.380909e-01 1.352344e-04 0.0
2.380002e-01 -1.129171e-05 0.0
2.380038e-01 -1.272129e-04 0.0
2.380564e-01 -1.754363e-04 0.0
2.380936e-01 -1.082847e-04 0.0
2.380282e-01 1.088832e-04 0.0
0.000000e+00 1.104835e-04 0.0
0.000000e+00 0.000000e+00 0.0
0.000000e+00 0.000000e+00 0.0
0.000000e+00 0.000000e+00 0.0
0.000000e+00 0.000000e+00 0.0
0.000000e+00 0.000000e+00 0.0
0.000000e+00 0.000000e+00 0.0
0.000000e+00 0.000000e+00 0.0
0.000000e+00 0.000000e+00 0.0
0.000000e+00 0.000000e+00 0.0
0.000000e+00 0.000000e+00 0.0
0.000000e+00 -1.685755e-02 0.0
-1.052653e-02 1.685822e-02 0.0
-3.112353e-02 3.850342e-02 0.0
-5.565076e-02 4.902929e-02 0.0
-8.117384e-02 5.328601e-02 0.0
-1.065954e-01 5.523305e-02 0.0
-1.315616e-01 5.681956e-02 0.0
-1.558559e-01 5.860809e-02 0.0
-1.791480e-01 6.050162e-02 0.0
-2.008658e-01 6.204399e-02 0.0
-2.200558e-01 6.241877e-02 0.0
-2.354116e-01 6.061781e-02 0.0
-2.451598e-01 5.519033e-02 0.0
-2.469491e-01 4.429195e-02 0.0
-2.370519e-01 2.508455e-02 0.0
-2.092721e-01 -6.571548e-03 0.0
-1.628827e-01 -4.677969e-02 0.0
-9.915966e-02 -9.272937e-02 0.0
-2.108192e-02 -1.379851e-01 0.0
6.511766e-02 -1.752326e-01 0.0
1.496575e-01 -1.990422e-01 0.0
2.277726e-01 -2.093300e-01 0.0
2.970277e-01 -2.042024e-01 0.0
3.575384e-01 -1.870163e-01 0.0
4.102917e-01 -1.630784e-01 0.0
4.557554e-01 -1.364642e-01 0.0
4.941739e-01 -1.099674e-01 0.0
5.258387e-01 -8.527572e-02 0.0
5.511629e-01 -6.327066e-02 0.0
5.706623e-01 -4.430958e-02 0.0
5.849128e-01 -2.843285e-02 0.0
5.945219e-01 -1.549532e-02 0.0
6.001273e-01 -5.245617e-03 0.0
6.026000e-01 2.652828e-03 0.0
6.024907e-01 8.772302e-03 0.0
6.002620e-01 1.336249e-02 0.0
5.963116e-01 1.669857e-02 0.0
5.909866e-01 1.902774e-02 0.0
5.845659e-01 2.055391e-02 0.0
5.772626e-01 2.146059e-02 0.0
5.693183e-01 2.185570e-02 0.0
5.609562e-01 2.183893e-02 0.0
5.523511e-01 2.152547e-02 0.0
5.436459e-01 2.099466e-02 0.0
5.349549e-01 2.030957e-02 0.0
5.263682e-01 1.951886e-02 0.0
5.179562e-01 1.865974e-02 0.0
5.097725e-01 1.776068e-02 0.0
5.018569e-01 1.684360e-02 0.0
4.942380e-01 1.592546e-02 0.0
4.869346e-01 1.501928e-02 0.0
4.799578e-01 1.413503e-02 0.0
4.733122e-01 1.328014e-02 0.0
4.669973e-01 1.246001e-02 0.0
4.610086e-01 1.167835e-02 0.0
4.553381e-01 1.093753e-02 0.0
4.499758e-01 1.023878e-02 0.0
4.449097e-01 9.582451e-03 0.0
4.401265e-01 8.968165e-03 0.0
4.356122e-01 8.394990e-03 0.0
4.313526e-01 7.861560e-03 0.0
4.273332e-01 7.366183e-03 0.0
4.235396e-01 6.906934e-03 0.0
4.199579e-01 6.481722e-03 0.0
4.165744e-01 6.088345e-03 0.0
4.133765e-01 5.724540e-03 0.0
4.103518e-01 5.388006e-03 0.0
4.074888e-01 5.076431e-03 0.0
4.047770e-01 4.787498e-03 0.0
4.022065e-01 4.518893e-03 0.0
3.997684e-01 4.268299e-03 0.0
3.974549e-01 4.033381e-03 0.0
3.952588e-01 3.811775e-03 0.0
3.931742e-01 3.601058e-03 0.0
3.911961e-01 3.398716e-03 0.0
3.893209e-01 3.202106e-03 0.0
3.875458e-01 3.008420e-03 0.0
3.858698e-01 2.814655e-03 0.0
3.842929e-01 2.617598e-03 0.0
3.828171e-01 2.413832e-03 0.0
3.814458e-01 2.199781e-03 0.0
3.801843e-01 1.971838e-03 0.0
3.790396e-01 1.726664e-03 0.0
3.780205e-01 1.461795e-03 0.0
3.771366e-01 1.177006e-03 0.0
3.763995e-01 8.770460e-04 0.0
3.758183e-01 5.745318e-04 0.0
3.753976e-01 2.981935e-04 0.0
3.751268e-01 9.998455e-05 0.0
3.749772e-01 4.598027e-05 0.0
3.748801e-01 2.106412e-04 0.0
0.000000e+00 2.138134e-04 0.0
0.000000e+00 0.000000e+00 0.0
0.000000e+00 0.000000e+00 0.0
0.000000e+00 0.000000e+00 0.0
0.000000e+00 0.000000e+00 0.0
0.000000e+00 0.000000e+00 0.0
0.000000e+00 0.000000e+00 0.0
0.000000e+00 0.000000e+00 0.0
0.000000e+00 0.000000e+00 0.0
0.000000e+00 0.000000e+00 0.0
0.000000e+00 0.000000e+00 0.0
0.000000e+00 -2.993082e-02 0.0
-1.305588e-02 2.993197e-02 0.0
-3.647643e-02 6.192864e-02 0.0
-6.204454e-02 7.460206e-02 0.0
-8.641001e-02 7.765615e-02 0.0
-1.084968e-01 7.732448e-02 0.0
-1.278969e-01 7.622431e-02 0.0
-1.442796e-01 7.499548e-02 0.0
-1.572233e-01 7.345000e-02 0.0
-1.661827e-01 7.100807e-02 0.0
-1.702190e-01 6.645969e-02 0.0
-1.679901e-01 5.839358e-02 0.0
-1.570808e-01 4.428568e-02 0.0
-1.342673e-01 2.148315e-02 0.0
-9.179675e-02 -1.738135e-02 0.0
-3.008586e-02 -6.827777e-02 0.0
4.759200e-02 -1.244529e-01 0.0
1.319888e-01 -1.771215e-01 0.0
2.161934e-01 -2.221850e-01 0.0
2.955561e-01 -2.545907e-01 0.0
3.676458e-01 -2.711273e-01 0.0
4.298420e-01 -2.715215e-01 0.0
4.821638e-01 -2.565196e-01 0.0
5.268855e-01 -2.317334e-01 0.0
5.655014e-01 -2.016895e-01 0.0
5.988700e-01 -1.698282e-01 0.0
6.274685e-01 -1.385613e-01 0.0
6.516072e-01 -1.094098e-01 0.0
6.715532e-01 -8.321201e-02 0.0
6.875818e-01 -6.033347e-02 0.0
6.999907e-01 -4.083713e-02 0.0
7.091039e-01 -2.460388e-02 0.0
7.152725e-01 -1.140949e-02 0.0
7.189031e-01 -9.731666e-04 0.0
7.204788e-01 7.201334e-03 0.0
7.203305e-01 1.351538e-02 0.0
7.187212e-01 1.831255e-02 0.0
7.158748e-01 2.187883e-02 0.0
7.119833e-01 2.445009e-02 0.0
7.072256e-01 2.622291e-02 0.0
7.017386e-01 2.734742e-02 0.0
6.956255e-01 2.795665e-02 0.0
6.890266e-01 2.812904e-02 0.0
6.820704e-01 2.795551e-02 0.0
6.748662e-01 2.751844e-02 0.0
6.675073e-01 2.688243e-02 0.0
6.600734e-01 2.609836e-02 0.0
6.526319e-01 2.520679e-02 0.0
6.452397e-01 2.424047e-02 0.0
6.379437e-01 2.322611e-02 0.0
6.307822e-01 2.218549e-02 0.0
6.237856e-01 2.113631e-02 0.0
6.169776e-01 2.009281e-02 0.0
6.103759e-01 1.906635e-02 0.0
6.039931e-01 1.806577e-02 0.0
5.978375e-01 1.709784e-02 0.0
5.919134e-01 1.616750e-02 0.0
5.862223e-01 1.527821e-02 0.0
5.807630e-01 1.443215e-02 0.0
5.755322e-01 1.363047e-02 0.0
5.705250e-01 1.287345e-02 0.0
5.657351e-01 1.216068e-02 0.0
5.611556e-01 1.149117e-02 0.0
5.567784e-01 1.086352e-02 0.0
5.525955e-01 1.027595e-02 0.0
5.485983e-01 9.726424e-03 0.0
5.447783e-01 9.212697e-03 0.0
5.411270e-01 8.732360e-03 0.0
5.376363e-01 8.282877e-03 0.0
5.342982e-01 7.861600e-03 0.0
5.311054e-01 7.465779e-03 0.0
5.280509e-01 7.092558e-03 0.0
5.251284e-01 6.738966e-03 0.0
5.223322e-01 6.401888e-03 0.0
5.196576e-01 6.078031e-03 0.0
5.171005e-01 5.763862e-03 0.0
5.146580e-01 5.455559e-03 0.0
5.123284e-01 5.148969e-03 0.0
5.101111e-01 4.839572e-03 0.0
5.080071e-01 4.522458e-03 0.0
5.060192e-01 4.192350e-03 0.0
5.041520e-01 3.843696e-03 0.0
5.024124e-01 3.470932e-03 0.0
5.008098e-01 3.069046e-03 0.0
4.993567e-01 2.634755e-03 0.0
4.980697e-01 2.168720e-03 0.0
4.969699e-01 1.679040e-03 0.0
4.960844e-01 1.188315e-03 0.0
4.954455e-01 7.436264e-04 0.0
4.950706e-01 4.254987e-04 0.0
4.949601e-01 3.257963e-04 0.0
0.000000e+00 3.307754e-04 0.0
0.000000e+00 0.000000e+00 0.0
0.000000e+00 0.000000e+00 0.0
0.000000e+00 0.000000e+00 0.0
0.000000e+00 0.000000e+00 0.0
0.000000e+00 0.000000e+00 0.0
0.000000e+00 0.000000e+00 0.0
0.000000e+00 0.000000e+00 0.0
0.000000e+00 0.000000e+00 0.0
0.000000e+00 0.000000e+00 0.0
0.000000e+00 0.000000e+00 0.0
0.000000e+00 -4.341083e-02 0.0
-1.346231e-02 4.341217e-02 0.0
-3.546203e-02 8.393302e-02 0.0
-5.685118e-02 9.599588e-02 0.0
-7.470076e-02 9.551039e-02 0.0
-8.834178e-02 9.097016e-02 0.0
-9.754238e-02 8.542958e-02 0.0
-1.020515e-01 7.950926e-02 0.0
-1.013838e-01 7.278696e-02 0.0
-9.506600e-02 6.469494e-02 0.0
-8.145662e-02 5.285498e-02 0.0
-5.850460e-02 3.544623e-02 0.0
-1.942649e-02 5.212227e-03 0.0
4.095986e-02 -3.889853e-02 0.0
1.156033e-01 -9.202007e-02 0.0
1.981237e-01 -1.507936e-01 0.0
2.824059e-01 -2.087305e-01 0.0
3.640298e-01 -2.587407e-01 0.0
4.384087e-01 -2.965592e-01 0.0
5.030133e-01 -3.191906e-01 0.0
5.571069e-01 -3.252162e-01 0.0
6.000795e-01 -3.144894e-01 0.0
6.352035e-01 -2.916389e-01 0.0
6.646814e-01 -2.612067e-01 0.0
6.899278e-01 -2.269313e-01 0.0
7.117809e-01 -1.916766e-01 0.0
7.307106e-01 -1.574862e-01 0.0
7.469740e-01 -1.256685e-01 0.0
7.607277e-01 -9.696108e-02 0.0
7.720946e-01 -7.169567e-02 0.0
7.811996e-01 -4.993746e-02 0.0
7.881882e-01 -3.158778e-02 0.0
7.932203e-01 -1.643694e-02 0.0
7.964724e-01 -4.220636e-03 0.0
7.982642e-01 5.414236e-03 0.0
7.988074e-01 1.297680e-02 0.0
7.982690e-01 1.885564e-02 0.0
7.967897e-01 2.336282e-02 0.0
7.944935e-01 2.675094e-02 0.0
7.914947e-01 2.922635e-02 0.0
7.878909e-01 3.095588e-02 0.0
7.837725e-01 3.207972e-02 0.0
7.791989e-01 3.270734e-02 0.0
7.742359e-01 3.292317e-02 0.0
7.689592e-01 3.279978e-02 0.0
7.634366e-01 3.240968e-02 0.0
7.577292e-01 3.181045e-02 0.0
7.518918e-01 3.104887e-02 0.0
7.459731e-01 3.016379e-02 0.0
7.400160e-01 2.918790e-02 0.0
7.340575e-01 2.814862e-02 0.0
7.281296e-01 2.706889e-02 0.0
7.222593e-01 2.596780e-02 0.0
7.164692e-01 2.486110e-02 0.0
7.107780e-01 2.376161e-02 0.0
7.052009e-01 2.267964e-02 0.0
6.997497e-01 2.162333e-02 0.0
6.944337e-01 2.059892e-02 0.0
6.892595e-01 1.961104e-02 0.0
6.842317e-01 1.866295e-02 0.0
6.793530e-01 1.775676e-02 0.0
6.746248e-01 1.689359e-02 0.0
6.700468e-01 1.607378e-02 0.0
6.656180e-01 1.529698e-02 0.0
6.613364e-01 1.456228e-02 0.0
6.571991e-01 1.386834e-02 0.0
6.532030e-01 1.321343e-02 0.0
6.493446e-01 1.259551e-02 0.0
6.456198e-01 1.201229e-02 0.0
6.420248e-01 1.146124e-02 0.0
6.385557e-01 1.093961e-02 0.0
6.352084e-01 1.044445e-02 0.0
6.319795e-01 9.972573e-03 0.0
6.288655e-01 9.520572e-03 0.0
6.258634e-01 9.084762e-03 0.0
6.229709e-01 8.661084e-03 0.0
6.201860e-01 8.245052e-03 0.0
6.175080e-01 7.831698e-03 0.0
6.149367e-01 7.415509e-03 0.0
6.124734e-01 6.990377e-03 0.0
6.101209e-01 6.549552e-03 0.0
6.078836e-01 6.085670e-03 0.0
6.057683e-01 5.590873e-03 0.0
6.037849e-01 5.057153e-03 0.0
6.019472e-01 4.477090e-03 0.0
6.002753e-01 3.845264e-03 0.0
5.987983e-01 3.160728e-03 0.0
5.975595e-01 2.431773e-03 0.0
5.966237e-01 1.684120e-03 0.0
5.960778e-01 9.760606e-04 0.0
5.959713e-01 4.369240e-04 0.0
0.000000e+00 4.436809e-04 0.0
0.000000e+00 0.000000e+00 0.0
0.000000e+00 0.000000e+00 0.0
0.000000e+00 0.000000e+00 0.0
0.000000e+00 0.000000e+00 0.0
0.000000e+00 0.000000e+00 0.0
0.000000e+00 0.000000e+00 0.0
0.000000e+00 0.000000e+00 0.0
0.000000e+00 0.000000e+00 0.0
0.000000e+00 0.000000e+00 0.0
0.000000e+00 0.000000e+00 0.0
0.000000e+00 -5.657183e-02 0.0
-1.314301e-02 5.657306e-02 0.0
-3.057413e-02 1.013688e-01 0.0
-4.359575e-02 1.090222e-01 0.0
-5.089609e-02 1.028154e-01 0.0
-5.247968e-02 9.255841e-02 0.0
-4.841907e-02 8.137364e-02 0.0
-3.851584e-02 6.961069e-02 0.0
-2.139674e-02 5.567253e-02 0.0
4.303495e-03 3.899937e-02 0.0
4.302628e-02 1.413686e-02 0.0
1.001649e-01 -2.168769e-02 0.0
1.724227e-01 -6.704099e-02 0.0
2.542675e-01 -1.207386e-01 0.0
3.407296e-01 -1.784775e-01 0.0
4.256527e-01 -2.357120e-01 0.0
5.039592e-01 -2.870323e-01 0.0
5.725976e-01 -3.273744e-01 0.0
6.296622e-01 -3.536192e-01 0.0
6.747048e-01 -3.642286e-01 0.0
7.081392e-01 -3.586459e-01 0.0
7.330362e-01 -3.393817e-01 0.0
7.522220e-01 -3.108201e-01 0.0
7.677074e-01 -2.766874e-01 0.0
7.807801e-01 -2.399994e-01 0.0
7.921852e-01 -2.030770e-01 0.0
8.023190e-01 -1.676153e-01 0.0
8.113423e-01 -1.346872e-01 0.0
8.192879e-01 -1.049020e-01 0.0
8.261345e-01 -7.853756e-02 0.0
8.318545e-01 -5.565284e-02 0.0
8.364491e-01 -3.617770e-02 0.0
8.399304e-01 -1.991355e-02 0.0
8.423348e-01 -6.620421e-03 0.0
8.437723e-01 3.981418e-03 0.0
8.443631e-01 1.239066e-02 0.0
8.442001e-01 1.902337e-02 0.0
8.433654e-01 2.420211e-02 0.0
8.419361e-01 2.818492e-02 0.0
8.399850e-01 3.118215e-02 0.0
8.375788e-01 3.336670e-02 0.0
8.347804e-01 3.488284e-02 0.0
8.316430e-01 3.584939e-02 0.0
8.282062e-01 3.636463e-02 0.0
8.245043e-01 3.650635e-02 0.0
8.205785e-01 3.634018e-02 0.0
8.164680e-01 3.592559e-02 0.0
8.122098e-01 3.531175e-02 0.0
8.078378e-01 3.454041e-02 0.0
8.033827e-01 3.364766e-02 0.0
7.988718e-01 3.266425e-02 0.0
7.943291e-01 3.161624e-02 0.0
7.897759e-01 3.052565e-02 0.0
7.852307e-01 2.941093e-02 0.0
7.807096e-01 2.828741e-02 0.0
7.762262e-01 2.716767e-02 0.0
7.717923e-01 2.606189e-02 0.0
7.674178e-01 2.497817e-02 0.0
7.631107e-01 2.392280e-02 0.0
7.588777e-01 2.290053e-02 0.0
7.547244e-01 2.191478e-02 0.0
7.506548e-01 2.096786e-02 0.0
7.466721e-01 2.006111e-02 0.0
7.427787e-01 1.919507e-02 0.0
7.389760e-01 1.836961e-02 0.0
7.352650e-01 1.758403e-02 0.0
7.316460e-01 1.683715e-02 0.0
7.281187e-01 1.612739e-02 0.0
7.246829e-01 1.545279e-02 0.0
7.213377e-01 1.481108e-02 0.0
7.180823e-01 1.419971e-02 0.0
7.149156e-01 1.361580e-02 0.0
7.118367e-01 1.305617e-02 0.0
7.088446e-01 1.251736e-02 0.0
7.059384e-01 1.199555e-02 0.0
7.031178e-01 1.148643e-02 0.0
7.003824e-01 1.098512e-02 0.0
6.977326e-01 1.048612e-02 0.0
6.951696e-01 9.983215e-03 0.0
6.926952e-01 9.469405e-03 0.0
6.903127e-01 8.936766e-03 0.0
6.880266e-01 8.376372e-03 0.0
6.858439e-01 7.778241e-03 0.0
6.837744e-01 7.131363e-03 0.0
6.818323e-01 6.423863e-03 0.0
6.800388e-01 5.643404e-03 0.0
6.784262e-01 4.777971e-03 0.0
6.770451e-01 3.817538e-03 0.0
6.759758e-01 2.758077e-03 0.0
6.753393e-01 1.617301e-03 0.0
6.752496e-01 5.312772e-04 0.0
0.000000e+00 5.395816e-04 0.0
0.000000e+00 0.000000e+00 0.0
0.000000e+00 0.000000e+00 0.0
0.000000e+00 0.000000e+00 0.0
0.000000e+00 0.000000e+00 0.0
0.000000e+00 0.000000e+00 0.0
0.000000e+00 0.000000e+00 0.0
0.000000e+00 0.000000e+00 0.0
0.000000e+00 0.000000e+00 0.0
0.000000e+00 0.000000e+00 0.0
0.000000e+00 0.000000e+00 0.0
0.000000e+00 -7.024781e-02 0.0
-1.365791e-02 7.024885e-02 0.0
-2.300966e-02 1.107252e-01 0.0
-2.253599e-02 1.085531e-01 0.0
-1.425686e-02 9.454094e-02 0.0
1.180267e-03 7.712595e-02 0.0
2.391222e-02 5.864635e-02 0.0
5.415846e-02 3.936911e-02 0.0
9.541265e-02 1.442300e-02 0.0
1.525952e-01 -1.817853e-02 0.0
2.239644e-01 -5.722769e-02 0.0
3.052863e-01 -1.030049e-01 0.0
3.923530e-01 -1.541030e-01 0.0
4.797690e-01 -2.081500e-01 0.0
5.626688e-01 -2.613727e-01 0.0
6.366525e-01 -3.096909e-01 0.0
6.986899e-01 -3.490651e-01 0.0
7.475383e-01 -3.762181e-01 0.0
7.832802e-01 -3.893564e-01 0.0
8.069442e-01 -3.878880e-01 0.0
8.210696e-01 -3.727666e-01 0.0
8.291810e-01 -3.474884e-01 0.0
8.338259e-01 -3.154604e-01 0.0
8.367398e-01 -2.795965e-01 0.0
8.389896e-01 -2.422445e-01 0.0
8.411520e-01 -2.052348e-01 0.0
8.435167e-01 -1.699754e-01 0.0
8.461264e-01 -1.372922e-01 0.0
8.488902e-01 -1.076611e-01 0.0
8.516580e-01 -8.130070e-02 0.0
8.542692e-01 -5.825946e-02 0.0
8.566099e-01 -3.851365e-02 0.0
8.585615e-01 -2.186054e-02 0.0
8.600373e-01 -8.091542e-03 0.0
8.609956e-01 3.027790e-03 0.0
8.614454e-01 1.194555e-02 0.0
8.614083e-01 1.906517e-02 0.0
8.609166e-01 2.469845e-02 0.0
8.600098e-01 2.909632e-02 0.0
8.587312e-01 3.246547e-02 0.0
8.571242e-01 3.497836e-02 0.0
8.552315e-01 3.678021e-02 0.0
8.530923e-01 3.799329e-02 0.0
8.507407e-01 3.872086e-02 0.0
8.482020e-01 3.904968e-02 0.0
8.454972e-01 3.904970e-02 0.0
8.426495e-01 3.877789e-02 0.0
8.396826e-01 3.828338e-02 0.0
8.366185e-01 3.760912e-02 0.0
8.334773e-01 3.679356e-02 0.0
8.302767e-01 3.586955e-02 0.0
8.270325e-01 3.486507e-02 0.0
8.237588e-01 3.380397e-02 0.0
8.204680e-01 3.270641e-02 0.0
8.171709e-01 3.158921e-02 0.0
8.138769e-01 3.046631e-02 0.0
8.105944e-01 2.934909e-02 0.0
8.073305e-01 2.824672e-02 0.0
8.040915e-01 2.716646e-02 0.0
8.008828e-01 2.611391e-02 0.0
7.977090e-01 2.509327e-02 0.0
7.945740e-01 2.410753e-02 0.0
7.914811e-01 2.315863e-02 0.0
7.884332e-01 2.224765e-02 0.0
7.854325e-01 2.137494e-02 0.0
7.824810e-01 2.054020e-02 0.0
7.795802e-01 1.974263e-02 0.0
7.767313e-01 1.898093e-02 0.0
7.739354e-01 1.825341e-02 0.0
7.711931e-01 1.755801e-02 0.0
7.685052e-01 1.689231e-02 0.0
7.658721e-01 1.625353e-02 0.0
7.632944e-01 1.563853e-02 0.0
7.607726e-01 1.504381e-02 0.0
7.583072e-01 1.446563e-02 0.0
7.558988e-01 1.389950e-02 0.0
7.535483e-01 1.334028e-02 0.0
7.512570e-01 1.278210e-02 0.0
7.490266e-01 1.221828e-02 0.0
7.468596e-01 1.164114e-02 0.0
7.447591e-01 1.104185e-02 0.0
7.427300e-01 1.041020e-02 0.0
7.407785e-01 9.734398e-03 0.0
7.389138e-01 9.000707e-03 0.0
7.371493e-01 8.193080e-03 0.0
7.355048e-01 7.292507e-03 0.0
7.340115e-01 6.275995e-03 0.0
7.327187e-01 5.115004e-03 0.0
7.317069e-01 3.774472e-03 0.0
7.311024e-01 2.226524e-03 0.0
7.310367e-01 6.015693e-04 0.0
0.000000e+00 6.110689e-04 0.0
0.000000e+00 0.000000e+00 0.0
0.000000e+00 0.000000e+00 0.0
0.000000e+00 0.000000e+00 0.0
0.000000e+00 0.000000e+00 0.0
0.000000e+00 0.000000e+00 0.0
0.000000e+00 0.000000e+00 0.0
0.000000e+00 0.000000e+00 0.0
0.000000e+00 0.000000e+00 0.0
0.000000e+00 0.000000e+00 0.0
0.000000e+00 0.000000e+00 0.0
0.000000e+00 -8.399551e-02 0.0
-1.372967e-02 8.399640e-02 0.0
-5.805909e-03 1.028061e-01 0.0
1.851635e-02 8.423556e-02 0.0
5.150034e-02 6.156161e-02 0.0
9.197828e-02 3.665267e-02 0.0
1.425896e-01 8.039718e-03 0.0
2.064063e-01 -2.444295e-02 0.0
2.810235e-01 -6.018950e-02 0.0
3.630367e-01 -1.001871e-01 0.0
4.497420e-01 -1.439283e-01 0.0
5.373036e-01 -1.905619e-01 0.0
6.216070e-01 -2.384017e-01 0.0
6.985232e-01 -2.850615e-01 0.0
7.646815e-01 -3.275263e-01 0.0
8.177298e-01 -3.627346e-01 0.0
8.566821e-01 -3.880127e-01 0.0
8.819775e-01 -4.015088e-01 0.0
8.950769e-01 -4.024512e-01 0.0
8.982013e-01 -3.910076e-01 0.0
8.950835e-01 -3.696442e-01 0.0
8.885790e-01 -3.409793e-01 0.0
8.807786e-01 -3.076552e-01 0.0
8.730610e-01 -2.718743e-01 0.0
8.662228e-01 -2.354016e-01 0.0
8.606375e-01 -1.996448e-01 0.0
8.564813e-01 -1.658145e-01 0.0
8.536666e-01 -1.344729e-01 0.0
8.519988e-01 -1.059886e-01 0.0
8.512432e-01 -8.054044e-02 0.0
8.511574e-01 -5.816900e-02 0.0
8.514779e-01 -3.882954e-02 0.0
8.519987e-01 -2.237664e-02 0.0
8.525470e-01 -8.635129e-03 0.0
8.529830e-01 2.596458e-03 0.0
8.532134e-01 1.171972e-02 0.0
8.531949e-01 1.908837e-02 0.0
8.529140e-01 2.498403e-02 0.0
8.523759e-01 2.963906e-02 0.0
8.515970e-01 3.324908e-02 0.0
8.505995e-01 3.598053e-02 0.0
8.494084e-01 3.797593e-02 0.0
8.480490e-01 3.935733e-02 0.0
8.465451e-01 4.022947e-02 0.0
8.449174e-01 4.068201e-02 0.0
8.431810e-01 4.079082e-02 0.0
8.413487e-01 4.061487e-02 0.0
8.394348e-01 4.020188e-02 0.0
8.374530e-01 3.959559e-02 0.0
8.354159e-01 3.883534e-02 0.0
8.333347e-01 3.795545e-02 0.0
8.312190e-01 3.698540e-02 0.0
8.290773e-01 3.595033e-02 0.0
8.269169e-01 3.487150e-02 0.0
8.247441e-01 3.376670e-02 0.0
8.225643e-01 3.265068e-02 0.0
8.203826e-01 3.153553e-02 0.0
8.182030e-01 3.043100e-02 0.0
8.160292e-01 2.934487e-02 0.0
8.138646e-01 2.828320e-02 0.0
8.117120e-01 2.725055e-02 0.0
8.095739e-01 2.625026e-02 0.0
8.074526e-01 2.528456e-02 0.0
8.053502e-01 2.435480e-02 0.0
8.032682e-01 2.346154e-02 0.0
8.012084e-01 2.260471e-02 0.0
7.991720e-01 2.178364e-02 0.0
7.971604e-01 2.099721e-02 0.0
7.951747e-01 2.024383e-02 0.0
7.932158e-01 1.952156e-02 0.0
7.912847e-01 1.882805e-02 0.0
7.893824e-01 1.816056e-02 0.0
7.875096e-01 1.751594e-02 0.0
7.856675e-01 1.689058e-02 0.0
7.838568e-01 1.628103e-02 0.0
7.820784e-01 1.568255e-02 0.0
7.803336e-01 1.508980e-02 0.0
7.786237e-01 1.449666e-02 0.0
7.769505e-01 1.389611e-02 0.0
7.753163e-01 1.328001e-02 0.0
7.737240e-01 1.263885e-02 0.0
7.721774e-01 1.196144e-02 0.0
7.706819e-01 1.123453e-02 0.0
7.692451e-01 1.044221e-02 0.0
7.678779e-01 9.564978e-03 0.0
7.665968e-01 8.578275e-03 0.0
7.654275e-01 7.449914e-03 0.0
7.644113e-01 6.135861e-03 0.0
7.636153e-01 4.575123e-03 0.0
7.631445e-01 2.701993e-03 0.0
7.631059e-01 6.448734e-04 0.0
0.000000e+00 6.551625e-04 0.0
0.000000e+00 0.000000e+00 0.0
0.000000e+00 0.000000e+00 0.0
0.000000e+00 0.000000e+00 0.0
0.000000e+00 0.000000e+00 0.0
0.000000e+00 0.000000e+00 0.0
0.000000e+00 0.000000e+00 0.0
0.000000e+00 0.000000e+00 0.0
0.000000e+00 0.000000e+00 0.0
0.000000e+00 0.000000e+00 0.0
0.000000e+00 0.000000e+00 0.0
0.000000e+00 -7.888900e-02 0.0
5.124737e-03 7.888954e-02 0.0
5.400134e-02 5.393418e-02 0.0
1.177032e-01 2.053831e-02 0.0
1.911100e-01 -1.184045e-02 0.0
2.713743e-01 -4.360694e-02 0.0
3.553596e-01 -7.594100e-02 0.0
4.413892e-01 -1.104678e-01 0.0
5.282837e-01 -1.470794e-01 0.0
6.137579e-01 -1.856566e-01 0.0
6.953083e-01 -2.254740e-01 0.0
7.701431e-01 -2.653921e-01 0.0
8.355322e-01 -3.037861e-01 0.0
8.891335e-01 -3.386581e-01 0.0
9.294173e-01 -3.678054e-01 0.0