# vtk DataFile Version 3.0
Vector Field
ASCII
DATASET RECTILINEAR_GRID
DIMENSIONS 102 22 1
X_COORDINATES 102 double
0.000000 0.100000 0.200000 0.300000 0.400000 0.500000 0.600000 0.700000 0.800000 0.900000 1.000000 1.100000 1.200000 1.300000 1.400000 1.500000 1.600000 1.700000 1.800000 1.900000 2.000000 2.100000 2.200000 2.300000 2.400000 2.500000 2.600000 2.700000 2.800000 2.900000 3.000000 3.100000 3.200000 3.300000 3.400000 3.500000 3.600000 3.700000 3.800000 3.900000 4.000000 4.100000 4.200000 4.300000 4.400000 4.500000 4.600000 4.700000 4.800000 4.900000 5.000000 5.100000 5.200000 5.300000 5.400000 5.500000 5.600000 5.700000 5.800000 5.900000 6.000000 6.100000 6.200000 6.300000 6.400000 6.500000 6.600000 6.700000 6.800000 6.900000 7.000000 7.100000 7.200000 7.300000 7.400000 7.500000 7.600000 7.700000 7.800000 7.900000 8.000000 8.100000 8.200000 8.300000 8.400000 8.500000 8.600000 8.700000 8.800000 8.900000 9.000000 9.100000 9.200000 9.300000 9.400000 9.500000 9.600000 9.700000 9.800000 9.900000 10.000000 10.100000 
Y_COORDINATES 22 double
0.000000 0.100000 0.200000 0.300000 0.400000 0.500000 0.600000 0.700000 0.800000 0.900000 1.000000 1.100000 1.200000 1.300000 1.400000 1.500000 1.600000 1.700000 1.800000 1.900000 2.000000 2.100000 
Z_COORDINATES 1 double
0.0
POINT_DATA 2244
VECTORS Velocity double
0.000000e+00 0.000000e+00 0.0
-0.000000e+00 0.000000e+00 0.0
-0.000000e+00 0.000000e+00 0.0
-0.000000e+00 0.000000e+00 0.0
-0.000000e+00 0.000000e+00 0.0
-0.000000e+00 0.000000e+00 0.0
-0.000000e+00 0.000000e+00 0.0
-0.000000e+00 0.000000e+00 0.0
-0.000000e+00 0.000000e+00 0.0
-0.000000e+00 0.000000e+00 0.0
-0.000000e+00 0.000000e+00 0.0
-4.501696e-03 0.000000e+00 0.0
3.656052e-03 0.000000e+00 0.0
1.602425e-02 0.000000e+00 0.0
3.080896e-02 0.000000e+00 0.0
4.783711e-02 0.000000e+00 0.0
6.737514e-02 0.000000e+00 0.0
8.949856e-02 0.000000e+00 0.0
1.138288e-01 0.000000e+00 0.0
1.393706e-01 0.000000e+00 0.0
1.642980e-01 0.000000e+00 0.0
1.858060e-01 0.000000e+00 0.0
2.002778e-01 0.000000e+00 0.0
2.036595e-01 0.000000e+00 0.0
1.924973e-01 0.000000e+00 0.0
1.657345e-01 0.000000e+00 0.0
1.261673e-01 0.000000e+00 0.0
7.906207e-02 0.000000e+00 0.0
3.149610e-02 0.000000e+00 0.0
-1.135041e-02 0.000000e+00 0.0
-4.521641e-02 0.000000e+00 0.0
-7.016608e-02 0.000000e+00 0.0
-8.760370e-02 0.000000e+00 0.0
-9.924599e-02 0.000000e+00 0.0
-1.067467e-01 0.000000e+00 0.0
-1.114662e-01 0.000000e+00 0.0
-1.142476e-01 0.000000e+00 0.0
-1.156945e-01 0.000000e+00 0.0
-1.163109e-01 0.000000e+00 0.0
-1.164735e-01 0.000000e+00 0.0
-1.164051e-01 0.000000e+00 0.0
-1.162440e-01 0.000000e+00 0.0
-1.160689e-01 0.000000e+00 0.0
-1.159174e-01 0.000000e+00 0.0
-1.158046e-01 0.000000e+00 0.0
-1.157350e-01 0.000000e+00 0.0
-1.157072e-01 0.000000e+00 0.0
-1.157164e-01 0.000000e+00 0.0
-1.157568e-01 0.000000e+00 0.0
-1.158228e-01 0.000000e+00 0.0
-1.159091e-01 0.000000e+00 0.0
-1.160114e-01 0.000000e+00 0.0
-1.161259e-01 0.000000e+00 0.0
-1.162495e-01 0.000000e+00 0.0
-1.163797e-01 0.000000e+00 0.0
-1.165145e-01 0.000000e+00 0.0
-1.166526e-01 0.000000e+00 0.0
-1.167926e-01 0.000000e+00 0.0
-1.169337e-01 0.000000e+00 0.0
-1.170751e-01 0.000000e+00 0.0
-1.172165e-01 0.000000e+00 0.0
-1.173573e-01 0.000000e+00 0.0
-1.174972e-01 0.000000e+00 0.0
-1.176361e-01 0.000000e+00 0.0
-1.177738e-01 0.000000e+00 0.0
-1.179102e-01 0.000000e+00 0.0
-1.180453e-01 0.000000e+00 0.0
-1.181790e-01 0.000000e+00 0.0
-1.183113e-01 0.000000e+00 0.0
-1.184423e-01 0.000000e+00 0.0
-1.185719e-01 0.000000e+00 0.0
-1.187002e-01 0.000000e+00 0.0
-1.188272e-01 0.000000e+00 0.0
-1.189529e-01 0.000000e+00 0.0
-1.190775e-01 0.000000e+00 0.0
-1.192009e-01 0.000000e+00 0.0
-1.193232e-01 0.000000e+00 0.0
-1.194443e-01 0.000000e+00 0.0
-1.195645e-01 0.000000e+00 0.0
-1.196837e-01 0.000000e+00 0.0
-1.198019e-01 0.000000e+00 0.0
-1.199192e-01 0.000000e+00 0.0
-1.200358e-01 0.000000e+00 0.0
-1.201517e-01 0.000000e+00 0.0
-1.202673e-01 0.000000e+00 0.0
-1.203830e-01 0.000000e+00 0.0
-1.204994e-01 0.000000e+00 0.0
-1.206175e-01 0.000000e+00 0.0
-1.207386e-01 0.000000e+00 0.0
-1.208644e-01 0.000000e+00 0.0
-1.209977e-01 0.000000e+00 0.0
-1.211422e-01 0.000000e+00 0.0
-1.213033e-01 0.000000e+00 0.0
-1.214883e-01 0.000000e+00 0.0
-1.217069e-01 0.000000e+00 0.0
-1.219712e-01 0.000000e+00 0.0
-1.222944e-01 0.000000e+00 0.0
-1.226858e-01 0.000000e+00 0.0
-1.231418e-01 0.000000e+00 0.0
-1.236472e-01 0.000000e+00 0.0
-1.236472e-01 0.000000e+00 0.0
0.000000e+00 0.000000e+00 0.0
0.000000e+00 0.000000e+00 0.0
0.000000e+00 0.000000e+00 0.0
0.000000e+00 0.000000e+00 0.0
0.000000e+00 0.000000e+00 0.0
0.000000e+00 0.000000e+00 0.0
0.000000e+00 0.000000e+00 0.0
0.000000e+00 0.000000e+00 0.0
0.000000e+00 0.000000e+00 0.0
0.000000e+00 0.000000e+00 0.0
0.000000e+00 0.000000e+00 0.0
0.000000e+00 -5.766539e-03 0.0
4.481825e-03 5.681739e-03 0.0
-3.536756e-03 1.386263e-02 0.0
-1.571705e-02 1.802433e-02 0.0
-3.027981e-02 2.040680e-02 0.0
-4.705202e-02 2.261625e-02 0.0
-6.631120e-02 2.510321e-02 0.0
-8.816267e-02 2.769550e-02 0.0
-1.122765e-01 2.995788e-02 0.0
-1.377217e-01 3.128919e-02 0.0
-1.627663e-01 3.088861e-02 0.0
-1.846802e-01 2.775795e-02 0.0
-1.998998e-01 2.106357e-02 0.0
-2.043795e-01 1.032367e-02 0.0
-1.945303e-01 -4.005182e-03 0.0
-1.690112e-01 -1.967511e-02 0.0
-1.302830e-01 -3.288423e-02 0.0
-8.340805e-02 -4.103101e-02 0.0
-3.558508e-02 -4.197902e-02 0.0
8.045531e-03 -3.778667e-02 0.0
4.281244e-02 -2.892298e-02 0.0
6.852637e-02 -1.987000e-02 0.0
8.654368e-02 -1.217340e-02 0.0
9.858318e-02 -6.195600e-03 0.0
1.063225e-01 -1.895460e-03 0.0
1.111756e-01 9.907977e-04 0.0
1.140222e-01 2.997295e-03 0.0
1.154875e-01 4.378556e-03 0.0
1.160876e-01 5.243743e-03 0.0
1.162155e-01 5.715956e-03 0.0
1.161060e-01 5.953387e-03 0.0
1.159043e-01 6.045458e-03 0.0
1.156933e-01 6.054896e-03 0.0
1.155110e-01 6.026067e-03 0.0
1.153730e-01 5.981745e-03 0.0
1.152834e-01 5.933423e-03 0.0
1.152398e-01 5.887345e-03 0.0
1.152368e-01 5.846764e-03 0.0
1.152678e-01 5.812778e-03 0.0
1.153264e-01 5.785156e-03 0.0
1.154069e-01 5.763196e-03 0.0
1.155045e-01 5.746130e-03 0.0
1.156150e-01 5.733191e-03 0.0
1.157351e-01 5.723598e-03 0.0
1.158621e-01 5.716653e-03 0.0
1.159940e-01 5.711788e-03 0.0
1.161291e-01 5.708544e-03 0.0
1.162662e-01 5.706548e-03 0.0
1.164043e-01 5.705502e-03 0.0
1.165428e-01 5.705166e-03 0.0
1.166811e-01 5.705351e-03 0.0
1.168187e-01 5.705961e-03 0.0
1.169554e-01 5.706874e-03 0.0
1.170910e-01 5.707994e-03 0.0
1.172253e-01 5.709251e-03 0.0
1.173583e-01 5.710594e-03 0.0
1.174899e-01 5.711987e-03 0.0
1.176200e-01 5.713403e-03 0.0
1.177487e-01 5.714821e-03 0.0
1.178760e-01 5.716224e-03 0.0
1.180019e-01 5.717602e-03 0.0
1.181265e-01 5.718945e-03 0.0
1.182498e-01 5.720249e-03 0.0
1.183717e-01 5.721511e-03 0.0
1.184925e-01 5.722730e-03 0.0
1.186121e-01 5.723905e-03 0.0
1.187305e-01 5.725037e-03 0.0
1.188478e-01 5.726128e-03 0.0
1.189641e-01 5.727175e-03 0.0
1.190794e-01 5.728176e-03 0.0
1.191937e-01 5.729124e-03 0.0
1.193071e-01 5.730003e-03 0.0
1.194198e-01 5.730787e-03 0.0
1.195318e-01 5.731420e-03 0.0
1.196434e-01 5.731789e-03 0.0
1.197551e-01 5.731703e-03 0.0
1.198676e-01 5.730975e-03 0.0
1.199816e-01 5.729349e-03 0.0
1.200986e-01 5.726450e-03 0.0
1.202203e-01 5.721724e-03 0.0
1.203493e-01 5.714374e-03 0.0
1.204894e-01 5.703282e-03 0.0
1.206458e-01 5.686929e-03 0.0
1.208259e-01 5.663339e-03 0.0
1.210391e-01 5.630147e-03 0.0
1.212975e-01 5.585023e-03 0.0
1.216139e-01 5.526999e-03 0.0
1.219976e-01 5.459660e-03 0.0
1.224450e-01 5.395975e-03 0.0
1.229413e-01 5.347040e-03 0.0
1.236472e-01 5.137501e-03 0.0
0.000000e+00 5.184806e-03 0.0
0.000000e+00 0.000000e+00 0.0
0.000000e+00 0.000000e+00 0.0
0.000000e+00 0.000000e+00 0.0
0.000000e+00 0.000000e+00 0.0
0.000000e+00 0.000000e+00 0.0
0.000000e+00 0.000000e+00 0.0
0.000000e+00 0.000000e+00 0.0
0.000000e+00 0.000000e+00 0.0
0.000000e+00 0.000000e+00 0.0
0.000000e+00 0.000000e+00 0.0
0.000000e+00 -1.541430e-02 0.0
-3.640520e-03 1.516631e-02 0.0
-2.653338e-02 3.828002e-02 0.0
-5.725976e-02 5.027525e-02 0.0
-9.149418e-02 5.616576e-02 0.0
-1.273630e-01 6.000958e-02 0.0
-1.638742e-01 6.313895e-02 0.0
-1.999600e-01 6.530585e-02 0.0
-2.341016e-01 6.562399e-02 0.0
-2.642047e-01 6.291682e-02 0.0
-2.877158e-01 5.592418e-02 0.0
-3.015678e-01 4.313449e-02 0.0
-3.017665e-01 2.278681e-02 0.0
-2.834539e-01 -6.464397e-03 0.0
-2.454446e-01 -4.048997e-02 0.0
-1.893781e-01 -7.421711e-02 0.0
-1.199116e-01 -1.008263e-01 0.0
-4.321854e-02 -1.161995e-01 0.0
3.216957e-02 -1.158426e-01 0.0
9.669491e-02 -1.007875e-01 0.0
1.501550e-01 -8.085859e-02 0.0
1.926724e-01 -6.086285e-02 0.0
2.252020e-01 -4.317854e-02 0.0
2.492644e-01 -2.873350e-02 0.0
2.665228e-01 -1.762939e-02 0.0
2.785453e-01 -9.507195e-03 0.0
2.868605e-01 -3.793402e-03 0.0
2.927392e-01 2.433608e-05 0.0
2.970082e-01 2.499233e-03 0.0
3.001492e-01 4.099365e-03 0.0
3.025125e-01 5.114574e-03 0.0
3.043736e-01 5.708798e-03 0.0
3.059144e-01 6.038613e-03 0.0
3.072519e-01 6.213007e-03 0.0
3.084625e-01 6.295612e-03 0.0
3.095927e-01 6.327743e-03 0.0
3.106692e-01 6.335266e-03 0.0
3.117066e-01 6.333780e-03 0.0
3.127127e-01 6.331192e-03 0.0
3.136917e-01 6.330536e-03 0.0
3.146465e-01 6.332899e-03 0.0
3.155784e-01 6.338641e-03 0.0
3.164884e-01 6.347606e-03 0.0
3.173773e-01 6.359124e-03 0.0
3.182460e-01 6.372444e-03 0.0
3.190952e-01 6.386957e-03 0.0
3.199260e-01 6.402169e-03 0.0
3.207393e-01 6.417658e-03 0.0
3.215362e-01 6.433100e-03 0.0
3.223175e-01 6.448272e-03 0.0
3.230842e-01 6.463019e-03 0.0
3.238374e-01 6.477175e-03 0.0
3.245781e-01 6.490661e-03 0.0
3.253070e-01 6.503439e-03 0.0
3.260252e-01 6.515501e-03 0.0
3.267333e-01 6.526855e-03 0.0
3.274322e-01 6.537519e-03 0.0
3.281225e-01 6.547517e-03 0.0
3.288048e-01 6.556873e-03 0.0
3.294798e-01 6.565618e-03 0.0
3.301480e-01 6.573784e-03 0.0
3.308099e-01 6.581402e-03 0.0
3.314661e-01 6.588508e-03 0.0
3.321168e-01 6.595138e-03 0.0
3.327626e-01 6.601326e-03 0.0
3.334038e-01 6.607109e-03 0.0
3.340407e-01 6.612517e-03 0.0
3.346736e-01 6.617582e-03 0.0
3.353028e-01 6.622326e-03 0.0
3.359286e-01 6.626764e-03 0.0
3.365512e-01 6.630897e-03 0.0
3.371709e-01 6.634705e-03 0.0
3.377879e-01 6.638139e-03 0.0
3.384026e-01 6.641101e-03 0.0
3.390153e-01 6.643426e-03 0.0
3.396266e-01 6.644772e-03 0.0
3.402375e-01 6.644507e-03 0.0
3.408492e-01 6.642037e-03 0.0
3.414635e-01 6.636468e-03 0.0
3.420831e-01 6.626464e-03 0.0
3.427118e-01 6.610077e-03 0.0
3.433549e-01 6.584528e-03 0.0
3.440203e-01 6.545929e-03 0.0
3.447190e-01 6.488980e-03 0.0
3.454668e-01 6.406721e-03 0.0
3.462855e-01 6.290637e-03 0.0
3.472050e-01 6.131826e-03 0.0
3.482644e-01 5.924662e-03 0.0
3.495115e-01 5.673218e-03 0.0
3.510065e-01 5.376453e-03 0.0
3.529189e-01 4.749470e-03 0.0
0.000000e+00 4.781269e-03 0.0
0.000000e+00 0.000000e+00 0.0
0.000000e+00 0.000000e+00 0.0
0.000000e+00 0.000000e+00 0.0
0.000000e+00 0.000000e+00 0.0
0.000000e+00 0.000000e+00 0.0
0.000000e+00 0.000000e+00 0.0
0.000000e+00 0.000000e+00 0.0
0.000000e+00 0.000000e+00 0.0
0.000000e+00 0.000000e+00 0.0
0.000000e+00 0.000000e+00 0.0
0.000000e+00 -3.100957e-02 0.0
-9.574639e-03 3.058500e-02 0.0
-3.934797e-02 6.957788e-02 0.0
-7.554260e-02 8.799441e-02 0.0
-1.129100e-01 9.505769e-02 0.0
-1.489495e-01 9.757364e-02 0.0
-1.823581e-01 9.807202e-02 0.0
-2.121435e-01 9.661579e-02 0.0
-2.372156e-01 9.222066e-02 0.0
-2.561389e-01 8.336463e-02 0.0
-2.667288e-01 6.803858e-02 0.0
-2.656496e-01 4.357981e-02 0.0
-2.476914e-01 6.353093e-03 0.0
-2.091797e-01 -4.345153e-02 0.0
-1.524293e-01 -9.571592e-02 0.0
-8.143650e-02 -1.436854e-01 0.0
-2.231149e-03 -1.785071e-01 0.0
7.458766e-02 -1.914938e-01 0.0
1.427419e-01 -1.824724e-01 0.0
2.032513e-01 -1.597724e-01 0.0
2.552468e-01 -1.313296e-01 0.0
2.984636e-01 -1.025551e-01 0.0
3.333546e-01 -7.654508e-02 0.0
3.608571e-01 -5.471141e-02 0.0
3.821303e-01 -3.737816e-02 0.0
3.983816e-01 -2.423395e-02 0.0
4.107709e-01 -1.465827e-02 0.0
4.202650e-01 -7.945275e-03 0.0
4.276709e-01 -3.382222e-03 0.0
4.336510e-01 -3.562089e-04 0.0
4.386895e-01 1.600552e-03 0.0
4.430476e-01 2.875143e-03 0.0
4.468982e-01 3.712477e-03 0.0
4.503595e-01 4.276140e-03 0.0
4.535216e-01 4.658051e-03 0.0
4.564472e-01 4.926598e-03 0.0
4.591797e-01 5.127130e-03 0.0
4.617492e-01 5.288745e-03 0.0
4.641777e-01 5.427161e-03 0.0
4.664829e-01 5.549793e-03 0.0
4.686790e-01 5.661208e-03 0.0
4.707776e-01 5.764551e-03 0.0
4.727879e-01 5.861736e-03 0.0
4.747182e-01 5.953207e-03 0.0
4.765761e-01 6.039021e-03 0.0
4.783681e-01 6.119354e-03 0.0
4.801003e-01 6.194387e-03 0.0
4.817782e-01 6.264214e-03 0.0
4.834067e-01 6.328972e-03 0.0
4.849906e-01 6.388871e-03 0.0
4.865339e-01 6.444147e-03 0.0
4.880404e-01 6.495036e-03 0.0
4.895137e-01 6.541804e-03 0.0
4.909568e-01 6.584731e-03 0.0
4.923726e-01 6.624100e-03 0.0
4.937637e-01 6.660190e-03 0.0
4.951323e-01 6.693263e-03 0.0
4.964807e-01 6.723565e-03 0.0
4.978106e-01 6.751325e-03 0.0
4.991239e-01 6.776756e-03 0.0
5.004220e-01 6.800056e-03 0.0
5.017064e-01 6.821409e-03 0.0
5.029783e-01 6.840986e-03 0.0
5.042389e-01 6.858948e-03 0.0
5.054891e-01 6.875443e-03 0.0
5.067300e-01 6.890610e-03 0.0
5.079623e-01 6.904576e-03 0.0
5.091868e-01 6.917454e-03 0.0
5.104042e-01 6.929342e-03 0.0
5.116150e-01 6.940317e-03 0.0
5.128199e-01 6.950432e-03 0.0
5.140192e-01 6.959704e-03 0.0
5.152136e-01 6.968100e-03 0.0
5.164036e-01 6.975520e-03 0.0
5.175896e-01 6.981772e-03 0.0
5.187722e-01 6.986530e-03 0.0
5.199519e-01 6.989149e-03 0.0
5.211299e-01 6.988424e-03 0.0
5.223077e-01 6.983102e-03 0.0
5.234872e-01 6.971268e-03 0.0
5.246716e-01 6.950088e-03 0.0
5.258650e-01 6.915448e-03 0.0
5.270738e-01 6.861484e-03 0.0
5.283072e-01 6.779945e-03 0.0
5.295789e-01 6.659408e-03 0.0
5.309095e-01 6.484411e-03 0.0
5.323309e-01 6.234742e-03 0.0
5.338945e-01 5.885423e-03 0.0
5.356851e-01 5.406981e-03 0.0
5.378339e-01 4.751973e-03 0.0
5.404021e-01 3.705648e-03 0.0
0.000000e+00 3.717496e-03 0.0
0.000000e+00 0.000000e+00 0.0
0.000000e+00 0.000000e+00 0.0
0.000000e+00 0.000000e+00 0.0
0.000000e+00 0.000000e+00 0.0
0.000000e+00 0.000000e+00 0.0
0.000000e+00 0.000000e+00 0.0
0.000000e+00 0.000000e+00 0.0
0.000000e+00 0.000000e+00 0.0
0.000000e+00 0.000000e+00 0.0
0.000000e+00 0.000000e+00 0.0
0.000000e+00 -4.582472e-02 0.0
-8.881178e-03 4.531022e-02 0.0
-3.510664e-02 9.732787e-02 0.0
-6.507526e-02 1.194876e-01 0.0
-9.390920e-02 1.254162e-01 0.0
-1.193846e-01 1.245736e-01 0.0
-1.406443e-01 1.208562e-01 0.0
-1.571880e-01 1.146840e-01 0.0
-1.683985e-01 1.049557e-01 0.0
-1.729948e-01 8.948554e-02 0.0
-1.685602e-01 6.512846e-02 0.0
-1.512524e-01 2.779654e-02 0.0
-1.134636e-01 -2.991122e-02 0.0
-5.680555e-02 -9.858505e-02 0.0
1.432941e-02 -1.653264e-01 0.0
8.910415e-02 -2.169356e-01 0.0
1.592539e-01 -2.471323e-01 0.0
2.216786e-01 -2.523940e-01 0.0
2.763291e-01 -2.355984e-01 0.0
3.239823e-01 -2.059010e-01 0.0
3.650101e-01 -1.708329e-01 0.0
3.997151e-01 -1.357356e-01 0.0
4.285592e-01 -1.038647e-01 0.0
4.521882e-01 -7.681598e-02 0.0
4.713624e-01 -5.502783e-02 0.0
4.868743e-01 -3.822139e-02 0.0
4.994782e-01 -2.573762e-02 0.0
5.098274e-01 -1.677006e-02 0.0
5.184751e-01 -1.050543e-02 0.0
5.258663e-01 -6.222902e-03 0.0
5.323279e-01 -3.336621e-03 0.0
5.381125e-01 -1.384914e-03 0.0
5.433972e-01 -4.775352e-05 0.0
5.483094e-01 8.883543e-04 0.0
5.529125e-01 1.579380e-03 0.0
5.572470e-01 2.116582e-03 0.0
5.613420e-01 2.556630e-03 0.0
5.652191e-01 2.936060e-03 0.0
5.688975e-01 3.273250e-03 0.0
5.723948e-01 3.576854e-03 0.0
5.757267e-01 3.853827e-03 0.0
5.789063e-01 4.109385e-03 0.0
5.819452e-01 4.347215e-03 0.0
5.848547e-01 4.568148e-03 0.0
5.876456e-01 4.772612e-03 0.0
5.903278e-01 4.961592e-03 0.0
5.929105e-01 5.136065e-03 0.0
5.954025e-01 5.296669e-03 0.0
5.978118e-01 5.444080e-03 0.0
6.001460e-01 5.579099e-03 0.0
6.024120e-01 5.702528e-03 0.0
6.046163e-01 5.815157e-03 0.0
6.067647e-01 5.917786e-03 0.0
6.088627e-01 6.011205e-03 0.0
6.109150e-01 6.096171e-03 0.0
6.129262e-01 6.173407e-03 0.0
6.149003e-01 6.243592e-03 0.0
6.168409e-01 6.307354e-03 0.0
6.187513e-01 6.365275e-03 0.0
6.206346e-01 6.417891e-03 0.0
6.224933e-01 6.465693e-03 0.0
6.243300e-01 6.509133e-03 0.0
6.261468e-01 6.548627e-03 0.0
6.279455e-01 6.584555e-03 0.0
6.297281e-01 6.617267e-03 0.0
6.314960e-01 6.647082e-03 0.0
6.332507e-01 6.674292e-03 0.0
6.349933e-01 6.699159e-03 0.0
6.367251e-01 6.721914e-03 0.0
6.384471e-01 6.742756e-03 0.0
6.401600e-01 6.761838e-03 0.0
6.418649e-01 6.779268e-03 0.0
6.435622e-01 6.795084e-03 0.0
6.452529e-01 6.809241e-03 0.0
6.469374e-01 6.821579e-03 0.0
6.486166e-01 6.831785e-03 0.0
6.502908e-01 6.839313e-03 0.0
6.519605e-01 6.843083e-03 0.0
6.536267e-01 6.841254e-03 0.0
6.552907e-01 6.831630e-03 0.0
6.569542e-01 6.810893e-03 0.0
6.586199e-01 6.774161e-03 0.0
6.602914e-01 6.714355e-03 0.0
6.619744e-01 6.621306e-03 0.0
6.636777e-01 6.480476e-03 0.0
6.654153e-01 6.271104e-03 0.0
6.672110e-01 5.963400e-03 0.0
6.691069e-01 5.513948e-03 0.0
6.711806e-01 4.857586e-03 0.0
6.735593e-01 3.897670e-03 0.0
6.762088e-01 2.580459e-03 0.0
0.000000e+00 2.578761e-03 0.0
0.000000e+00 0.000000e+00 0.0
0.000000e+00 0.000000e+00 0.0
0.000000e+00 0.000000e+00 0.0
0.000000e+00 0.000000e+00 0.0
0.000000e+00 0.000000e+00 0.0
0.000000e+00 0.000000e+00 0.0
0.000000e+00 0.000000e+00 0.0
0.000000e+00 0.000000e+00 0.0
0.000000e+00 0.000000e+00 0.0
0.000000e+00 0.000000e+00 0.0
0.000000e+00 -5.597314e-02 0.0
-4.328323e-03 5.548260e-02 0.0
-2.129364e-02 1.158177e-01 0.0
-3.882088e-02 1.385393e-01 0.0
-5.332203e-02 1.414418e-01 0.0
-6.354810e-02 1.363242e-01 0.0
-6.894828e-02 1.277809e-01 0.0
-6.940237e-02 1.166626e-01 0.0
-6.457648e-02 1.016543e-01 0.0
-5.309851e-02 7.953210e-02 0.0
-3.088308e-02 4.443755e-02 0.0
1.290585e-02 -1.446787e-02 0.0
7.349261e-02 -8.897347e-02 0.0
1.428682e-01 -1.664361e-01 0.0
2.132607e-01 -2.341943e-01 0.0
2.794535e-01 -2.816039e-01 0.0
3.374580e-01 -3.036124e-01 0.0
3.849984e-01 -2.984098e-01 0.0
4.240335e-01 -2.731090e-01 0.0
4.562713e-01 -2.366144e-01 0.0
4.829684e-01 -1.960055e-01 0.0
5.050596e-01 -1.563023e-01 0.0
5.233014e-01 -1.205820e-01 0.0
5.383587e-01 -9.034883e-02 0.0
5.508366e-01 -6.598119e-02 0.0
5.612811e-01 -4.714149e-02 0.0
5.701697e-01 -3.310173e-02 0.0
5.779000e-01 -2.297579e-02 0.0
5.847916e-01 -1.587257e-02 0.0
5.910863e-01 -1.099313e-02 0.0
5.969515e-01 -7.677356e-03 0.0
6.025040e-01 -5.412995e-03 0.0
6.078138e-01 -3.833073e-03 0.0
6.129156e-01 -2.688934e-03 0.0
6.178319e-01 -1.812504e-03 0.0
6.225727e-01 -1.099746e-03 0.0
6.271437e-01 -4.898559e-04 0.0
6.315544e-01 4.980521e-05 0.0
6.358115e-01 5.406070e-04 0.0
6.399159e-01 9.968071e-04 0.0
6.438697e-01 1.424539e-03 0.0
6.476762e-01 1.827344e-03 0.0
6.513397e-01 2.208164e-03 0.0
6.548664e-01 2.565805e-03 0.0
6.582641e-01 2.899407e-03 0.0
6.615402e-01 3.209927e-03 0.0
6.647021e-01 3.498519e-03 0.0
6.677577e-01 3.765512e-03 0.0
6.707147e-01 4.011478e-03 0.0
6.735808e-01 4.237449e-03 0.0
6.763633e-01 4.444497e-03 0.0
6.790691e-01 4.633710e-03 0.0
6.817050e-01 4.806268e-03 0.0
6.842773e-01 4.963370e-03 0.0
6.867917e-01 5.106198e-03 0.0
6.892536e-01 5.235901e-03 0.0
6.916680e-01 5.353583e-03 0.0
6.940395e-01 5.460283e-03 0.0
6.963721e-01 5.556977e-03 0.0
6.986699e-01 5.644573e-03 0.0
7.009360e-01 5.723913e-03 0.0
7.031738e-01 5.795774e-03 0.0
7.053859e-01 5.860869e-03 0.0
7.075750e-01 5.919858e-03 0.0
7.097433e-01 5.973343e-03 0.0
7.118929e-01 6.021877e-03 0.0
7.140256e-01 6.065965e-03 0.0
7.161431e-01 6.106063e-03 0.0
7.182468e-01 6.142581e-03 0.0
7.203380e-01 6.175878e-03 0.0
7.224180e-01 6.206256e-03 0.0
7.244877e-01 6.233955e-03 0.0
7.265480e-01 6.259133e-03 0.0
7.285998e-01 6.281853e-03 0.0
7.306437e-01 6.302045e-03 0.0
7.326804e-01 6.319471e-03 0.0
7.347104e-01 6.333652e-03 0.0
7.367341e-01 6.343729e-03 0.0
7.387517e-01 6.348053e-03 0.0
7.407636e-01 6.344066e-03 0.0
7.427705e-01 6.328354e-03 0.0
7.447732e-01 6.295815e-03 0.0
7.467730e-01 6.238949e-03 0.0
7.487718e-01 6.146815e-03 0.0
7.507732e-01 6.003454e-03 0.0
7.527832e-01 5.785440e-03 0.0
7.548132e-01 5.457809e-03 0.0
7.568846e-01 4.966902e-03 0.0
7.590382e-01 4.228374e-03 0.0
7.613343e-01 3.125889e-03 0.0
7.636920e-01 1.747162e-03 0.0
0.000000e+00 1.741664e-03 0.0
0.000000e+00 0.000000e+00 0.0
0.000000e+00 0.000000e+00 0.0
0.000000e+00 0.000000e+00 0.0
0.000000e+00 0.000000e+00 0.0
0.000000e+00 0.000000e+00 0.0
0.000000e+00 0.000000e+00 0.0
0.000000e+00 0.000000e+00 0.0
0.000000e+00 0.000000e+00 0.0
0.000000e+00 0.000000e+00 0.0
0.000000e+00 0.000000e+00 0.0
0.000000e+00 -6.242439e-02 0.0
-7.274630e-04 6.205411e-02 0.0
-7.471328e-03 1.240861e-01 0.0
-1.011139e-02 1.427039e-01 0.0
-7.545135e-03 1.404001e-01 0.0
2.955869e-04 1.300080e-01 0.0
1.341370e-02 1.161874e-01 0.0
3.177217e-02 9.982863e-02 0.0
5.671266e-02 7.823835e-02 0.0
9.077259e-02 4.699670e-02 0.0
1.426352e-01 -5.900520e-03 0.0
2.086148e-01 -7.892301e-02 0.0
2.810741e-01 -1.599082e-01 0.0
3.528186e-01 -2.366561e-01 0.0
4.179778e-01 -2.978289e-01 0.0
4.731776e-01 -3.352792e-01 0.0
5.164250e-01 -3.453353e-01 0.0
5.484907e-01 -3.289509e-01 0.0
5.721461e-01 -2.952400e-01 0.0
5.895467e-01 -2.524905e-01 0.0
6.023118e-01 -2.072461e-01 0.0
6.116522e-01 -1.641182e-01 0.0
6.185045e-01 -1.259098e-01 0.0
6.236137e-01 -9.393350e-02 0.0
6.275709e-01 -6.841395e-02 0.0
6.308358e-01 -4.888187e-02 0.0
6.337547e-01 -3.449617e-02 0.0
6.365784e-01 -2.427495e-02 0.0
6.394779e-01 -1.724763e-02 0.0
6.425561e-01 -1.254683e-02 0.0
6.458579e-01 -9.454672e-03 0.0
6.493872e-01 -7.417805e-03 0.0
6.531181e-01 -6.039550e-03 0.0
6.570068e-01 -5.053107e-03 0.0
6.610061e-01 -4.287358e-03 0.0
6.650708e-01 -3.640052e-03 0.0
6.691602e-01 -3.054777e-03 0.0
6.732383e-01 -2.503875e-03 0.0
6.772772e-01 -1.973805e-03 0.0
6.812569e-01 -1.458426e-03 0.0
6.851625e-01 -9.566216e-04 0.0
6.889848e-01 -4.705100e-04 0.0
6.927215e-01 -4.069482e-06 0.0
6.963693e-01 4.423843e-04 0.0
6.999246e-01 8.685129e-04 0.0
7.033862e-01 1.272831e-03 0.0
7.067542e-01 1.654898e-03 0.0
7.100311e-01 2.013091e-03 0.0
7.132204e-01 2.346602e-03 0.0
7.163262e-01 2.655969e-03 0.0
7.193533e-01 2.941833e-03 0.0
7.223066e-01 3.204863e-03 0.0
7.251911e-01 3.446125e-03 0.0
7.280121e-01 3.666835e-03 0.0
7.307744e-01 3.868261e-03 0.0
7.334830e-01 4.051726e-03 0.0
7.361424e-01 4.218565e-03 0.0
7.387570e-01 4.370079e-03 0.0
7.413309e-01 4.507524e-03 0.0
7.438677e-01 4.632101e-03 0.0
7.463711e-01 4.744942e-03 0.0
7.488442e-01 4.847108e-03 0.0
7.512898e-01 4.939588e-03 0.0
7.537108e-01 5.023302e-03 0.0
7.561094e-01 5.099098e-03 0.0
7.584879e-01 5.167761e-03 0.0
7.608482e-01 5.230012e-03 0.0
7.631922e-01 5.286508e-03 0.0
7.655213e-01 5.337847e-03 0.0
7.678370e-01 5.384563e-03 0.0
7.701405e-01 5.427123e-03 0.0
7.724329e-01 5.465920e-03 0.0
7.747151e-01 5.501262e-03 0.0
7.769880e-01 5.533351e-03 0.0
7.792522e-01 5.562257e-03 0.0
7.815081e-01 5.587871e-03 0.0
7.837563e-01 5.609845e-03 0.0
7.859969e-01 5.627473e-03 0.0
7.882298e-01 5.639494e-03 0.0
7.904547e-01 5.643619e-03 0.0
7.926709e-01 5.636468e-03 0.0
7.948779e-01 5.613205e-03 0.0
7.970746e-01 5.566634e-03 0.0
7.992596e-01 5.486125e-03 0.0
8.014314e-01 5.355985e-03 0.0
8.035883e-01 5.152895e-03 0.0
8.057288e-01 4.841700e-03 0.0
8.078517e-01 4.368359e-03 0.0
8.099545e-01 3.649922e-03 0.0
8.120207e-01 2.584067e-03 0.0
8.139630e-01 1.329269e-03 0.0
0.000000e+00 1.327228e-03 0.0
0.000000e+00 0.000000e+00 0.0
0.000000e+00 0.000000e+00 0.0
0.000000e+00 0.000000e+00 0.0
0.000000e+00 0.000000e+00 0.0
0.000000e+00 0.000000e+00 0.0
0.000000e+00 0.000000e+00 0.0
0.000000e+00 0.000000e+00 0.0
0.000000e+00 0.000000e+00 0.0
0.000000e+00 0.000000e+00 0.0
0.000000e+00 0.000000e+00 0.0
0.000000e+00 -6.938433e-02 0.0
-1.292474e-03 6.919064e-02 0.0
1.990773e-03 1.223274e-01 0.0
1.680141e-02 1.294178e-01 0.0
3.955106e-02 1.191750e-01 0.0
6.826704e-02 1.028166e-01 0.0
1.027223e-01 8.325658e-02 0.0
1.430830e-01 6.099251e-02 0.0
1.925934e-01 3.025241e-02 0.0
2.586173e-01 -1.750261e-02 0.0
3.360909e-01 -8.184965e-02 0.0
4.164096e-01 -1.577172e-01 0.0
4.930397e-01 -2.350138e-01 0.0
5.605392e-01 -3.026311e-01 0.0
6.153848e-01 -3.511500e-01 0.0
6.562637e-01 -3.746337e-01 0.0
6.830089e-01 -3.705560e-01 0.0
6.992662e-01 -3.436837e-01 0.0
7.082386e-01 -3.026879e-01 0.0
7.122210e-01 -2.549484e-01 0.0
7.127966e-01 -2.062973e-01 0.0
7.110952e-01 -1.608923e-01 0.0
7.079761e-01 -1.212662e-01 0.0
7.041214e-01 -8.855432e-02 0.0
7.000694e-01 -6.283745e-02 0.0
6.962264e-01 -4.351438e-02 0.0
6.928807e-01 -2.962600e-02 0.0
6.902189e-01 -2.008868e-02 0.0
6.883450e-01 -1.384923e-02 0.0
6.872938e-01 -9.971224e-03 0.0
6.870423e-01 -7.678686e-03 0.0
6.875270e-01 -6.378026e-03 0.0
6.886602e-01 -5.648270e-03 0.0
6.903437e-01 -5.212120e-03 0.0
6.924807e-01 -4.899914e-03 0.0
6.949815e-01 -4.616435e-03 0.0
6.977653e-01 -4.314086e-03 0.0
7.007607e-01 -3.974796e-03 0.0
7.039072e-01 -3.595904e-03 0.0
7.071555e-01 -3.182317e-03 0.0
7.104660e-01 -2.742592e-03 0.0
7.138068e-01 -2.286894e-03 0.0
7.171523e-01 -1.825184e-03 0.0
7.204837e-01 -1.364572e-03 0.0
7.237876e-01 -9.108933e-04 0.0
7.270542e-01 -4.694238e-04 0.0
7.302786e-01 -4.507371e-05 0.0
7.334560e-01 3.601387e-04 0.0
7.365823e-01 7.447655e-04 0.0
7.396552e-01 1.107472e-03 0.0
7.426740e-01 1.447420e-03 0.0
7.456396e-01 1.763740e-03 0.0
7.485534e-01 2.056719e-03 0.0
7.514176e-01 2.327022e-03 0.0
7.542348e-01 2.575443e-03 0.0
7.570079e-01 2.803053e-03 0.0
7.597398e-01 3.011065e-03 0.0
7.624335e-01 3.200745e-03 0.0
7.650921e-01 3.373388e-03 0.0
7.677183e-01 3.530287e-03 0.0
7.703149e-01 3.672706e-03 0.0
7.728845e-01 3.801862e-03 0.0
7.754296e-01 3.918909e-03 0.0
7.779524e-01 4.024940e-03 0.0
7.804549e-01 4.120981e-03 0.0
7.829390e-01 4.207991e-03 0.0
7.854065e-01 4.286861e-03 0.0
7.878590e-01 4.358414e-03 0.0
7.902978e-01 4.423408e-03 0.0
7.927242e-01 4.482533e-03 0.0
7.951393e-01 4.536404e-03 0.0
7.975440e-01 4.585566e-03 0.0
7.999392e-01 4.630472e-03 0.0
8.023255e-01 4.671478e-03 0.0
8.047033e-01 4.708815e-03 0.0
8.070730e-01 4.742546e-03 0.0
8.094347e-01 4.772514e-03 0.0
8.117883e-01 4.798236e-03 0.0
8.141334e-01 4.818757e-03 0.0
8.164690e-01 4.832388e-03 0.0
8.187935e-01 4.836254e-03 0.0
8.211050e-01 4.826116e-03 0.0
8.234003e-01 4.795710e-03 0.0
8.256751e-01 4.735686e-03 0.0
8.279233e-01 4.632134e-03 0.0
8.301362e-01 4.464332e-03 0.0
8.323010e-01 4.201262e-03 0.0
8.343973e-01 3.796417e-03 0.0
8.363891e-01 3.182529e-03 0.0
8.382090e-01 2.288481e-03 0.0
8.397849e-01 1.277758e-03 0.0
0.000000e+00 1.282258e-03 0.0
0.000000e+00 0.000000e+00 0.0
0.000000e+00 0.000000e+00 0.0
0.000000e+00 0.000000e+00 0.0
0.000000e+00 0.000000e+00 0.0
0.000000e+00 0.000000e+00 0.0
0.000000e+00 0.000000e+00 0.0
0.000000e+00 0.000000e+00 0.0
0.000000e+00 0.000000e+00 0.0
0.000000e+00 0.000000e+00 0.0
0.000000e+00 0.000000e+00 0.0
0.000000e+00 -7.962242e-02 0.0
-4.553800e-03 7.958849e-02 0.0
1.392116e-02 1.053770e-01 0.0
5.204990e-02 9.281362e-02 0.0
9.937357e-02 7.337585e-02 0.0
1.525388e-01 5.117584e-02 0.0
2.127142e-01 2.460577e-02 0.0
2.841709e-01 -8.939652e-03 0.0
3.675656e-01 -5.161784e-02 0.0
4.570787e-01 -1.054911e-01 0.0
5.464838e-01 -1.697302e-01 0.0
6.291610e-01 -2.388698e-01 0.0
6.998461e-01 -3.041744e-01 0.0
7.551788e-01 -3.564393e-01 0.0
7.939376e-01 -3.883843e-01 0.0
8.166818e-01 -3.958533e-01 0.0
8.261701e-01 -3.785197e-01 0.0
8.271663e-01 -3.431554e-01 0.0
8.228426e-01 -2.968398e-01 0.0
8.152797e-01 -2.458610e-01 0.0
8.058155e-01 -1.953085e-01 0.0
7.953292e-01 -1.488814e-01 0.0
7.844455e-01 -1.088580e-01 0.0
7.736482e-01 -7.623247e-02 0.0
7.633227e-01 -5.098754e-02 0.0
7.537679e-01 -3.243506e-02 0.0
7.452063e-01 -1.953993e-02 0.0
7.377845e-01 -1.114239e-02 0.0
7.315864e-01 -6.126686e-03 0.0
7.266310e-01 -3.491356e-03 0.0
7.228720e-01 -2.395156e-03 0.0
7.202189e-01 -2.200496e-03 0.0
7.185557e-01 -2.460594e-03 0.0
7.177572e-01 -2.889101e-03 0.0
7.177005e-01 -3.318767e-03 0.0
7.182721e-01 -3.663631e-03 0.0
7.193673e-01 -3.884820e-03 0.0
7.208922e-01 -3.975221e-03 0.0
7.227643e-01 -3.943575e-03 0.0
7.249128e-01 -3.806300e-03 0.0
7.272771e-01 -3.582481e-03 0.0
7.298061e-01 -3.291422e-03 0.0
7.324564e-01 -2.951133e-03 0.0
7.351933e-01 -2.576955e-03 0.0
7.379888e-01 -2.181956e-03 0.0
7.408211e-01 -1.777312e-03 0.0
7.436726e-01 -1.372177e-03 0.0
7.465302e-01 -9.729876e-04 0.0
7.493840e-01 -5.846157e-04 0.0
7.522270e-01 -2.111336e-04 0.0
7.550542e-01 1.446134e-04 0.0
7.578610e-01 4.813168e-04 0.0
7.606444e-01 7.977716e-04 0.0
7.634024e-01 1.093456e-03 0.0
7.661342e-01 1.368001e-03 0.0
7.688399e-01 1.621738e-03 0.0
7.715200e-01 1.855373e-03 0.0
7.741754e-01 2.069767e-03 0.0
7.768073e-01 2.265938e-03 0.0
7.794169e-01 2.445018e-03 0.0
7.820058e-01 2.608185e-03 0.0
7.845755e-01 2.756622e-03 0.0
7.871273e-01 2.891494e-03 0.0
7.896627e-01 3.013934e-03 0.0
7.921830e-01 3.125028e-03 0.0
7.946896e-01 3.225813e-03 0.0
7.971835e-01 3.317271e-03 0.0
7.996660e-01 3.400323e-03 0.0
8.021379e-01 3.475829e-03 0.0
8.046003e-01 3.544585e-03 0.0
8.070537e-01 3.607322e-03 0.0
8.094990e-01 3.664699e-03 0.0
8.119365e-01 3.717299e-03 0.0
8.143667e-01 3.765619e-03 0.0
8.167899e-01 3.810051e-03 0.0
8.192059e-01 3.850850e-03 0.0
8.216147e-01 3.888090e-03 0.0
8.240157e-01 3.921580e-03 0.0
8.264081e-01 3.950751e-03 0.0
8.287904e-01 3.974471e-03 0.0
8.311603e-01 3.990768e-03 0.0
8.335143e-01 3.996419e-03 0.0
8.358478e-01 3.986578e-03 0.0
8.381539e-01 3.953977e-03 0.0
8.404226e-01 3.887732e-03 0.0
8.426397e-01 3.771674e-03 0.0
8.447833e-01 3.582008e-03 0.0
8.468196e-01 3.284424e-03 0.0
8.486935e-01 2.832973e-03 0.0
8.503187e-01 2.187649e-03 0.0
8.516432e-01 1.477635e-03 0.0
0.000000e+00 1.488780e-03 0.0
0.000000e+00 0.000000e+00 0.0
0.000000e+00 0.000000e+00 0.0
0.000000e+00 0.000000e+00 0.0
0.000000e+00 0.000000e+00 0.0
0.000000e+00 0.000000e+00 0.0
0.000000e+00 0.000000e+00 0.0
0.000000e+00 0.000000e+00 0.0
0.000000e+00 0.000000e+00 0.0
0.000000e+00 0.000000e+00 0.0
0.000000e+00 0.000000e+00 0.0
0.000000e+00 -7.549576e-02 0.0
9.909390e-03 7.552316e-02 0.0
6.467224e-02 5.213867e-02 0.0
1.372903e-01 2.172013e-02 0.0
2.193320e-01 -7.141380e-03 0.0
3.080590e-01 -3.602661e-02 0.0
4.011562e-01 -6.696690e-02 0.0
4.966529e-01 -1.029118e-01 0.0
5.923489e-01 -1.457893e-01 0.0
6.843431e-01 -1.959608e-01 0.0
7.675250e-01 -2.513876e-01 0.0
8.371100e-01 -3.069303e-01 0.0
8.898499e-01 -3.553898e-01 0.0
9.245758e-01 -3.896407e-01 0.0