# vtk DataFile Version 3.0
Scalar Field
ASCII
DATASET RECTILINEAR_GRID
DIMENSIONS 102 102 1
X_COORDINATES 102 double
0.000000 0.100000 0.200000 0.300000 0.400000 0.500000 0.600000 0.700000 0.800000 0.900000 1.000000 1.100000 1.200000 1.300000 1.400000 1.500000 1.600000 1.700000 1.800000 1.900000 2.000000 2.100000 2.200000 2.300000 2.400000 2.500000 2.600000 2.700000 2.800000 2.900000 3.000000 3.100000 3.200000 3.300000 3.400000 3.500000 3.600000 3.700000 3.800000 3.900000 4.000000 4.100000 4.200000 4.300000 4.400000 4.500000 4.600000 4.700000 4.800000 4.900000 5.000000 5.100000 5.200000 5.300000 5.400000 5.500000 5.600000 5.700000 5.800000 5.900000 6.000000 6.100000 6.200000 6.300000 6.400000 6.500000 6.600000 6.700000 6.800000 6.900000 7.000000 7.100000 7.200000 7.300000 7.400000 7.500000 7.600000 7.700000 7.800000 7.900000 8.000000 8.100000 8.200000 8.300000 8.400000 8.500000 8.600000 8.700000 8.800000 8.900000 9.000000 9.100000 9.200000 9.300000 9.400000 9.500000 9.600000 9.700000 9.800000 9.900000 10.000000 10.100000 
Y_COORDINATES 102 double
0.000000 0.100000 0.200000 0.300000 0.400000 0.500000 0.600000 0.700000 0.800000 0.900000 1.000000 1.100000 1.200000 1.300000 1.400000 1.500000 1.600000 1.700000 1.800000 1.900000 2.000000 2.100000 2.200000 2.300000 2.400000 2.500000 2.600000 2.700000 2.800000 2.900000 3.000000 3.100000 3.200000 3.300000 3.400000 3.500000 3.600000 3.700000 3.800000 3.900000 4.000000 4.100000 4.200000 4.300000 4.400000 4.500000 4.600000 4.700000 4.800000 4.900000 5.000000 5.100000 5.200000 5.300000 5.400000 5.500000 5.600000 5.700000 5.800000 5.900000 6.000000 6.100000 6.200000 6.300000 6.400000 6.500000 6.600000 6.700000 6.800000 6.900000 7.000000 7.100000 7.200000 7.300000 7.400000 7.500000 7.600000 7.700000 7.800000 7.900000 8.000000 8.100000 8.200000 8.300000 8.400000 8.500000 8.600000 8.700000 8.800000 8.900000 9.000000 9.100000 9.200000 9.300000 9.400000 9.500000 9.600000 9.700000 9.800000 9.900000 10.000000 10.100000 
Z_COORDINATES 1 double
0.0
POINT_DATA 10404
SCALARS Pressure double 1
LOOKUP_TABLE default
0.000000e+00
1.425732e-02
1.411842e-02
1.407544e-02
1.410831e-02
1.415360e-02
1.414152e-02
1.403097e-02
1.382573e-02
1.356694e-02
1.330981e-02
1.309823e-02
1.294966e-02
1.285472e-02
1.278860e-02
1.272626e-02
1.265395e-02
1.257274e-02
1.249463e-02
1.243482e-02
1.240458e-02
1.240760e-02
1.244058e-02
1.249653e-02
1.256881e-02
1.265379e-02
1.275154e-02
1.286467e-02
1.299634e-02
1.314855e-02
1.332139e-02
1.351328e-02
1.372190e-02
1.394515e-02
1.418187e-02
1.443185e-02
1.469551e-02
1.497329e-02
1.526518e-02
1.557046e-02
1.588780e-02
1.621552e-02
1.655184e-02
1.689516e-02
1.724409e-02
1.759740e-02
1.795390e-02
1.831227e-02
1.867103e-02
1.902847e-02
1.938288e-02
1.973246e-02
2.007549e-02
2.041025e-02
2.073510e-02
2.104846e-02
2.134876e-02
2.163449e-02
2.190416e-02
2.215638e-02
2.238985e-02
2.260342e-02
2.279611e-02
2.296710e-02
2.311575e-02
2.324153e-02
2.334402e-02
2.342294e-02
2.347811e-02
2.350949e-02
2.351723e-02
2.350165e-02
2.346329e-02
2.340288e-02
2.332129e-02
2.321960e-02
2.309896e-02
2.296069e-02
2.280622e-02
2.263708e-02
2.245496e-02
2.226168e-02
2.205922e-02
2.184968e-02
2.163529e-02
2.141840e-02
2.120146e-02
2.098703e-02
2.077774e-02
2.057633e-02
2.038561e-02
2.020847e-02
2.004783e-02
1.990663e-02
1.978773e-02
1.969376e-02
1.962684e-02
1.958804e-02
1.957634e-02
1.958664e-02
1.960634e-02
0.000000e+00
1.425732e-02
1.409128e-02
1.406436e-02
1.413730e-02
1.423842e-02
1.428275e-02
1.421384e-02
1.402647e-02
1.376231e-02
1.348486e-02
1.324918e-02
1.308138e-02
1.297521e-02
1.290355e-02
1.283620e-02
1.275455e-02
1.265744e-02
1.255770e-02
1.247339e-02
1.241898e-02
1.240029e-02
1.241444e-02
1.245351e-02
1.250935e-02
1.257712e-02
1.265644e-02
1.275020e-02
1.286232e-02
1.299557e-02
1.315050e-02
1.332555e-02
1.351814e-02
1.372583e-02
1.394722e-02
1.418210e-02
1.443106e-02
1.469482e-02
1.497363e-02
1.526693e-02
1.557343e-02
1.589141e-02
1.621905e-02
1.655476e-02
1.689721e-02
1.724532e-02
1.759806e-02
1.795430e-02
1.831269e-02
1.867162e-02
1.902930e-02
1.938394e-02
1.973373e-02
2.007693e-02
2.041188e-02
2.073692e-02
2.105046e-02
2.135089e-02
2.163668e-02
2.190630e-02
2.215838e-02
2.239164e-02
2.260499e-02
2.279750e-02
2.296840e-02
2.311702e-02
2.324284e-02
2.334538e-02
2.342432e-02
2.347945e-02
2.351073e-02
2.351834e-02
2.350264e-02
2.346419e-02
2.340374e-02
2.332219e-02
2.322057e-02
2.310002e-02
2.296183e-02
2.280739e-02
2.263825e-02
2.245609e-02
2.226275e-02
2.206023e-02
2.185063e-02
2.163621e-02
2.141930e-02
2.120236e-02
2.098792e-02
2.077863e-02
2.057721e-02
2.038647e-02
2.020929e-02
2.004862e-02
1.990740e-02
1.978848e-02
1.969450e-02
1.962758e-02
1.958878e-02
1.957707e-02
1.958738e-02
1.960708e-02
1.960634e-02
1.411832e-02
1.406419e-02
1.417742e-02
1.431511e-02
1.438593e-02
1.434070e-02
1.418099e-02
1.395088e-02
1.371090e-02
1.350973e-02
1.336708e-02
1.327328e-02
1.320192e-02
1.312681e-02
1.303448e-02
1.292773e-02
1.282090e-02
1.273113e-02
1.267059e-02
1.264277e-02
1.264356e-02
1.266523e-02
1.270090e-02
1.274736e-02
1.280546e-02
1.287861e-02
1.297049e-02
1.308323e-02
1.321674e-02
1.336921e-02
1.353816e-02
1.372160e-02
1.391863e-02
1.412939e-02
1.435459e-02
1.459484e-02
1.485016e-02
1.511980e-02
1.540243e-02
1.569646e-02
1.600036e-02
1.631286e-02
1.663294e-02
1.695975e-02
1.729240e-02
1.762982e-02
1.797074e-02
1.831364e-02
1.865682e-02
1.899853e-02
1.933708e-02
1.967085e-02
1.999823e-02
2.031766e-02
2.062756e-02
2.092635e-02
2.121248e-02
2.148447e-02
2.174093e-02
2.198060e-02
2.220238e-02
2.240530e-02
2.258850e-02
2.275124e-02
2.289286e-02
2.301278e-02
2.311054e-02
2.318583e-02
2.323850e-02
2.326858e-02
2.327630e-02
2.326206e-02
2.322644e-02
2.317014e-02
2.309400e-02
2.299895e-02
2.288609e-02
2.275663e-02
2.261194e-02
2.245351e-02
2.228301e-02
2.210221e-02
2.191304e-02
2.171750e-02
2.151770e-02
2.131586e-02
2.111427e-02
2.091530e-02
2.072139e-02
2.053508e-02
2.035894e-02
2.019558e-02
2.004761e-02
1.991757e-02
1.980783e-02
1.972047e-02
1.965701e-02
1.961801e-02
1.960255e-02
1.960750e-02
1.962729e-02
1.962655e-02
1.415176e-02
1.421777e-02
1.439147e-02
1.448940e-02
1.445581e-02
1.430415e-02
1.408925e-02
1.387608e-02
1.370996e-02
1.360213e-02
1.353410e-02
1.347455e-02
1.339792e-02
1.329574e-02
1.317716e-02
1.306117e-02
1.296629e-02
1.290294e-02
1.287135e-02
1.286449e-02
1.287337e-02
1.289173e-02
1.291821e-02
1.295572e-02
1.300901e-02
1.308206e-02
1.317641e-02
1.329103e-02
1.342336e-02
1.357073e-02
1.373149e-02
1.390536e-02
1.409308e-02
1.429568e-02
1.451376e-02
1.474709e-02
1.499461e-02
1.525482e-02
1.552617e-02
1.580738e-02
1.609755e-02
1.639604e-02
1.670228e-02
1.701552e-02
1.733475e-02
1.765869e-02
1.798586e-02
1.831470e-02
1.864353e-02
1.897070e-02
1.929471e-02
1.961406e-02
1.992724e-02
2.023270e-02
2.052888e-02
2.081422e-02
2.108727e-02
2.134665e-02
2.159113e-02
2.181962e-02
2.203111e-02
2.222471e-02
2.239956e-02
2.255490e-02
2.269004e-02
2.280440e-02
2.289756e-02
2.296927e-02
2.301945e-02
2.304820e-02
2.305581e-02
2.304267e-02
2.300930e-02
2.295636e-02
2.288461e-02
2.279496e-02
2.268844e-02
2.256625e-02
2.242975e-02
2.228042e-02
2.211987e-02
2.194981e-02
2.177205e-02
2.158851e-02
2.140116e-02
2.121209e-02
2.102344e-02
2.083744e-02
2.065639e-02
2.048262e-02
2.031850e-02
2.016639e-02
2.002862e-02
1.990741e-02
1.980481e-02
1.972257e-02
1.966198e-02
1.962373e-02
1.960764e-02
1.961279e-02
1.963820e-02
1.963745e-02
1.434476e-02
1.448739e-02
1.461315e-02
1.459563e-02
1.444507e-02
1.422861e-02
1.402208e-02
1.387504e-02
1.379516e-02
1.375557e-02
1.371657e-02
1.364826e-02
1.354311e-02
1.341502e-02
1.328859e-02
1.318603e-02
1.311835e-02
1.308376e-02
1.307226e-02
1.307253e-02
1.307769e-02
1.308736e-02
1.310626e-02
1.314084e-02
1.319593e-02
1.327301e-02
1.337035e-02
1.348456e-02
1.361253e-02
1.375262e-02
1.390500e-02
1.407099e-02
1.425206e-02
1.444896e-02
1.466133e-02
1.488791e-02
1.512696e-02
1.537692e-02
1.563667e-02
1.590561e-02
1.618344e-02
1.646985e-02
1.676428e-02
1.706578e-02
1.737307e-02
1.768472e-02
1.799923e-02
1.831517e-02
1.863100e-02
1.894515e-02
1.925622e-02
1.956277e-02
1.986325e-02
2.015611e-02
2.043981e-02
2.071291e-02
2.097408e-02
2.122211e-02
2.145593e-02
2.167451e-02
2.187691e-02
2.206221e-02
2.222952e-02
2.237806e-02
2.250714e-02
2.261624e-02
2.270500e-02
2.277326e-02
2.282101e-02
2.284838e-02
2.285563e-02
2.284314e-02
2.281138e-02
2.276094e-02
2.269257e-02
2.260716e-02
2.250576e-02
2.238955e-02
2.225987e-02
2.211817e-02
2.196597e-02
2.180492e-02
2.163673e-02
2.146320e-02
2.128622e-02
2.110774e-02
2.092980e-02
2.075451e-02
2.058401e-02
2.042047e-02
2.026607e-02
2.012294e-02
1.999318e-02
1.987878e-02
1.978156e-02
1.970312e-02
1.964474e-02
1.960736e-02
1.959157e-02
1.959790e-02
1.962755e-02
1.962678e-02
1.462697e-02
1.477618e-02
1.477830e-02
1.462932e-02
1.440209e-02
1.418478e-02
1.403696e-02
1.396932e-02
1.395070e-02
1.393320e-02
1.387944e-02
1.377848e-02
1.364555e-02
1.350955e-02
1.339723e-02
1.332220e-02
1.328265e-02
1.326663e-02
1.326049e-02
1.325582e-02
1.325214e-02
1.325519e-02
1.327286e-02
1.331106e-02
1.337168e-02
1.345272e-02
1.355022e-02
1.366054e-02
1.378187e-02
1.391457e-02
1.406036e-02
1.422110e-02
1.439778e-02
1.459008e-02
1.479662e-02
1.501556e-02
1.524528e-02
1.548475e-02
1.573358e-02
1.599173e-02
1.625910e-02
1.653530e-02
1.681946e-02
1.711036e-02
1.740663e-02
1.770686e-02
1.800976e-02
1.831410e-02
1.861846e-02
1.892120e-02
1.922089e-02
1.951604e-02
1.980508e-02
2.008651e-02
2.035891e-02
2.062100e-02
2.087161e-02
2.110968e-02
2.133419e-02
2.154413e-02
2.173851e-02
2.191636e-02
2.207679e-02
2.221903e-02
2.234246e-02
2.244664e-02
2.253131e-02
2.259633e-02
2.264173e-02
2.266762e-02
2.267421e-02
2.266186e-02
2.263102e-02
2.258227e-02
2.251637e-02
2.243422e-02
2.233686e-02
2.222548e-02
2.210136e-02
2.196588e-02
2.182052e-02
2.166682e-02
2.150642e-02
2.134103e-02
2.117247e-02
2.100259e-02
2.083335e-02
2.066671e-02
2.050468e-02
2.034927e-02
2.020249e-02
2.006629e-02
1.994256e-02
1.983313e-02
1.973967e-02
1.966371e-02
1.960658e-02
1.956946e-02
1.955343e-02
1.955976e-02
1.959041e-02
1.958963e-02
1.491098e-02
1.500364e-02
1.486569e-02
1.462585e-02
1.438794e-02
1.422293e-02
1.414956e-02
1.413781e-02
1.413479e-02
1.409555e-02
1.400302e-02
1.387017e-02
1.372745e-02
1.360518e-02
1.352034e-02
1.347277e-02
1.345021e-02
1.343750e-02
1.342465e-02
1.341034e-02
1.340041e-02
1.340348e-02
1.342636e-02
1.347145e-02
1.353689e-02
1.361852e-02
1.371239e-02
1.381649e-02
1.393118e-02
1.405836e-02
1.420012e-02
1.435766e-02
1.453075e-02
1.471805e-02
1.491771e-02
1.512812e-02
1.534835e-02
1.557813e-02
1.581755e-02
1.606669e-02
1.632524e-02
1.659244e-02
1.686717e-02
1.714815e-02
1.743413e-02
1.772395e-02
1.801655e-02
1.831083e-02
1.860528e-02
1.889806e-02
1.918765e-02
1.947253e-02
1.975122e-02
2.002236e-02
2.028472e-02
2.053719e-02
2.077872e-02
2.100826e-02
2.122475e-02
2.142714e-02
2.161437e-02
2.178548e-02
2.193962e-02
2.207608e-02
2.219435e-02
2.229405e-02
2.237496e-02
2.243696e-02
2.248005e-02
2.250429e-02
2.250989e-02
2.249719e-02
2.246666e-02
2.241891e-02
2.235471e-02
2.227497e-02
2.218072e-02
2.207309e-02
2.195332e-02
2.182274e-02
2.168273e-02
2.153481e-02
2.138054e-02
2.122159e-02
2.105968e-02
2.089661e-02
2.073421e-02
2.057433e-02
2.041885e-02
2.026964e-02
2.012853e-02
1.999734e-02
1.987781e-02
1.977163e-02
1.968038e-02
1.960553e-02
1.954847e-02
1.951050e-02
1.949295e-02
1.949736e-02
1.952574e-02
1.952499e-02
1.513032e-02
1.513597e-02
1.489776e-02
1.463690e-02
1.444602e-02
1.435313e-02
1.433342e-02
1.433326e-02
1.430255e-02
1.421793e-02
1.408794e-02
1.394177e-02
1.381126e-02
1.371602e-02
1.365817e-02
1.362645e-02
1.360544e-02
1.358424e-02
1.356059e-02
1.353988e-02
1.353070e-02
1.354017e-02
1.357106e-02
1.362171e-02
1.368810e-02
1.376627e-02
1.385420e-02
1.395222e-02
1.406223e-02
1.418640e-02
1.432597e-02
1.448082e-02
1.464967e-02
1.483079e-02
1.502267e-02
1.522450e-02
1.543611e-02
1.565767e-02
1.588932e-02
1.613082e-02
1.638147e-02
1.664026e-02
1.690605e-02
1.717778e-02
1.745448e-02
1.773523e-02
1.801902e-02
1.830469e-02
1.859055e-02
1.887448e-02
1.915496e-02
1.943058e-02
1.970004e-02
1.996221e-02
2.021601e-02
2.046040e-02
2.069432e-02
2.091663e-02
2.112621e-02
2.132193e-02
2.150276e-02
2.166778e-02
2.181624e-02
2.194753e-02
2.206119e-02
2.215690e-02
2.223440e-02
2.229356e-02
2.233433e-02
2.235676e-02
2.236106e-02
2.234761e-02
2.231692e-02
2.226961e-02
2.220647e-02
2.212839e-02
2.203635e-02
2.193145e-02
2.181488e-02
2.168791e-02
2.155190e-02
2.140831e-02
2.125868e-02
2.110461e-02
2.094776e-02
2.078984e-02
2.063257e-02
2.047769e-02
2.032696e-02
2.018210e-02
2.004484e-02
1.991686e-02
1.979981e-02
1.969525e-02
1.960469e-02
1.952957e-02
1.947126e-02
1.943111e-02
1.941051e-02
1.941100e-02
1.943439e-02
1.943366e-02
1.526207e-02
1.519099e-02
1.492208e-02
1.470374e-02
1.458484e-02
1.454674e-02
1.453809e-02
1.450683e-02
1.442519e-02
1.429722e-02
1.414936e-02
1.401288e-02
1.390850e-02
1.384000e-02
1.379750e-02
1.376629e-02
1.373546e-02
1.370238e-02
1.367191e-02
1.365225e-02
1.365023e-02
1.366855e-02
1.370561e-02
1.375754e-02
1.382065e-02
1.389312e-02
1.397539e-02
1.406940e-02
1.417722e-02
1.430003e-02
1.443769e-02
1.458898e-02
1.475231e-02
1.492636e-02
1.511049e-02
1.530463e-02
1.550905e-02
1.572387e-02
1.594885e-02
1.618336e-02
1.642647e-02
1.667723e-02
1.693475e-02
1.719828e-02
1.746705e-02
1.774015e-02
1.801645e-02
1.829462e-02
1.857280e-02
1.884872e-02
1.912104e-02
1.938854e-02
1.965018e-02
1.990493e-02
2.015177e-02
2.038957e-02
2.061716e-02
2.083331e-02
2.103684e-02
2.122665e-02
2.140179e-02
2.156144e-02
2.170495e-02
2.183177e-02
2.194145e-02
2.203363e-02
2.210804e-02
2.216450e-02
2.220294e-02
2.222345e-02
2.222625e-02
2.221178e-02
2.218056e-02
2.213325e-02
2.207059e-02
2.199345e-02
2.190278e-02
2.179964e-02
2.168518e-02
2.156066e-02
2.142742e-02
2.128689e-02
2.114055e-02
2.098995e-02
2.083667e-02
2.068233e-02
2.052857e-02
2.037701e-02
2.022930e-02
2.008707e-02
1.995195e-02
1.982552e-02
1.970932e-02
1.960485e-02
1.951354e-02
1.943677e-02
1.937587e-02
1.933216e-02
1.930698e-02
1.930176e-02
1.931801e-02
1.931732e-02
1.532757e-02
1.522025e-02
1.498520e-02
1.483973e-02
1.477901e-02
1.475446e-02
1.471416e-02
1.462830e-02
1.449803e-02
1.434731e-02
1.420592e-02
1.409420e-02
1.401633e-02
1.396320e-02
1.392093e-02
1.387922e-02
1.383579e-02
1.379546e-02
1.376609e-02
1.375400e-02
1.376136e-02
1.378630e-02
1.382494e-02
1.387379e-02
1.393145e-02
1.399868e-02
1.407751e-02
1.416998e-02
1.427712e-02
1.439865e-02
1.453336e-02
1.467974e-02
1.483669e-02
1.500375e-02
1.518103e-02
1.536886e-02
1.556738e-02
1.577633e-02
1.599508e-02
1.622280e-02
1.645869e-02
1.670209e-02
1.695242e-02
1.720908e-02
1.747125e-02
1.773784e-02
1.800753e-02
1.827889e-02
1.855012e-02
1.881895e-02
1.908428e-02
1.934515e-02
1.960059e-02
1.984956e-02
2.009089e-02
2.032334e-02
2.054560e-02
2.075642e-02
2.095467e-02
2.113935e-02
2.130963e-02
2.146477e-02
2.160416e-02
2.172725e-02
2.183355e-02
2.192265e-02
2.199425e-02
2.204817e-02
2.208436e-02
2.210293e-02
2.210414e-02
2.208846e-02
2.205644e-02
2.200871e-02
2.194600e-02
2.186913e-02
2.177904e-02
2.167678e-02
2.156349e-02
2.144040e-02
2.130884e-02
2.117019e-02
2.102590e-02
2.087743e-02
2.072631e-02
2.057406e-02
2.042224e-02
2.027240e-02
2.012610e-02
1.998491e-02
1.985034e-02
1.972391e-02
1.960708e-02
1.950127e-02
1.940783e-02
1.932809e-02
1.926329e-02
1.921469e-02
1.918352e-02
1.917105e-02
1.917853e-02
1.917787e-02
1.537429e-02
1.527985e-02
1.511135e-02
1.502796e-02
1.498474e-02
1.492989e-02
1.483295e-02
1.469408e-02
1.453624e-02
1.438831e-02
1.426977e-02
1.418407e-02
1.412172e-02
1.406893e-02
1.401597e-02
1.396128e-02
1.391029e-02
1.387099e-02
1.384934e-02
1.384688e-02
1.386112e-02
1.388783e-02
1.392359e-02
1.396727e-02
1.402009e-02
1.408438e-02
1.416224e-02
1.425458e-02
1.436096e-02
1.448007e-02
1.461043e-02
1.475109e-02
1.490177e-02
1.506276e-02
1.523449e-02
1.541713e-02
1.561042e-02
1.581376e-02
1.602637e-02
1.624760e-02
1.647698e-02
1.671412e-02
1.695854e-02
1.720953e-02
1.746603e-02
1.772675e-02
1.799031e-02
1.825545e-02
1.852062e-02
1.878361e-02
1.904353e-02
1.929944e-02
1.955030e-02
1.979489e-02
2.003187e-02
2.025988e-02
2.047761e-02
2.068389e-02
2.087771e-02
2.105820e-02
2.122460e-02
2.137620e-02
2.151234e-02
2.163242e-02
2.173590e-02
2.182234e-02
2.189144e-02
2.194303e-02
2.197712e-02
2.199384e-02
2.199347e-02
2.197647e-02
2.194341e-02
2.189490e-02
2.183164e-02
2.175445e-02
2.166427e-02
2.156213e-02
2.144917e-02
2.132660e-02
2.119573e-02
2.105788e-02
2.091444e-02
2.076683e-02
2.061650e-02
2.046492e-02
2.031358e-02
2.016398e-02
2.001761e-02
1.987596e-02
1.974050e-02
1.961266e-02
1.949383e-02
1.938534e-02
1.928849e-02
1.920450e-02
1.913456e-02
1.907981e-02
1.904141e-02
1.902042e-02
1.901789e-02
1.901727e-02
1.544997e-02
1.540436e-02
1.529448e-02
1.523224e-02
1.516039e-02
1.504744e-02
1.489352e-02
1.472227e-02
1.456319e-02
1.443564e-02
1.434209e-02
1.427170e-02
1.420963e-02
1.414594e-02
1.407964e-02
1.401706e-02
1.396691e-02
1.393528e-02
1.392329e-02
1.392773e-02
1.394374e-02
1.396765e-02
1.399844e-02
1.403762e-02
1.408797e-02
1.415178e-02
1.422997e-02
1.432200e-02
1.442641e-02
1.454169e-02
1.466693e-02
1.480199e-02
1.494731e-02
1.510342e-02
1.527057e-02
1.544852e-02
1.563671e-02
1.583445e-02
1.604122e-02
1.625670e-02
1.648066e-02
1.671274e-02
1.695230e-02
1.719831e-02
1.744953e-02
1.770467e-02
1.796261e-02
1.822240e-02
1.848286e-02
1.874164e-02
1.899784e-02
1.925038e-02
1.949797e-02
1.973920e-02
1.997265e-02
2.019697e-02
2.041098e-02
2.061367e-02
2.080413e-02
2.098155e-02
2.114516e-02
2.129418e-02
2.142790e-02
2.154563e-02
2.164683e-02
2.173104e-02
2.179801e-02
2.184760e-02
2.187985e-02
2.189488e-02
2.189299e-02
2.187460e-02
2.184031e-02
2.179070e-02
2.172649e-02
2.164850e-02
2.155765e-02
2.145499e-02
2.134163e-02
2.121875e-02
2.108762e-02
2.094953e-02
2.080581e-02
2.065784e-02
2.050702e-02
2.035479e-02
2.020259e-02
2.005188e-02
1.990409e-02
1.976066e-02
1.962299e-02
1.949244e-02
1.937033e-02
1.925791e-02
1.915640e-02
1.906696e-02
1.899070e-02
1.892867e-02
1.888191e-02
1.885137e-02
1.883791e-02
1.883731e-02
1.558096e-02
1.559436e-02
1.550449e-02
1.541437e-02
1.528237e-02
1.510807e-02
1.491657e-02
1.473960e-02
1.459790e-02
1.449371e-02
1.441461e-02
1.434381e-02
1.427007e-02
1.419221e-02
1.411732e-02
1.405512e-02
1.401238e-02
1.399021e-02
1.398490e-02
1.399087e-02
1.400390e-02
1.402282e-02
1.404929e-02
1.408632e-02
1.413659e-02
1.420115e-02
1.427944e-02
1.436990e-02
1.447094e-02
1.458163e-02
1.470188e-02
1.483220e-02
1.497322e-02
1.512526e-02
1.528816e-02
1.546143e-02
1.564450e-02
1.583696e-02
1.603864e-02
1.624944e-02
1.646907e-02
1.669694e-02
1.693206e-02
1.717325e-02
1.741935e-02
1.766936e-02
1.792257e-02
1.817838e-02
1.843581e-02
1.869208e-02
1.894606e-02
1.919640e-02
1.944160e-02
1.968019e-02
1.991083e-02
2.013233e-02
2.034367e-02
2.054395e-02
2.073229e-02
2.090784e-02
2.106972e-02
2.121708e-02
2.134912e-02
2.146515e-02
2.156461e-02
2.164712e-02
2.171243e-02
2.176043e-02
2.179115e-02
2.180473e-02
2.180142e-02
2.178163e-02
2.174598e-02
2.169507e-02
2.162962e-02
2.155043e-02
2.145845e-02
2.135469e-02
2.124025e-02
2.111628e-02
2.098400e-02
2.084467e-02
2.069961e-02
2.055017e-02
2.039771e-02
2.024364e-02
2.008939e-02
1.993635e-02
1.978593e-02
1.963950e-02
1.949840e-02
1.936392e-02
1.923731e-02
1.911976e-02
1.901241e-02
1.891637e-02
1.883268e-02
1.876232e-02
1.870624e-02
1.866528e-02
1.864017e-02
1.863960e-02
1.576352e-02
1.582050e-02
1.570262e-02
1.554923e-02
1.535056e-02
1.513273e-02
1.493046e-02
1.476741e-02
1.464699e-02
1.455583e-02
1.447492e-02
1.439083e-02
1.430126e-02
1.421341e-02
1.413790e-02
1.408250e-02
1.404879e-02
1.403288e-02
1.402862e-02
1.403113e-02
1.403883e-02
1.405332e-02
1.407775e-02
1.411496e-02
1.416633e-02
1.423134e-02
1.430842e-02
1.439592e-02
1.449281e-02
1.459900e-02
1.471501e-02
1.484150e-02
1.497886e-02
1.512701e-02
1.528557e-02
1.545411e-02
1.563238e-02
1.582033e-02
1.601796e-02
1.622503e-02
1.644096e-02
1.666480e-02
1.689543e-02
1.713183e-02
1.737320e-02
1.761904e-02
1.786894e-02
1.812242e-02
1.837847e-02
1.863358e-02
1.888634e-02
1.913518e-02
1.937862e-02
1.961530e-02
1.984405e-02
2.006389e-02
2.027388e-02
2.047311e-02
2.066062e-02
2.083543e-02
2.099655e-02
2.114306e-02
2.127414e-02
2.138912e-02
2.148750e-02
2.156891e-02
2.163312e-02
2.168002e-02
2.170962e-02
2.172203e-02
2.171748e-02
2.169635e-02
2.165933e-02
2.160700e-02
2.154009e-02
2.145942e-02
2.136590e-02
2.126052e-02
2.114437e-02
2.101857e-02
2.088432e-02
2.074288e-02
2.059553e-02
2.044362e-02
2.028850e-02
2.013156e-02
1.997417e-02
1.981772e-02
1.966355e-02
1.951298e-02
1.936729e-02
1.922771e-02
1.909542e-02
1.897158e-02
1.885726e-02
1.875353e-02
1.866137e-02
1.858172e-02
1.851545e-02
1.846334e-02
1.842603e-02
1.842549e-02
1.596913e-02
1.603958e-02
1.585790e-02
1.563171e-02
1.538281e-02
1.514861e-02
1.495655e-02
1.481262e-02
1.470366e-02
1.460889e-02
1.451239e-02
1.440995e-02
1.430813e-02
1.421801e-02
1.414827e-02
1.410123e-02
1.407320e-02
1.405767e-02
1.404922e-02
1.404575e-02
1.404857e-02
1.406084e-02
1.408552e-02
1.412406e-02
1.417617e-02
1.424031e-02
1.431476e-02
1.439845e-02
1.449120e-02
1.459349e-02
1.470598e-02
1.482908e-02
1.496280e-02
1.510687e-02
1.526102e-02
1.542519e-02
1.559944e-02
1.578385e-02
1.597822e-02
1.618196e-02
1.639412e-02
1.661367e-02
1.683974e-02
1.707174e-02
1.730940e-02
1.755252e-02
1.780074e-02
1.805336e-02
1.830918e-02
1.856394e-02
1.881604e-02
1.906394e-02
1.930633e-02
1.954210e-02
1.977026e-02
1.998987e-02
2.019997e-02
2.039950e-02
2.058734e-02
2.076240e-02
2.092361e-02
2.107005e-02
2.120094e-02
2.131565e-02
2.141370e-02
2.149474e-02
2.155852e-02
2.160490e-02
2.163384e-02
2.164544e-02
2.163991e-02
2.161761e-02
2.157926e-02
2.152549e-02
2.145699e-02
2.137459e-02
2.127917e-02
2.117172e-02
2.105330e-02
2.092504e-02
2.078812e-02
2.064379e-02
2.049335e-02
2.033812e-02
2.017945e-02
2.001871e-02
1.985723e-02
1.969635e-02
1.953738e-02
1.938157e-02
1.923016e-02
1.908433e-02
1.894522e-02
1.881396e-02
1.869158e-02
1.857913e-02
1.847754e-02
1.838772e-02
1.831050e-02
1.824659e-02
1.819661e-02
1.819611e-02
1.615953e-02
1.621374e-02
1.595743e-02
1.567396e-02
1.540282e-02
1.517514e-02
1.500036e-02
1.486672e-02
1.475256e-02
1.463976e-02
1.452193e-02
1.440435e-02
1.429801e-02
1.421220e-02
1.414996e-02
1.410795e-02
1.407958e-02
1.405902e-02
1.404370e-02
1.403461e-02
1.403478e-02
1.404716e-02
1.407326e-02
1.411276e-02
1.416426e-02
1.422601e-02
1.429687e-02
1.437661e-02
1.446564e-02
1.456456e-02
1.467379e-02
1.479337e-02
1.492318e-02
1.506310e-02
1.521323e-02
1.537378e-02
1.554491e-02
1.572641e-02
1.591768e-02
1.611777e-02
1.632573e-02
1.654083e-02
1.676273e-02
1.699140e-02
1.722683e-02
1.746880e-02
1.771666e-02
1.796933e-02
1.822541e-02
1.848023e-02
1.873214e-02
1.897985e-02
1.922231e-02
1.945857e-02
1.968767e-02
1.990858e-02
2.012015e-02
2.032113e-02
2.051030e-02
2.068647e-02
2.084862e-02
2.099585e-02
2.112745e-02
2.124280e-02
2.134143e-02
2.142294e-02
2.148703e-02
2.153351e-02
2.156233e-02
2.157356e-02
2.156739e-02
2.154419e-02
2.150466e-02
2.144948e-02
2.137933e-02
2.129503e-02
2.119744e-02
2.108756e-02
2.096643e-02
2.083518e-02
2.069501e-02
2.054718e-02
2.039296e-02
2.023369e-02
2.007069e-02
1.990529e-02
1.973881e-02
1.957253e-02
1.940772e-02
1.924560e-02
1.908736e-02
1.893417e-02
1.878715e-02
1.864740e-02
1.851594e-02
1.839379e-02
1.828187e-02
1.818107e-02
1.809218e-02
1.801590e-02
1.795283e-02
1.795239e-02
1.630321e-02
1.632411e-02
1.600725e-02
1.569574e-02
1.542765e-02
1.521597e-02
1.505115e-02
1.491157e-02
1.477750e-02
1.464051e-02
1.450444e-02
1.437978e-02
1.427604e-02
1.419676e-02
1.413893e-02
1.409596e-02
1.406175e-02
1.403339e-02
1.401159e-02
1.399922e-02
1.399919e-02
1.401296e-02
1.404014e-02
1.407921e-02
1.412847e-02
1.418673e-02
1.425369e-02
1.432970e-02
1.441534e-02
1.451098e-02
1.461671e-02
1.473247e-02
1.485831e-02
1.499447e-02
1.514133e-02
1.529908e-02
1.546753e-02
1.564603e-02
1.583365e-02
1.602949e-02
1.623300e-02
1.644408e-02
1.666292e-02
1.688973e-02
1.712439e-02
1.736633e-02
1.761447e-02
1.786746e-02
1.812391e-02
1.837923e-02
1.863175e-02
1.888049e-02
1.912452e-02
1.936288e-02
1.959447e-02
1.981801e-02
2.003216e-02
2.023556e-02
2.042691e-02
2.060510e-02
2.076914e-02
2.091821e-02
2.105159e-02
2.116865e-02
2.126885e-02
2.135174e-02
2.141695e-02
2.146426e-02
2.149358e-02
2.150496e-02
2.149859e-02
2.147483e-02
2.143436e-02
2.137789e-02
2.130612e-02
2.121984e-02
2.111992e-02
2.100736e-02
2.088320e-02
2.074859e-02
2.060474e-02
2.045289e-02
2.029433e-02
2.013037e-02
1.996231e-02
1.979146e-02
1.961908e-02
1.944644e-02
1.927478e-02
1.910530e-02
1.893918e-02
1.877758e-02
1.862161e-02
1.847236e-02
1.833086e-02
1.819810e-02
1.807500e-02
1.796244e-02
1.786120e-02
1.777199e-02
1.769540e-02
1.769502e-02
1.638619e-02
1.637390e-02
1.602485e-02
1.571318e-02
1.546038e-02
1.525930e-02
1.508894e-02
1.492857e-02
1.476812e-02
1.461010e-02
1.446440e-02
1.434058e-02
1.424243e-02
1.416708e-02
1.410785e-02
1.405840e-02
1.401557e-02
1.397989e-02
1.395414e-02
1.394119e-02
1.394242e-02
1.395734e-02
1.398418e-02
1.402106e-02
1.406682e-02
1.412108e-02
1.418417e-02
1.425665e-02
1.433886e-02
1.443092e-02
1.453282e-02
1.464473e-02
1.476702e-02
1.490017e-02
1.504445e-02
1.519966e-02
1.536509e-02
1.553982e-02
1.572303e-02
1.591432e-02
1.611383e-02
1.632201e-02
1.653923e-02
1.676552e-02
1.700031e-02
1.724257e-02
1.749099e-02
1.774428e-02
1.800136e-02
1.825804e-02
1.851248e-02
1.876382e-02
1.901106e-02
1.925304e-02
1.948837e-02
1.971558e-02
1.993321e-02
2.013988e-02
2.033437e-02
2.051564e-02
2.068276e-02
2.083489e-02
2.097127e-02
2.109120e-02
2.119405e-02
2.127928e-02
2.134649e-02
2.139541e-02
2.142593e-02
2.143810e-02
2.143208e-02
2.140822e-02
2.136712e-02
2.130961e-02
2.123635e-02
2.114814e-02
2.104586e-02
2.093050e-02
2.080314e-02
2.066492e-02
2.051705e-02
2.036078e-02
2.019738e-02
2.002813e-02
1.985432e-02
1.967722e-02
1.949808e-02
1.931815e-02
1.913867e-02
1.896085e-02
1.878586e-02
1.861487e-02
1.844899e-02
1.828930e-02
1.813684e-02
1.799259e-02
1.785749e-02
1.773239e-02
1.761813e-02
1.751542e-02
1.742488e-02
1.742456e-02
1.641337e-02
1.638161e-02
1.602832e-02
1.573143e-02
1.549050e-02
1.528526e-02
1.509431e-02
1.490625e-02
1.472253e-02
1.455261e-02
1.440612e-02
1.428704e-02
1.419248e-02
1.411550e-02
1.404939e-02
1.399069e-02
1.393981e-02
1.389957e-02
1.387286e-02
1.386105e-02
1.386345e-02
1.387807e-02
1.390268e-02
1.393593e-02
1.397748e-02
1.402763e-02
1.408694e-02
1.415579e-02
1.423428e-02
1.432246e-02
1.442055e-02
1.452905e-02
1.464852e-02
1.477925e-02
1.492101e-02
1.507308e-02
1.523450e-02
1.540454e-02
1.558299e-02
1.577021e-02
1.596687e-02
1.617356e-02
1.639035e-02
1.661674e-02
1.685172e-02
1.709404e-02
1.734256e-02
1.759638e-02
1.785485e-02
1.811426e-02
1.837225e-02
1.862782e-02
1.887970e-02
1.912642e-02
1.936641e-02
1.959810e-02
1.982005e-02
2.003100e-02
2.022981e-02
2.041547e-02
2.058704e-02
2.074360e-02
2.088430e-02
2.100830e-02
2.111490e-02
2.120350e-02
2.127366e-02
2.132508e-02
2.135764e-02
2.137134e-02
2.136634e-02
2.134295e-02
2.130169e-02
2.124348e-02
2.116901e-02
2.107906e-02
2.097452e-02
2.085640e-02
2.072578e-02
2.058381e-02
2.043168e-02
2.027064e-02
2.010194e-02
1.992683e-02
1.974659e-02
1.956248e-02
1.937577e-02
1.918770e-02
1.899952e-02
1.881245e-02
1.862769e-02
1.844640e-02
1.826970e-02
1.809868e-02
1.793437e-02
1.777777e-02
1.762982e-02
1.749143e-02
1.736344e-02
1.724662e-02
1.714166e-02
1.714140e-02
1.640157e-02
1.636903e-02
1.602736e-02
1.574364e-02
1.550040e-02
1.527551e-02
1.505626e-02
1.484318e-02
1.464554e-02
1.447329e-02
1.433075e-02
1.421502e-02
1.411875e-02
1.403464e-02
1.395880e-02
1.389147e-02
1.383551e-02
1.379399e-02
1.376831e-02
1.375766e-02
1.375976e-02
1.377207e-02
1.379282e-02
1.382157e-02
1.385870e-02
1.390479e-02
1.396024e-02
1.402520e-02
1.409973e-02
1.418410e-02
1.427888e-02
1.438467e-02
1.450178e-02
1.462992e-02
1.476833e-02
1.491604e-02
1.507240e-02
1.523738e-02
1.541158e-02
1.559589e-02
1.579106e-02
1.599724e-02
1.621397e-02
1.644024e-02
1.667491e-02
1.691698e-02
1.716577e-02
1.742089e-02
1.768204e-02
1.794580e-02
1.820887e-02
1.846993e-02
1.872740e-02
1.897963e-02
1.922499e-02
1.946200e-02
1.968934e-02
1.990584e-02
2.011040e-02
2.030196e-02
2.047947e-02
2.064188e-02
2.078819e-02
2.091749e-02
2.102901e-02
2.112209e-02
2.119628e-02
2.125123e-02
2.128679e-02
2.130292e-02
2.129975e-02
2.127754e-02
2.123673e-02
2.117834e-02
2.110307e-02
2.101171e-02
2.090516e-02
2.078444e-02
2.065061e-02
2.050483e-02
2.034826e-02
2.018214e-02
2.000771e-02
1.982622e-02
1.963894e-02
1.944714e-02
1.925212e-02
1.905515e-02
1.885749e-02
1.866038e-02
1.846501e-02
1.827257e-02
1.808418e-02
1.790093e-02
1.772387e-02
1.755404e-02
1.739241e-02
1.723992e-02
1.709748e-02
1.696592e-02
1.684599e-02
1.684579e-02
1.636899e-02
1.635032e-02
1.602004e-02
1.573572e-02
1.547392e-02
1.522038e-02
1.497453e-02
1.474552e-02
1.454393e-02
1.437475e-02
1.423528e-02
1.411777e-02
1.401417e-02
1.391990e-02
1.383486e-02
1.376195e-02
1.370442e-02
1.366382e-02
1.363930e-02
1.362832e-02
1.362796e-02
1.363614e-02
1.365203e-02
1.367602e-02
1.370878e-02
1.375078e-02
1.380219e-02
1.386310e-02
1.393380e-02
1.401490e-02
1.410701e-02
1.421042e-02
1.432479e-02
1.444927e-02
1.458290e-02
1.472509e-02
1.487600e-02
1.503646e-02
1.520759e-02
1.539027e-02
1.558474e-02
1.579052e-02
1.600666e-02
1.623211e-02
1.646602e-02
1.670798e-02
1.695783e-02
1.721550e-02
1.748069e-02
1.775020e-02
1.801941e-02
1.828670e-02
1.855036e-02
1.880871e-02
1.906027e-02
1.930370e-02
1.953778e-02
1.976137e-02
1.997328e-02
2.017231e-02
2.035723e-02
2.052687e-02
2.068012e-02
2.081601e-02
2.093371e-02
2.103254e-02
2.111198e-02
2.117166e-02
2.121135e-02
2.123096e-02
2.123057e-02
2.121040e-02
2.117085e-02
2.111292e-02
2.103741e-02
2.094513e-02
2.083695e-02
2.071389e-02
2.057700e-02
2.042741e-02
2.026628e-02
2.009484e-02
1.991432e-02
1.972600e-02
1.953116e-02
1.933113e-02
1.912720e-02
1.892069e-02
1.871285e-02
1.850495e-02
1.829820e-02
1.809376e-02
1.789280e-02
1.769643e-02
1.750573e-02
1.732177e-02
1.714559e-02
1.697819e-02
1.682054e-02
1.667353e-02
1.653801e-02
1.653787e-02
1.632626e-02
1.632683e-02
1.599547e-02
1.569340e-02
1.540245e-02
1.512051e-02