# vtk DataFile Version 3.0
Scalar Field
ASCII
DATASET RECTILINEAR_GRID
DIMENSIONS 102 102 1
X_COORDINATES 102 double
0.000000 0.100000 0.200000 0.300000 0.400000 0.500000 0.600000 0.700000 0.800000 0.900000 1.000000 1.100000 1.200000 1.300000 1.400000 1.500000 1.600000 1.700000 1.800000 1.900000 2.000000 2.100000 2.200000 2.300000 2.400000 2.500000 2.600000 2.700000 2.800000 2.900000 3.000000 3.100000 3.200000 3.300000 3.400000 3.500000 3.600000 3.700000 3.800000 3.900000 4.000000 4.100000 4.200000 4.300000 4.400000 4.500000 4.600000 4.700000 4.800000 4.900000 5.000000 5.100000 5.200000 5.300000 5.400000 5.500000 5.600000 5.700000 5.800000 5.900000 6.000000 6.100000 6.200000 6.300000 6.400000 6.500000 6.600000 6.700000 6.800000 6.900000 7.000000 7.100000 7.200000 7.300000 7.400000 7.500000 7.600000 7.700000 7.800000 7.900000 8.000000 8.100000 8.200000 8.300000 8.400000 8.500000 8.600000 8.700000 8.800000 8.900000 9.000000 9.100000 9.200000 9.300000 9.400000 9.500000 9.600000 9.700000 9.800000 9.900000 10.000000 10.100000 
Y_COORDINATES 102 double
0.000000 0.100000 0.200000 0.300000 0.400000 0.500000 0.600000 0.700000 0.800000 0.900000 1.000000 1.100000 1.200000 1.300000 1.400000 1.500000 1.600000 1.700000 1.800000 1.900000 2.000000 2.100000 2.200000 2.300000 2.400000 2.500000 2.600000 2.700000 2.800000 2.900000 3.000000 3.100000 3.200000 3.300000 3.400000 3.500000 3.600000 3.700000 3.800000 3.900000 4.000000 4.100000 4.200000 4.300000 4.400000 4.500000 4.600000 4.700000 4.800000 4.900000 5.000000 5.100000 5.200000 5.300000 5.400000 5.500000 5.600000 5.700000 5.800000 5.900000 6.000000 6.100000 6.200000 6.300000 6.400000 6.500000 6.600000 6.700000 6.800000 6.900000 7.000000 7.100000 7.200000 7.300000 7.400000 7.500000 7.600000 7.700000 7.800000 7.900000 8.000000 8.100000 8.200000 8.300000 8.400000 8.500000 8.600000 8.700000 8.800000 8.900000 9.000000 9.100000 9.200000 9.300000 9.400000 9.500000 9.600000 9.700000 9.800000 9.900000 10.000000 10.100000 
Z_COORDINATES 1 double
0.0
POINT_DATA 10404
SCALARS Pressure double 1
LOOKUP_TABLE default
0.000000e+00
1.433393e-02
1.426802e-02
1.402709e-02
1.372890e-02
1.347441e-02
1.331524e-02
1.324433e-02
1.321425e-02
1.316864e-02
1.307014e-02
1.291346e-02
1.272155e-02
1.253049e-02
1.237232e-02
1.226338e-02
1.220189e-02
1.217340e-02
1.216004e-02
1.214885e-02
1.213615e-02
1.212713e-02
1.213195e-02
1.216068e-02
1.221935e-02
1.230832e-02
1.242320e-02
1.255744e-02
1.270522e-02
1.286355e-02
1.303279e-02
1.321576e-02
1.341593e-02
1.363573e-02
1.387548e-02
1.413343e-02
1.440654e-02
1.469167e-02
1.498655e-02
1.529022e-02
1.560279e-02
1.592485e-02
1.625674e-02
1.659809e-02
1.694763e-02
1.730339e-02
1.766307e-02
1.802439e-02
1.838530e-02
1.874407e-02
1.909924e-02
1.944945e-02
1.979328e-02
2.012915e-02
2.045538e-02
2.077020e-02
2.107193e-02
2.135900e-02
2.163006e-02
2.188390e-02
2.211945e-02
2.233571e-02
2.253176e-02
2.270672e-02
2.285978e-02
2.299026e-02
2.309760e-02
2.318146e-02
2.324167e-02
2.327827e-02
2.329146e-02
2.328161e-02
2.324925e-02
2.319505e-02
2.311981e-02
2.302451e-02
2.291026e-02
2.277831e-02
2.263008e-02
2.246713e-02
2.229114e-02
2.210393e-02
2.190743e-02
2.170372e-02
2.149495e-02
2.128341e-02
2.107151e-02
2.086174e-02
2.065671e-02
2.045912e-02
2.027176e-02
2.009748e-02
1.993921e-02
1.979985e-02
1.968224e-02
1.958902e-02
1.952232e-02
1.948327e-02
1.947096e-02
1.948051e-02
1.949966e-02
0.000000e+00
1.433393e-02
1.436097e-02
1.419330e-02
1.391318e-02
1.364126e-02
1.345286e-02
1.336242e-02
1.333263e-02
1.330423e-02
1.322841e-02
1.308708e-02
1.289517e-02
1.268798e-02
1.250279e-02
1.236376e-02
1.227569e-02
1.222724e-02
1.219984e-02
1.217733e-02
1.215238e-02
1.212765e-02
1.211271e-02
1.211884e-02
1.215412e-02
1.222093e-02
1.231604e-02
1.243298e-02
1.256513e-02
1.270835e-02
1.286200e-02
1.302846e-02
1.321141e-02
1.341390e-02
1.363701e-02
1.387954e-02
1.413865e-02
1.441106e-02
1.469416e-02
1.498665e-02
1.528848e-02
1.560032e-02
1.592279e-02
1.625586e-02
1.659856e-02
1.694914e-02
1.730536e-02
1.766494e-02
1.802582e-02
1.838623e-02
1.874464e-02
1.909970e-02
1.945001e-02
1.979402e-02
2.013004e-02
2.045627e-02
2.077097e-02
2.107249e-02
2.135937e-02
2.163030e-02
2.188413e-02
2.211977e-02
2.233620e-02
2.253244e-02
2.270755e-02
2.286069e-02
2.299117e-02
2.309847e-02
2.318226e-02
2.324241e-02
2.327895e-02
2.329210e-02
2.328224e-02
2.324988e-02
2.319568e-02
2.312044e-02
2.302515e-02
2.291089e-02
2.277895e-02
2.263073e-02
2.246779e-02
2.229181e-02
2.210462e-02
2.190813e-02
2.170442e-02
2.149565e-02
2.128411e-02
2.107220e-02
2.086242e-02
2.065739e-02
2.045980e-02
2.027244e-02
2.009817e-02
1.993990e-02
1.980054e-02
1.968294e-02
1.958973e-02
1.952304e-02
1.948399e-02
1.947169e-02
1.948125e-02
1.950040e-02
1.949966e-02
1.427863e-02
1.420155e-02
1.398803e-02
1.377783e-02
1.364619e-02
1.359675e-02
1.358953e-02
1.356939e-02
1.349504e-02
1.335551e-02
1.316953e-02
1.297215e-02
1.279732e-02
1.266493e-02
1.257665e-02
1.252031e-02
1.247885e-02
1.243901e-02
1.239638e-02
1.235551e-02
1.232632e-02
1.231906e-02
1.234020e-02
1.239062e-02
1.246641e-02
1.256136e-02
1.266986e-02
1.278904e-02
1.291929e-02
1.306339e-02
1.322478e-02
1.340583e-02
1.360687e-02
1.382621e-02
1.406097e-02
1.430828e-02
1.456616e-02
1.483395e-02
1.511201e-02
1.540109e-02
1.570165e-02
1.601336e-02
1.633506e-02
1.666494e-02
1.700098e-02
1.734121e-02
1.768398e-02
1.802788e-02
1.837163e-02
1.871388e-02
1.905321e-02
1.938804e-02
1.971666e-02
2.003730e-02
2.034829e-02
2.064807e-02
2.093524e-02
2.120855e-02
2.146681e-02
2.170891e-02
2.193375e-02
2.214026e-02
2.232743e-02
2.249435e-02
2.264026e-02
2.276456e-02
2.286683e-02
2.294682e-02
2.300444e-02
2.303976e-02
2.305299e-02
2.304448e-02
2.301473e-02
2.296437e-02
2.289420e-02
2.280515e-02
2.269831e-02
2.257489e-02
2.243626e-02
2.228391e-02
2.211945e-02
2.194462e-02
2.176125e-02
2.157132e-02
2.137689e-02
2.118013e-02
2.098330e-02
2.078875e-02
2.059892e-02
2.041629e-02
2.024343e-02
2.008289e-02
1.993727e-02
1.980907e-02
1.970067e-02
1.961413e-02
1.955102e-02
1.951196e-02
1.949612e-02
1.950052e-02
1.951980e-02
1.951907e-02
1.412252e-02
1.400170e-02
1.384962e-02
1.377628e-02
1.378402e-02
1.381873e-02
1.381956e-02
1.374861e-02
1.360389e-02
1.341367e-02
1.321876e-02
1.305336e-02
1.293317e-02
1.285400e-02
1.279915e-02
1.275017e-02
1.269563e-02
1.263482e-02
1.257608e-02
1.253163e-02
1.251192e-02
1.252186e-02
1.256009e-02
1.262077e-02
1.269699e-02
1.278370e-02
1.287950e-02
1.298643e-02
1.310841e-02
1.324914e-02
1.341043e-02
1.359158e-02
1.378997e-02
1.400228e-02
1.422582e-02
1.445931e-02
1.470298e-02
1.495786e-02
1.522502e-02
1.550479e-02
1.579647e-02
1.609850e-02
1.640887e-02
1.672559e-02
1.704704e-02
1.737199e-02
1.769946e-02
1.802852e-02
1.835795e-02
1.868619e-02
1.901159e-02
1.933238e-02
1.964681e-02
1.995327e-02
2.025030e-02
2.053662e-02
2.081103e-02
2.107236e-02
2.131944e-02
2.155110e-02
2.176617e-02
2.196356e-02
2.214229e-02
2.230155e-02
2.244067e-02
2.255916e-02
2.265669e-02
2.273306e-02
2.278820e-02
2.282218e-02
2.283518e-02
2.282756e-02
2.279980e-02
2.275251e-02
2.268649e-02
2.260263e-02
2.250200e-02
2.238577e-02
2.225526e-02
2.211189e-02
2.195721e-02
2.179289e-02
2.162069e-02
2.144248e-02
2.126023e-02
2.107600e-02
2.089193e-02
2.071020e-02
2.053310e-02
2.036291e-02
2.020196e-02
2.005259e-02
1.991709e-02
1.979767e-02
1.969638e-02
1.961499e-02
1.955481e-02
1.951657e-02
1.950018e-02
1.950479e-02
1.952950e-02
1.952878e-02
1.397576e-02
1.387783e-02
1.384770e-02
1.390669e-02
1.399191e-02
1.402923e-02
1.397557e-02
1.383250e-02
1.363702e-02
1.343876e-02
1.327678e-02
1.316623e-02
1.309848e-02
1.305130e-02
1.300241e-02
1.293976e-02
1.286491e-02
1.278986e-02
1.273006e-02
1.269752e-02
1.269675e-02
1.272456e-02
1.277307e-02
1.283395e-02
1.290202e-02
1.297685e-02
1.306198e-02
1.316271e-02
1.328341e-02
1.342571e-02
1.358812e-02
1.376707e-02
1.395864e-02
1.416010e-02
1.437068e-02
1.459137e-02
1.482397e-02
1.506994e-02
1.532961e-02
1.560201e-02
1.588519e-02
1.617690e-02
1.647513e-02
1.677850e-02
1.708615e-02
1.739752e-02
1.771197e-02
1.802852e-02
1.834567e-02
1.866147e-02
1.897412e-02
1.928189e-02
1.958323e-02
1.987681e-02
2.016143e-02
2.043597e-02
2.069927e-02
2.095013e-02
2.118729e-02
2.140949e-02
2.161558e-02
2.180451e-02
2.197539e-02
2.212753e-02
2.226038e-02
2.237352e-02
2.246667e-02
2.253963e-02
2.259233e-02
2.262483e-02
2.263732e-02
2.263013e-02
2.260376e-02
2.255882e-02
2.249607e-02
2.241640e-02
2.232084e-02
2.221052e-02
2.208672e-02
2.195080e-02
2.180427e-02
2.164872e-02
2.148585e-02
2.131744e-02
2.114537e-02
2.097160e-02
2.079811e-02
2.062698e-02
2.046031e-02
2.030024e-02
2.014889e-02
2.000838e-02
1.988080e-02
1.976812e-02
1.967218e-02
1.959458e-02
1.953663e-02
1.949929e-02
1.948319e-02
1.948890e-02
1.951763e-02
1.951691e-02
1.392762e-02
1.389713e-02
1.398296e-02
1.411326e-02
1.419419e-02
1.417059e-02
1.404013e-02
1.384398e-02
1.364020e-02
1.347555e-02
1.336878e-02
1.330995e-02
1.327237e-02
1.322896e-02
1.316488e-02
1.308181e-02
1.299412e-02
1.292042e-02
1.287509e-02
1.286338e-02
1.288131e-02
1.291934e-02
1.296760e-02
1.302022e-02
1.307710e-02
1.314284e-02
1.322393e-02
1.332555e-02
1.344949e-02
1.359384e-02
1.375435e-02
1.392654e-02
1.410752e-02
1.429683e-02
1.449604e-02
1.470754e-02
1.493318e-02
1.517338e-02
1.542701e-02
1.569185e-02
1.596546e-02
1.624585e-02
1.653181e-02
1.682277e-02
1.711850e-02
1.741858e-02
1.772219e-02
1.802799e-02
1.833412e-02
1.863843e-02
1.893923e-02
1.923506e-02
1.952469e-02
1.980703e-02
2.008100e-02
2.034545e-02
2.059913e-02
2.084072e-02
2.106891e-02
2.128244e-02
2.148022e-02
2.166134e-02
2.182504e-02
2.197072e-02
2.209790e-02
2.220620e-02
2.229532e-02
2.236506e-02
2.241535e-02
2.244624e-02
2.245792e-02
2.245074e-02
2.242521e-02
2.238192e-02
2.232162e-02
2.224519e-02
2.215361e-02
2.204800e-02
2.192959e-02
2.179971e-02
2.165980e-02
2.151141e-02
2.135616e-02
2.119577e-02
2.103202e-02
2.086674e-02
2.070183e-02
2.053923e-02
2.038089e-02
2.022880e-02
2.008493e-02
1.995123e-02
1.982959e-02
1.972181e-02
1.962960e-02
1.955448e-02
1.949780e-02
1.946072e-02
1.944436e-02
1.944998e-02
1.947950e-02
1.947879e-02
1.402258e-02
1.406794e-02
1.421062e-02
1.432871e-02
1.433939e-02
1.423036e-02
1.404066e-02
1.383307e-02
1.366199e-02
1.355233e-02
1.349635e-02
1.346550e-02
1.342872e-02
1.336741e-02
1.328148e-02
1.318585e-02
1.310119e-02
1.304419e-02
1.302154e-02
1.302940e-02
1.305743e-02
1.309461e-02
1.313425e-02
1.317609e-02
1.322524e-02
1.328894e-02
1.337303e-02
1.347954e-02
1.360644e-02
1.374915e-02
1.390287e-02
1.406465e-02
1.423425e-02
1.441358e-02
1.460542e-02
1.481184e-02
1.503333e-02
1.526864e-02
1.551548e-02
1.577136e-02
1.603435e-02
1.630343e-02
1.657829e-02
1.685886e-02
1.714491e-02
1.743567e-02
1.772985e-02
1.802585e-02
1.832169e-02
1.861531e-02
1.890537e-02
1.919075e-02
1.947042e-02
1.974334e-02
2.000834e-02
2.026412e-02
2.050930e-02
2.074252e-02
2.096248e-02
2.116805e-02
2.135829e-02
2.153238e-02
2.168969e-02
2.182966e-02
2.195181e-02
2.205575e-02
2.214117e-02
2.220786e-02
2.225575e-02
2.228490e-02
2.229550e-02
2.228796e-02
2.226274e-02
2.222046e-02
2.216186e-02
2.208777e-02
2.199918e-02
2.189717e-02
2.178293e-02
2.165777e-02
2.152308e-02
2.138035e-02
2.123115e-02
2.107710e-02
2.091991e-02
2.076131e-02
2.060310e-02
2.044711e-02
2.029516e-02
2.014910e-02
2.001077e-02
1.988198e-02
1.976448e-02
1.965993e-02
1.956992e-02
1.949593e-02
1.943932e-02
1.940141e-02
1.938350e-02
1.938712e-02
1.941423e-02
1.941354e-02
1.424888e-02
1.434556e-02
1.446516e-02
1.450215e-02
1.441531e-02
1.423653e-02
1.402829e-02
1.384976e-02
1.373207e-02
1.367181e-02
1.364139e-02
1.360780e-02
1.354929e-02
1.346318e-02
1.336339e-02
1.327118e-02
1.320462e-02
1.317174e-02
1.316940e-02
1.318720e-02
1.321367e-02
1.324160e-02
1.327051e-02
1.330557e-02
1.335434e-02
1.342290e-02
1.351338e-02
1.362370e-02
1.374920e-02
1.388510e-02
1.402860e-02
1.417971e-02
1.434063e-02
1.451428e-02
1.470277e-02
1.490648e-02
1.512410e-02
1.535329e-02
1.559168e-02
1.583755e-02
1.609014e-02
1.634933e-02
1.661521e-02
1.688755e-02
1.716562e-02
1.744813e-02
1.773352e-02
1.802022e-02
1.830654e-02
1.859066e-02
1.887158e-02
1.914834e-02
1.941988e-02
1.968501e-02
1.994235e-02
2.019049e-02
2.042799e-02
2.065358e-02
2.086608e-02
2.106455e-02
2.124814e-02
2.141615e-02
2.156794e-02
2.170295e-02
2.182068e-02
2.192071e-02
2.200271e-02
2.206649e-02
2.211200e-02
2.213930e-02
2.214862e-02
2.214036e-02
2.211501e-02
2.207317e-02
2.201556e-02
2.194301e-02
2.185649e-02
2.175706e-02
2.164589e-02
2.152424e-02
2.139347e-02
2.125502e-02
2.111037e-02
2.096110e-02
2.080884e-02
2.065523e-02
2.050198e-02
2.035081e-02
2.020345e-02
2.006164e-02
1.992708e-02
1.980145e-02
1.968640e-02
1.958348e-02
1.949420e-02
1.941997e-02
1.936214e-02
1.932205e-02
1.930108e-02
1.930073e-02
1.932276e-02
1.932208e-02
1.455104e-02
1.465768e-02
1.468876e-02
1.461485e-02
1.444474e-02
1.423664e-02
1.405069e-02
1.392209e-02
1.385176e-02
1.381468e-02
1.377796e-02
1.371826e-02
1.363080e-02
1.352795e-02
1.343039e-02
1.335643e-02
1.331468e-02
1.330255e-02
1.330990e-02
1.332536e-02
1.334175e-02
1.335863e-02
1.338125e-02
1.341709e-02
1.347214e-02
1.354830e-02
1.364330e-02
1.375243e-02
1.387113e-02
1.399702e-02
1.413053e-02
1.427417e-02
1.443092e-02
1.460273e-02
1.478974e-02
1.499044e-02
1.520247e-02
1.542367e-02
1.565266e-02
1.588900e-02
1.613284e-02
1.638434e-02
1.664326e-02
1.690876e-02
1.717955e-02
1.745413e-02
1.773109e-02
1.800924e-02
1.828733e-02
1.856366e-02
1.883734e-02
1.910730e-02
1.937224e-02
1.963075e-02
1.988134e-02
2.012258e-02
2.035315e-02
2.057194e-02
2.077796e-02
2.097036e-02
2.114837e-02
2.131128e-02
2.145842e-02
2.158917e-02
2.170301e-02
2.179951e-02
2.187837e-02
2.193940e-02
2.198258e-02
2.200799e-02
2.201586e-02
2.200660e-02
2.198072e-02
2.193881e-02
2.188158e-02
2.180985e-02
2.172459e-02
2.162682e-02
2.151770e-02
2.139845e-02
2.127039e-02
2.113490e-02
2.099343e-02
2.084749e-02
2.069863e-02
2.054844e-02
2.039854e-02
2.025055e-02
2.010613e-02
1.996689e-02
1.983445e-02
1.971038e-02
1.959622e-02
1.949343e-02
1.940343e-02
1.932759e-02
1.926720e-02
1.922357e-02
1.919802e-02
1.919193e-02
1.920679e-02
1.920612e-02
1.485792e-02
1.493620e-02
1.485114e-02
1.467984e-02
1.446767e-02
1.427279e-02
1.413163e-02
1.404774e-02
1.399848e-02
1.395210e-02
1.388515e-02
1.379199e-02
1.368393e-02
1.358081e-02
1.350039e-02
1.345099e-02
1.342988e-02
1.342698e-02
1.343115e-02
1.343563e-02
1.344043e-02
1.345112e-02
1.347520e-02
1.351824e-02
1.358169e-02
1.366280e-02
1.375669e-02
1.385903e-02
1.396797e-02
1.408456e-02
1.421172e-02
1.435253e-02
1.450872e-02
1.468003e-02
1.486465e-02
1.506018e-02
1.526463e-02
1.547703e-02
1.569736e-02
1.592604e-02
1.616335e-02
1.640898e-02
1.666199e-02
1.692100e-02
1.718458e-02
1.745147e-02
1.772076e-02
1.799175e-02
1.826343e-02
1.853391e-02
1.880209e-02
1.906662e-02
1.932599e-02
1.957865e-02
1.982317e-02
2.005827e-02
2.028285e-02
2.049592e-02
2.069663e-02
2.088414e-02
2.105765e-02
2.121640e-02
2.135964e-02
2.148676e-02
2.159720e-02
2.169057e-02
2.176657e-02
2.182506e-02
2.186601e-02
2.188953e-02
2.189586e-02
2.188539e-02
2.185865e-02
2.181624e-02
2.175885e-02
2.168732e-02
2.160258e-02
2.150564e-02
2.139764e-02
2.127976e-02
2.115328e-02
2.101956e-02
2.087998e-02
2.073602e-02
2.058916e-02
2.044093e-02
2.029288e-02
2.014656e-02
2.000353e-02
1.986533e-02
1.973348e-02
1.960946e-02
1.949471e-02
1.939062e-02
1.929854e-02
1.921974e-02
1.915548e-02
1.910698e-02
1.907547e-02
1.906215e-02
1.906826e-02
1.906761e-02
1.511192e-02
1.514141e-02
1.495437e-02
1.472851e-02
1.451978e-02
1.436376e-02
1.426446e-02
1.420003e-02
1.413943e-02
1.405965e-02
1.395523e-02
1.383752e-02
1.372609e-02
1.363817e-02
1.358128e-02
1.355187e-02
1.353927e-02
1.353226e-02
1.352450e-02
1.351676e-02
1.351524e-02
1.352772e-02
1.355952e-02
1.361137e-02
1.367988e-02
1.375978e-02
1.384681e-02
1.393962e-02
1.403995e-02
1.415126e-02
1.427680e-02
1.441811e-02
1.457452e-02
1.474385e-02
1.492355e-02
1.511182e-02
1.530805e-02
1.551265e-02
1.572636e-02
1.594957e-02
1.618194e-02
1.642240e-02
1.666950e-02
1.692187e-02
1.717841e-02
1.743847e-02
1.770158e-02
1.796727e-02
1.823446e-02
1.850071e-02
1.876459e-02
1.902453e-02
1.927896e-02
1.952642e-02
1.976569e-02
1.999569e-02
2.021547e-02
2.042413e-02
2.062079e-02
2.080455e-02
2.097455e-02
2.112995e-02
2.127000e-02
2.139405e-02
2.150160e-02
2.159225e-02
2.166575e-02
2.172196e-02
2.176087e-02
2.178258e-02
2.178732e-02
2.177549e-02
2.174764e-02
2.170437e-02
2.164639e-02
2.157449e-02
2.148961e-02
2.139275e-02
2.128501e-02
2.116755e-02
2.104163e-02
2.090856e-02
2.076970e-02
2.062647e-02
2.048032e-02
2.033270e-02
2.018512e-02
2.003906e-02
1.989600e-02
1.975741e-02
1.962471e-02
1.949933e-02
1.938261e-02
1.927587e-02
1.918039e-02
1.909738e-02
1.902800e-02
1.897341e-02
1.893469e-02
1.891293e-02
1.890910e-02
1.890847e-02
1.528735e-02
1.527044e-02
1.502397e-02
1.479261e-02
1.461706e-02
1.450036e-02
1.441962e-02
1.434292e-02
1.424696e-02
1.412673e-02
1.399441e-02
1.387039e-02
1.377207e-02
1.370634e-02
1.366848e-02
1.364665e-02
1.362891e-02
1.360900e-02
1.358835e-02
1.357407e-02
1.357452e-02
1.359503e-02
1.363580e-02
1.369258e-02
1.375958e-02
1.383241e-02
1.391007e-02
1.399490e-02
1.409096e-02
1.420175e-02
1.432868e-02
1.447075e-02
1.462540e-02
1.478990e-02
1.496257e-02
1.514313e-02
1.533238e-02
1.553134e-02
1.574054e-02
1.595959e-02
1.618735e-02
1.642233e-02
1.666321e-02
1.690910e-02
1.715956e-02
1.741437e-02
1.767321e-02
1.793539e-02
1.819954e-02
1.846254e-02
1.872277e-02
1.897865e-02
1.922877e-02
1.947192e-02
1.970707e-02
1.993329e-02
2.014966e-02
2.035524e-02
2.054903e-02
2.073007e-02
2.089742e-02
2.105022e-02
2.118773e-02
2.130933e-02
2.141454e-02
2.150299e-02
2.157441e-02
2.162868e-02
2.166578e-02
2.168580e-02
2.168898e-02
2.167571e-02
2.164658e-02
2.160218e-02
2.154321e-02
2.147047e-02
2.138488e-02
2.128741e-02
2.117916e-02
2.106126e-02
2.093496e-02
2.080153e-02
2.066231e-02
2.051868e-02
2.037203e-02
2.022380e-02
2.007541e-02
1.992830e-02
1.978387e-02
1.964354e-02
1.950867e-02
1.938059e-02
1.926060e-02
1.914994e-02
1.904983e-02
1.896139e-02
1.888575e-02
1.882394e-02
1.877696e-02
1.874574e-02
1.873110e-02
1.873049e-02
1.539288e-02
1.534955e-02
1.509235e-02
1.488959e-02
1.475154e-02
1.465325e-02
1.456023e-02
1.444723e-02
1.430881e-02
1.415815e-02
1.401718e-02
1.390451e-02
1.382722e-02
1.377962e-02
1.374841e-02
1.372036e-02
1.368869e-02
1.365516e-02
1.362771e-02
1.361553e-02
1.362428e-02
1.365386e-02
1.369934e-02
1.375418e-02
1.381377e-02
1.387726e-02
1.394748e-02
1.402895e-02
1.412549e-02
1.423845e-02
1.436656e-02
1.450694e-02
1.465674e-02
1.481433e-02
1.497974e-02
1.515406e-02
1.533856e-02
1.553386e-02
1.573954e-02
1.595441e-02
1.617698e-02
1.640604e-02
1.664091e-02
1.688139e-02
1.712746e-02
1.737890e-02
1.763511e-02
1.789498e-02
1.815683e-02
1.841705e-02
1.867406e-02
1.892653e-02
1.917329e-02
1.941338e-02
1.964584e-02
1.986975e-02
2.008407e-02
2.028775e-02
2.047971e-02
2.065892e-02
2.082441e-02
2.097537e-02
2.111107e-02
2.123091e-02
2.133442e-02
2.142123e-02
2.149106e-02
2.154378e-02
2.157936e-02
2.159789e-02
2.159960e-02
2.158488e-02
2.155436e-02
2.150862e-02
2.144837e-02
2.137438e-02
2.128757e-02
2.118890e-02
2.107945e-02
2.096036e-02
2.083284e-02
2.069814e-02
2.055758e-02
2.041250e-02
2.026427e-02
2.011427e-02
1.996388e-02
1.981449e-02
1.966746e-02
1.952413e-02
1.938582e-02
1.925380e-02
1.912931e-02
1.901354e-02
1.890762e-02
1.881265e-02
1.872966e-02
1.865962e-02
1.860344e-02
1.856195e-02
1.853584e-02
1.853525e-02
1.545992e-02
1.541652e-02
1.518295e-02
1.501684e-02
1.489772e-02
1.478767e-02
1.465788e-02
1.450087e-02
1.432992e-02
1.416868e-02
1.403776e-02
1.394539e-02
1.388567e-02
1.384399e-02
1.380555e-02
1.376247e-02
1.371633e-02
1.367563e-02
1.365038e-02
1.364679e-02
1.366475e-02
1.369888e-02
1.374201e-02
1.378902e-02
1.383919e-02
1.389562e-02
1.396324e-02
1.404609e-02
1.414549e-02
1.425995e-02
1.438638e-02
1.452181e-02
1.466475e-02
1.481545e-02
1.497526e-02
1.514562e-02
1.532718e-02
1.551948e-02
1.572126e-02
1.593112e-02
1.614799e-02
1.637143e-02
1.660149e-02
1.683833e-02
1.708183e-02
1.733138e-02
1.758588e-02
1.784387e-02
1.810369e-02
1.836149e-02
1.861597e-02
1.886607e-02
1.911084e-02
1.934936e-02
1.958064e-02
1.980358e-02
2.001704e-02
2.021984e-02
2.041087e-02
2.058910e-02
2.075359e-02
2.090353e-02
2.103824e-02
2.115710e-02
2.125963e-02
2.134542e-02
2.141421e-02
2.146582e-02
2.150023e-02
2.151753e-02
2.151795e-02
2.150185e-02
2.146991e-02
2.142271e-02
2.136093e-02
2.128537e-02
2.119692e-02
2.109655e-02
2.098532e-02
2.086436e-02
2.073486e-02
2.059807e-02
2.045528e-02
2.030780e-02
2.015697e-02
2.000414e-02
1.985066e-02
1.969785e-02
1.954705e-02
1.939956e-02
1.925663e-02
1.911949e-02
1.898934e-02
1.886732e-02
1.875450e-02
1.865194e-02
1.856061e-02
1.848143e-02
1.841523e-02
1.836276e-02
1.832464e-02
1.832408e-02
1.552449e-02
1.550202e-02
1.530115e-02
1.515514e-02
1.502507e-02
1.487777e-02
1.470214e-02
1.451019e-02
1.432658e-02
1.417414e-02
1.406304e-02
1.398805e-02
1.393382e-02
1.388403e-02
1.382939e-02
1.377077e-02
1.371687e-02
1.367831e-02
1.366192e-02
1.366778e-02
1.369026e-02
1.372169e-02
1.375657e-02
1.379397e-02
1.383731e-02
1.389177e-02
1.396150e-02
1.404781e-02
1.414898e-02
1.426173e-02
1.438309e-02
1.451168e-02
1.464801e-02
1.479366e-02
1.495018e-02
1.511818e-02
1.529711e-02
1.548569e-02
1.568256e-02
1.588687e-02
1.609845e-02
1.631761e-02
1.654468e-02
1.677961e-02
1.702178e-02
1.727007e-02
1.752302e-02
1.777918e-02
1.803724e-02
1.829334e-02
1.854643e-02
1.879561e-02
1.903995e-02
1.927840e-02
1.950980e-02
1.973292e-02
1.994651e-02
2.014936e-02
2.034038e-02
2.051855e-02
2.068298e-02
2.083286e-02
2.096747e-02
2.108619e-02
2.118850e-02
2.127396e-02
2.134229e-02
2.139331e-02
2.142698e-02
2.144340e-02
2.144278e-02
2.142547e-02
2.139215e-02
2.134342e-02
2.127998e-02
2.120261e-02
2.111220e-02
2.100971e-02
2.089620e-02
2.077279e-02
2.064066e-02
2.050105e-02
2.035522e-02
2.020448e-02
2.005012e-02
1.989348e-02
1.973587e-02
1.957859e-02
1.942294e-02
1.927017e-02
1.912151e-02
1.897815e-02
1.884125e-02
1.871189e-02
1.859114e-02
1.848000e-02
1.837939e-02
1.829022e-02
1.821325e-02
1.814920e-02
1.809864e-02
1.809811e-02
1.561076e-02
1.561746e-02
1.543425e-02
1.527838e-02
1.511041e-02
1.491480e-02
1.470091e-02
1.449332e-02
1.431669e-02
1.418341e-02
1.408964e-02
1.401995e-02
1.395685e-02
1.388960e-02
1.381808e-02
1.375074e-02
1.369862e-02
1.366903e-02
1.366235e-02
1.367278e-02
1.369231e-02
1.371510e-02
1.374010e-02
1.377076e-02
1.381255e-02
1.386970e-02
1.394337e-02
1.403165e-02
1.413106e-02
1.423861e-02
1.435312e-02
1.447534e-02
1.460711e-02
1.475002e-02
1.490461e-02
1.507023e-02
1.524550e-02
1.542917e-02
1.562058e-02
1.581988e-02
1.602764e-02
1.624435e-02
1.647004e-02
1.670405e-02
1.694523e-02
1.719214e-02
1.744344e-02
1.769800e-02
1.795494e-02
1.821059e-02
1.846381e-02
1.871363e-02
1.895898e-02
1.919862e-02
1.943123e-02
1.965549e-02
1.987014e-02
2.007401e-02
2.026602e-02
2.044520e-02
2.061062e-02
2.076145e-02
2.089693e-02
2.101640e-02
2.111929e-02
2.120516e-02
2.127370e-02
2.132473e-02
2.135818e-02
2.137415e-02
2.137283e-02
2.135455e-02
2.131998e-02
2.126977e-02
2.120461e-02
2.112529e-02
2.103267e-02
2.092774e-02
2.081155e-02
2.068520e-02
2.054987e-02
2.040679e-02
2.025721e-02
2.010241e-02
1.994369e-02
1.978233e-02
1.961965e-02
1.945691e-02
1.929539e-02
1.913630e-02
1.898086e-02
1.883023e-02
1.868552e-02
1.854781e-02
1.841814e-02
1.829747e-02
1.818672e-02
1.808675e-02
1.799833e-02
1.792214e-02
1.785873e-02
1.785823e-02
1.572258e-02
1.575287e-02
1.555878e-02
1.536440e-02
1.514518e-02
1.490696e-02
1.467321e-02
1.446970e-02
1.431091e-02
1.419469e-02
1.410609e-02
1.402686e-02
1.394496e-02
1.385918e-02
1.377753e-02
1.371117e-02
1.366783e-02
1.364808e-02
1.364603e-02
1.365334e-02
1.366386e-02
1.367644e-02
1.369461e-02
1.372394e-02
1.376882e-02
1.383025e-02
1.390603e-02
1.399247e-02
1.408652e-02
1.418719e-02
1.429553e-02
1.441358e-02
1.454303e-02
1.468434e-02
1.483668e-02
1.499860e-02
1.516889e-02
1.534713e-02
1.553376e-02
1.572961e-02
1.593537e-02
1.615109e-02
1.637611e-02
1.660922e-02
1.684903e-02
1.709430e-02
1.734411e-02
1.759778e-02
1.785481e-02
1.811155e-02
1.836643e-02
1.861828e-02
1.886581e-02
1.910763e-02
1.934237e-02
1.956872e-02
1.978546e-02
1.999144e-02
2.018559e-02
2.036692e-02
2.053444e-02
2.068728e-02
2.082463e-02
2.094578e-02
2.105014e-02
2.113725e-02
2.120677e-02
2.125849e-02
2.129235e-02
2.130839e-02
2.130680e-02
2.128789e-02
2.125229e-02
2.120074e-02
2.113391e-02
2.105257e-02
2.095763e-02
2.085003e-02
2.073084e-02
2.060115e-02
2.046215e-02
2.031503e-02
2.016106e-02
2.000150e-02
1.983763e-02
1.967074e-02
1.950210e-02
1.933299e-02
1.916463e-02
1.899826e-02
1.883504e-02
1.867613e-02
1.852262e-02
1.837559e-02
1.823604e-02
1.810494e-02
1.798320e-02
1.787168e-02
1.777113e-02
1.768226e-02
1.760562e-02
1.760515e-02
1.584460e-02
1.588381e-02
1.565092e-02
1.540237e-02
1.513562e-02
1.487230e-02
1.463860e-02
1.445074e-02
1.430830e-02
1.419704e-02
1.409830e-02
1.399890e-02
1.389657e-02
1.379881e-02
1.371685e-02
1.365870e-02
1.362510e-02
1.360999e-02
1.360462e-02
1.360252e-02
1.360240e-02
1.360790e-02
1.362477e-02
1.365740e-02
1.370677e-02
1.377034e-02
1.384414e-02
1.392502e-02
1.401213e-02
1.410677e-02
1.421124e-02
1.432733e-02
1.445539e-02
1.459446e-02
1.474297e-02
1.489975e-02
1.506459e-02
1.523820e-02
1.542168e-02
1.561588e-02
1.582090e-02
1.603605e-02
1.626010e-02
1.649170e-02
1.672974e-02
1.697350e-02
1.722256e-02
1.747657e-02
1.773510e-02
1.799441e-02
1.825221e-02
1.850713e-02
1.875775e-02
1.900265e-02
1.924048e-02
1.946998e-02
1.968995e-02
1.989926e-02
2.009678e-02
2.028144e-02
2.045221e-02
2.060816e-02
2.074843e-02
2.087227e-02
2.097908e-02
2.106835e-02
2.113972e-02
2.119295e-02
2.122791e-02
2.124465e-02
2.124332e-02
2.122423e-02
2.118794e-02
2.113528e-02
2.106692e-02
2.098364e-02
2.088633e-02
2.077594e-02
2.065353e-02
2.052020e-02
2.037712e-02
2.022550e-02
2.006658e-02
1.990163e-02
1.973193e-02
1.955874e-02
1.938334e-02
1.920699e-02
1.903091e-02
1.885632e-02
1.868438e-02
1.851623e-02
1.835298e-02
1.819568e-02
1.804534e-02
1.790293e-02
1.776938e-02
1.764555e-02
1.753222e-02
1.743010e-02
1.733982e-02
1.733938e-02
1.595099e-02
1.598280e-02
1.569531e-02
1.539444e-02
1.509690e-02
1.482885e-02
1.460793e-02
1.443532e-02
1.429759e-02
1.417572e-02
1.405553e-02
1.393371e-02
1.381727e-02
1.371752e-02
1.364283e-02
1.359407e-02
1.356499e-02
1.354633e-02
1.353110e-02
1.351780e-02
1.351018e-02
1.351424e-02
1.353444e-02
1.357163e-02
1.362309e-02
1.368448e-02
1.375248e-02
1.382626e-02
1.390740e-02
1.399840e-02
1.410116e-02
1.421598e-02
1.434174e-02
1.447676e-02
1.461990e-02
1.477112e-02
1.493140e-02
1.510208e-02
1.528415e-02
1.547773e-02
1.568213e-02
1.589609e-02
1.611834e-02
1.634792e-02
1.658431e-02
1.682733e-02
1.707684e-02
1.733253e-02
1.759380e-02
1.785679e-02
1.811843e-02
1.837724e-02
1.863178e-02
1.888070e-02
1.912270e-02
1.935655e-02
1.958102e-02
1.979492e-02
1.999704e-02
2.018625e-02
2.036146e-02
2.052167e-02
2.066600e-02
2.079367e-02
2.090401e-02
2.099649e-02
2.107068e-02
2.112630e-02
2.116320e-02
2.118137e-02
2.118095e-02
2.116223e-02
2.112570e-02
2.107229e-02
2.100267e-02
2.091761e-02
2.081801e-02
2.070481e-02
2.057906e-02
2.044187e-02
2.029442e-02
2.013791e-02
1.997358e-02
1.980269e-02
1.962653e-02
1.944636e-02
1.926346e-02
1.907907e-02
1.889443e-02
1.871075e-02
1.852919e-02
1.835090e-02
1.817698e-02
1.800849e-02
1.784647e-02
1.769190e-02
1.754571e-02
1.740881e-02
1.728202e-02
1.716609e-02
1.706170e-02
1.706130e-02
1.601667e-02
1.603006e-02
1.568900e-02
1.535189e-02
1.504463e-02
1.478620e-02
1.457932e-02
1.441133e-02
1.426284e-02
1.411855e-02
1.397408e-02
1.383593e-02
1.371559e-02
1.362192e-02
1.355611e-02
1.351169e-02
1.347881e-02
1.344978e-02
1.342269e-02
1.340132e-02
1.339192e-02
1.339922e-02
1.342396e-02
1.346314e-02
1.351216e-02
1.356743e-02
1.362810e-02
1.369587e-02
1.377349e-02
1.386294e-02
1.396448e-02
1.407686e-02
1.419828e-02
1.432763e-02
1.446503e-02
1.461168e-02
1.476915e-02
1.493852e-02
1.511996e-02
1.531273e-02
1.551559e-02
1.572734e-02
1.594719e-02
1.617486e-02
1.641038e-02
1.665383e-02
1.690503e-02
1.716346e-02
1.742826e-02
1.769570e-02
1.796186e-02
1.822531e-02
1.848471e-02
1.873873e-02
1.898612e-02
1.922560e-02
1.945585e-02
1.967560e-02
1.988358e-02
2.007858e-02
2.025947e-02
2.042521e-02
2.057486e-02
2.070758e-02
2.082266e-02
2.091948e-02
2.099758e-02
2.105660e-02
2.109637e-02
2.111683e-02
2.111811e-02
2.110045e-02
2.106429e-02
2.101061e-02
2.094011e-02
2.085357e-02
2.075186e-02
2.063593e-02
2.050684e-02
2.036569e-02
2.021366e-02
2.005196e-02
1.988183e-02
1.970455e-02
1.952139e-02
1.933363e-02
1.914255e-02
1.894940e-02
1.875542e-02
1.856182e-02
1.836978e-02
1.818047e-02
1.799498e-02
1.781442e-02
1.763983e-02
1.747222e-02
1.731258e-02
1.716184e-02
1.702088e-02
1.689051e-02
1.677149e-02
1.677112e-02
1.602649e-02
1.601937e-02
1.563975e-02
1.528822e-02
1.498748e-02
1.474202e-02
1.454000e-02
1.436162e-02
1.419025e-02
1.402019e-02
1.385729e-02
1.371329e-02
1.359777e-02
1.351246e-02
1.345086e-02
1.340247e-02
1.335873e-02
1.331712e-02
1.328125e-02
1.325760e-02
1.325125e-02
1.326303e-02
1.328964e-02
1.332611e-02
1.336866e-02
1.341629e-02
1.347079e-02
1.353506e-02
1.361120e-02
1.369942e-02
1.379832e-02
1.390603e-02
1.402142e-02
1.414477e-02
1.427749e-02
1.442132e-02
1.457746e-02
1.474608e-02
1.492639e-02
1.511716e-02
1.531727e-02
1.552614e-02
1.574371e-02
1.597025e-02
1.620602e-02
1.645100e-02
1.670475e-02
1.696649e-02
1.723522e-02
1.750764e-02
1.777900e-02
1.804798e-02
1.831329e-02
1.857362e-02
1.882765e-02
1.907401e-02
1.931130e-02
1.953817e-02
1.975328e-02
1.995539e-02
2.014331e-02
2.031594e-02
2.047227e-02
2.061140e-02
2.073251e-02
2.083494e-02
2.091814e-02
2.098172e-02
2.102544e-02
2.104921e-02
2.105310e-02
2.103735e-02
2.100233e-02
2.094899e-02
2.087814e-02
2.079053e-02
2.068702e-02
2.056857e-02
2.043624e-02
2.029113e-02
2.013443e-02
1.996734e-02
1.979113e-02
1.960708e-02
1.941646e-02
1.922058e-02
1.902071e-02
1.881812e-02
1.861407e-02
1.840978e-02
1.820645e-02
1.800525e-02
1.780734e-02
1.761381e-02
1.742577e-02
1.724426e-02
1.707032e-02
1.690493e-02
1.674904e-02
1.660356e-02
1.646929e-02
1.646896e-02
1.597883e-02
1.595752e-02
1.556042e-02
1.521250e-02
1.492386e-02
1.468390e-02