# vtk DataFile Version 3.0
Scalar Field
ASCII
DATASET RECTILINEAR_GRID
DIMENSIONS 102 102 1
X_COORDINATES 102 double
0.000000 0.100000 0.200000 0.300000 0.400000 0.500000 0.600000 0.700000 0.800000 0.900000 1.000000 1.100000 1.200000 1.300000 1.400000 1.500000 1.600000 1.700000 1.800000 1.900000 2.000000 2.100000 2.200000 2.300000 2.400000 2.500000 2.600000 2.700000 2.800000 2.900000 3.000000 3.100000 3.200000 3.300000 3.400000 3.500000 3.600000 3.700000 3.800000 3.900000 4.000000 4.100000 4.200000 4.300000 4.400000 4.500000 4.600000 4.700000 4.800000 4.900000 5.000000 5.100000 5.200000 5.300000 5.400000 5.500000 5.600000 5.700000 5.800000 5.900000 6.000000 6.100000 6.200000 6.300000 6.400000 6.500000 6.600000 6.700000 6.800000 6.900000 7.000000 7.100000 7.200000 7.300000 7.400000 7.500000 7.600000 7.700000 7.800000 7.900000 8.000000 8.100000 8.200000 8.300000 8.400000 8.500000 8.600000 8.700000 8.800000 8.900000 9.000000 9.100000 9.200000 9.300000 9.400000 9.500000 9.600000 9.700000 9.800000 9.900000 10.000000 10.100000 
Y_COORDINATES 102 double
0.000000 0.100000 0.200000 0.300000 0.400000 0.500000 0.600000 0.700000 0.800000 0.900000 1.000000 1.100000 1.200000 1.300000 1.400000 1.500000 1.600000 1.700000 1.800000 1.900000 2.000000 2.100000 2.200000 2.300000 2.400000 2.500000 2.600000 2.700000 2.800000 2.900000 3.000000 3.100000 3.200000 3.300000 3.400000 3.500000 3.600000 3.700000 3.800000 3.900000 4.000000 4.100000 4.200000 4.300000 4.400000 4.500000 4.600000 4.700000 4.800000 4.900000 5.000000 5.100000 5.200000 5.300000 5.400000 5.500000 5.600000 5.700000 5.800000 5.900000 6.000000 6.100000 6.200000 6.300000 6.400000 6.500000 6.600000 6.700000 6.800000 6.900000 7.000000 7.100000 7.200000 7.300000 7.400000 7.500000 7.600000 7.700000 7.800000 7.900000 8.000000 8.100000 8.200000 8.300000 8.400000 8.500000 8.600000 8.700000 8.800000 8.900000 9.000000 9.100000 9.200000 9.300000 9.400000 9.500000 9.600000 9.700000 9.800000 9.900000 10.000000 10.100000 
Z_COORDINATES 1 double
0.0
POINT_DATA 10404
SCALARS Pressure double 1
LOOKUP_TABLE default
0.000000e+00
-2.198123e-02
-2.201740e-02
-2.207500e-02
-2.213286e-02
-2.217754e-02
-2.220140e-02
-2.220062e-02
-2.217369e-02
-2.212033e-02
-2.204091e-02
-2.193601e-02
-2.180626e-02
-2.165225e-02
-2.147449e-02
-2.127344e-02
-2.104949e-02
-2.080304e-02
-2.053445e-02
-2.024409e-02
-1.993235e-02
-1.959965e-02
-1.924639e-02
-1.887301e-02
-1.847999e-02
-1.806780e-02
-1.763696e-02
-1.718797e-02
-1.672140e-02
-1.623781e-02
-1.573778e-02
-1.522192e-02
-1.469084e-02
-1.414520e-02
-1.358564e-02
-1.301284e-02
-1.242748e-02
-1.183027e-02
-1.122193e-02
-1.060318e-02
-9.974769e-03
-9.337445e-03
-8.691974e-03
-8.039131e-03
-7.379699e-03
-6.714468e-03
-6.044240e-03
-5.369819e-03
-4.692018e-03
-4.011655e-03
-3.329551e-03
-2.646533e-03
-1.963435e-03
-1.281088e-03
-6.003243e-04
7.802653e-05
7.531355e-04
1.424175e-03
2.090322e-03
2.750755e-03
3.404659e-03
4.051222e-03
4.689641e-03
5.319121e-03
5.938872e-03
6.548117e-03
7.146087e-03
7.732026e-03
8.305189e-03
8.864846e-03
9.410278e-03
9.940786e-03
1.045568e-02
1.095430e-02
1.143599e-02
1.190012e-02
1.234608e-02
1.277328e-02
1.318115e-02
1.356914e-02
1.393673e-02
1.428342e-02
1.460872e-02
1.491217e-02
1.519335e-02
1.545180e-02
1.568713e-02
1.589889e-02
1.608665e-02
1.624990e-02
1.638810e-02
1.650064e-02
1.658688e-02
1.664623e-02
1.667833e-02
1.668349e-02
1.666325e-02
1.662148e-02
1.656583e-02
1.650976e-02
1.647407e-02
0.000000e+00
-2.198123e-02
-2.198028e-02
-2.201642e-02
-2.207398e-02
-2.213182e-02
-2.217647e-02
-2.220030e-02
-2.219950e-02
-2.217254e-02
-2.211916e-02
-2.203972e-02
-2.193480e-02
-2.180503e-02
-2.165100e-02
-2.147323e-02
-2.127216e-02
-2.104820e-02
-2.080173e-02
-2.053312e-02
-2.024276e-02
-1.993101e-02
-1.959830e-02
-1.924503e-02
-1.887165e-02
-1.847862e-02
-1.806643e-02
-1.763558e-02
-1.718659e-02
-1.672002e-02
-1.623642e-02
-1.573639e-02
-1.522053e-02
-1.468946e-02
-1.414382e-02
-1.358426e-02
-1.301147e-02
-1.242612e-02
-1.182892e-02
-1.122058e-02
-1.060184e-02
-9.973442e-03
-9.336130e-03
-8.690671e-03
-8.037841e-03
-7.378422e-03
-6.713207e-03
-6.042994e-03
-5.368590e-03
-4.690806e-03
-4.010460e-03
-3.328374e-03
-2.645375e-03
-1.962297e-03
-1.279970e-03
-5.992274e-04
7.910212e-05
7.541892e-04
1.425207e-03
2.091331e-03
2.751740e-03
3.405620e-03
4.052159e-03
4.690554e-03
5.320009e-03
5.939735e-03
6.548954e-03
7.146899e-03
7.732812e-03
8.305948e-03
8.865578e-03
9.410984e-03
9.941465e-03
1.045633e-02
1.095493e-02
1.143659e-02
1.190069e-02
1.234663e-02
1.277380e-02
1.318164e-02
1.356961e-02
1.393717e-02
1.428382e-02
1.460910e-02
1.491253e-02
1.519367e-02
1.545210e-02
1.568740e-02
1.589914e-02
1.608686e-02
1.625009e-02
1.638826e-02
1.650079e-02
1.658701e-02
1.664634e-02
1.667844e-02
1.668358e-02
1.666333e-02
1.662155e-02
1.656589e-02
1.650982e-02
1.647412e-02
1.647407e-02
-2.194710e-02
-2.194610e-02
-2.198316e-02
-2.202947e-02
-2.207314e-02
-2.210508e-02
-2.211911e-02
-2.211150e-02
-2.208026e-02
-2.202450e-02
-2.194401e-02
-2.183895e-02
-2.170961e-02
-2.155639e-02
-2.137966e-02
-2.117979e-02
-2.095717e-02
-2.071214e-02
-2.044507e-02
-2.015634e-02
-1.984632e-02
-1.951541e-02
-1.916404e-02
-1.879265e-02
-1.840169e-02
-1.799165e-02
-1.756304e-02
-1.711636e-02
-1.665218e-02
-1.617104e-02
-1.567353e-02
-1.516027e-02
-1.463185e-02
-1.408892e-02
-1.353214e-02
-1.296217e-02
-1.237970e-02
-1.178543e-02
-1.118007e-02
-1.056435e-02
-9.938998e-03
-9.304775e-03
-8.662440e-03
-8.012762e-03
-7.356522e-03
-6.694509e-03
-6.027519e-03
-5.356355e-03
-4.681825e-03
-4.004744e-03
-3.325930e-03
-2.646206e-03
-1.966405e-03
-1.287355e-03
-6.098836e-04
6.518275e-05
7.370182e-04
1.404799e-03
2.067704e-03
2.724916e-03
3.375622e-03
4.019016e-03
4.654296e-03
5.280671e-03
5.897355e-03
6.503573e-03
7.098561e-03
7.681565e-03
8.251844e-03
8.808671e-03
9.351331e-03
9.879128e-03
1.039138e-02
1.088742e-02
1.136660e-02
1.182830e-02
1.227190e-02
1.269682e-02
1.310249e-02
1.348838e-02
1.385394e-02
1.419869e-02
1.452215e-02
1.482386e-02
1.510338e-02
1.536029e-02
1.559417e-02
1.580463e-02
1.599124e-02
1.615360e-02
1.629129e-02
1.640391e-02
1.649114e-02
1.655284e-02
1.658922e-02
1.660118e-02
1.659077e-02
1.656176e-02
1.652039e-02
1.647583e-02
1.643977e-02
1.643975e-02
-2.189400e-02
-2.189294e-02
-2.194197e-02
-2.198855e-02
-2.202716e-02
-2.205256e-02
-2.206052e-02
-2.204811e-02
-2.201345e-02
-2.195551e-02
-2.187384e-02
-2.176830e-02
-2.163902e-02
-2.148620e-02
-2.131012e-02
-2.111108e-02
-2.088942e-02
-2.064545e-02
-2.037953e-02
-2.009203e-02
-1.978331e-02
-1.945378e-02
-1.910386e-02
-1.873397e-02
-1.834458e-02
-1.793618e-02
-1.750925e-02
-1.706432e-02
-1.660193e-02
-1.612265e-02
-1.562705e-02
-1.511573e-02
-1.458931e-02
-1.404842e-02
-1.349372e-02
-1.292587e-02
-1.234556e-02
-1.175348e-02
-1.115034e-02
-1.053687e-02
-9.913797e-03
-9.281878e-03
-8.641869e-03
-7.994539e-03
-7.340665e-03
-6.681033e-03
-6.016437e-03
-5.347679e-03
-4.675563e-03
-4.000903e-03
-3.324514e-03
-2.647216e-03
-1.969841e-03
-1.293215e-03
-6.181635e-04
5.448978e-05
7.239213e-04
1.389310e-03
2.049836e-03
2.704686e-03
3.353049e-03
3.994121e-03
4.627102e-03
5.251204e-03
5.865642e-03
6.469645e-03
7.062451e-03
7.643307e-03
8.211476e-03
8.766233e-03
9.306865e-03
9.832678e-03
1.034299e-02
1.083714e-02
1.131449e-02
1.177440e-02
1.221628e-02
1.263953e-02
1.304360e-02
1.342793e-02
1.379202e-02
1.413536e-02
1.445747e-02
1.475791e-02
1.503624e-02
1.529205e-02
1.552494e-02
1.573452e-02
1.592045e-02
1.608236e-02
1.621997e-02
1.633303e-02
1.642143e-02
1.648528e-02
1.652505e-02
1.654181e-02
1.653745e-02
1.651501e-02
1.647875e-02
1.643402e-02
1.638610e-02
1.638613e-02
-2.184188e-02
-2.184074e-02
-2.190420e-02
-2.195622e-02
-2.199502e-02
-2.201810e-02
-2.202297e-02
-2.200761e-02
-2.197058e-02
-2.191093e-02
-2.182816e-02
-2.172205e-02
-2.159259e-02
-2.143989e-02
-2.126414e-02
-2.106560e-02
-2.084454e-02
-2.060128e-02
-2.033614e-02
-2.004947e-02
-1.974164e-02
-1.941306e-02
-1.906412e-02
-1.869527e-02
-1.830695e-02
-1.789966e-02
-1.747388e-02
-1.703014e-02
-1.656898e-02
-1.609095e-02
-1.559663e-02
-1.508663e-02
-1.456155e-02
-1.402204e-02
-1.346873e-02
-1.290230e-02
-1.232343e-02
-1.173281e-02
-1.113115e-02
-1.051918e-02
-9.897621e-03
-9.267230e-03
-8.628762e-03
-7.982984e-03
-7.330671e-03
-6.672609e-03
-6.009590e-03
-5.342414e-03
-4.671884e-03
-3.998812e-03
-3.324012e-03
-2.648301e-03
-1.972513e-03
-1.297471e-03
-6.240001e-04
4.707854e-05
7.149426e-04
1.378772e-03
2.037750e-03
2.691062e-03
3.337900e-03
3.977460e-03
4.608946e-03
5.231569e-03
5.844547e-03
6.447109e-03
7.038494e-03
7.617953e-03
8.184748e-03
8.738156e-03
9.277466e-03
9.801985e-03
1.031103e-02
1.080395e-02
1.128009e-02
1.173884e-02
1.217958e-02
1.260174e-02
1.300474e-02
1.338806e-02
1.375117e-02
1.409357e-02
1.441480e-02
1.471441e-02
1.499197e-02
1.524708e-02
1.547935e-02
1.568844e-02
1.587402e-02
1.603581e-02
1.617358e-02
1.628719e-02
1.637666e-02
1.644219e-02
1.648431e-02
1.650398e-02
1.650269e-02
1.648254e-02
1.644608e-02
1.639589e-02
1.633348e-02
1.633357e-02
-2.180368e-02
-2.180245e-02
-2.187884e-02
-2.193775e-02
-2.197924e-02
-2.200251e-02
-2.200633e-02
-2.198950e-02
-2.195101e-02
-2.189017e-02
-2.180652e-02
-2.169985e-02
-2.157009e-02
-2.141730e-02
-2.124163e-02
-2.104328e-02
-2.082251e-02
-2.057961e-02
-2.031487e-02
-2.002865e-02
-1.972131e-02
-1.939324e-02
-1.904484e-02
-1.867654e-02
-1.828881e-02
-1.788211e-02
-1.745695e-02
-1.701384e-02
-1.655332e-02
-1.607595e-02
-1.558230e-02
-1.507298e-02
-1.454860e-02
-1.400979e-02
-1.345719e-02
-1.289148e-02
-1.231333e-02
-1.172345e-02
-1.112253e-02
-1.051130e-02
-9.890488e-03
-9.260850e-03
-8.623136e-03
-7.978115e-03
-7.326561e-03
-6.669259e-03
-6.007001e-03
-5.340584e-03
-4.670814e-03
-3.998499e-03
-3.324454e-03
-2.649495e-03
-1.974456e-03
-1.300161e-03
-6.274321e-04
4.290851e-05
7.100395e-04
1.373141e-03
2.031397e-03
2.683993e-03
3.330122e-03
3.968981e-03
4.599773e-03
5.221709e-03
5.834009e-03
6.435902e-03
7.026627e-03
7.605435e-03
8.171590e-03
8.724368e-03
9.263058e-03
9.786969e-03
1.029542e-02
1.078775e-02
1.126333e-02
1.172151e-02
1.216171e-02
1.258334e-02
1.298583e-02
1.336865e-02
1.373128e-02
1.407323e-02
1.439404e-02
1.469324e-02
1.497043e-02
1.522522e-02
1.545724e-02
1.566616e-02
1.585168e-02
1.601357e-02
1.615164e-02
1.626582e-02
1.635615e-02
1.642285e-02
1.646639e-02
1.648750e-02
1.648722e-02
1.646682e-02
1.642762e-02
1.637048e-02
1.629502e-02
1.629519e-02
-2.178672e-02
-2.178538e-02
-2.187194e-02
-2.193733e-02
-2.198233e-02
-2.200705e-02
-2.201106e-02
-2.199376e-02
-2.195455e-02
-2.189296e-02
-2.180866e-02
-2.170148e-02
-2.157135e-02
-2.141831e-02
-2.124250e-02
-2.104409e-02
-2.082331e-02
-2.058042e-02
-2.031574e-02
-2.002959e-02
-1.972233e-02
-1.939434e-02
-1.904603e-02
-1.867782e-02
-1.829018e-02
-1.788356e-02
-1.745847e-02
-1.701543e-02
-1.655498e-02
-1.607767e-02
-1.558408e-02
-1.507480e-02
-1.455046e-02
-1.401168e-02
-1.345911e-02
-1.289342e-02
-1.231529e-02
-1.172540e-02
-1.112448e-02
-1.051324e-02
-9.892416e-03
-9.262754e-03
-8.625010e-03
-7.979952e-03
-7.328355e-03
-6.671003e-03
-6.008688e-03
-5.342209e-03
-4.672371e-03
-3.999984e-03
-3.325861e-03
-2.650820e-03
-1.975694e-03
-1.301308e-03
-6.284847e-04
4.195340e-05
7.091845e-04
1.372388e-03
2.030748e-03
2.683450e-03
3.329684e-03
3.968649e-03
4.599546e-03
5.221586e-03
5.833989e-03
6.435983e-03
7.026806e-03
7.605710e-03
8.171956e-03
8.724820e-03
9.263593e-03
9.787580e-03
1.029610e-02
1.078850e-02
1.126413e-02
1.172237e-02
1.216261e-02
1.258428e-02
1.298680e-02
1.336965e-02
1.373230e-02
1.407426e-02
1.439508e-02
1.469431e-02
1.497153e-02
1.522637e-02
1.545846e-02
1.566751e-02
1.585322e-02
1.601539e-02
1.615386e-02
1.626856e-02
1.635954e-02
1.642698e-02
1.647122e-02
1.649276e-02
1.649224e-02
1.647033e-02
1.642755e-02
1.636385e-02
1.627813e-02
1.627839e-02
-2.179472e-02
-2.179326e-02
-2.188721e-02
-2.195796e-02
-2.200640e-02
-2.203302e-02
-2.203786e-02
-2.202070e-02
-2.198125e-02
-2.191925e-02
-2.183448e-02
-2.172684e-02
-2.159628e-02
-2.144287e-02
-2.126672e-02
-2.106799e-02
-2.084691e-02
-2.060374e-02
-2.033877e-02
-2.005231e-02
-1.974473e-02
-1.941640e-02
-1.906773e-02
-1.869914e-02
-1.831108e-02
-1.790403e-02
-1.747848e-02
-1.703495e-02
-1.657399e-02
-1.609614e-02
-1.560198e-02
-1.509212e-02
-1.456716e-02
-1.402774e-02
-1.347452e-02
-1.290814e-02
-1.232931e-02
-1.173870e-02
-1.113703e-02
-1.052503e-02
-9.903421e-03
-9.272960e-03
-8.634400e-03
-7.988510e-03
-7.336066e-03
-6.677854e-03
-6.014666e-03
-5.347303e-03
-4.676571e-03
-4.003280e-03
-3.328245e-03
-2.652287e-03
-1.976238e-03
-1.300924e-03
-6.271695e-04
4.420151e-05
7.123657e-04
1.376502e-03
2.035791e-03
2.689418e-03
3.336573e-03
3.976450e-03
4.608252e-03
5.231187e-03
5.844473e-03
6.447336e-03
7.039016e-03
7.618759e-03
8.185826e-03
8.739494e-03
9.279049e-03
9.803797e-03
1.031306e-02
1.080617e-02
1.128248e-02
1.174138e-02
1.218225e-02
1.260452e-02
1.300762e-02
1.339100e-02
1.375417e-02
1.409662e-02
1.441789e-02
1.471755e-02
1.499519e-02
1.525043e-02
1.548292e-02
1.569236e-02
1.587849e-02
1.604110e-02
1.618004e-02
1.629523e-02
1.638670e-02
1.645456e-02
1.649901e-02
1.652037e-02
1.651898e-02
1.649511e-02
1.644882e-02
1.637968e-02
1.628650e-02
1.628686e-02
-2.182921e-02
-2.182762e-02
-2.192668e-02
-2.200156e-02
-2.205297e-02
-2.208150e-02
-2.208741e-02
-2.207071e-02
-2.203132e-02
-2.196911e-02
-2.188398e-02
-2.177590e-02
-2.164487e-02
-2.149096e-02
-2.131428e-02
-2.111501e-02
-2.089336e-02
-2.064958e-02
-2.038397e-02
-2.009684e-02
-1.978854e-02
-1.945945e-02
-1.910997e-02
-1.874052e-02
-1.835156e-02
-1.794355e-02
-1.751701e-02
-1.707243e-02
-1.661037e-02
-1.613139e-02
-1.563605e-02
-1.512496e-02
-1.459874e-02
-1.405801e-02
-1.350344e-02
-1.293568e-02
-1.235542e-02
-1.176336e-02
-1.116020e-02
-1.054668e-02
-9.923525e-03
-9.291486e-03
-8.651322e-03
-8.003804e-03
-7.349709e-03
-6.689825e-03
-6.024947e-03
-5.355876e-03
-4.683421e-03
-4.008394e-03
-3.331614e-03
-2.653901e-03
-1.976091e-03
-1.299011e-03
-6.234876e-04
4.965246e-05
7.195836e-04
1.385482e-03
2.046527e-03
2.701900e-03
3.350790e-03
3.992388e-03
4.625893e-03
5.250514e-03
5.865463e-03
6.469967e-03
7.063259e-03
7.644587e-03
8.213208e-03
8.768394e-03
9.309433e-03
9.835624e-03
1.034629e-02
1.084076e-02
1.131839e-02
1.177855e-02
1.222064e-02
1.264407e-02
1.304828e-02
1.343273e-02
1.379690e-02
1.414030e-02
1.446247e-02
1.476297e-02
1.504140e-02
1.529738e-02
1.553057e-02
1.574068e-02
1.592743e-02
1.609063e-02
1.623012e-02
1.634580e-02
1.643766e-02
1.650573e-02
1.655013e-02
1.657101e-02
1.656851e-02
1.654266e-02
1.649333e-02
1.642000e-02
1.632165e-02
1.632212e-02
-2.189059e-02
-2.188885e-02
-2.199135e-02
-2.206929e-02
-2.212311e-02
-2.215337e-02
-2.216036e-02
-2.214423e-02
-2.210501e-02
-2.204270e-02
-2.195727e-02
-2.184874e-02
-2.171716e-02
-2.156260e-02
-2.138522e-02
-2.118517e-02
-2.096268e-02
-2.071800e-02
-2.045141e-02
-2.016324e-02
-1.985383e-02
-1.952355e-02
-1.917281e-02
-1.880203e-02
-1.841167e-02
-1.800220e-02
-1.757411e-02
-1.712793e-02
-1.666420e-02
-1.618347e-02
-1.568633e-02
-1.517337e-02
-1.464523e-02
-1.410252e-02
-1.354591e-02
-1.297606e-02
-1.239367e-02
-1.179942e-02
-1.119403e-02
-1.057822e-02
-9.952750e-03
-9.318354e-03
-8.675797e-03
-8.025852e-03
-7.369300e-03
-6.706930e-03
-6.039541e-03
-5.367937e-03
-4.692929e-03
-4.015334e-03
-3.335971e-03
-2.655665e-03
-1.975253e-03
-1.295566e-03
-6.174344e-04
5.831283e-05
7.308465e-04
1.399340e-03
2.062968e-03
2.720910e-03
3.372350e-03
4.016478e-03
4.652489e-03
5.279587e-03
5.896982e-03
6.503897e-03
7.099562e-03
7.683220e-03
8.254126e-03
8.811549e-03
9.354772e-03
9.883092e-03
1.039582e-02
1.089230e-02
1.137187e-02
1.183391e-02
1.227780e-02
1.270296e-02
1.310883e-02
1.349485e-02
1.386051e-02
1.420533e-02
1.452883e-02
1.483058e-02
1.511017e-02
1.536724e-02
1.560143e-02
1.581246e-02
1.600005e-02
1.616400e-02
1.630413e-02
1.642033e-02
1.651254e-02
1.658075e-02
1.662498e-02
1.664527e-02
1.664164e-02
1.661404e-02
1.656223e-02
1.648577e-02
1.638391e-02
1.638450e-02
-2.197866e-02
-2.197676e-02
-2.208160e-02
-2.216181e-02
-2.221754e-02
-2.224924e-02
-2.225722e-02
-2.224165e-02
-2.220264e-02
-2.214024e-02
-2.205450e-02
-2.194547e-02
-2.181323e-02
-2.165789e-02
-2.147960e-02
-2.127855e-02
-2.105495e-02
-2.080906e-02
-2.054116e-02
-2.025158e-02
-1.994066e-02
-1.960877e-02
-1.925633e-02
-1.888375e-02
-1.849149e-02
-1.808003e-02
-1.764986e-02
-1.720151e-02
-1.673551e-02
-1.625244e-02
-1.575288e-02
-1.523742e-02
-1.470669e-02
-1.416133e-02
-1.360199e-02
-1.302934e-02
-1.244408e-02
-1.184691e-02
-1.123854e-02
-1.061970e-02
-9.991132e-03
-9.353596e-03
-8.707853e-03
-8.054680e-03
-7.394861e-03
-6.729190e-03
-6.058467e-03
-5.383502e-03
-4.705108e-03
-4.024106e-03
-3.341320e-03
-2.657579e-03
-1.973722e-03
-1.290586e-03
-6.090030e-04
7.019213e-05
7.461665e-04
1.418089e-03
2.085131e-03
2.746467e-03
3.401277e-03
4.048747e-03
4.688067e-03
5.318436e-03
5.939062e-03
6.549161e-03
7.147960e-03
7.734697e-03
8.308623e-03
8.869003e-03
9.415113e-03
9.946250e-03
1.046172e-02
1.096086e-02
1.144300e-02
1.190752e-02
1.235381e-02
1.278126e-02
1.318932e-02
1.357743e-02
1.394508e-02
1.429177e-02
1.461703e-02
1.492044e-02
1.520157e-02
1.546006e-02
1.569556e-02
1.590776e-02
1.609641e-02
1.626127e-02
1.640217e-02
1.651896e-02
1.661155e-02
1.667989e-02
1.672393e-02
1.674365e-02
1.673901e-02
1.670991e-02
1.665614e-02
1.657737e-02
1.647310e-02
1.647382e-02
-2.209309e-02
-2.209101e-02
-2.219754e-02
-2.227945e-02
-2.233669e-02
-2.236959e-02
-2.237841e-02
-2.236333e-02
-2.232448e-02
-2.226196e-02
-2.217585e-02
-2.206624e-02
-2.193322e-02
-2.177694e-02
-2.159755e-02
-2.139526e-02
-2.117027e-02
-2.092286e-02
-2.065332e-02
-2.036196e-02
-2.004913e-02
-1.971521e-02
-1.936062e-02
-1.898576e-02
-1.859111e-02
-1.817714e-02
-1.774434e-02
-1.729325e-02
-1.682441e-02
-1.633839e-02
-1.583578e-02
-1.531717e-02
-1.478319e-02
-1.423449e-02
-1.367173e-02
-1.309558e-02
-1.250673e-02
-1.190590e-02
-1.129379e-02
-1.067115e-02
-1.003871e-02
-9.397252e-03
-8.747528e-03
-8.090322e-03
-7.426424e-03
-6.756630e-03
-6.081748e-03
-5.402589e-03
-4.719972e-03
-4.034723e-03
-3.347671e-03
-2.659648e-03
-1.971500e-03
-1.284067e-03
-5.981872e-04
8.530021e-05
7.655572e-04
1.441747e-03
2.113037e-03
2.778596e-03
3.437599e-03
4.089225e-03
4.732662e-03
5.367101e-03
5.991745e-03
6.605806e-03
7.208504e-03
7.799073e-03
8.376757e-03
8.940816e-03
9.490523e-03
1.002517e-02
1.054405e-02
1.104650e-02
1.153185e-02
1.199946e-02
1.244873e-02
1.287905e-02
1.328984e-02
1.368056e-02
1.405069e-02
1.439972e-02
1.472719e-02
1.503265e-02
1.531569e-02
1.557594e-02
1.581304e-02
1.602670e-02
1.621662e-02
1.638259e-02
1.652439e-02
1.664188e-02
1.673492e-02
1.680343e-02
1.684733e-02
1.686657e-02
1.686107e-02
1.683074e-02
1.677541e-02
1.669486e-02
1.658883e-02
1.658970e-02
-2.223353e-02
-2.223126e-02
-2.233913e-02
-2.242242e-02
-2.248089e-02
-2.251477e-02
-2.252429e-02
-2.250960e-02
-2.247084e-02
-2.240812e-02
-2.232155e-02
-2.221123e-02
-2.207730e-02
-2.191990e-02
-2.173921e-02
-2.153542e-02
-2.130878e-02
-2.105954e-02
-2.078801e-02
-2.049450e-02
-2.017937e-02
-1.984300e-02
-1.948580e-02
-1.910819e-02
-1.871064e-02
-1.829363e-02
-1.785767e-02
-1.740327e-02
-1.693100e-02
-1.644142e-02
-1.593512e-02
-1.541271e-02
-1.487483e-02
-1.432211e-02
-1.375522e-02
-1.317485e-02
-1.258169e-02
-1.197644e-02
-1.135985e-02
-1.073263e-02
-1.009555e-02
-9.449375e-03
-8.794870e-03
-8.132823e-03
-7.464028e-03
-6.789288e-03
-6.109415e-03
-5.425226e-03
-4.737546e-03
-4.047205e-03
-3.355038e-03
-2.661883e-03
-1.968592e-03
-1.276011e-03
-5.849830e-04
1.036458e-04
7.890318e-04
1.470333e-03
2.146709e-03
2.817324e-03
3.481347e-03
4.137951e-03
4.786315e-03
5.425627e-03
6.055083e-03
6.673888e-03
7.281255e-03
7.876413e-03
8.458599e-03
9.027065e-03
9.581080e-03
1.011992e-02
1.064290e-02
1.114931e-02
1.163851e-02
1.210984e-02
1.256268e-02
1.299643e-02
1.341051e-02
1.380436e-02
1.417746e-02
1.452930e-02
1.485940e-02
1.516733e-02
1.545266e-02
1.571502e-02
1.595404e-02
1.616941e-02
1.636085e-02
1.652811e-02
1.667099e-02
1.678929e-02
1.688289e-02
1.695167e-02
1.699553e-02
1.701439e-02
1.700818e-02
1.697682e-02
1.692021e-02
1.683824e-02
1.673078e-02
1.673181e-02
-2.239976e-02
-2.239729e-02
-2.250636e-02
-2.259084e-02
-2.265036e-02
-2.268508e-02
-2.269517e-02
-2.268076e-02
-2.264198e-02
-2.257897e-02
-2.249183e-02
-2.238068e-02
-2.224568e-02
-2.208697e-02
-2.190475e-02
-2.169923e-02
-2.147064e-02
-2.121927e-02
-2.094540e-02
-2.064937e-02
-2.033154e-02
-1.999229e-02
-1.963202e-02
-1.925118e-02
-1.885023e-02
-1.842966e-02
-1.798997e-02
-1.753170e-02
-1.705540e-02
-1.656164e-02
-1.605102e-02
-1.552417e-02
-1.498170e-02
-1.442428e-02
-1.385256e-02
-1.326725e-02
-1.266904e-02
-1.205864e-02
-1.143679e-02
-1.080423e-02
-1.016172e-02
-9.510032e-03
-8.849940e-03
-8.182237e-03
-7.507724e-03
-6.827208e-03
-6.141509e-03
-5.451448e-03
-4.757858e-03
-4.061575e-03
-3.363440e-03
-2.664297e-03
-1.965007e-03
-1.266420e-03
-5.693887e-04
1.252359e-04
8.166030e-04
1.503864e-03
2.186171e-03
2.862682e-03
3.532557e-03
4.194964e-03
4.849074e-03
5.494069e-03
6.129135e-03
6.753471e-03
7.366284e-03
7.966793e-03
8.554229e-03
9.127838e-03
9.686878e-03
1.023062e-02
1.075837e-02
1.126942e-02
1.176310e-02
1.223877e-02
1.269578e-02
1.313354e-02
1.355146e-02
1.394897e-02
1.432554e-02
1.468066e-02
1.501385e-02
1.532466e-02
1.561266e-02
1.587746e-02
1.611871e-02
1.633608e-02
1.652929e-02
1.669806e-02
1.684218e-02
1.696146e-02
1.705574e-02
1.712490e-02
1.716882e-02
1.718742e-02
1.718064e-02
1.714842e-02
1.709070e-02
1.700747e-02
1.689872e-02
1.689992e-02
-2.259167e-02
-2.258898e-02
-2.269925e-02
-2.278485e-02
-2.284532e-02
-2.288077e-02
-2.289132e-02
-2.287709e-02
-2.283820e-02
-2.277478e-02
-2.268694e-02
-2.257482e-02
-2.243857e-02
-2.227836e-02
-2.209439e-02
-2.188687e-02
-2.165606e-02
-2.140222e-02
-2.112568e-02
-2.082675e-02
-2.050581e-02
-2.016324e-02
-1.979946e-02
-1.941490e-02
-1.901005e-02
-1.858537e-02
-1.814141e-02
-1.767868e-02
-1.719775e-02
-1.669920e-02
-1.618363e-02
-1.565166e-02
-1.510394e-02
-1.454112e-02
-1.396387e-02
-1.337289e-02
-1.276888e-02
-1.215258e-02
-1.152471e-02
-1.088603e-02
-1.023730e-02
-9.579298e-03
-8.912810e-03
-8.238632e-03
-7.557572e-03
-6.870446e-03
-6.178078e-03
-5.481299e-03
-4.780947e-03
-4.077866e-03
-3.372903e-03
-2.666911e-03
-1.960757e-03
-1.255302e-03
-5.514047e-04
1.500766e-04
8.482833e-04
1.542358e-03
2.231447e-03
2.914699e-03
3.591268e-03
4.260310e-03
4.920992e-03
5.572484e-03
6.213967e-03
6.844629e-03
7.463671e-03
8.070301e-03
8.663745e-03
9.243236e-03
9.808027e-03
1.035738e-02
1.089059e-02
1.140694e-02
1.190576e-02
1.238639e-02
1.284819e-02
1.329054e-02
1.371286e-02
1.411456e-02
1.449510e-02
1.485398e-02
1.519070e-02
1.550481e-02
1.579587e-02
1.606348e-02
1.630728e-02
1.652694e-02
1.672216e-02
1.689267e-02
1.703823e-02
1.715865e-02
1.725375e-02
1.732341e-02
1.736750e-02
1.738596e-02
1.737871e-02
1.734573e-02
1.728702e-02
1.720261e-02
1.709255e-02
1.709393e-02
-2.280928e-02
-2.280635e-02
-2.291789e-02
-2.300461e-02
-2.306599e-02
-2.310210e-02
-2.311304e-02
-2.309889e-02
-2.305979e-02
-2.299584e-02
-2.290717e-02
-2.279392e-02
-2.265625e-02
-2.249433e-02
-2.230837e-02
-2.209859e-02
-2.186525e-02
-2.160864e-02
-2.132906e-02
-2.102685e-02
-2.070239e-02
-2.035607e-02
-1.998830e-02
-1.959955e-02
-1.919027e-02
-1.876096e-02
-1.831215e-02
-1.784439e-02
-1.735823e-02
-1.685426e-02
-1.633309e-02
-1.579535e-02
-1.524169e-02
-1.467277e-02
-1.408927e-02
-1.349189e-02
-1.288136e-02
-1.225838e-02
-1.162372e-02
-1.097814e-02
-1.032239e-02
-9.657266e-03
-8.983563e-03
-8.302084e-03
-7.613644e-03
-6.919066e-03
-6.219181e-03
-5.514830e-03
-4.806857e-03
-4.096114e-03
-3.383457e-03
-2.669746e-03
-1.955860e-03
-1.242667e-03
-5.310336e-04
1.781727e-04
8.840847e-04
1.585837e-03
2.282567e-03
2.973413e-03
3.657521e-03
4.334040e-03
5.002126e-03
5.660940e-03
6.309653e-03
6.947445e-03
7.573506e-03
8.187037e-03
8.787251e-03
9.373375e-03
9.944650e-03
1.050033e-02
1.103970e-02
1.156203e-02
1.206665e-02
1.255288e-02
1.302008e-02
1.346761e-02
1.389488e-02
1.430132e-02
1.468635e-02
1.504948e-02
1.539018e-02
1.570801e-02
1.600252e-02
1.627331e-02
1.651999e-02
1.674224e-02
1.693974e-02
1.711221e-02
1.725942e-02
1.738115e-02
1.747723e-02
1.754752e-02
1.759190e-02
1.761030e-02
1.760267e-02
1.756901e-02
1.750934e-02
1.742373e-02
1.731230e-02
1.731388e-02
-2.305269e-02
-2.304952e-02
-2.316243e-02
-2.325031e-02
-2.331260e-02
-2.334934e-02
-2.336060e-02
-2.334647e-02
-2.330705e-02
-2.324246e-02
-2.315282e-02
-2.303828e-02
-2.289899e-02
-2.273515e-02
-2.254695e-02
-2.233464e-02
-2.209848e-02
-2.183876e-02
-2.155579e-02
-2.124992e-02
-2.092152e-02
-2.057100e-02
-2.019879e-02
-1.980533e-02
-1.939111e-02
-1.895663e-02
-1.850242e-02
-1.802902e-02
-1.753702e-02
-1.702700e-02
-1.649959e-02
-1.595541e-02
-1.539512e-02
-1.481940e-02
-1.422892e-02
-1.362441e-02
-1.300659e-02
-1.237618e-02
-1.173395e-02
-1.108066e-02
-1.041709e-02
-9.744036e-03
-9.062295e-03
-8.372681e-03
-7.676019e-03
-6.973139e-03
-6.264883e-03
-5.552097e-03
-4.835637e-03
-4.116362e-03
-3.395137e-03
-2.672832e-03
-1.950336e-03
-1.228526e-03
-5.082788e-04
2.095286e-04
9.240201e-04
1.634321e-03
2.339558e-03
3.038861e-03
3.731366e-03
4.416211e-03
5.092541e-03
5.759510e-03
6.416277e-03
7.062011e-03
7.695892e-03
8.317111e-03
8.924870e-03
9.518385e-03
1.009689e-02
1.065962e-02
1.120585e-02
1.173486e-02
1.224594e-02
1.273842e-02
1.321163e-02
1.366495e-02
1.409776e-02
1.450946e-02
1.489951e-02
1.526737e-02
1.561253e-02
1.593452e-02
1.623288e-02
1.650721e-02
1.675711e-02
1.698226e-02
1.718231e-02
1.735699e-02
1.750606e-02
1.762928e-02
1.772650e-02
1.779754e-02
1.784232e-02
1.786075e-02
1.785281e-02
1.781850e-02
1.775788e-02
1.767103e-02
1.755812e-02
1.755989e-02
-2.332212e-02
-2.331869e-02
-2.343309e-02
-2.352221e-02
-2.358543e-02
-2.362278e-02
-2.363432e-02
-2.362013e-02
-2.358031e-02
-2.351496e-02
-2.342421e-02
-2.330821e-02
-2.316712e-02
-2.300113e-02
-2.281046e-02
-2.259534e-02
-2.235604e-02
-2.209287e-02
-2.180614e-02
-2.149621e-02
-2.116346e-02
-2.080830e-02
-2.043116e-02
-2.003251e-02
-1.961282e-02
-1.917261e-02
-1.871242e-02
-1.823281e-02
-1.773435e-02
-1.721764e-02
-1.668332e-02
-1.613202e-02
-1.556441e-02
-1.498117e-02
-1.438299e-02
-1.377060e-02
-1.314473e-02
-1.250611e-02
-1.185553e-02
-1.119374e-02
-1.052154e-02
-9.839723e-03
-9.149110e-03
-8.450521e-03
-7.744787e-03
-7.032748e-03
-6.315256e-03
-5.593167e-03
-4.867345e-03
-4.138659e-03
-3.407984e-03
-2.676199e-03
-1.944206e-03
-1.212892e-03
-4.831453e-04
2.441487e-04
9.681031e-04
1.687832e-03
2.402453e-03
3.111085e-03
3.812852e-03
4.506882e-03
5.192309e-03
5.868275e-03
6.533929e-03
7.188428e-03
7.830941e-03
8.460645e-03
9.076733e-03
9.678408e-03
1.026489e-02
1.083541e-02
1.138922e-02
1.192560e-02
1.244382e-02
1.294320e-02
1.342307e-02
1.388278e-02
1.432170e-02
1.473925e-02
1.513484e-02
1.550793e-02
1.585802e-02
1.618460e-02
1.648723e-02
1.676548e-02
1.701896e-02
1.724730e-02
1.745020e-02
1.762734e-02
1.777848e-02
1.790339e-02
1.800189e-02
1.807384e-02
1.811912e-02
1.813766e-02
1.812945e-02
1.809450e-02
1.803290e-02
1.794475e-02
1.783021e-02
1.783220e-02
-2.361782e-02
-2.361412e-02
-2.373015e-02
-2.382059e-02
-2.388478e-02
-2.392275e-02
-2.393455e-02
-2.392024e-02
-2.387992e-02
-2.381370e-02
-2.372170e-02
-2.360407e-02
-2.346097e-02
-2.329261e-02
-2.309920e-02
-2.288099e-02
-2.263825e-02
-2.237129e-02
-2.208043e-02
-2.176605e-02
-2.142852e-02
-2.106826e-02
-2.068571e-02
-2.028135e-02
-1.985566e-02
-1.940917e-02
-1.894242e-02
-1.845598e-02
-1.795043e-02
-1.742640e-02
-1.688450e-02
-1.632540e-02
-1.574976e-02
-1.515828e-02
-1.455167e-02
-1.393064e-02
-1.329595e-02
-1.264835e-02
-1.198860e-02
-1.131750e-02
-1.063585e-02
-9.944450e-03
-9.244126e-03
-8.535711e-03
-7.820046e-03
-7.097983e-03
-6.370382e-03
-5.638111e-03
-4.902042e-03
-4.163057e-03
-3.422040e-03
-2.679881e-03
-1.937495e-03
-1.195782e-03
-4.556385e-04
2.820374e-04
1.016348e-03
1.746396e-03
2.471288e-03
3.190131e-03
3.902036e-03
4.606122e-03
5.301508e-03
5.987326e-03
6.662711e-03
7.326809e-03
7.978774e-03
8.617774e-03
9.242986e-03
9.853602e-03
1.044883e-02
1.102789e-02
1.159001e-02
1.213446e-02
1.266052e-02
1.316747e-02
1.365463e-02
1.412135e-02
1.456699e-02
1.499093e-02
1.539261e-02
1.577145e-02
1.612694e-02
1.645858e-02
1.676589e-02
1.704845e-02
1.730585e-02
1.753773e-02
1.774376e-02
1.792362e-02
1.807706e-02
1.820385e-02
1.830380e-02
1.837677e-02
1.842265e-02
1.844137e-02
1.843293e-02
1.839735e-02
1.833472e-02
1.824517e-02
1.812887e-02
1.813109e-02
-2.394012e-02
-2.393614e-02
-2.405394e-02
-2.414579e-02
-2.421101e-02
-2.424961e-02
-2.426164e-02
-2.424715e-02
-2.420626e-02
-2.413905e-02
-2.404565e-02
-2.392622e-02
-2.378092e-02
-2.360996e-02
-2.341355e-02
-2.319196e-02
-2.294546e-02
-2.267436e-02
-2.237900e-02
-2.205974e-02
-2.171700e-02
-2.135118e-02
-2.096273e-02
-2.055215e-02
-2.011992e-02
-1.966659e-02
-1.919269e-02
-1.869881e-02
-1.818555e-02
-1.765352e-02
-1.710338e-02
-1.653578e-02
-1.595140e-02
-1.535095e-02
-1.473515e-02
-1.410473e-02
-1.346044e-02
-1.280305e-02
-1.213335e-02
-1.145212e-02
-1.076018e-02
-1.005836e-02
-9.347469e-03
-8.628368e-03
-7.901904e-03
-7.168941e-03
-6.430349e-03
-5.687006e-03
-4.939798e-03
-4.189615e-03
-3.437354e-03
-2.683917e-03
-1.930232e-03
-1.177212e-03
-4.257648e-04
3.231991e-04
1.068770e-03
1.810039e-03
2.546100e-03
3.276047e-03
3.998980e-03
4.714002e-03
5.420223e-03
6.116758e-03
6.802731e-03
7.477274e-03
8.139527e-03
8.788645e-03
9.423790e-03
1.004414e-02
1.064889e-02
1.123724e-02
1.180842e-02
1.236167e-02
1.289626e-02
1.341145e-02
1.390657e-02
1.438093e-02
1.483389e-02
1.526482e-02
1.567313e-02
1.605825e-02
1.641963e-02
1.675678e-02
1.706921e-02
1.735648e-02
1.761818e-02
1.785392e-02
1.806337e-02
1.824622e-02
1.840219e-02
1.853105e-02
1.863263e-02
1.870675e-02
1.875333e-02
1.877229e-02
1.876364e-02
1.872742e-02
1.866371e-02
1.857266e-02
1.845444e-02
1.845691e-02
-2.428940e-02
-2.428511e-02
-2.440482e-02
-2.449819e-02
-2.456450e-02
-2.460375e-02
-2.461599e-02
-2.460129e-02
-2.455973e-02
-2.449142e-02
-2.439649e-02
-2.427508e-02
-2.412738e-02
-2.395358e-02
-2.375391e-02
-2.352864e-02
-2.327804e-02
-2.300245e-02
-2.270220e-02
-2.237766e-02
-2.202926e-02