# vtk DataFile Version 3.0
Scalar Field
ASCII
DATASET RECTILINEAR_GRID
DIMENSIONS 102 102 1
X_COORDINATES 102 double
0.000000 0.100000 0.200000 0.300000 0.400000 0.500000 0.600000 0.700000 0.800000 0.900000 1.000000 1.100000 1.200000 1.300000 1.400000 1.500000 1.600000 1.700000 1.800000 1.900000 2.000000 2.100000 2.200000 2.300000 2.400000 2.500000 2.600000 2.700000 2.800000 2.900000 3.000000 3.100000 3.200000 3.300000 3.400000 3.500000 3.600000 3.700000 3.800000 3.900000 4.000000 4.100000 4.200000 4.300000 4.400000 4.500000 4.600000 4.700000 4.800000 4.900000 5.000000 5.100000 5.200000 5.300000 5.400000 5.500000 5.600000 5.700000 5.800000 5.900000 6.000000 6.100000 6.200000 6.300000 6.400000 6.500000 6.600000 6.700000 6.800000 6.900000 7.000000 7.100000 7.200000 7.300000 7.400000 7.500000 7.600000 7.700000 7.800000 7.900000 8.000000 8.100000 8.200000 8.300000 8.400000 8.500000 8.600000 8.700000 8.800000 8.900000 9.000000 9.100000 9.200000 9.300000 9.400000 9.500000 9.600000 9.700000 9.800000 9.900000 10.000000 10.100000 
Y_COORDINATES 102 double
0.000000 0.100000 0.200000 0.300000 0.400000 0.500000 0.600000 0.700000 0.800000 0.900000 1.000000 1.100000 1.200000 1.300000 1.400000 1.500000 1.600000 1.700000 1.800000 1.900000 2.000000 2.100000 2.200000 2.300000 2.400000 2.500000 2.600000 2.700000 2.800000 2.900000 3.000000 3.100000 3.200000 3.300000 3.400000 3.500000 3.600000 3.700000 3.800000 3.900000 4.000000 4.100000 4.200000 4.300000 4.400000 4.500000 4.600000 4.700000 4.800000 4.900000 5.000000 5.100000 5.200000 5.300000 5.400000 5.500000 5.600000 5.700000 5.800000 5.900000 6.000000 6.100000 6.200000 6.300000 6.400000 6.500000 6.600000 6.700000 6.800000 6.900000 7.000000 7.100000 7.200000 7.300000 7.400000 7.500000 7.600000 7.700000 7.800000 7.900000 8.000000 8.100000 8.200000 8.300000 8.400000 8.500000 8.600000 8.700000 8.800000 8.900000 9.000000 9.100000 9.200000 9.300000 9.400000 9.500000 9.600000 9.700000 9.800000 9.900000 10.000000 10.100000 
Z_COORDINATES 1 double
0.0
POINT_DATA 10404
SCALARS Pressure double 1
LOOKUP_TABLE default
0.000000e+00
1.543457e-02
1.527169e-02
1.498915e-02
1.472217e-02
1.453546e-02
1.443733e-02
1.439355e-02
1.435364e-02
1.427568e-02
1.414084e-02
1.395563e-02
1.374489e-02
1.354022e-02
1.336868e-02
1.324507e-02
1.316952e-02
1.313045e-02
1.311119e-02
1.309735e-02
1.308221e-02
1.306817e-02
1.306429e-02
1.308156e-02
1.312815e-02
1.320668e-02
1.331422e-02
1.344450e-02
1.359089e-02
1.374887e-02
1.391711e-02
1.409701e-02
1.429141e-02
1.450307e-02
1.473360e-02
1.498304e-02
1.525008e-02
1.553263e-02
1.582843e-02
1.613549e-02
1.645231e-02
1.677787e-02
1.711143e-02
1.745235e-02
1.779986e-02
1.815292e-02
1.851018e-02
1.886996e-02
1.923033e-02
1.958923e-02
1.994466e-02
2.029471e-02
2.063757e-02
2.097155e-02
2.129504e-02
2.160650e-02
2.190440e-02
2.218729e-02
2.245373e-02
2.270237e-02
2.293193e-02
2.314125e-02
2.332931e-02
2.349522e-02
2.363825e-02
2.375782e-02
2.385350e-02
2.392503e-02
2.397231e-02
2.399537e-02
2.399445e-02
2.396993e-02
2.392237e-02
2.385248e-02
2.376117e-02
2.364947e-02
2.351861e-02
2.336994e-02
2.320498e-02
2.302537e-02
2.283289e-02
2.262945e-02
2.241710e-02
2.219799e-02
2.197441e-02
2.174877e-02
2.152356e-02
2.130141e-02
2.108505e-02
2.087726e-02
2.068096e-02
2.049908e-02
2.033463e-02
2.019059e-02
2.006983e-02
1.997498e-02
1.990811e-02
1.987015e-02
1.985989e-02
1.987183e-02
1.989277e-02
0.000000e+00
1.543457e-02
1.537977e-02
1.513367e-02
1.485155e-02
1.464939e-02
1.455127e-02
1.452581e-02
1.451496e-02
1.446480e-02
1.434616e-02
1.416052e-02
1.393361e-02
1.370224e-02
1.350039e-02
1.334888e-02
1.325132e-02
1.319646e-02
1.316537e-02
1.314014e-02
1.311086e-02
1.307832e-02
1.305197e-02
1.304471e-02
1.306713e-02
1.312376e-02
1.321240e-02
1.332622e-02
1.345735e-02
1.359993e-02
1.375176e-02
1.391412e-02
1.409031e-02
1.428387e-02
1.449713e-02
1.473062e-02
1.498314e-02
1.525246e-02
1.553607e-02
1.583173e-02
1.613781e-02
1.645331e-02
1.677763e-02
1.711034e-02
1.745093e-02
1.779855e-02
1.815205e-02
1.850985e-02
1.887012e-02
1.923080e-02
1.958982e-02
1.994520e-02
2.029509e-02
2.063777e-02
2.097159e-02
2.129500e-02
2.160644e-02
2.190438e-02
2.218732e-02
2.245381e-02
2.270247e-02
2.293203e-02
2.314133e-02
2.332934e-02
2.349521e-02
2.363821e-02
2.375775e-02
2.385342e-02
2.392495e-02
2.397222e-02
2.399528e-02
2.399434e-02
2.396981e-02
2.392223e-02
2.385233e-02
2.376100e-02
2.364931e-02
2.351845e-02
2.336980e-02
2.320485e-02
2.302525e-02
2.283278e-02
2.262933e-02
2.241697e-02
2.219784e-02
2.197423e-02
2.174855e-02
2.152332e-02
2.130115e-02
2.108475e-02
2.087696e-02
2.068064e-02
2.049875e-02
2.033430e-02
2.019025e-02
2.006949e-02
1.997464e-02
1.990777e-02
1.986982e-02
1.985955e-02
1.987150e-02
1.989245e-02
1.989277e-02
1.527749e-02
1.513585e-02
1.493117e-02
1.479594e-02
1.475293e-02
1.476332e-02
1.477079e-02
1.472823e-02
1.461411e-02
1.443533e-02
1.421944e-02
1.400180e-02
1.381288e-02
1.366968e-02
1.357307e-02
1.351100e-02
1.346579e-02
1.342230e-02
1.337375e-02
1.332337e-02
1.328153e-02
1.326050e-02
1.326917e-02
1.331018e-02
1.338009e-02
1.347193e-02
1.357866e-02
1.369580e-02
1.382241e-02
1.396056e-02
1.411365e-02
1.428478e-02
1.447562e-02
1.468607e-02
1.491466e-02
1.515917e-02
1.541735e-02
1.568741e-02
1.596812e-02
1.625881e-02
1.655910e-02
1.686868e-02
1.718704e-02
1.751336e-02
1.784650e-02
1.818498e-02
1.852710e-02
1.887104e-02
1.921490e-02
1.955681e-02
1.989506e-02
2.022804e-02
2.055418e-02
2.087196e-02
2.117984e-02
2.147630e-02
2.175983e-02
2.202899e-02
2.228237e-02
2.251870e-02
2.273678e-02
2.293556e-02
2.311410e-02
2.327161e-02
2.340740e-02
2.352096e-02
2.361187e-02
2.367990e-02
2.372495e-02
2.374708e-02
2.374653e-02
2.372368e-02
2.367911e-02
2.361352e-02
2.352778e-02
2.342292e-02
2.330009e-02
2.316061e-02
2.300591e-02
2.283756e-02
2.265728e-02
2.246689e-02
2.226834e-02
2.206369e-02
2.185513e-02
2.164492e-02
2.143544e-02
2.122913e-02
2.102853e-02
2.083622e-02
2.065484e-02
2.048704e-02
2.033547e-02
2.020268e-02
2.009107e-02
2.000268e-02
1.993899e-02
1.990047e-02
1.988601e-02
1.989223e-02
1.991319e-02
1.991351e-02
1.507550e-02
1.492979e-02
1.486530e-02
1.489206e-02
1.495796e-02
1.499814e-02
1.496747e-02
1.485308e-02
1.467189e-02
1.445872e-02
1.425142e-02
1.407842e-02
1.395180e-02
1.386699e-02
1.380798e-02
1.375594e-02
1.369746e-02
1.362960e-02
1.355976e-02
1.350133e-02
1.346734e-02
1.346533e-02
1.349534e-02
1.355140e-02
1.362520e-02
1.370990e-02
1.380245e-02
1.390387e-02
1.401777e-02
1.414827e-02
1.429830e-02
1.446872e-02
1.465852e-02
1.486548e-02
1.508713e-02
1.532141e-02
1.556695e-02
1.582311e-02
1.608973e-02
1.636676e-02
1.665405e-02
1.695112e-02
1.725711e-02
1.757080e-02
1.789073e-02
1.821527e-02
1.854275e-02
1.887154e-02
1.919993e-02
1.952630e-02
1.984916e-02
2.016706e-02
2.047850e-02
2.078197e-02
2.107594e-02
2.135892e-02
2.162942e-02
2.188606e-02
2.212753e-02
2.235264e-02
2.256030e-02
2.274952e-02
2.291944e-02
2.306930e-02
2.319847e-02
2.330645e-02
2.339287e-02
2.345749e-02
2.350025e-02
2.352123e-02
2.352068e-02
2.349901e-02
2.345677e-02
2.339467e-02
2.331353e-02
2.321435e-02
2.309825e-02
2.296649e-02
2.282044e-02
2.266164e-02
2.249171e-02
2.231242e-02
2.212563e-02
2.193333e-02
2.173756e-02
2.154049e-02
2.134434e-02
2.115139e-02
2.096401e-02
2.078457e-02
2.061547e-02
2.045912e-02
2.031786e-02
2.019395e-02
2.008943e-02
2.000604e-02
1.994506e-02
1.990707e-02
1.989182e-02
1.989822e-02
1.992513e-02
1.992544e-02
1.496174e-02
1.487999e-02
1.495870e-02
1.508722e-02
1.517622e-02
1.517331e-02
1.506783e-02
1.488501e-02
1.466911e-02
1.446461e-02
1.430196e-02
1.419086e-02
1.412176e-02
1.407336e-02
1.402331e-02
1.395761e-02
1.387550e-02
1.378829e-02
1.371319e-02
1.366554e-02
1.365292e-02
1.367357e-02
1.371895e-02
1.377866e-02
1.384518e-02
1.391617e-02
1.399430e-02
1.408493e-02
1.419337e-02
1.432285e-02
1.447378e-02
1.464428e-02
1.483134e-02
1.503198e-02
1.524410e-02
1.546666e-02
1.569954e-02
1.594310e-02
1.619771e-02
1.646346e-02
1.673995e-02
1.702629e-02
1.732120e-02
1.762317e-02
1.793060e-02
1.824195e-02
1.855575e-02
1.887065e-02
1.918515e-02
1.949773e-02
1.980704e-02
2.011166e-02
2.041009e-02
2.070082e-02
2.098233e-02
2.125314e-02
2.151186e-02
2.175718e-02
2.198790e-02
2.220290e-02
2.240116e-02
2.258176e-02
2.274387e-02
2.288677e-02
2.300986e-02
2.311264e-02
2.319478e-02
2.325608e-02
2.329649e-02
2.331613e-02
2.331524e-02
2.329425e-02
2.325370e-02
2.319428e-02
2.311679e-02
2.302219e-02
2.291157e-02
2.278615e-02
2.264726e-02
2.249639e-02
2.233510e-02
2.216510e-02
2.198818e-02
2.180620e-02
2.162114e-02
2.143503e-02
2.124995e-02
2.106806e-02
2.089152e-02
2.072255e-02
2.056335e-02
2.041609e-02
2.028291e-02
2.016581e-02
2.006663e-02
1.998697e-02
1.992810e-02
1.989091e-02
1.987595e-02
1.988367e-02
1.991523e-02
1.991554e-02
1.499368e-02
1.500577e-02
1.516954e-02
1.531195e-02
1.534882e-02
1.526389e-02
1.508528e-02
1.486529e-02
1.465703e-02
1.449658e-02
1.439484e-02
1.433947e-02
1.430433e-02
1.426234e-02
1.419677e-02
1.410697e-02
1.400671e-02
1.391673e-02
1.385535e-02
1.383150e-02
1.384282e-02
1.387891e-02
1.392734e-02
1.397924e-02
1.403226e-02
1.409003e-02
1.415938e-02
1.424691e-02
1.435650e-02
1.448853e-02
1.464056e-02
1.480889e-02
1.499003e-02
1.518164e-02
1.538284e-02
1.559387e-02
1.581557e-02
1.604873e-02
1.629372e-02
1.655028e-02
1.681754e-02
1.709417e-02
1.737863e-02
1.766934e-02
1.796484e-02
1.826383e-02
1.856515e-02
1.886768e-02
1.917002e-02
1.947061e-02
1.976811e-02
2.006106e-02
2.034797e-02
2.062732e-02
2.089764e-02
2.115754e-02
2.140569e-02
2.164090e-02
2.186202e-02
2.206801e-02
2.225789e-02
2.243077e-02
2.258584e-02
2.272241e-02
2.283989e-02
2.293784e-02
2.301594e-02
2.307402e-02
2.311205e-02
2.313017e-02
2.312863e-02
2.310786e-02
2.306839e-02
2.301088e-02
2.293614e-02
2.284508e-02
2.273878e-02
2.261842e-02
2.248531e-02
2.234087e-02
2.218665e-02
2.202425e-02
2.185541e-02
2.168190e-02
2.150559e-02
2.132840e-02
2.115230e-02
2.097930e-02
2.081143e-02
2.065074e-02
2.049926e-02
2.035899e-02
2.023187e-02
2.011974e-02
2.002430e-02
1.994709e-02
1.988944e-02
1.985251e-02
1.983736e-02
1.984526e-02
1.987818e-02
1.987848e-02
1.517234e-02
1.526709e-02
1.543184e-02
1.550945e-02
1.545226e-02
1.528473e-02
1.506280e-02
1.484708e-02
1.468102e-02
1.457983e-02
1.453141e-02
1.450660e-02
1.447390e-02
1.441282e-02
1.432097e-02
1.421275e-02
1.411120e-02
1.403735e-02
1.400203e-02
1.400336e-02
1.403011e-02
1.406839e-02
1.410807e-02
1.414624e-02
1.418687e-02
1.423767e-02
1.430622e-02
1.439710e-02
1.451091e-02
1.464505e-02
1.479540e-02
1.495806e-02
1.513049e-02
1.531180e-02
1.550247e-02
1.570366e-02
1.591650e-02
1.614163e-02
1.637894e-02
1.662763e-02
1.688639e-02
1.715368e-02
1.742795e-02
1.770783e-02
1.799216e-02
1.827994e-02
1.857024e-02
1.886208e-02
1.915397e-02
1.944422e-02
1.973143e-02
2.001413e-02
2.029081e-02
2.056003e-02
2.082039e-02
2.107059e-02
2.130942e-02
2.153571e-02
2.174840e-02
2.194645e-02
2.212892e-02
2.229492e-02
2.244367e-02
2.257451e-02
2.268688e-02
2.278036e-02
2.285466e-02
2.290965e-02
2.294531e-02
2.296176e-02
2.295928e-02
2.293830e-02
2.289934e-02
2.284305e-02
2.277021e-02
2.268175e-02
2.257870e-02
2.246223e-02
2.233363e-02
2.219427e-02
2.204563e-02
2.188928e-02
2.172685e-02
2.156006e-02
2.139067e-02
2.122051e-02
2.105144e-02
2.088534e-02
2.072412e-02
2.056969e-02
2.042395e-02
2.028873e-02
2.016584e-02
2.005697e-02
1.996374e-02
1.988764e-02
1.983006e-02
1.979229e-02
1.977568e-02
1.978181e-02
1.981273e-02
1.981301e-02
1.545358e-02
1.559149e-02
1.568220e-02
1.565050e-02
1.549691e-02
1.527564e-02
1.505136e-02
1.487409e-02
1.476485e-02
1.471435e-02
1.469282e-02
1.466579e-02
1.460917e-02
1.451791e-02
1.440554e-02
1.429593e-02
1.421185e-02
1.416576e-02
1.415671e-02
1.417344e-02
1.420144e-02
1.422979e-02
1.425507e-02
1.428118e-02
1.431618e-02
1.436812e-02
1.444203e-02
1.453874e-02
1.465568e-02
1.478861e-02
1.493348e-02
1.508765e-02
1.525025e-02
1.542189e-02
1.560389e-02
1.579763e-02
1.600390e-02
1.622275e-02
1.645344e-02
1.669472e-02
1.694509e-02
1.720311e-02
1.746751e-02
1.773727e-02
1.801155e-02
1.828955e-02
1.857044e-02
1.885320e-02
1.913620e-02
1.941753e-02
1.969574e-02
1.996939e-02
2.023705e-02
2.049735e-02
2.074900e-02
2.099078e-02
2.122152e-02
2.144011e-02
2.164548e-02
2.183662e-02
2.201258e-02
2.217251e-02
2.231565e-02
2.244135e-02
2.254910e-02
2.263850e-02
2.270929e-02
2.276134e-02
2.279465e-02
2.280934e-02
2.280566e-02
2.278408e-02
2.274511e-02
2.268940e-02
2.261773e-02
2.253100e-02
2.243026e-02
2.231663e-02
2.219138e-02
2.205583e-02
2.191141e-02
2.175964e-02
2.160208e-02
2.144037e-02
2.127620e-02
2.111130e-02
2.094744e-02
2.078641e-02
2.062999e-02
2.047997e-02
2.033812e-02
2.020617e-02
2.008579e-02
1.997858e-02
1.988606e-02
1.980968e-02
1.975084e-02
1.971089e-02
1.969127e-02
1.969354e-02
1.971960e-02
1.971987e-02
1.577196e-02
1.590517e-02
1.587954e-02
1.573558e-02
1.551477e-02
1.528152e-02
1.508985e-02
1.496607e-02
1.490494e-02
1.487811e-02
1.484997e-02
1.479383e-02
1.470209e-02
1.458668e-02
1.447119e-02
1.437898e-02
1.432346e-02
1.430432e-02
1.431059e-02
1.432768e-02
1.434451e-02
1.435754e-02
1.437065e-02
1.439191e-02
1.442950e-02
1.448844e-02
1.456957e-02
1.467032e-02
1.478649e-02
1.491411e-02
1.505066e-02
1.519540e-02
1.534904e-02
1.551303e-02
1.568882e-02
1.587729e-02
1.607852e-02
1.629185e-02
1.651607e-02
1.674981e-02
1.699173e-02
1.724072e-02
1.749594e-02
1.775669e-02
1.802232e-02
1.829208e-02
1.856505e-02
1.884013e-02
1.911551e-02
1.938909e-02
1.965946e-02
1.992522e-02
2.018505e-02
2.043770e-02
2.068193e-02
2.091657e-02
2.114046e-02
2.135250e-02
2.155162e-02
2.173681e-02
2.190715e-02
2.206179e-02
2.220001e-02
2.232119e-02
2.242484e-02
2.251059e-02
2.257818e-02
2.262748e-02
2.265849e-02
2.267134e-02
2.266627e-02
2.264376e-02
2.260434e-02
2.254867e-02
2.247751e-02
2.239178e-02
2.229249e-02
2.218075e-02
2.205777e-02
2.192486e-02
2.178340e-02
2.163484e-02
2.148070e-02
2.132255e-02
2.116202e-02
2.100075e-02
2.084044e-02
2.068276e-02
2.052942e-02
2.038210e-02
2.024246e-02
2.011211e-02
1.999262e-02
1.988552e-02
1.979225e-02
1.971419e-02
1.965271e-02
1.960916e-02
1.958492e-02
1.958147e-02
1.960041e-02
1.960067e-02
1.606632e-02
1.615675e-02
1.601244e-02
1.578695e-02
1.554294e-02
1.533502e-02
1.519284e-02
1.511488e-02
1.507514e-02
1.503834e-02
1.497655e-02
1.488029e-02
1.476002e-02
1.463857e-02
1.453917e-02
1.447534e-02
1.444687e-02
1.444281e-02
1.444861e-02
1.445337e-02
1.445390e-02
1.445437e-02
1.446302e-02
1.448781e-02
1.453355e-02
1.460075e-02
1.468662e-02
1.478696e-02
1.489799e-02
1.501747e-02
1.514494e-02
1.528133e-02
1.542820e-02
1.558703e-02
1.575867e-02
1.594315e-02
1.613980e-02
1.634746e-02
1.656486e-02
1.679084e-02
1.702450e-02
1.726516e-02
1.751231e-02
1.776542e-02
1.802383e-02
1.828671e-02
1.855300e-02
1.882151e-02
1.909035e-02
1.935724e-02
1.962086e-02
1.987993e-02
2.013322e-02
2.037951e-02
2.061762e-02
2.084636e-02
2.106459e-02
2.127118e-02
2.146506e-02
2.164524e-02
2.181081e-02
2.196096e-02
2.209499e-02
2.221230e-02
2.231242e-02
2.239496e-02
2.245969e-02
2.250646e-02
2.253526e-02
2.254624e-02
2.253964e-02
2.251596e-02
2.247575e-02
2.241966e-02
2.234848e-02
2.226309e-02
2.216448e-02
2.205375e-02
2.193208e-02
2.180073e-02
2.166105e-02
2.151444e-02
2.136238e-02
2.120639e-02
2.104803e-02
2.088888e-02
2.073056e-02
2.057466e-02
2.042281e-02
2.027659e-02
2.013756e-02
2.000726e-02
1.988716e-02
1.977869e-02
1.968324e-02
1.960213e-02
1.953666e-02
1.948811e-02
1.945779e-02
1.944699e-02
1.945707e-02
1.945732e-02
1.629779e-02
1.632808e-02
1.609526e-02
1.583546e-02
1.560909e-02
1.544651e-02
1.534839e-02
1.529076e-02
1.523923e-02
1.516558e-02
1.505945e-02
1.493040e-02
1.480069e-02
1.469327e-02
1.462132e-02
1.458416e-02
1.457032e-02
1.456497e-02
1.455739e-02
1.454493e-02
1.453245e-02
1.452859e-02
1.454135e-02
1.457506e-02
1.462973e-02
1.470209e-02
1.478776e-02
1.488307e-02
1.498611e-02
1.509684e-02
1.521654e-02
1.534695e-02
1.548958e-02
1.564518e-02
1.581368e-02
1.599432e-02
1.618594e-02
1.638737e-02
1.659762e-02
1.681601e-02
1.704209e-02
1.727553e-02
1.751593e-02
1.776275e-02
1.801518e-02
1.827223e-02
1.853278e-02
1.879562e-02
1.905890e-02
1.932018e-02
1.957824e-02
1.983189e-02
2.007993e-02
2.032117e-02
2.055441e-02
2.077845e-02
2.099212e-02
2.119430e-02
2.138393e-02
2.156003e-02
2.172173e-02
2.186822e-02
2.199883e-02
2.211296e-02
2.221013e-02
2.228995e-02
2.235218e-02
2.239667e-02
2.242342e-02
2.243257e-02
2.242439e-02
2.239938e-02
2.235812e-02
2.230128e-02
2.222960e-02
2.214398e-02
2.204537e-02
2.193486e-02
2.181360e-02
2.168282e-02
2.154383e-02
2.139802e-02
2.124681e-02
2.109169e-02
2.093414e-02
2.077572e-02
2.061795e-02
2.046237e-02
2.031052e-02
2.016391e-02
2.002402e-02
1.989230e-02
1.977015e-02
1.965892e-02
1.955993e-02
1.947445e-02
1.940368e-02
1.934884e-02
1.931111e-02
1.929164e-02
1.929153e-02
1.929177e-02
1.645636e-02
1.643168e-02
1.615681e-02
1.590749e-02
1.572261e-02
1.560297e-02
1.552529e-02
1.545561e-02
1.536566e-02
1.524474e-02
1.510225e-02
1.496052e-02
1.484258e-02
1.476134e-02
1.471541e-02
1.469230e-02
1.467638e-02
1.465670e-02
1.463106e-02
1.460516e-02
1.458839e-02
1.458906e-02
1.461125e-02
1.465428e-02
1.471430e-02
1.478649e-02
1.486711e-02
1.495453e-02
1.504914e-02
1.515265e-02
1.526710e-02
1.539406e-02
1.553423e-02
1.568739e-02
1.585261e-02
1.602871e-02
1.621454e-02
1.640931e-02
1.661254e-02
1.682403e-02
1.704365e-02
1.727114e-02
1.750604e-02
1.774763e-02
1.799496e-02
1.824697e-02
1.850255e-02
1.876058e-02
1.901932e-02
1.927615e-02
1.952990e-02
1.977943e-02
2.002352e-02
2.026095e-02
2.049050e-02
2.071095e-02
2.092113e-02
2.111993e-02
2.130631e-02
2.147931e-02
2.163806e-02
2.178178e-02
2.190977e-02
2.202143e-02
2.211626e-02
2.219388e-02
2.225402e-02
2.229654e-02
2.232147e-02
2.232892e-02
2.231920e-02
2.229279e-02
2.225032e-02
2.219243e-02
2.211988e-02
2.203352e-02
2.193431e-02
2.182330e-02
2.170164e-02
2.157053e-02
2.143127e-02
2.128520e-02
2.113372e-02
2.097827e-02
2.082031e-02
2.066131e-02
2.050276e-02
2.034614e-02
2.019291e-02
2.004452e-02
1.990238e-02
1.976786e-02
1.964231e-02
1.952701e-02
1.942320e-02
1.933208e-02
1.925480e-02
1.919247e-02
1.914617e-02
1.911691e-02
1.910561e-02
1.910584e-02
1.655680e-02
1.649919e-02
1.622685e-02
1.601567e-02
1.587304e-02
1.577475e-02
1.568597e-02
1.557766e-02
1.543872e-02
1.527877e-02
1.512085e-02
1.498880e-02
1.489582e-02
1.483994e-02
1.480749e-02
1.478155e-02
1.475039e-02
1.471186e-02
1.467236e-02
1.464221e-02
1.463033e-02
1.464086e-02
1.467263e-02
1.472103e-02
1.478074e-02
1.484774e-02
1.492049e-02
1.499975e-02
1.508766e-02
1.518660e-02
1.529832e-02
1.542350e-02
1.556178e-02
1.571206e-02
1.587307e-02
1.604369e-02
1.622325e-02
1.641148e-02
1.660841e-02
1.681410e-02
1.702847e-02
1.725112e-02
1.748142e-02
1.771848e-02
1.796133e-02
1.820893e-02
1.846030e-02
1.871445e-02
1.896979e-02
1.922339e-02
1.947412e-02
1.972077e-02
1.996212e-02
2.019690e-02
2.042388e-02
2.064182e-02
2.084959e-02
2.104607e-02
2.123024e-02
2.140116e-02
2.155794e-02
2.169979e-02
2.182599e-02
2.193592e-02
2.202907e-02
2.210504e-02
2.216357e-02
2.220453e-02
2.222793e-02
2.223391e-02
2.222277e-02
2.219499e-02
2.215121e-02
2.209207e-02
2.201832e-02
2.193080e-02
2.183046e-02
2.171834e-02
2.159556e-02
2.146333e-02
2.132291e-02
2.117563e-02
2.102287e-02
2.086601e-02
2.070648e-02
2.054571e-02
2.038515e-02
2.022621e-02
2.007032e-02
1.991884e-02
1.977315e-02
1.963455e-02
1.950432e-02
1.938369e-02
1.927384e-02
1.917590e-02
1.909097e-02
1.902007e-02
1.896418e-02
1.892421e-02
1.890094e-02
1.890116e-02
1.662782e-02
1.656617e-02
1.632485e-02
1.615545e-02
1.603529e-02
1.592731e-02
1.580037e-02
1.564207e-02
1.546198e-02
1.528422e-02
1.513412e-02
1.502598e-02
1.495787e-02
1.491506e-02
1.487912e-02
1.483703e-02
1.478616e-02
1.473327e-02
1.468950e-02
1.466457e-02
1.466297e-02
1.468335e-02
1.472048e-02
1.476834e-02
1.482261e-02
1.488166e-02
1.494643e-02
1.501943e-02
1.510339e-02
1.520028e-02
1.531083e-02
1.543456e-02
1.557026e-02
1.571654e-02
1.587228e-02
1.603688e-02
1.621029e-02
1.639271e-02
1.658442e-02
1.678544e-02
1.699552e-02
1.721407e-02
1.744030e-02
1.767330e-02
1.791217e-02
1.815604e-02
1.840405e-02
1.865535e-02
1.890848e-02
1.916009e-02
1.940899e-02
1.965394e-02
1.989366e-02
2.012689e-02
2.035238e-02
2.056892e-02
2.077537e-02
2.097064e-02
2.115371e-02
2.132361e-02
2.147943e-02
2.162035e-02
2.174562e-02
2.185460e-02
2.194676e-02
2.202171e-02
2.207919e-02
2.211906e-02
2.214134e-02
2.214617e-02
2.213382e-02
2.210474e-02
2.205964e-02
2.199912e-02
2.192394e-02
2.183492e-02
2.173301e-02
2.161924e-02
2.149474e-02
2.136069e-02
2.121834e-02
2.106900e-02
2.091401e-02
2.075475e-02
2.059261e-02
2.042898e-02
2.026526e-02
2.010284e-02
1.994307e-02
1.978730e-02
1.963683e-02
1.949293e-02
1.935682e-02
1.922967e-02
1.911263e-02
1.900677e-02
1.891312e-02
1.883265e-02
1.876627e-02
1.871480e-02
1.867894e-02
1.867914e-02
1.669919e-02
1.665865e-02
1.645385e-02
1.630788e-02
1.617924e-02
1.603343e-02
1.585541e-02
1.565374e-02
1.545334e-02
1.528148e-02
1.515431e-02
1.507071e-02
1.501545e-02
1.496860e-02
1.491559e-02
1.485276e-02
1.478678e-02
1.472939e-02
1.469108e-02
1.467685e-02
1.468540e-02
1.471117e-02
1.474753e-02
1.478963e-02
1.483574e-02
1.488687e-02
1.494573e-02
1.501533e-02
1.509786e-02
1.519411e-02
1.530359e-02
1.542498e-02
1.555679e-02
1.569790e-02
1.584780e-02
1.600654e-02
1.617454e-02
1.635221e-02
1.653971e-02
1.673689e-02
1.694323e-02
1.715804e-02
1.738050e-02
1.760984e-02
1.784533e-02
1.808624e-02
1.833186e-02
1.858135e-02
1.883343e-02
1.908418e-02
1.933236e-02
1.957668e-02
1.981585e-02
2.004860e-02
2.027372e-02
2.049000e-02
2.069630e-02
2.089154e-02
2.107464e-02
2.124461e-02
2.140049e-02
2.154144e-02
2.166666e-02
2.177552e-02
2.186748e-02
2.194213e-02
2.199921e-02
2.203858e-02
2.206023e-02
2.206430e-02
2.205103e-02
2.202082e-02
2.197444e-02
2.191250e-02
2.183573e-02
2.174496e-02
2.164115e-02
2.152532e-02
2.139857e-02
2.126210e-02
2.111714e-02
2.096498e-02
2.080695e-02
2.064440e-02
2.047869e-02
2.031118e-02
2.014325e-02
1.997624e-02
1.981148e-02
1.965028e-02
1.949388e-02
1.934352e-02
1.920038e-02
1.906561e-02
1.894028e-02
1.882544e-02
1.872208e-02
1.863113e-02
1.855344e-02
1.848978e-02
1.844079e-02
1.844098e-02
1.679076e-02
1.678490e-02
1.660067e-02
1.644703e-02
1.628029e-02
1.608158e-02
1.585715e-02
1.563191e-02
1.543492e-02
1.528469e-02
1.518171e-02
1.511090e-02
1.505116e-02
1.498625e-02
1.491120e-02
1.483214e-02
1.476107e-02
1.470911e-02
1.468180e-02
1.467805e-02
1.469209e-02
1.471689e-02
1.474715e-02
1.478081e-02
1.481892e-02
1.486433e-02
1.492022e-02
1.498891e-02
1.507127e-02
1.516679e-02
1.527410e-02
1.539166e-02
1.551835e-02
1.565371e-02
1.579794e-02
1.595158e-02
1.611517e-02
1.628901e-02
1.647298e-02
1.666667e-02
1.686947e-02
1.708068e-02
1.729967e-02
1.752586e-02
1.775868e-02
1.799752e-02
1.824170e-02
1.849038e-02
1.874243e-02
1.899334e-02
1.924179e-02
1.948651e-02
1.972619e-02
1.995960e-02
2.018551e-02
2.040274e-02
2.061011e-02
2.080650e-02
2.099079e-02
2.116192e-02
2.131892e-02
2.146089e-02
2.158704e-02
2.169670e-02
2.178932e-02
2.186449e-02
2.192192e-02
2.196146e-02
2.198306e-02
2.198683e-02
2.197300e-02
2.194194e-02
2.189442e-02
2.183109e-02
2.175268e-02
2.166004e-02
2.155409e-02
2.143586e-02
2.130647e-02
2.116708e-02
2.101893e-02
2.086330e-02
2.070149e-02
2.053483e-02
2.036468e-02
2.019238e-02
2.001927e-02
1.984666e-02
1.967586e-02
1.950814e-02
1.934473e-02
1.918683e-02
1.903558e-02
1.889209e-02
1.875744e-02
1.863262e-02
1.851862e-02
1.841632e-02
1.832656e-02
1.825007e-02
1.818749e-02
1.818767e-02
1.690649e-02
1.693430e-02
1.674167e-02
1.654922e-02
1.632693e-02
1.607764e-02
1.582514e-02
1.559973e-02
1.542237e-02
1.529572e-02
1.520546e-02
1.512982e-02
1.505098e-02
1.496248e-02
1.486963e-02
1.478438e-02
1.471829e-02
1.467739e-02
1.466079e-02
1.466263e-02
1.467556e-02
1.469394e-02
1.471538e-02
1.474082e-02
1.477326e-02
1.481596e-02
1.487132e-02
1.494023e-02
1.502214e-02
1.511563e-02
1.521913e-02
1.533154e-02
1.545250e-02
1.558231e-02
1.572164e-02
1.587113e-02
1.603114e-02
1.620164e-02
1.638226e-02
1.657248e-02
1.677175e-02
1.697957e-02
1.719551e-02
1.741919e-02
1.765013e-02
1.788777e-02
1.813138e-02
1.838010e-02
1.863291e-02
1.888491e-02
1.913463e-02
1.938077e-02
1.962208e-02
1.985732e-02
2.008527e-02
2.030468e-02
2.051436e-02
2.071309e-02
2.089972e-02
2.107315e-02
2.123235e-02
2.137642e-02
2.150453e-02
2.161601e-02
2.171028e-02
2.178689e-02
2.184553e-02
2.188599e-02
2.190820e-02
2.191224e-02
2.189830e-02
2.186675e-02
2.181833e-02
2.175377e-02
2.167379e-02
2.157923e-02
2.147102e-02
2.135019e-02
2.121785e-02
2.107515e-02
2.092333e-02
2.076366e-02
2.059742e-02
2.042596e-02
2.025059e-02
2.007265e-02
1.989346e-02
1.971431e-02
1.953649e-02
1.936125e-02
1.918979e-02
1.902329e-02
1.886289e-02
1.870968e-02
1.856470e-02
1.842896e-02
1.830341e-02
1.818893e-02
1.808637e-02
1.799645e-02
1.791981e-02
1.791998e-02
1.703439e-02
1.708258e-02
1.685156e-02
1.660059e-02
1.632273e-02
1.603967e-02
1.578217e-02
1.557345e-02
1.541855e-02
1.530446e-02
1.520911e-02
1.511335e-02
1.500917e-02
1.490087e-02
1.480019e-02
1.471897e-02
1.466364e-02
1.463349e-02
1.462253e-02
1.462312e-02
1.462928e-02
1.463842e-02
1.465132e-02
1.467095e-02
1.470076e-02
1.474317e-02
1.479900e-02
1.486765e-02
1.494760e-02
1.503726e-02
1.513556e-02
1.524221e-02
1.535766e-02
1.548268e-02
1.561801e-02
1.576405e-02
1.592080e-02
1.608796e-02
1.626508e-02
1.645173e-02
1.664756e-02
1.685233e-02
1.706579e-02
1.728764e-02
1.751745e-02
1.775460e-02
1.799835e-02
1.824782e-02
1.850202e-02
1.875605e-02
1.900802e-02
1.925669e-02
1.950080e-02
1.973910e-02
1.997032e-02
2.019317e-02
2.040636e-02
2.060863e-02
2.079878e-02
2.097566e-02
2.113824e-02
2.128556e-02
2.141680e-02
2.153123e-02
2.162824e-02
2.170731e-02
2.176809e-02
2.181032e-02
2.183390e-02
2.183886e-02
2.182539e-02
2.179383e-02
2.174488e-02
2.167936e-02
2.159800e-02
2.150161e-02
2.139114e-02
2.126761e-02
2.113212e-02
2.098582e-02
2.082996e-02
2.066578e-02
2.049458e-02
2.031768e-02
2.013639e-02
1.995205e-02
1.976595e-02
1.957939e-02
1.939363e-02
1.920991e-02
1.902943e-02
1.885335e-02
1.868280e-02
1.851887e-02
1.836261e-02
1.821501e-02
1.807703e-02
1.794958e-02
1.783349e-02
1.772953e-02
1.763836e-02
1.763852e-02
1.715186e-02
1.720119e-02
1.691191e-02
1.660029e-02
1.628232e-02
1.598851e-02
1.574388e-02
1.555598e-02
1.541339e-02
1.529411e-02
1.517780e-02
1.505491e-02
1.492866e-02
1.481046e-02
1.471238e-02
1.464123e-02
1.459644e-02
1.457186e-02
1.455947e-02
1.455291e-02
1.454936e-02
1.454954e-02
1.455634e-02
1.457327e-02
1.460285e-02
1.464585e-02
1.470151e-02
1.476820e-02
1.484424e-02
1.492858e-02
1.502103e-02
1.512215e-02
1.523284e-02
1.535391e-02
1.548581e-02
1.562856e-02
1.578188e-02
1.594539e-02
1.611877e-02
1.630184e-02
1.649450e-02
1.669669e-02
1.690825e-02
1.712889e-02
1.735813e-02
1.759533e-02
1.783973e-02
1.809050e-02
1.834676e-02
1.860374e-02
1.885901e-02
1.911134e-02
1.935945e-02
1.960203e-02
1.983775e-02
2.006523e-02
2.028313e-02
2.049015e-02
2.068504e-02
2.086663e-02
2.103385e-02
2.118573e-02
2.132137e-02
2.143999e-02
2.154090e-02
2.162355e-02
2.168750e-02
2.173245e-02
2.175826e-02
2.176494e-02
2.175264e-02
2.172169e-02
2.167272e-02
2.160666e-02
2.152422e-02
2.142623e-02
2.131362e-02
2.118740e-02
2.104868e-02
2.089861e-02
2.073842e-02
2.056937e-02
2.039275e-02
2.020988e-02
2.002206e-02
1.983062e-02
1.963687e-02
1.944208e-02
1.924752e-02
1.905442e-02
1.886399e-02
1.867738e-02
1.849573e-02
1.832013e-02
1.815163e-02
1.799127e-02
1.784000e-02
1.769876e-02
1.756842e-02
1.744979e-02
1.734358e-02
1.734373e-02
1.723415e-02
1.726723e-02
1.691625e-02
1.655832e-02
1.622351e-02
1.593827e-02
1.571257e-02
1.553680e-02
1.538925e-02
1.524852e-02
1.510350e-02
1.495623e-02
1.481773e-02
1.470037e-02
1.461137e-02
1.455036e-02
1.451098e-02
1.448475e-02
1.446481e-02
1.444801e-02
1.443498e-02
1.442866e-02
1.443253e-02
1.444915e-02
1.447933e-02
1.452213e-02
1.457575e-02
1.463837e-02
1.470892e-02
1.478726e-02
1.487408e-02
1.497038e-02
1.507708e-02
1.519465e-02
1.532312e-02
1.546223e-02
1.561165e-02
1.577116e-02
1.594070e-02
1.612036e-02
1.631023e-02
1.651032e-02
1.672045e-02
1.694028e-02
1.716930e-02
1.740688e-02
1.765234e-02
1.790495e-02
1.816393e-02
1.842483e-02
1.868448e-02
1.894161e-02
1.919488e-02
1.944292e-02
1.968429e-02
1.991759e-02
2.014142e-02
2.035444e-02
2.055538e-02
2.074304e-02
2.091630e-02
2.107411e-02
2.121552e-02
2.133965e-02
2.144575e-02
2.153318e-02
2.160144e-02
2.165019e-02
2.167924e-02
2.168856e-02
2.167830e-02
2.164874e-02
2.160041e-02
2.153436e-02
2.145131e-02
2.135207e-02
2.123756e-02
2.110881e-02
2.096689e-02
2.081299e-02
2.064831e-02
2.047413e-02
2.029173e-02
2.010243e-02
1.990755e-02
1.970841e-02
1.950631e-02
1.930255e-02
1.909839e-02
1.889507e-02
1.869380e-02
1.849575e-02
1.830207e-02
1.811387e-02
1.793222e-02
1.775819e-02
1.759276e-02
1.743692e-02
1.729158e-02
1.715761e-02
1.703578e-02
1.703592e-02
1.726269e-02
1.727023e-02
1.687012e-02
1.648948e-02
1.615892e-02
1.589073e-02
1.567727e-02
1.549731e-02
1.532844e-02
1.515788e-02
1.498636e-02
1.482448e-02
1.468492e-02
1.457550e-02
1.449616e-02
1.444039e-02
1.439916e-02
1.436498e-02
1.433425e-02
1.430738e-02
1.428738e-02
1.427782e-02
1.428118e-02
1.429830e-02
1.432817e-02
1.436877e-02
1.441811e-02
1.447500e-02
1.453932e-02
1.461186e-02
1.469373e-02
1.478592e-02
1.488895e-02
1.500287e-02
1.512741e-02
1.526227e-02
1.540732e-02
1.556262e-02
1.572841e-02
1.590495e-02
1.609238e-02
1.629067e-02
1.649960e-02
1.671879e-02
1.694776e-02
1.718597e-02
1.743287e-02
1.768784e-02
1.795023e-02
1.821603e-02
1.848110e-02
1.874410e-02
1.900361e-02
1.925819e-02
1.950635e-02
1.974664e-02
1.997765e-02
2.019802e-02
2.040643e-02
2.060162e-02
2.078240e-02
2.094764e-02
2.109627e-02
2.122733e-02
2.133998e-02
2.143352e-02
2.150737e-02
2.156115e-02
2.159461e-02
2.160769e-02
2.160049e-02
2.157326e-02
2.152643e-02
2.146110e-02
2.137804e-02
2.127805e-02
2.116204e-02
2.103102e-02
2.088608e-02
2.072840e-02
2.055918e-02
2.037971e-02
2.019128e-02
1.999520e-02
1.979281e-02
1.958543e-02
1.937438e-02
1.916097e-02
1.894646e-02
1.873212e-02
1.851917e-02
1.830880e-02
1.810219e-02
1.790048e-02
1.770477e-02
1.751616e-02
1.733570e-02
1.716441e-02
1.700329e-02
1.685325e-02
1.671516e-02
1.671530e-02
1.723033e-02
1.721364e-02
1.678659e-02
1.640606e-02
1.609084e-02
1.583541e-02