# vtk DataFile Version 3.0
Scalar Field
ASCII
DATASET RECTILINEAR_GRID
DIMENSIONS 102 102 1
X_COORDINATES 102 double
0.000000 0.100000 0.200000 0.300000 0.400000 0.500000 0.600000 0.700000 0.800000 0.900000 1.000000 1.100000 1.200000 1.300000 1.400000 1.500000 1.600000 1.700000 1.800000 1.900000 2.000000 2.100000 2.200000 2.300000 2.400000 2.500000 2.600000 2.700000 2.800000 2.900000 3.000000 3.100000 3.200000 3.300000 3.400000 3.500000 3.600000 3.700000 3.800000 3.900000 4.000000 4.100000 4.200000 4.300000 4.400000 4.500000 4.600000 4.700000 4.800000 4.900000 5.000000 5.100000 5.200000 5.300000 5.400000 5.500000 5.600000 5.700000 5.800000 5.900000 6.000000 6.100000 6.200000 6.300000 6.400000 6.500000 6.600000 6.700000 6.800000 6.900000 7.000000 7.100000 7.200000 7.300000 7.400000 7.500000 7.600000 7.700000 7.800000 7.900000 8.000000 8.100000 8.200000 8.300000 8.400000 8.500000 8.600000 8.700000 8.800000 8.900000 9.000000 9.100000 9.200000 9.300000 9.400000 9.500000 9.600000 9.700000 9.800000 9.900000 10.000000 10.100000 
Y_COORDINATES 102 double
0.000000 0.100000 0.200000 0.300000 0.400000 0.500000 0.600000 0.700000 0.800000 0.900000 1.000000 1.100000 1.200000 1.300000 1.400000 1.500000 1.600000 1.700000 1.800000 1.900000 2.000000 2.100000 2.200000 2.300000 2.400000 2.500000 2.600000 2.700000 2.800000 2.900000 3.000000 3.100000 3.200000 3.300000 3.400000 3.500000 3.600000 3.700000 3.800000 3.900000 4.000000 4.100000 4.200000 4.300000 4.400000 4.500000 4.600000 4.700000 4.800000 4.900000 5.000000 5.100000 5.200000 5.300000 5.400000 5.500000 5.600000 5.700000 5.800000 5.900000 6.000000 6.100000 6.200000 6.300000 6.400000 6.500000 6.600000 6.700000 6.800000 6.900000 7.000000 7.100000 7.200000 7.300000 7.400000 7.500000 7.600000 7.700000 7.800000 7.900000 8.000000 8.100000 8.200000 8.300000 8.400000 8.500000 8.600000 8.700000 8.800000 8.900000 9.000000 9.100000 9.200000 9.300000 9.400000 9.500000 9.600000 9.700000 9.800000 9.900000 10.000000 10.100000 
Z_COORDINATES 1 double
0.0
POINT_DATA 10404
SCALARS Pressure double 1
LOOKUP_TABLE default
0.000000e+00
1.743054e-02
1.743673e-02
1.748855e-02
1.751537e-02
1.745061e-02
1.726978e-02
1.700044e-02
1.670470e-02
1.644645e-02
1.626199e-02
1.614794e-02
1.606993e-02
1.598447e-02
1.586168e-02
1.569784e-02
1.551369e-02
1.534203e-02
1.521207e-02
1.513848e-02
1.511868e-02
1.513795e-02
1.517801e-02
1.522488e-02
1.527286e-02
1.532425e-02
1.538617e-02
1.546663e-02
1.557153e-02
1.570333e-02
1.586127e-02
1.604252e-02
1.624348e-02
1.646089e-02
1.669247e-02
1.693704e-02
1.719441e-02
1.746492e-02
1.774909e-02
1.804714e-02
1.835878e-02
1.868308e-02
1.901853e-02
1.936322e-02
1.971504e-02
2.007190e-02
2.043182e-02
2.079296e-02
2.115353e-02
2.151184e-02
2.186621e-02
2.221492e-02
2.255616e-02
2.288805e-02
2.320870e-02
2.351625e-02
2.380889e-02
2.408493e-02
2.434279e-02
2.458101e-02
2.479828e-02
2.499341e-02
2.516535e-02
2.531321e-02
2.543625e-02
2.553390e-02
2.560577e-02
2.565166e-02
2.567154e-02
2.566557e-02
2.563410e-02
2.557763e-02
2.549684e-02
2.539257e-02
2.526583e-02
2.511780e-02
2.494985e-02
2.476351e-02
2.456049e-02
2.434270e-02
2.411216e-02
2.387106e-02
2.362172e-02
2.336657e-02
2.310816e-02
2.284915e-02
2.259230e-02
2.234050e-02
2.209671e-02
2.186398e-02
2.164547e-02
2.144437e-02
2.126389e-02
2.110721e-02
2.097734e-02
2.087694e-02
2.080799e-02
2.077110e-02
2.076433e-02
2.078086e-02
2.080526e-02
0.000000e+00
1.743054e-02
1.740880e-02
1.748152e-02
1.755729e-02
1.755840e-02
1.743932e-02
1.720928e-02
1.692282e-02
1.664929e-02
1.643899e-02
1.630323e-02
1.621600e-02
1.613317e-02
1.601717e-02
1.585462e-02
1.565972e-02
1.546445e-02
1.530248e-02
1.519530e-02
1.514624e-02
1.514330e-02
1.516747e-02
1.520169e-02
1.523675e-02
1.527253e-02
1.531541e-02
1.537417e-02
1.545628e-02
1.556572e-02
1.570277e-02
1.586496e-02
1.604851e-02
1.624970e-02
1.646574e-02
1.669509e-02
1.693740e-02
1.719307e-02
1.746281e-02
1.774714e-02
1.804605e-02
1.835887e-02
1.868428e-02
1.902048e-02
1.936542e-02
1.971704e-02
2.007339e-02
2.043270e-02
2.079331e-02
2.115355e-02
2.151176e-02
2.186623e-02
2.221515e-02
2.255664e-02
2.288876e-02
2.320958e-02
2.351721e-02
2.380986e-02
2.408586e-02
2.434365e-02
2.458179e-02
2.479897e-02
2.499401e-02
2.516587e-02
2.531367e-02
2.543666e-02
2.553429e-02
2.560618e-02
2.565211e-02
2.567206e-02
2.566618e-02
2.563480e-02
2.557842e-02
2.549768e-02
2.539343e-02
2.526667e-02
2.511859e-02
2.495057e-02
2.476415e-02
2.456107e-02
2.434323e-02
2.411266e-02
2.387156e-02
2.362222e-02
2.336709e-02
2.310869e-02
2.284969e-02
2.259284e-02
2.234104e-02
2.209723e-02
2.186450e-02
2.164598e-02
2.144487e-02
2.126439e-02
2.110771e-02
2.097783e-02
2.087744e-02
2.080849e-02
2.077161e-02
2.076483e-02
2.078136e-02
2.080577e-02
2.080526e-02
1.743484e-02
1.748124e-02
1.759141e-02
1.763118e-02
1.755260e-02
1.736743e-02
1.712951e-02
1.690348e-02
1.673292e-02
1.662366e-02
1.654816e-02
1.646525e-02
1.634338e-02
1.617528e-02
1.597885e-02
1.578602e-02
1.562739e-02
1.552019e-02
1.546442e-02
1.544708e-02
1.545051e-02
1.546053e-02
1.547093e-02
1.548362e-02
1.550558e-02
1.554496e-02
1.560792e-02
1.569720e-02
1.581223e-02
1.595031e-02
1.610794e-02
1.628198e-02
1.647026e-02
1.667183e-02
1.688669e-02
1.711542e-02
1.735870e-02
1.761692e-02
1.788994e-02
1.817696e-02
1.847665e-02
1.878731e-02
1.910714e-02
1.943439e-02
1.976745e-02
2.010489e-02
2.044532e-02
2.078734e-02
2.112931e-02
2.146953e-02
2.180620e-02
2.213747e-02
2.246143e-02
2.277622e-02
2.308001e-02
2.337107e-02
2.364776e-02
2.390856e-02
2.415201e-02
2.437678e-02
2.458164e-02
2.476550e-02
2.492739e-02
2.506647e-02
2.518207e-02
2.527369e-02
2.534096e-02
2.538370e-02
2.540190e-02
2.539568e-02
2.536537e-02
2.531145e-02
2.523455e-02
2.513549e-02
2.501528e-02
2.487509e-02
2.471627e-02
2.454033e-02
2.434896e-02
2.414397e-02
2.392729e-02
2.370100e-02
2.346727e-02
2.322842e-02
2.298682e-02
2.274500e-02
2.250556e-02
2.227118e-02
2.204462e-02
2.182871e-02
2.162629e-02
2.144024e-02
2.127338e-02
2.112840e-02
2.100779e-02
2.091358e-02
2.084712e-02
2.080857e-02
2.079625e-02
2.080589e-02
2.083039e-02
2.082988e-02
1.757601e-02
1.764986e-02
1.771805e-02
1.766352e-02
1.750004e-02
1.729048e-02
1.710241e-02
1.697482e-02
1.690427e-02
1.685436e-02
1.678020e-02
1.665311e-02
1.647350e-02
1.626755e-02
1.607227e-02
1.591813e-02
1.581797e-02
1.576583e-02
1.574411e-02
1.573378e-02
1.572256e-02
1.570801e-02
1.569583e-02
1.569546e-02
1.571558e-02
1.576134e-02
1.583373e-02
1.593058e-02
1.604817e-02
1.618279e-02
1.633174e-02
1.649365e-02
1.666838e-02
1.685663e-02
1.705938e-02
1.727743e-02
1.751107e-02
1.775987e-02
1.802279e-02
1.829834e-02
1.858486e-02
1.888070e-02
1.918442e-02
1.949482e-02
1.981082e-02
2.013136e-02
2.045526e-02
2.078111e-02
2.110710e-02
2.143137e-02
2.175204e-02
2.206727e-02
2.237522e-02
2.267414e-02
2.296240e-02
2.323839e-02
2.350062e-02
2.374767e-02
2.397817e-02
2.419087e-02
2.438460e-02
2.455833e-02
2.471115e-02
2.484228e-02
2.495110e-02
2.503712e-02
2.510002e-02
2.513961e-02
2.515586e-02
2.514893e-02
2.511911e-02
2.506689e-02
2.499292e-02
2.489802e-02
2.478320e-02
2.464961e-02
2.449859e-02
2.433159e-02
2.415022e-02
2.395621e-02
2.375140e-02
2.353776e-02
2.331735e-02
2.309235e-02
2.286505e-02
2.263781e-02
2.241308e-02
2.219338e-02
2.198127e-02
2.177933e-02
2.159017e-02
2.141636e-02
2.126041e-02
2.112468e-02
2.101126e-02
2.092190e-02
2.085776e-02
2.081921e-02
2.080563e-02
2.081548e-02
2.084715e-02
2.084664e-02
1.778976e-02
1.784008e-02
1.780475e-02
1.765232e-02
1.745225e-02
1.728210e-02
1.718367e-02
1.714817e-02
1.712942e-02
1.707391e-02
1.695006e-02
1.676203e-02
1.654381e-02
1.633999e-02
1.618475e-02
1.608963e-02
1.604376e-02
1.602388e-02
1.600733e-02
1.598140e-02
1.594606e-02
1.591067e-02
1.588793e-02
1.588822e-02
1.591671e-02
1.597319e-02
1.605383e-02
1.615357e-02
1.626803e-02
1.639453e-02
1.653225e-02
1.668188e-02
1.684487e-02
1.702277e-02
1.721663e-02
1.742674e-02
1.765246e-02
1.789249e-02
1.814516e-02
1.840872e-02
1.868167e-02
1.896284e-02
1.925137e-02
1.954653e-02
1.984757e-02
2.015354e-02
2.046317e-02
2.077493e-02
2.108673e-02
2.139659e-02
2.170268e-02
2.200323e-02
2.229658e-02
2.258113e-02
2.285538e-02
2.311786e-02
2.336716e-02
2.360190e-02
2.382081e-02
2.402267e-02
2.420639e-02
2.437099e-02
2.451559e-02
2.463948e-02
2.474204e-02
2.482283e-02
2.488151e-02
2.491792e-02
2.493203e-02
2.492399e-02
2.489414e-02
2.484296e-02
2.477114e-02
2.467949e-02
2.456903e-02
2.444089e-02
2.429635e-02
2.413681e-02
2.396381e-02
2.377899e-02
2.358411e-02
2.338105e-02
2.317178e-02
2.295839e-02
2.274304e-02
2.252797e-02
2.231548e-02
2.210793e-02
2.190770e-02
2.171715e-02
2.153869e-02
2.137463e-02
2.122724e-02
2.109862e-02
2.099067e-02
2.090499e-02
2.084279e-02
2.080487e-02
2.079158e-02
2.080323e-02
2.084093e-02
2.084042e-02
1.799353e-02
1.798689e-02
1.784462e-02
1.764292e-02
1.747242e-02
1.738404e-02
1.737033e-02
1.737878e-02
1.734623e-02
1.723373e-02
1.704393e-02
1.681526e-02
1.659954e-02
1.643704e-02
1.634138e-02
1.629948e-02
1.628338e-02
1.626580e-02
1.623160e-02
1.618113e-02
1.612620e-02
1.608260e-02
1.606311e-02
1.607391e-02
1.611444e-02
1.617971e-02
1.626331e-02
1.635991e-02
1.646646e-02
1.658239e-02
1.670897e-02
1.684837e-02
1.700274e-02
1.717350e-02
1.736101e-02
1.756454e-02
1.778260e-02
1.801333e-02
1.825493e-02
1.850598e-02
1.876553e-02
1.903300e-02
1.930798e-02
1.958999e-02
1.987827e-02
2.017170e-02
2.046885e-02
2.076804e-02
2.106697e-02
2.136368e-02
2.165647e-02
2.194375e-02
2.222399e-02
2.249574e-02
2.275757e-02
2.300807e-02
2.324590e-02
2.346973e-02
2.367832e-02
2.387053e-02
2.404529e-02
2.420168e-02
2.433887e-02
2.445615e-02
2.455295e-02
2.462881e-02
2.468342e-02
2.471662e-02
2.472841e-02
2.471896e-02
2.468863e-02
2.463795e-02
2.456761e-02
2.447843e-02
2.437139e-02
2.424760e-02
2.410829e-02
2.395480e-02
2.378859e-02
2.361126e-02
2.342449e-02
2.323009e-02
2.302996e-02
2.282608e-02
2.262052e-02
2.241538e-02
2.221285e-02
2.201511e-02
2.182439e-02
2.164289e-02
2.147279e-02
2.131624e-02
2.117530e-02
2.105189e-02
2.094779e-02
2.086456e-02
2.080354e-02
2.076585e-02
2.075255e-02
2.076492e-02
2.080510e-02
2.080460e-02
1.813625e-02
1.807267e-02
1.787232e-02
1.769055e-02
1.759579e-02
1.758726e-02
1.761164e-02
1.759884e-02
1.750137e-02
1.731648e-02
1.708256e-02
1.685593e-02
1.668277e-02
1.658088e-02
1.653790e-02
1.652341e-02
1.650629e-02
1.646818e-02
1.640806e-02
1.633850e-02
1.627728e-02
1.623944e-02
1.623271e-02
1.625699e-02
1.630690e-02
1.637512e-02
1.645536e-02
1.654401e-02
1.664040e-02
1.674610e-02
1.686382e-02
1.699622e-02
1.714511e-02
1.731099e-02
1.749314e-02
1.768996e-02
1.789947e-02
1.811989e-02
1.834986e-02
1.858862e-02
1.883581e-02
1.909128e-02
1.935473e-02
1.962560e-02
1.990289e-02
2.018527e-02
2.047116e-02
2.075889e-02
2.104610e-02
2.133090e-02
2.161178e-02
2.188728e-02
2.215599e-02
2.241651e-02
2.266746e-02
2.290747e-02
2.313522e-02
2.334944e-02
2.354892e-02
2.373258e-02
2.389940e-02
2.404847e-02
2.417899e-02
2.429028e-02
2.438177e-02
2.445300e-02
2.450370e-02
2.453372e-02
2.454310e-02
2.453202e-02
2.450089e-02
2.445027e-02
2.438083e-02
2.429340e-02
2.418891e-02
2.406843e-02
2.393314e-02
2.378434e-02
2.362347e-02
2.345204e-02
2.327170e-02
2.308420e-02
2.289135e-02
2.269505e-02
2.249727e-02
2.230000e-02
2.210530e-02
2.191522e-02
2.173183e-02
2.155720e-02
2.139335e-02
2.124226e-02
2.110582e-02
2.098585e-02
2.088403e-02
2.080191e-02
2.074091e-02
2.070241e-02
2.068780e-02
2.069879e-02
2.073769e-02
2.073719e-02
1.821910e-02
1.812944e-02
1.794024e-02
1.782902e-02
1.781187e-02
1.783879e-02
1.783694e-02
1.775217e-02
1.757521e-02
1.734126e-02
1.710764e-02
1.692435e-02
1.681330e-02
1.676452e-02
1.674747e-02
1.672903e-02
1.668820e-02
1.662204e-02
1.654245e-02
1.646782e-02
1.641453e-02
1.639166e-02
1.640005e-02
1.643449e-02
1.648743e-02
1.655202e-02
1.662413e-02
1.670282e-02
1.678970e-02
1.688772e-02
1.699991e-02
1.712834e-02
1.727370e-02
1.743531e-02
1.761155e-02
1.780047e-02
1.800031e-02
1.820986e-02
1.842852e-02
1.865612e-02
1.889268e-02
1.913806e-02
1.939180e-02
1.965302e-02
1.992050e-02
2.019279e-02
2.046835e-02
2.074563e-02
2.102231e-02
2.129658e-02
2.156704e-02
2.183233e-02
2.209107e-02
2.234188e-02
2.258341e-02
2.281431e-02
2.303329e-02
2.323913e-02
2.343067e-02
2.360686e-02
2.376670e-02
2.390932e-02
2.403391e-02
2.413980e-02
2.422643e-02
2.429338e-02
2.434038e-02
2.436732e-02
2.437428e-02
2.436147e-02
2.432931e-02
2.427837e-02
2.420933e-02
2.412297e-02
2.402019e-02
2.390204e-02
2.376966e-02
2.362433e-02
2.346743e-02
2.330047e-02
2.312503e-02
2.294279e-02
2.275551e-02
2.256500e-02
2.237314e-02
2.218182e-02
2.199297e-02
2.180855e-02
2.163050e-02
2.146074e-02
2.130117e-02
2.115363e-02
2.101990e-02
2.090167e-02
2.080057e-02
2.071812e-02
2.065579e-02
2.061505e-02
2.059744e-02
2.060473e-02
2.063907e-02
2.063857e-02
1.828672e-02
1.821489e-02
1.808781e-02
1.805308e-02
1.807129e-02
1.806980e-02
1.799074e-02
1.781955e-02
1.758741e-02
1.735033e-02
1.715960e-02
1.703968e-02
1.698286e-02
1.695967e-02
1.693667e-02
1.689167e-02
1.682034e-02
1.673352e-02
1.664923e-02
1.658405e-02
1.654766e-02
1.654157e-02
1.656113e-02
1.659891e-02
1.664811e-02
1.670440e-02
1.676664e-02
1.683635e-02
1.691652e-02
1.701028e-02
1.711983e-02
1.724593e-02
1.738798e-02
1.754440e-02
1.771332e-02
1.789314e-02
1.808281e-02
1.828193e-02
1.849051e-02
1.870868e-02
1.893640e-02
1.917327e-02
1.941849e-02
1.967097e-02
1.992937e-02
2.019231e-02
2.045844e-02
2.072641e-02
2.099392e-02
2.125914e-02
2.152073e-02
2.177733e-02
2.202758e-02
2.227010e-02
2.250356e-02
2.272665e-02
2.293812e-02
2.313679e-02
2.332154e-02
2.349131e-02
2.364514e-02
2.378214e-02
2.390152e-02
2.400262e-02
2.408488e-02
2.414793e-02
2.419153e-02
2.421560e-02
2.422023e-02
2.420565e-02
2.417229e-02
2.412073e-02
2.405161e-02
2.396569e-02
2.386387e-02
2.374716e-02
2.361669e-02
2.347370e-02
2.331958e-02
2.315576e-02
2.298381e-02
2.280535e-02
2.262205e-02
2.243568e-02
2.224800e-02
2.206085e-02
2.187605e-02
2.169545e-02
2.152087e-02
2.135414e-02
2.119701e-02
2.105125e-02
2.091850e-02
2.080040e-02
2.069847e-02
2.061421e-02
2.054908e-02
2.050455e-02
2.048216e-02
2.048359e-02
2.051071e-02
2.051022e-02
1.839760e-02
1.837790e-02
1.832018e-02
1.832173e-02
1.831112e-02
1.822871e-02
1.805670e-02
1.782326e-02
1.758273e-02
1.738623e-02
1.725899e-02
1.719425e-02
1.716328e-02
1.713300e-02
1.708122e-02
1.700332e-02
1.690966e-02
1.681770e-02
1.674353e-02
1.669656e-02
1.667833e-02
1.668445e-02
1.670786e-02
1.674202e-02
1.678288e-02
1.682940e-02
1.688308e-02
1.694687e-02
1.702382e-02
1.711606e-02
1.722430e-02
1.734792e-02
1.748541e-02
1.763504e-02
1.779541e-02
1.796572e-02
1.814579e-02
1.833579e-02
1.853598e-02
1.874636e-02
1.896656e-02
1.919585e-02
1.943321e-02
1.967746e-02
1.992739e-02
2.018181e-02
2.043958e-02
2.069955e-02
2.095934e-02
2.121699e-02
2.147116e-02
2.172049e-02
2.196361e-02
2.219917e-02
2.242586e-02
2.264242e-02
2.284763e-02
2.304033e-02
2.321941e-02
2.338382e-02
2.353258e-02
2.366481e-02
2.377971e-02
2.387665e-02
2.395510e-02
2.401472e-02
2.405528e-02
2.407676e-02
2.407922e-02
2.406292e-02
2.402823e-02
2.397578e-02
2.390617e-02
2.382017e-02
2.371864e-02
2.360259e-02
2.347314e-02
2.333152e-02
2.317907e-02
2.301721e-02
2.284746e-02
2.267139e-02
2.249063e-02
2.230686e-02
2.212179e-02
2.193716e-02
2.175473e-02
2.157624e-02
2.140342e-02
2.123798e-02
2.108162e-02
2.093595e-02
2.080257e-02
2.068301e-02
2.057874e-02
2.049119e-02
2.042176e-02
2.037190e-02
2.034305e-02
2.033674e-02
2.035455e-02
2.035406e-02
1.859093e-02
1.863200e-02
1.860566e-02
1.857859e-02
1.848408e-02
1.830234e-02
1.806010e-02
1.781123e-02
1.760687e-02
1.747216e-02
1.739998e-02
1.736109e-02
1.732215e-02
1.726124e-02
1.717427e-02
1.707211e-02
1.697221e-02
1.689021e-02
1.683477e-02
1.680678e-02
1.680149e-02
1.681195e-02
1.683197e-02
1.685789e-02
1.688916e-02
1.692751e-02
1.697591e-02
1.703730e-02
1.711361e-02
1.720537e-02
1.731179e-02
1.743139e-02
1.756257e-02
1.770417e-02
1.785566e-02
1.801714e-02
1.818897e-02
1.837149e-02
1.856476e-02
1.876843e-02
1.898180e-02
1.920393e-02
1.943377e-02
1.967029e-02
1.991249e-02
2.015941e-02
2.041006e-02
2.066337e-02
2.091685e-02
2.116832e-02
2.141641e-02
2.165977e-02
2.189705e-02
2.212693e-02
2.234814e-02
2.255945e-02
2.275966e-02
2.294759e-02
2.312212e-02
2.328220e-02
2.342683e-02
2.355512e-02
2.366632e-02
2.375980e-02
2.383507e-02
2.389179e-02
2.392979e-02
2.394902e-02
2.394955e-02
2.393161e-02
2.389554e-02
2.384200e-02
2.377158e-02
2.368504e-02
2.358324e-02
2.346718e-02
2.333798e-02
2.319685e-02
2.304510e-02
2.288413e-02
2.271542e-02
2.254049e-02
2.236094e-02
2.217837e-02
2.199445e-02
2.181084e-02
2.162922e-02
2.145125e-02
2.127859e-02
2.111286e-02
2.095566e-02
2.080853e-02
2.067298e-02
2.055045e-02
2.044236e-02
2.035007e-02
2.027491e-02
2.021824e-02
2.018140e-02
2.016575e-02
2.017262e-02
2.017214e-02
1.886626e-02
1.894863e-02
1.889116e-02
1.877749e-02
1.857720e-02
1.831647e-02
1.805028e-02
1.783127e-02
1.768515e-02
1.760397e-02
1.755673e-02
1.750856e-02
1.743698e-02
1.733847e-02
1.722503e-02
1.711503e-02
1.702424e-02
1.696073e-02
1.692438e-02
1.690952e-02
1.690875e-02
1.691593e-02
1.692782e-02
1.694434e-02
1.696780e-02
1.700140e-02
1.704806e-02
1.710948e-02
1.718589e-02
1.727631e-02
1.737912e-02
1.749281e-02
1.761642e-02
1.774975e-02
1.789314e-02
1.804716e-02
1.821229e-02
1.838861e-02
1.857582e-02
1.877324e-02
1.897999e-02
1.919516e-02
1.941789e-02
1.964735e-02
1.988278e-02
2.012333e-02
2.036810e-02
2.061602e-02
2.086449e-02
2.111102e-02
2.135428e-02
2.159291e-02
2.182562e-02
2.205112e-02
2.226816e-02
2.247551e-02
2.267195e-02
2.285629e-02
2.302738e-02
2.318415e-02
2.332559e-02
2.345084e-02
2.355916e-02
2.364995e-02
2.372274e-02
2.377722e-02
2.381319e-02
2.383059e-02
2.382947e-02
2.381004e-02
2.377262e-02
2.371786e-02
2.364640e-02
2.355897e-02
2.345646e-02
2.333984e-02
2.321023e-02
2.306882e-02
2.291692e-02
2.275589e-02
2.258718e-02
2.241227e-02
2.223271e-02
2.205008e-02
2.186596e-02
2.168198e-02
2.149973e-02
2.132083e-02
2.114684e-02
2.097932e-02
2.081979e-02
2.066972e-02
2.053053e-02
2.040360e-02
2.029028e-02
2.019185e-02
2.010960e-02
2.004476e-02
1.999857e-02
1.997224e-02
1.996689e-02
1.996641e-02
1.918433e-02
1.927136e-02
1.912632e-02
1.890054e-02
1.861219e-02
1.831817e-02
1.807439e-02
1.790890e-02
1.781369e-02
1.775568e-02
1.769718e-02
1.761382e-02
1.750180e-02
1.737420e-02
1.725089e-02
1.714866e-02
1.707556e-02
1.703063e-02
1.700704e-02
1.699639e-02
1.699210e-02
1.699105e-02
1.699361e-02
1.700259e-02
1.702172e-02
1.705406e-02
1.710122e-02
1.716313e-02
1.723851e-02
1.732555e-02
1.742272e-02
1.752923e-02
1.764512e-02
1.777097e-02
1.790760e-02
1.805559e-02
1.821511e-02
1.838587e-02
1.856725e-02
1.875845e-02
1.895867e-02
1.916721e-02
1.938342e-02
1.960671e-02
1.983640e-02
2.007171e-02
2.031172e-02
2.055536e-02
2.079998e-02
2.104275e-02
2.128236e-02
2.151751e-02
2.174694e-02
2.196938e-02
2.218356e-02
2.238824e-02
2.258214e-02
2.276404e-02
2.293277e-02
2.308724e-02
2.322647e-02
2.334962e-02
2.345598e-02
2.354495e-02
2.361608e-02
2.366903e-02
2.370359e-02
2.371964e-02
2.371723e-02
2.369652e-02
2.365784e-02
2.360184e-02
2.352920e-02
2.344066e-02
2.333709e-02
2.321948e-02
2.308893e-02
2.294662e-02
2.279383e-02
2.263191e-02
2.246228e-02
2.228638e-02
2.210573e-02
2.192187e-02
2.173633e-02
2.155069e-02
2.136650e-02
2.118529e-02
2.100860e-02
2.083790e-02
2.067463e-02
2.052021e-02
2.037600e-02
2.024330e-02
2.012340e-02
2.001753e-02
1.992688e-02
1.985262e-02
1.979588e-02
1.975773e-02
1.973915e-02
1.973868e-02
1.948628e-02
1.954182e-02
1.928373e-02
1.896109e-02
1.863008e-02
1.835090e-02
1.815581e-02
1.803856e-02
1.796465e-02
1.789314e-02
1.779649e-02
1.766934e-02
1.752513e-02
1.738527e-02
1.726810e-02
1.718247e-02
1.712711e-02
1.709418e-02
1.707404e-02
1.705922e-02
1.704625e-02
1.703569e-02
1.703076e-02
1.703565e-02
1.705386e-02
1.708702e-02
1.713491e-02
1.719591e-02
1.726800e-02
1.734954e-02
1.743980e-02
1.753898e-02
1.764792e-02
1.776759e-02
1.789872e-02
1.804156e-02
1.819588e-02
1.836112e-02
1.853656e-02
1.872153e-02
1.891547e-02
1.911790e-02
1.932839e-02
1.954642e-02
1.977135e-02
2.000240e-02
2.023862e-02
2.047896e-02
2.072080e-02
2.096094e-02
2.119811e-02
2.143106e-02
2.165853e-02
2.187923e-02
2.209186e-02
2.229510e-02
2.248764e-02
2.266822e-02
2.283566e-02
2.298890e-02
2.312699e-02
2.324909e-02
2.335451e-02
2.344265e-02
2.351302e-02
2.356523e-02
2.359903e-02
2.361427e-02
2.361098e-02
2.358931e-02
2.354957e-02
2.349241e-02
2.341858e-02
2.332881e-02
2.322399e-02
2.310508e-02
2.297318e-02
2.282945e-02
2.267517e-02
2.251164e-02
2.234027e-02
2.216249e-02
2.197978e-02
2.179363e-02
2.160556e-02
2.141709e-02
2.122974e-02
2.104498e-02
2.086429e-02
2.068909e-02
2.052077e-02
2.036068e-02
2.021012e-02
2.007035e-02
1.994260e-02
1.982803e-02
1.972779e-02
1.964296e-02
1.957459e-02
1.952366e-02
1.949101e-02
1.949056e-02
1.971996e-02
1.972393e-02
1.936669e-02
1.899252e-02
1.866935e-02
1.843489e-02
1.828645e-02
1.818964e-02
1.810068e-02
1.798825e-02
1.784430e-02
1.768154e-02
1.752238e-02
1.738690e-02
1.728526e-02
1.721657e-02
1.717239e-02
1.714198e-02
1.711672e-02
1.709241e-02
1.706940e-02
1.705113e-02
1.704216e-02
1.704631e-02
1.706555e-02
1.709957e-02
1.714657e-02
1.720426e-02
1.727085e-02
1.734558e-02
1.742876e-02
1.752136e-02
1.762453e-02
1.773911e-02
1.786544e-02
1.800334e-02
1.815232e-02
1.831178e-02
1.848118e-02
1.866009e-02
1.884819e-02
1.904521e-02
1.925077e-02
1.946438e-02
1.968537e-02
1.991294e-02
2.014618e-02
2.038410e-02
2.062422e-02
2.086289e-02
2.109888e-02
2.133094e-02
2.155778e-02
2.177803e-02
2.199034e-02
2.219331e-02
2.238562e-02
2.256600e-02
2.273329e-02
2.288646e-02
2.302459e-02
2.314683e-02
2.325245e-02
2.334082e-02
2.341138e-02
2.346369e-02
2.349745e-02
2.351250e-02
2.350883e-02
2.348660e-02
2.344613e-02
2.338803e-02
2.331313e-02
2.322217e-02
2.311602e-02
2.299563e-02
2.286209e-02
2.271656e-02
2.256027e-02
2.239453e-02
2.222073e-02
2.204028e-02
2.185463e-02
2.166527e-02
2.147366e-02
2.128131e-02
2.108967e-02
2.090019e-02
2.071430e-02
2.053336e-02
2.035874e-02
2.019171e-02
2.003356e-02
1.988549e-02
1.974867e-02
1.962424e-02
1.951328e-02
1.941682e-02
1.933586e-02
1.927128e-02
1.922388e-02
1.922343e-02
1.986041e-02
1.981555e-02
1.940267e-02
1.902994e-02
1.874861e-02
1.856083e-02
1.843383e-02
1.832200e-02
1.819037e-02
1.802752e-02
1.784451e-02
1.766402e-02
1.750752e-02
1.738671e-02
1.730154e-02
1.724350e-02
1.720106e-02
1.716454e-02
1.712880e-02
1.709364e-02
1.706244e-02
1.703996e-02
1.703029e-02
1.703560e-02
1.705577e-02
1.708888e-02
1.713246e-02
1.718455e-02
1.724431e-02
1.731206e-02
1.738887e-02
1.747598e-02
1.757433e-02
1.768431e-02
1.780583e-02
1.793848e-02
1.808176e-02
1.823525e-02
1.839868e-02
1.857188e-02
1.875473e-02
1.894699e-02
1.914831e-02
1.935814e-02
1.957581e-02
1.980055e-02
2.003154e-02
2.026789e-02
2.050740e-02
2.074582e-02
2.098191e-02
2.121437e-02
2.144182e-02
2.166282e-02
2.187595e-02
2.207979e-02
2.227301e-02
2.245438e-02
2.262279e-02
2.277720e-02
2.291668e-02
2.304034e-02
2.314738e-02
2.323708e-02
2.330883e-02
2.336213e-02
2.339665e-02
2.341221e-02
2.340880e-02
2.338657e-02
2.334584e-02
2.328717e-02
2.321147e-02
2.311948e-02
2.301205e-02
2.289013e-02
2.275477e-02
2.260714e-02
2.244846e-02
2.228003e-02
2.210322e-02
2.191944e-02
2.173011e-02
2.153670e-02
2.134066e-02
2.114344e-02
2.094648e-02
2.075120e-02
2.055897e-02
2.037115e-02
2.018903e-02
2.001389e-02
1.984696e-02
1.968941e-02
1.954238e-02
1.940698e-02
1.928424e-02
1.917517e-02
1.908070e-02
1.900170e-02
1.893893e-02
1.893850e-02
1.991607e-02
1.984417e-02
1.942739e-02
1.909414e-02
1.886077e-02
1.869724e-02
1.855717e-02
1.840243e-02
1.821810e-02
1.801305e-02
1.780955e-02
1.763004e-02
1.748762e-02
1.738325e-02
1.730872e-02
1.725208e-02
1.720279e-02
1.715482e-02
1.710730e-02
1.706327e-02
1.702751e-02
1.700427e-02
1.699581e-02
1.700213e-02
1.702139e-02
1.705100e-02
1.708884e-02
1.713398e-02
1.718673e-02
1.724818e-02
1.731961e-02
1.740202e-02
1.749586e-02
1.760109e-02
1.771735e-02
1.784426e-02
1.798153e-02
1.812904e-02
1.828677e-02
1.845473e-02
1.863285e-02
1.882088e-02
1.901841e-02
1.922489e-02
1.943971e-02
1.966220e-02
1.989167e-02
2.012737e-02
2.036742e-02
2.060681e-02
2.084423e-02
2.107827e-02
2.130746e-02
2.153030e-02
2.174534e-02
2.195119e-02
2.214657e-02
2.233028e-02
2.250121e-02
2.265831e-02
2.280055e-02
2.292697e-02
2.303667e-02
2.312884e-02
2.320282e-02
2.325809e-02
2.329428e-02
2.331121e-02
2.330885e-02
2.328734e-02
2.324699e-02
2.318827e-02
2.311218e-02
2.301945e-02
2.291091e-02
2.278750e-02
2.265028e-02
2.250039e-02
2.233906e-02
2.216758e-02
2.198731e-02
2.179965e-02
2.160601e-02
2.140782e-02
2.120654e-02
2.100357e-02
2.080035e-02
2.059825e-02
2.039864e-02
2.020283e-02
2.001212e-02
1.982775e-02
1.965091e-02
1.948277e-02
1.932444e-02
1.917700e-02
1.904148e-02
1.891885e-02
1.881004e-02
1.871589e-02
1.863715e-02
1.863674e-02
1.991995e-02
1.985063e-02
1.946804e-02
1.918427e-02
1.897896e-02
1.880575e-02
1.862386e-02
1.841502e-02
1.818567e-02
1.795735e-02
1.775310e-02
1.758716e-02
1.746148e-02
1.736824e-02
1.729527e-02
1.723144e-02
1.716996e-02
1.710932e-02
1.705216e-02
1.700308e-02
1.696638e-02
1.694440e-02
1.693705e-02
1.694253e-02
1.695825e-02
1.698199e-02
1.701274e-02
1.705076e-02
1.709715e-02
1.715322e-02
1.721997e-02
1.729788e-02
1.738690e-02
1.748677e-02
1.759717e-02
1.771794e-02
1.784909e-02
1.799079e-02
1.814317e-02
1.830629e-02
1.848003e-02
1.866410e-02
1.885809e-02
1.906153e-02
1.927393e-02
1.949478e-02
1.972352e-02
1.995949e-02
2.020122e-02
2.044271e-02
2.068253e-02
2.091917e-02
2.115110e-02
2.137681e-02
2.159490e-02
2.180404e-02
2.200298e-02
2.219054e-02
2.236554e-02
2.252682e-02
2.267327e-02
2.280378e-02
2.291739e-02
2.301323e-02
2.309060e-02
2.314894e-02
2.318788e-02
2.320721e-02
2.320687e-02
2.318697e-02
2.314778e-02
2.308970e-02
2.301374e-02
2.292068e-02
2.281134e-02
2.268664e-02
2.254764e-02
2.239548e-02
2.223137e-02
2.205662e-02
2.187256e-02
2.168058e-02
2.148209e-02
2.127851e-02
2.107126e-02
2.086175e-02
2.065139e-02
2.044156e-02
2.023359e-02
2.002880e-02
1.982846e-02
1.963379e-02
1.944599e-02
1.926619e-02
1.909551e-02
1.893502e-02
1.878573e-02
1.864863e-02
1.852465e-02
1.841464e-02
1.831936e-02
1.831897e-02
1.991172e-02
1.986977e-02
1.953270e-02
1.928073e-02
1.906960e-02
1.885631e-02
1.861934e-02
1.836268e-02
1.810700e-02
1.787581e-02
1.768437e-02
1.753549e-02
1.742164e-02
1.733048e-02
1.725033e-02
1.717382e-02
1.709890e-02
1.702784e-02
1.696505e-02
1.691477e-02
1.687934e-02
1.685861e-02
1.685052e-02
1.685248e-02
1.686225e-02
1.687875e-02
1.690222e-02
1.693377e-02
1.697471e-02
1.702603e-02
1.708819e-02
1.716115e-02
1.724464e-02
1.733843e-02
1.744246e-02
1.755689e-02
1.768202e-02
1.781813e-02
1.796543e-02
1.812389e-02
1.829335e-02
1.847353e-02
1.866411e-02
1.886478e-02
1.907525e-02
1.929515e-02
1.952401e-02
1.976112e-02
2.000543e-02
2.024994e-02
2.049304e-02
2.073316e-02
2.096877e-02
2.119846e-02
2.142089e-02
2.163477e-02
2.183885e-02
2.203186e-02
2.221249e-02
2.237946e-02
2.253151e-02
2.266749e-02
2.278633e-02
2.288715e-02
2.296920e-02
2.303192e-02
2.307488e-02
2.309782e-02
2.310064e-02
2.308339e-02
2.304628e-02
2.298969e-02
2.291453e-02
2.282170e-02
2.271200e-02
2.258637e-02
2.244583e-02
2.229152e-02
2.212466e-02
2.194654e-02
2.175848e-02
2.156186e-02
2.135809e-02
2.114858e-02
2.093474e-02
2.071800e-02
2.049974e-02
2.028134e-02
2.006413e-02
1.984943e-02
1.963848e-02
1.943252e-02
1.923273e-02
1.904025e-02
1.885619e-02
1.868165e-02
1.851764e-02
1.836518e-02
1.822521e-02
1.809862e-02
1.798620e-02
1.798583e-02
1.991996e-02
1.991654e-02
1.960927e-02
1.935504e-02
1.910556e-02
1.883605e-02
1.854801e-02
1.826124e-02
1.799978e-02
1.777999e-02
1.760550e-02
1.746900e-02
1.735779e-02
1.725959e-02
1.716642e-02
1.707575e-02
1.698960e-02
1.691226e-02
1.684790e-02
1.679881e-02
1.676473e-02
1.674341e-02
1.673185e-02
1.672781e-02
1.673021e-02
1.673926e-02
1.675611e-02
1.678207e-02
1.681814e-02
1.686472e-02
1.692174e-02
1.698892e-02
1.706605e-02
1.715317e-02
1.725054e-02
1.735862e-02
1.747785e-02
1.760852e-02
1.775075e-02
1.790448e-02
1.806955e-02
1.824579e-02
1.843310e-02
1.863139e-02
1.884051e-02
1.906018e-02
1.928989e-02
1.952887e-02
1.977610e-02
2.002440e-02
2.027151e-02
2.051595e-02
2.075632e-02
2.099127e-02
2.121952e-02
2.143974e-02
2.165058e-02
2.185060e-02
2.203838e-02
2.221248e-02
2.237158e-02
2.251444e-02
2.263998e-02
2.274726e-02
2.283552e-02
2.290410e-02
2.295253e-02
2.298046e-02
2.298773e-02
2.297432e-02
2.294039e-02
2.288628e-02
2.281276e-02
2.272090e-02
2.261148e-02
2.248542e-02
2.234375e-02
2.218758e-02
2.201813e-02
2.183667e-02
2.164452e-02
2.144307e-02
2.123370e-02
2.101785e-02
2.079693e-02
2.057235e-02
2.034552e-02
2.011781e-02
1.989056e-02
1.966506e-02
1.944259e-02
1.922438e-02
1.901161e-02
1.880545e-02
1.860704e-02
1.841747e-02
1.823780e-02
1.806909e-02
1.791230e-02
1.776839e-02
1.763818e-02
1.763783e-02
1.995163e-02
1.998235e-02
1.967257e-02
1.938133e-02
1.907410e-02
1.874960e-02
1.842671e-02
1.813019e-02
1.787776e-02
1.767406e-02
1.751201e-02
1.737842e-02
1.726018e-02
1.714851e-02
1.704040e-02
1.693760e-02
1.684439e-02
1.676496e-02
1.670157e-02
1.665384e-02
1.661926e-02
1.659453e-02
1.657689e-02
1.656534e-02
1.656010e-02
1.656235e-02
1.657344e-02
1.659436e-02
1.662549e-02
1.666669e-02
1.671763e-02
1.677810e-02
1.684817e-02
1.692823e-02
1.701887e-02
1.712064e-02
1.723397e-02
1.735908e-02
1.749599e-02
1.764469e-02
1.780516e-02
1.797748e-02
1.816178e-02
1.835814e-02
1.856648e-02
1.878645e-02
1.901745e-02
1.925860e-02
1.950893e-02
1.976156e-02
2.001342e-02
2.026318e-02
2.050954e-02
2.075122e-02
2.098685e-02
2.121501e-02
2.143414e-02
2.164267e-02
2.183904e-02
2.202174e-02
2.218939e-02
2.234072e-02
2.247462e-02
2.259007e-02
2.268622e-02
2.276234e-02
2.281784e-02
2.285231e-02
2.286547e-02
2.285727e-02
2.282780e-02
2.277734e-02
2.270651e-02
2.261656e-02
2.250824e-02
2.238246e-02
2.224023e-02
2.208264e-02
2.191090e-02
2.172627e-02
2.153009e-02
2.132373e-02
2.110859e-02
2.088611e-02
2.065772e-02
2.042484e-02
2.018886e-02
1.995118e-02
1.971313e-02
1.947604e-02
1.924118e-02
1.900980e-02
1.878311e-02
1.856231e-02
1.834856e-02
1.814300e-02
1.794674e-02
1.776086e-02
1.758641e-02
1.742438e-02
1.727570e-02
1.727536e-02
1.999203e-02
2.004123e-02
1.969505e-02
1.934430e-02
1.897766e-02
1.861276e-02