# vtk DataFile Version 3.0
Scalar Field
ASCII
DATASET RECTILINEAR_GRID
DIMENSIONS 102 102 1
X_COORDINATES 102 double
0.000000 0.100000 0.200000 0.300000 0.400000 0.500000 0.600000 0.700000 0.800000 0.900000 1.000000 1.100000 1.200000 1.300000 1.400000 1.500000 1.600000 1.700000 1.800000 1.900000 2.000000 2.100000 2.200000 2.300000 2.400000 2.500000 2.600000 2.700000 2.800000 2.900000 3.000000 3.100000 3.200000 3.300000 3.400000 3.500000 3.600000 3.700000 3.800000 3.900000 4.000000 4.100000 4.200000 4.300000 4.400000 4.500000 4.600000 4.700000 4.800000 4.900000 5.000000 5.100000 5.200000 5.300000 5.400000 5.500000 5.600000 5.700000 5.800000 5.900000 6.000000 6.100000 6.200000 6.300000 6.400000 6.500000 6.600000 6.700000 6.800000 6.900000 7.000000 7.100000 7.200000 7.300000 7.400000 7.500000 7.600000 7.700000 7.800000 7.900000 8.000000 8.100000 8.200000 8.300000 8.400000 8.500000 8.600000 8.700000 8.800000 8.900000 9.000000 9.100000 9.200000 9.300000 9.400000 9.500000 9.600000 9.700000 9.800000 9.900000 10.000000 10.100000 
Y_COORDINATES 102 double
0.000000 0.100000 0.200000 0.300000 0.400000 0.500000 0.600000 0.700000 0.800000 0.900000 1.000000 1.100000 1.200000 1.300000 1.400000 1.500000 1.600000 1.700000 1.800000 1.900000 2.000000 2.100000 2.200000 2.300000 2.400000 2.500000 2.600000 2.700000 2.800000 2.900000 3.000000 3.100000 3.200000 3.300000 3.400000 3.500000 3.600000 3.700000 3.800000 3.900000 4.000000 4.100000 4.200000 4.300000 4.400000 4.500000 4.600000 4.700000 4.800000 4.900000 5.000000 5.100000 5.200000 5.300000 5.400000 5.500000 5.600000 5.700000 5.800000 5.900000 6.000000 6.100000 6.200000 6.300000 6.400000 6.500000 6.600000 6.700000 6.800000 6.900000 7.000000 7.100000 7.200000 7.300000 7.400000 7.500000 7.600000 7.700000 7.800000 7.900000 8.000000 8.100000 8.200000 8.300000 8.400000 8.500000 8.600000 8.700000 8.800000 8.900000 9.000000 9.100000 9.200000 9.300000 9.400000 9.500000 9.600000 9.700000 9.800000 9.900000 10.000000 10.100000 
Z_COORDINATES 1 double
0.0
POINT_DATA 10404
SCALARS Pressure double 1
LOOKUP_TABLE default
0.000000e+00
9.622153e-03
9.712495e-03
9.791015e-03
9.834620e-03
9.855120e-03
9.843858e-03
9.772904e-03
9.619688e-03
9.391814e-03
9.132169e-03
8.900532e-03
8.744129e-03
8.675650e-03
8.670989e-03
8.686136e-03
8.681866e-03
8.642222e-03
8.578283e-03
8.517922e-03
8.489392e-03
8.508167e-03
8.572796e-03
8.669709e-03
8.782450e-03
8.899723e-03
9.018732e-03
9.143574e-03
9.280963e-03
9.436216e-03
9.611377e-03
9.805649e-03
1.001706e-02
1.024401e-02
1.048582e-02
1.074240e-02
1.101344e-02
1.129797e-02
1.159433e-02
1.190072e-02
1.221567e-02
1.253838e-02
1.286851e-02
1.320586e-02
1.354986e-02
1.389942e-02
1.425300e-02
1.460887e-02
1.496544e-02
1.532145e-02
1.567591e-02
1.602801e-02
1.637679e-02
1.672098e-02
1.705890e-02
1.738864e-02
1.770817e-02
1.801564e-02
1.830951e-02
1.858859e-02
1.885202e-02
1.909916e-02
1.932944e-02
1.954229e-02
1.973706e-02
1.991305e-02
2.006955e-02
2.020592e-02
2.032164e-02
2.041638e-02
2.049000e-02
2.054258e-02
2.057440e-02
2.058587e-02
2.057757e-02
2.055018e-02
2.050446e-02
2.044133e-02
2.036176e-02
2.026687e-02
2.015789e-02
2.003617e-02
1.990321e-02
1.976062e-02
1.961014e-02
1.945363e-02
1.929306e-02
1.913052e-02
1.896822e-02
1.880848e-02
1.865372e-02
1.850648e-02
1.836941e-02
1.824527e-02
1.813685e-02
1.804694e-02
1.797815e-02
1.793249e-02
1.791064e-02
1.791032e-02
1.792311e-02
0.000000e+00
9.622153e-03
9.635522e-03
9.745486e-03
9.843737e-03
9.905490e-03
9.927423e-03
9.888965e-03
9.766760e-03
9.559414e-03
9.300085e-03
9.046237e-03
8.852992e-03
8.747114e-03
8.717034e-03
8.723404e-03
8.722382e-03
8.687802e-03
8.620979e-03
8.545276e-03
8.490957e-03
8.479802e-03
8.517079e-03
8.593128e-03
8.691484e-03
8.797966e-03
8.906157e-03
9.017680e-03
9.138724e-03
9.275667e-03
9.432197e-03
9.608808e-03
9.804029e-03
1.001608e-02
1.024383e-02
1.048688e-02
1.074489e-02
1.101705e-02
1.130192e-02
1.159778e-02
1.190310e-02
1.221694e-02
1.253888e-02
1.286874e-02
1.320611e-02
1.355011e-02
1.389940e-02
1.425237e-02
1.460749e-02
1.496350e-02
1.531938e-02
1.567430e-02
1.602733e-02
1.637724e-02
1.672242e-02
1.706093e-02
1.739071e-02
1.770980e-02
1.801652e-02
1.830958e-02
1.858800e-02
1.885107e-02
1.909818e-02
1.932870e-02
1.954196e-02
1.973716e-02
1.991351e-02
2.007023e-02
2.020666e-02
2.032231e-02
2.041689e-02
2.049034e-02
2.054277e-02
2.057448e-02
2.058592e-02
2.057763e-02
2.055028e-02
2.050463e-02
2.044155e-02
2.036203e-02
2.026716e-02
2.015818e-02
2.003646e-02
1.990348e-02
1.976087e-02
1.961038e-02
1.945386e-02
1.929330e-02
1.913079e-02
1.896852e-02
1.880881e-02
1.865408e-02
1.850686e-02
1.836982e-02
1.824570e-02
1.813730e-02
1.804741e-02
1.797863e-02
1.793299e-02
1.791116e-02
1.791085e-02
1.792365e-02
1.792311e-02
9.723232e-03
9.756487e-03
9.864464e-03
9.947527e-03
9.991749e-03
9.976096e-03
9.877710e-03
9.696957e-03
9.467784e-03
9.245413e-03
9.079706e-03
8.991440e-03
8.965514e-03
8.963520e-03
8.946672e-03
8.895462e-03
8.816303e-03
8.733981e-03
8.676468e-03
8.661295e-03
8.689949e-03
8.751228e-03
8.829694e-03
8.913816e-03
8.999912e-03
9.091225e-03
9.194074e-03
9.313897e-03
9.453172e-03
9.611582e-03
9.787482e-03
9.979373e-03
1.018654e-02
1.040879e-02
1.064581e-02
1.089671e-02
1.116009e-02
1.143439e-02
1.171842e-02
1.201155e-02
1.231355e-02
1.262422e-02
1.294304e-02
1.326902e-02
1.360082e-02
1.393699e-02
1.427630e-02
1.461778e-02
1.496068e-02
1.530420e-02
1.564731e-02
1.598863e-02
1.632644e-02
1.665878e-02
1.698371e-02
1.729943e-02
1.760450e-02
1.789777e-02
1.817839e-02
1.844562e-02
1.869877e-02
1.893708e-02
1.915969e-02
1.936570e-02
1.955421e-02
1.972438e-02
1.987551e-02
2.000709e-02
2.011879e-02
2.021049e-02
2.028219e-02
2.033408e-02
2.036646e-02
2.037971e-02
2.037434e-02
2.035095e-02
2.031025e-02
2.025307e-02
2.018036e-02
2.009321e-02
1.999280e-02
1.988049e-02
1.975772e-02
1.962606e-02
1.948717e-02
1.934284e-02
1.919492e-02
1.904540e-02
1.889633e-02
1.874987e-02
1.860825e-02
1.847379e-02
1.834888e-02
1.823595e-02
1.813739e-02
1.805550e-02
1.799228e-02
1.794919e-02
1.792662e-02
1.792338e-02
1.793633e-02
1.793581e-02
9.880134e-03
9.933212e-03
1.001854e-02
1.007109e-02
1.006524e-02
9.976592e-03
9.806584e-03
9.593104e-03
9.394478e-03
9.258959e-03
9.200373e-03
9.194616e-03
9.197211e-03
9.169640e-03
9.098732e-03
8.999717e-03
8.904091e-03
8.841460e-03
8.825980e-03
8.853346e-03
8.907496e-03
8.971302e-03
9.034900e-03
9.098128e-03
9.167554e-03
9.251188e-03
9.354282e-03
9.477979e-03
9.620520e-03
9.779441e-03
9.953182e-03
1.014140e-02
1.034428e-02
1.056165e-02
1.079258e-02
1.103559e-02
1.128926e-02
1.155275e-02
1.182580e-02
1.210849e-02
1.240067e-02
1.270171e-02
1.301044e-02
1.332542e-02
1.364535e-02
1.396925e-02
1.429653e-02
1.462671e-02
1.495911e-02
1.529258e-02
1.562548e-02
1.595589e-02
1.628178e-02
1.660128e-02
1.691281e-02
1.721521e-02
1.750759e-02
1.778924e-02
1.805948e-02
1.831749e-02
1.856237e-02
1.879305e-02
1.900848e-02
1.920761e-02
1.938955e-02
1.955360e-02
1.969923e-02
1.982611e-02
1.993406e-02
2.002305e-02
2.009314e-02
2.014448e-02
2.017732e-02
2.019200e-02
2.018896e-02
2.016877e-02
2.013210e-02
2.007978e-02
2.001275e-02
1.993206e-02
1.983892e-02
1.973461e-02
1.962054e-02
1.949821e-02
1.936921e-02
1.923522e-02
1.909801e-02
1.895942e-02
1.882138e-02
1.868590e-02
1.855505e-02
1.843095e-02
1.831574e-02
1.821158e-02
1.812057e-02
1.804466e-02
1.798557e-02
1.794460e-02
1.792251e-02
1.791946e-02
1.793562e-02
1.793512e-02
1.006462e-02
1.013682e-02
1.018690e-02
1.018115e-02
1.009392e-02
9.924754e-03
9.713764e-03
9.524139e-03
9.407069e-03
9.373808e-03
9.392512e-03
9.409906e-03
9.382573e-03
9.298925e-03
9.180993e-03
9.068266e-03
8.995350e-03
8.976399e-03
9.003053e-03
9.053995e-03
9.108556e-03
9.156452e-03
9.199750e-03
9.248213e-03
9.312318e-03
9.398170e-03
9.506337e-03
9.633860e-03
9.777263e-03
9.934552e-03
1.010546e-02
1.029042e-02
1.048943e-02
1.070158e-02
1.092540e-02
1.115960e-02
1.140359e-02
1.165748e-02
1.192160e-02
1.219591e-02
1.247970e-02
1.277167e-02
1.307033e-02
1.337450e-02
1.368347e-02
1.399693e-02
1.431465e-02
1.463604e-02
1.495995e-02
1.528450e-02
1.560746e-02
1.592672e-02
1.624049e-02
1.654742e-02
1.684661e-02
1.713742e-02
1.741932e-02
1.769164e-02
1.795351e-02
1.820385e-02
1.844142e-02
1.866500e-02
1.887343e-02
1.906577e-02
1.924128e-02
1.939944e-02
1.953993e-02
1.966253e-02
1.976715e-02
1.985375e-02
1.992236e-02
1.997307e-02
2.000608e-02
2.002170e-02
2.002035e-02
2.000257e-02
1.996906e-02
1.992063e-02
1.985822e-02
1.978288e-02
1.969578e-02
1.959817e-02
1.949139e-02
1.937687e-02
1.925612e-02
1.913073e-02
1.900236e-02
1.887277e-02
1.874375e-02
1.861718e-02
1.849497e-02
1.837906e-02
1.827140e-02
1.817393e-02
1.808851e-02
1.801688e-02
1.796060e-02
1.792101e-02
1.789920e-02
1.789621e-02
1.791354e-02
1.791305e-02
1.027703e-02
1.035294e-02
1.033983e-02
1.024457e-02
1.006845e-02
9.850415e-03
9.656810e-03
9.543608e-03
9.523889e-03
9.562172e-03
9.597510e-03
9.579043e-03
9.492043e-03
9.361032e-03
9.231660e-03
9.144668e-03
9.117222e-03
9.139953e-03
9.187900e-03
9.236555e-03
9.273576e-03
9.301358e-03
9.331630e-03
9.377137e-03
9.445500e-03
9.537659e-03
9.650178e-03
9.778817e-03
9.920986e-03
1.007613e-02
1.024463e-02
1.042656e-02
1.062105e-02
1.082676e-02
1.104258e-02
1.126817e-02
1.150392e-02
1.175032e-02
1.200739e-02
1.227439e-02
1.254996e-02
1.283268e-02
1.312150e-02
1.341599e-02
1.371607e-02
1.402168e-02
1.433223e-02
1.464647e-02
1.496250e-02
1.527793e-02
1.559042e-02
1.589831e-02
1.620044e-02
1.649616e-02
1.678506e-02
1.706671e-02
1.734047e-02
1.760539e-02
1.786025e-02
1.810368e-02
1.833431e-02
1.855092e-02
1.875249e-02
1.893830e-02
1.910780e-02
1.926065e-02
1.939662e-02
1.951553e-02
1.961725e-02
1.970169e-02
1.976882e-02
1.981870e-02
1.985151e-02
1.986754e-02
1.986724e-02
1.985116e-02
1.982001e-02
1.977462e-02
1.971590e-02
1.964489e-02
1.956270e-02
1.947055e-02
1.936971e-02
1.926153e-02
1.914746e-02
1.902901e-02
1.890776e-02
1.878535e-02
1.866349e-02
1.854392e-02
1.842841e-02
1.831876e-02
1.821675e-02
1.812411e-02
1.804254e-02
1.797363e-02
1.791883e-02
1.787952e-02
1.785696e-02
1.785252e-02
1.786801e-02
1.786754e-02
1.049739e-02
1.054791e-02
1.044206e-02
1.025040e-02
1.001751e-02
9.810290e-03
9.688399e-03
9.668613e-03
9.715645e-03
9.764247e-03
9.756884e-03
9.673403e-03
9.536784e-03
9.395228e-03
9.294098e-03
9.254547e-03
9.268745e-03
9.310684e-03
9.353408e-03
9.382299e-03
9.398688e-03
9.414620e-03
9.444012e-03
9.495774e-03
9.571760e-03
9.668882e-03
9.782782e-03
9.910497e-03
1.005104e-02
1.020445e-02
1.037056e-02
1.054851e-02
1.073711e-02
1.093554e-02
1.114377e-02
1.136239e-02
1.159198e-02
1.183253e-02
1.208322e-02
1.234273e-02
1.260978e-02
1.288360e-02
1.316400e-02
1.345115e-02
1.374499e-02
1.404491e-02
1.434946e-02
1.465662e-02
1.496414e-02
1.526973e-02
1.557161e-02
1.586886e-02
1.616105e-02
1.644792e-02
1.672908e-02
1.700387e-02
1.727125e-02
1.752989e-02
1.777830e-02
1.801506e-02
1.823889e-02
1.844876e-02
1.864392e-02
1.882382e-02
1.898808e-02
1.913642e-02
1.926856e-02
1.938429e-02
1.948341e-02
1.956577e-02
1.963131e-02
1.968008e-02
1.971228e-02
1.972826e-02
1.972846e-02
1.971348e-02
1.968402e-02
1.964090e-02
1.958503e-02
1.951738e-02
1.943904e-02
1.935115e-02
1.925494e-02
1.915171e-02
1.904284e-02
1.892976e-02
1.881400e-02
1.869711e-02
1.858070e-02
1.846640e-02
1.835585e-02
1.825071e-02
1.815260e-02
1.806313e-02
1.798382e-02
1.791614e-02
1.786148e-02
1.782115e-02
1.779646e-02
1.778879e-02
1.779979e-02
1.779934e-02
1.068482e-02
1.068253e-02
1.047837e-02
1.022327e-02
9.994875e-03
9.855079e-03
9.823953e-03
9.868055e-03
9.920782e-03
9.920396e-03
9.841783e-03
9.704552e-03
9.556314e-03
9.444238e-03
9.392254e-03
9.394803e-03
9.426817e-03
9.460969e-03
9.481527e-03
9.488634e-03
9.493560e-03
9.510041e-03
9.547346e-03
9.608005e-03
9.689688e-03
9.788584e-03
9.901890e-03
1.002839e-02
1.016766e-02
1.031908e-02
1.048159e-02
1.065407e-02
1.083603e-02
1.102782e-02
1.123025e-02
1.144391e-02
1.166866e-02
1.190360e-02
1.214743e-02
1.239912e-02
1.265822e-02
1.292489e-02
1.319946e-02
1.348188e-02
1.377134e-02
1.406620e-02
1.436428e-02
1.466336e-02
1.496155e-02
1.525732e-02
1.554967e-02
1.583835e-02
1.612319e-02
1.640379e-02
1.667940e-02
1.694885e-02
1.721071e-02
1.746343e-02
1.770555e-02
1.793582e-02
1.815321e-02
1.835697e-02
1.854655e-02
1.872149e-02
1.888144e-02
1.902603e-02
1.915493e-02
1.926783e-02
1.936448e-02
1.944472e-02
1.950850e-02
1.955591e-02
1.958719e-02
1.960273e-02
1.960301e-02
1.958863e-02
1.956028e-02
1.951874e-02
1.946490e-02
1.939968e-02
1.932414e-02
1.923936e-02
1.914654e-02
1.904693e-02
1.894187e-02
1.883273e-02
1.872098e-02
1.860808e-02
1.849556e-02
1.838494e-02
1.827775e-02
1.817551e-02
1.807974e-02
1.799189e-02
1.791337e-02
1.784554e-02
1.778967e-02
1.774703e-02
1.771881e-02
1.770628e-02
1.771077e-02
1.771035e-02
1.080029e-02
1.073749e-02
1.046798e-02
1.021239e-02
1.004812e-02
9.997967e-03
1.003022e-02
1.007803e-02
1.007744e-02
1.000010e-02
9.862703e-03
9.711081e-03
9.591989e-03
9.529996e-03
9.520755e-03
9.540519e-03
9.563017e-03
9.573015e-03
9.570467e-03
9.565886e-03
9.572041e-03
9.597504e-03
9.644703e-03
9.711791e-03
9.795780e-03
9.894536e-03
1.000705e-02
1.013261e-02
1.027011e-02
1.041810e-02
1.057541e-02
1.074181e-02
1.091800e-02
1.110503e-02
1.130352e-02
1.151318e-02
1.173295e-02
1.196158e-02
1.219827e-02
1.244298e-02
1.269622e-02
1.295851e-02
1.322974e-02
1.350887e-02
1.379400e-02
1.408282e-02
1.437314e-02
1.466332e-02
1.495246e-02
1.523989e-02
1.552510e-02
1.580796e-02
1.608801e-02
1.636433e-02
1.663561e-02
1.690030e-02
1.715682e-02
1.740374e-02
1.763983e-02
1.786414e-02
1.807594e-02
1.827462e-02
1.845970e-02
1.863070e-02
1.878715e-02
1.892861e-02
1.905464e-02
1.916490e-02
1.925914e-02
1.933721e-02
1.939913e-02
1.944502e-02
1.947518e-02
1.949003e-02
1.949005e-02
1.947583e-02
1.944803e-02
1.940740e-02
1.935479e-02
1.929110e-02
1.921734e-02
1.913459e-02
1.904399e-02
1.894679e-02
1.884426e-02
1.873774e-02
1.862863e-02
1.851833e-02
1.840826e-02
1.829986e-02
1.819456e-02
1.809376e-02
1.799887e-02
1.791123e-02
1.783215e-02
1.776286e-02
1.770456e-02
1.765837e-02
1.762538e-02
1.760664e-02
1.760319e-02
1.760280e-02
1.083376e-02
1.073046e-02
1.045737e-02
1.026387e-02
1.018979e-02
1.020492e-02
1.024181e-02
1.023462e-02
1.015302e-02
1.001215e-02
9.856772e-03
9.732748e-03
9.663784e-03
9.645017e-03
9.652938e-03
9.662352e-03
9.659491e-03
9.645416e-03
9.630803e-03
9.627634e-03
9.643256e-03
9.679171e-03
9.733351e-03
9.803307e-03
9.887738e-03
9.986213e-03
1.009811e-02
1.022203e-02
1.035611e-02
1.049905e-02
1.065071e-02
1.081210e-02
1.098447e-02
1.116846e-02
1.136364e-02
1.156881e-02
1.178273e-02
1.200486e-02
1.223557e-02
1.247572e-02
1.272598e-02
1.298617e-02
1.325500e-02
1.353032e-02
1.380966e-02
1.409093e-02
1.437277e-02
1.465465e-02
1.493660e-02
1.521839e-02
1.549932e-02
1.577882e-02
1.605578e-02
1.632872e-02
1.659597e-02
1.685595e-02
1.710725e-02
1.734874e-02
1.757954e-02
1.779894e-02
1.800633e-02
1.820114e-02
1.838280e-02
1.855071e-02
1.870429e-02
1.884302e-02
1.896643e-02
1.907418e-02
1.916607e-02
1.924202e-02
1.930207e-02
1.934642e-02
1.937535e-02
1.938931e-02
1.938877e-02
1.937429e-02
1.934649e-02
1.930611e-02
1.925396e-02
1.919093e-02
1.911802e-02
1.903628e-02
1.894685e-02
1.885093e-02
1.874978e-02
1.864469e-02
1.853697e-02
1.842796e-02
1.831902e-02
1.821149e-02
1.810671e-02
1.800600e-02
1.791067e-02
1.782195e-02
1.774106e-02
1.766913e-02
1.760725e-02
1.755642e-02
1.751759e-02
1.749161e-02
1.747927e-02
1.747891e-02
1.081537e-02
1.071128e-02
1.049584e-02
1.039407e-02
1.038902e-02
1.041214e-02
1.039483e-02
1.030447e-02
1.015548e-02
9.993010e-03
9.863084e-03
9.788575e-03
9.763012e-03
9.761549e-03
9.758878e-03
9.742455e-03
9.715136e-03
9.688878e-03
9.675769e-03
9.682221e-03
9.708461e-03
9.751613e-03
9.809108e-03
9.880114e-03
9.964875e-03
1.006315e-02
1.017354e-02
1.029400e-02
1.042308e-02
1.056071e-02
1.070803e-02
1.086644e-02
1.103654e-02
1.121778e-02
1.140884e-02
1.160854e-02
1.181660e-02
1.203374e-02
1.226116e-02
1.249964e-02
1.274889e-02
1.300739e-02
1.327271e-02
1.354233e-02
1.381426e-02
1.408748e-02
1.436183e-02
1.463767e-02
1.491536e-02
1.519438e-02
1.547330e-02
1.575081e-02
1.602525e-02
1.629487e-02
1.655805e-02
1.681346e-02
1.706007e-02
1.729706e-02
1.752378e-02
1.773960e-02
1.794388e-02
1.813592e-02
1.831503e-02
1.848048e-02
1.863163e-02
1.876793e-02
1.888894e-02
1.899438e-02
1.908410e-02
1.915807e-02
1.921638e-02
1.925922e-02
1.928687e-02
1.929978e-02
1.929838e-02
1.928321e-02
1.925487e-02
1.921409e-02
1.916167e-02
1.909851e-02
1.902559e-02
1.894396e-02
1.885475e-02
1.875913e-02
1.865829e-02
1.855350e-02
1.844601e-02
1.833710e-02
1.822804e-02
1.812013e-02
1.801461e-02
1.791275e-02
1.781575e-02
1.772478e-02
1.764094e-02
1.756530e-02
1.749881e-02
1.744240e-02
1.739685e-02
1.736287e-02
1.734103e-02
1.734069e-02
1.080196e-02
1.073711e-02
1.060871e-02
1.058028e-02
1.058785e-02
1.055906e-02
1.045759e-02
1.029662e-02
1.012249e-02
9.983021e-03
9.901605e-03
9.870371e-03
9.862149e-03
9.849965e-03
9.821270e-03
9.780373e-03
9.741077e-03
9.716583e-03
9.713220e-03
9.730255e-03
9.763717e-03
9.810396e-03
9.869432e-03
9.941369e-03
1.002641e-02
1.012338e-02
1.023033e-02
1.034583e-02
1.046990e-02
1.060378e-02
1.074886e-02
1.090568e-02
1.107349e-02
1.125091e-02
1.143684e-02
1.163129e-02
1.183531e-02
1.205037e-02
1.227732e-02
1.251573e-02
1.276379e-02
1.301891e-02
1.327851e-02
1.354081e-02
1.380512e-02
1.407169e-02
1.434117e-02
1.461408e-02
1.489031e-02
1.516856e-02
1.544648e-02
1.572224e-02
1.599401e-02
1.626019e-02
1.651953e-02
1.677107e-02
1.701410e-02
1.724798e-02
1.747207e-02
1.768565e-02
1.788793e-02
1.807808e-02
1.825526e-02
1.841871e-02
1.856779e-02
1.870197e-02
1.882090e-02
1.892435e-02
1.901220e-02
1.908446e-02
1.914120e-02
1.918260e-02
1.920892e-02
1.922058e-02
1.921802e-02
1.920173e-02
1.917235e-02
1.913058e-02
1.907725e-02
1.901326e-02
1.893959e-02
1.885727e-02
1.876742e-02
1.867116e-02
1.856967e-02
1.846414e-02
1.835579e-02
1.824584e-02
1.813553e-02
1.802607e-02
1.791867e-02
1.781451e-02
1.771472e-02
1.762040e-02
1.753259e-02
1.745225e-02
1.738026e-02
1.731744e-02
1.726447e-02
1.722192e-02
1.719023e-02
1.718991e-02
1.084724e-02
1.084251e-02
1.078406e-02
1.077299e-02
1.073122e-02
1.061731e-02
1.044167e-02
1.025144e-02
1.009733e-02
1.000497e-02
9.966403e-03
9.952255e-03
9.932861e-03
9.894168e-03
9.840805e-03
9.788126e-03
9.750957e-03
9.736422e-03
9.743580e-03
9.767646e-03
9.804584e-03
9.853042e-03
9.913460e-03
9.986104e-03
1.007009e-02
1.016370e-02
1.026579e-02
1.037659e-02
1.049746e-02
1.062977e-02
1.077386e-02
1.092877e-02
1.109300e-02
1.126559e-02
1.144683e-02
1.163815e-02
1.184121e-02
1.205688e-02
1.228452e-02
1.252207e-02
1.276675e-02
1.301604e-02
1.326840e-02
1.352353e-02
1.378206e-02
1.404493e-02
1.431274e-02
1.458534e-02
1.486176e-02
1.513988e-02
1.541671e-02
1.569040e-02
1.595938e-02
1.622248e-02
1.647884e-02
1.672782e-02
1.696879e-02
1.720107e-02
1.742389e-02
1.763634e-02
1.783747e-02
1.802634e-02
1.820208e-02
1.836396e-02
1.851138e-02
1.864390e-02
1.876120e-02
1.886309e-02
1.894947e-02
1.902032e-02
1.907568e-02
1.911571e-02
1.914062e-02
1.915084e-02
1.914680e-02
1.912902e-02
1.909814e-02
1.905490e-02
1.900012e-02
1.893470e-02
1.885963e-02
1.877591e-02
1.868463e-02
1.858688e-02
1.848380e-02
1.837656e-02
1.826634e-02
1.815432e-02
1.804168e-02
1.792961e-02
1.781925e-02
1.771173e-02
1.760813e-02
1.750947e-02
1.741673e-02
1.733080e-02
1.725250e-02
1.718257e-02
1.712160e-02
1.707007e-02
1.702832e-02
1.702803e-02
1.097339e-02
1.102167e-02
1.097946e-02
1.092139e-02
1.079287e-02
1.060003e-02
1.038965e-02
1.021534e-02
1.010626e-02
1.005597e-02
1.003390e-02
1.000760e-02
9.960473e-03
9.896161e-03
9.830649e-03
9.780186e-03
9.753135e-03
9.749058e-03
9.762962e-03
9.790220e-03
9.828860e-03
9.878852e-03
9.940216e-03
1.001197e-02
1.009269e-02
1.018159e-02
1.027930e-02
1.038744e-02
1.050737e-02
1.063920e-02
1.078169e-02
1.093320e-02
1.109286e-02
1.126128e-02
1.144023e-02
1.163159e-02
1.183619e-02
1.205315e-02
1.228012e-02
1.251417e-02
1.275286e-02
1.299498e-02
1.324064e-02
1.349087e-02
1.374685e-02
1.400923e-02
1.427777e-02
1.455132e-02
1.482812e-02
1.510574e-02
1.538105e-02
1.565258e-02
1.591926e-02
1.618034e-02
1.643520e-02
1.668323e-02
1.692371e-02
1.715575e-02
1.737837e-02
1.759049e-02
1.779108e-02
1.797919e-02
1.815399e-02
1.831483e-02
1.846116e-02
1.859260e-02
1.870886e-02
1.880972e-02
1.889504e-02
1.896478e-02
1.901893e-02
1.905760e-02
1.908102e-02
1.908961e-02
1.908386e-02
1.906429e-02
1.903159e-02
1.898648e-02
1.892981e-02
1.886246e-02
1.878540e-02
1.869962e-02
1.860617e-02
1.850613e-02
1.840061e-02
1.829075e-02
1.817772e-02
1.806265e-02
1.794671e-02
1.783103e-02
1.771672e-02
1.760486e-02
1.749647e-02
1.739254e-02
1.729399e-02
1.720166e-02
1.711632e-02
1.703866e-02
1.696921e-02
1.690840e-02
1.685650e-02
1.685623e-02
1.116019e-02
1.123213e-02
1.114377e-02
1.099706e-02
1.078374e-02
1.054906e-02
1.034900e-02
1.021671e-02
1.014856e-02
1.011403e-02
1.007845e-02
1.002241e-02
9.947673e-03
9.869850e-03
9.805939e-03
9.765398e-03
9.748612e-03
9.750907e-03
9.767536e-03
9.796121e-03
9.836098e-03
9.886968e-03
9.947409e-03
1.001589e-02
1.009200e-02
1.017685e-02
1.027241e-02
1.038018e-02
1.050006e-02
1.063052e-02
1.076971e-02
1.091682e-02
1.107277e-02
1.123965e-02
1.141955e-02
1.161323e-02
1.181956e-02
1.203589e-02
1.225915e-02
1.248702e-02
1.271862e-02
1.295454e-02
1.319619e-02
1.344496e-02
1.370153e-02
1.396552e-02
1.423560e-02
1.450989e-02
1.478641e-02
1.506300e-02
1.533678e-02
1.560682e-02
1.587245e-02
1.613312e-02
1.638818e-02
1.663685e-02
1.687815e-02
1.711096e-02
1.733413e-02
1.754653e-02
1.774714e-02
1.793506e-02
1.810956e-02
1.827005e-02
1.841603e-02
1.854711e-02
1.866296e-02
1.876332e-02
1.884799e-02
1.891686e-02
1.896993e-02
1.900728e-02
1.902916e-02
1.903604e-02
1.902842e-02
1.900690e-02
1.897213e-02
1.892487e-02
1.886594e-02
1.879621e-02
1.871663e-02
1.862817e-02
1.853186e-02
1.842877e-02
1.832001e-02
1.820671e-02
1.808998e-02
1.797098e-02
1.785081e-02
1.773059e-02
1.761139e-02
1.749425e-02
1.738018e-02
1.727010e-02
1.716492e-02
1.706545e-02
1.697241e-02
1.688647e-02
1.680812e-02
1.673778e-02
1.667568e-02
1.667543e-02
1.135661e-02
1.141666e-02
1.124110e-02
1.100363e-02
1.074044e-02
1.050935e-02
1.034758e-02
1.025500e-02
1.020210e-02
1.015278e-02
1.008510e-02
9.998641e-03
9.908008e-03
9.830270e-03
9.775492e-03
9.744730e-03
9.733809e-03
9.738234e-03
9.755609e-03
9.785053e-03
9.825533e-03
9.875175e-03
9.932128e-03
9.995961e-03
1.006824e-02
1.015138e-02
1.024706e-02
1.035513e-02
1.047378e-02
1.060095e-02
1.073584e-02
1.087959e-02
1.103464e-02
1.120324e-02
1.138610e-02
1.158181e-02
1.178744e-02
1.199978e-02
1.221663e-02
1.243750e-02
1.266343e-02
1.289620e-02
1.313741e-02
1.338773e-02
1.364661e-02
1.391256e-02
1.418359e-02
1.445771e-02
1.473334e-02
1.500901e-02
1.528210e-02
1.555208e-02
1.581841e-02
1.608043e-02
1.633725e-02
1.658779e-02
1.683083e-02
1.706511e-02
1.728942e-02
1.750269e-02
1.770397e-02
1.789247e-02
1.806752e-02
1.822854e-02
1.837501e-02
1.850648e-02
1.862255e-02
1.872289e-02
1.880724e-02
1.887549e-02
1.892762e-02
1.896376e-02
1.898417e-02
1.898934e-02
1.897986e-02
1.895630e-02
1.891933e-02
1.886969e-02
1.880817e-02
1.873564e-02
1.865303e-02
1.856131e-02
1.846150e-02
1.835469e-02
1.824195e-02
1.812442e-02
1.800320e-02
1.787941e-02
1.775415e-02
1.762850e-02
1.750352e-02
1.738024e-02
1.725961e-02
1.714257e-02
1.703000e-02
1.692267e-02
1.682132e-02
1.672659e-02
1.663896e-02
1.655886e-02
1.648653e-02
1.648630e-02
1.150677e-02
1.153039e-02
1.126447e-02
1.096927e-02
1.070266e-02
1.050603e-02
1.038314e-02
1.030614e-02
1.023801e-02
1.015461e-02
1.005349e-02
9.948140e-03
9.855364e-03
9.785404e-03
9.739591e-03
9.714044e-03
9.704593e-03
9.709108e-03
9.726737e-03
9.756133e-03
9.794870e-03
9.840593e-03
9.892659e-03
9.952695e-03
1.002356e-02
1.010720e-02
1.020346e-02
1.031035e-02
1.042562e-02
1.054847e-02
1.068023e-02
1.082361e-02
1.098101e-02
1.115308e-02
1.133814e-02
1.153298e-02
1.173427e-02
1.193995e-02
1.214990e-02
1.236559e-02
1.258918e-02
1.282244e-02
1.306601e-02
1.331918e-02
1.358029e-02
1.384724e-02
1.411811e-02
1.439145e-02
1.466636e-02
1.494213e-02
1.521615e-02
1.548790e-02
1.575670e-02
1.602155e-02
1.628126e-02
1.653450e-02
1.677991e-02
1.701623e-02
1.724233e-02
1.745723e-02
1.766008e-02
1.785014e-02
1.802674e-02
1.818925e-02
1.833706e-02
1.846963e-02
1.858648e-02
1.868723e-02
1.877162e-02
1.883953e-02
1.889098e-02
1.892614e-02
1.894528e-02
1.894891e-02
1.893765e-02
1.891205e-02
1.887278e-02
1.882054e-02
1.875614e-02
1.868042e-02
1.859431e-02
1.849881e-02
1.839494e-02
1.828376e-02
1.816637e-02
1.804389e-02
1.791740e-02
1.778803e-02
1.765685e-02
1.752494e-02
1.739334e-02
1.726307e-02
1.713508e-02
1.701030e-02
1.688960e-02
1.677376e-02
1.666351e-02
1.655949e-02
1.646222e-02
1.637213e-02
1.628950e-02
1.628930e-02
1.157563e-02
1.155882e-02
1.123364e-02
1.092834e-02
1.069280e-02
1.053515e-02
1.042954e-02
1.033830e-02
1.023520e-02
1.011589e-02
9.992919e-03
9.882963e-03
9.796345e-03
9.734363e-03
9.693057e-03
9.668345e-03
9.658388e-03
9.662613e-03
9.679667e-03
9.706767e-03
9.741037e-03
9.781454e-03
9.829554e-03
9.888282e-03
9.959894e-03
1.004428e-02
1.013935e-02
1.024270e-02
1.035355e-02
1.047338e-02
1.060514e-02
1.075137e-02
1.091262e-02
1.108696e-02
1.127090e-02
1.146101e-02
1.165537e-02
1.185420e-02
1.205941e-02
1.227352e-02
1.249842e-02
1.273469e-02
1.298150e-02
1.323699e-02
1.349902e-02
1.376572e-02
1.403583e-02
1.430869e-02
1.458404e-02
1.486163e-02
1.513845e-02
1.541373e-02
1.568637e-02
1.595506e-02
1.621837e-02
1.647487e-02
1.672323e-02
1.696229e-02
1.719104e-02
1.740860e-02
1.761414e-02
1.780690e-02
1.798611e-02
1.815104e-02
1.830097e-02
1.843527e-02
1.855343e-02
1.865507e-02
1.873993e-02
1.880792e-02
1.885911e-02
1.889367e-02
1.891188e-02
1.891420e-02
1.890129e-02
1.887369e-02
1.883202e-02
1.877701e-02
1.870945e-02
1.863020e-02
1.854020e-02
1.844045e-02
1.833198e-02
1.821587e-02
1.809320e-02
1.796508e-02
1.783262e-02
1.769690e-02
1.755902e-02
1.742004e-02
1.728103e-02
1.714297e-02
1.700685e-02
1.687359e-02
1.674405e-02
1.661905e-02
1.649932e-02
1.638553e-02
1.627823e-02
1.617789e-02
1.608486e-02
1.608468e-02
1.156139e-02
1.151909e-02
1.118069e-02
1.090338e-02
1.070779e-02
1.057055e-02
1.045337e-02
1.032773e-02
1.018724e-02
1.004365e-02
9.913849e-03
9.808535e-03
9.728996e-03
9.670919e-03
9.629940e-03
9.604286e-03
9.593691e-03
9.597020e-03
9.611383e-03
9.633520e-03
9.661991e-03
9.698117e-03
9.744827e-03
9.804393e-03
9.876842e-03
9.959983e-03
1.005132e-02
1.015008e-02
1.025792e-02
1.037801e-02
1.051301e-02
1.066335e-02
1.082686e-02
1.099978e-02
1.117855e-02
1.136141e-02
1.154893e-02
1.174343e-02
1.194770e-02
1.216380e-02
1.239222e-02
1.263196e-02
1.288104e-02
1.313725e-02
1.339883e-02
1.366472e-02
1.393451e-02
1.420820e-02
1.448578e-02
1.476699e-02
1.504830e-02
1.532834e-02
1.560569e-02
1.587881e-02
1.614621e-02
1.640654e-02
1.665861e-02
1.690140e-02
1.713396e-02
1.735543e-02
1.756490e-02
1.776149e-02
1.794430e-02
1.811247e-02
1.826523e-02
1.840190e-02
1.852197e-02
1.862509e-02
1.871102e-02
1.877971e-02
1.883121e-02
1.886566e-02
1.888334e-02
1.888464e-02
1.887023e-02
1.884066e-02
1.879654e-02
1.873862e-02
1.866768e-02
1.858462e-02
1.849039e-02
1.838600e-02
1.827247e-02
1.815089e-02
1.802235e-02
1.788796e-02
1.774883e-02
1.760605e-02
1.746073e-02
1.731395e-02
1.716675e-02
1.702016e-02
1.687516e-02
1.673269e-02
1.659363e-02
1.645882e-02
1.632903e-02
1.620496e-02
1.608721e-02
1.597632e-02
1.587270e-02
1.587254e-02
1.149039e-02
1.144629e-02
1.113238e-02
1.089617e-02
1.072499e-02
1.058012e-02
1.043037e-02
1.026681e-02
1.010021e-02
9.947938e-03
9.821560e-03
9.722696e-03
9.646686e-03
9.588612e-03
9.546432e-03
9.520012e-03
9.508476e-03
9.508997e-03
9.518095e-03
9.533995e-03
9.557774e-03
9.592296e-03
9.639810e-03
9.700237e-03
9.771373e-03
9.850608e-03
9.937164e-03
1.003288e-02
1.014114e-02
1.026474e-02
1.040402e-02
1.055656e-02
1.071830e-02
1.088559e-02
1.105678e-02
1.123277e-02
1.141626e-02
1.161035e-02
1.181717e-02
1.203714e-02
1.226911e-02
1.251093e-02
1.276041e-02
1.301588e-02
1.327651e-02
1.354217e-02
1.381309e-02
1.408943e-02
1.437104e-02
1.465729e-02
1.494417e-02
1.522966e-02
1.551215e-02
1.579013e-02
1.606222e-02
1.632723e-02
1.658412e-02
1.683191e-02
1.706964e-02
1.729631e-02
1.751089e-02
1.771233e-02
1.789962e-02
1.807182e-02
1.822814e-02
1.836793e-02
1.849070e-02
1.859609e-02
1.868390e-02
1.875403e-02
1.880649e-02
1.884140e-02
1.885897e-02
1.885952e-02
1.884379e-02
1.881232e-02
1.876576e-02
1.870484e-02
1.863040e-02
1.854333e-02
1.844460e-02
1.833521e-02
1.821621e-02
1.808868e-02
1.795373e-02
1.781248e-02
1.766605e-02
1.751555e-02
1.736210e-02
1.720679e-02
1.705069e-02
1.689483e-02
1.674022e-02
1.658782e-02
1.643856e-02
1.629329e-02
1.615283e-02
1.601794e-02
1.588928e-02
1.576746e-02
1.565299e-02
1.565285e-02
1.139961e-02
1.137379e-02
1.109852e-02
1.089070e-02
1.071632e-02
1.054132e-02
1.035353e-02
1.016222e-02
9.985194e-03
9.835283e-03
9.714944e-03
9.619446e-03
9.543257e-03
9.483814e-03
9.440856e-03
9.413642e-03
9.399431e-03
9.394614e-03
9.397163e-03
9.407969e-03
9.429847e-03
9.465059e-03
9.513414e-03
9.572475e-03
9.639559e-03
9.713833e-03
9.797274e-03
9.893508e-03
1.000547e-02
1.013349e-02
1.027486e-02
1.042528e-02
1.058093e-02
1.074027e-02
1.090449e-02
1.107668e-02
1.126018e-02
1.145721e-02
1.166813e-02
1.189159e-02
1.212533e-02
1.236715e-02
1.261551e-02
1.286982e-02
1.313022e-02
1.339718e-02
1.367104e-02
1.395173e-02
1.423863e-02
1.453067e-02
1.482361e-02
1.511486e-02
1.540289e-02
1.568634e-02
1.596404e-02
1.623493e-02
1.649801e-02
1.675223e-02
1.699646e-02
1.722954e-02
1.745025e-02
1.765745e-02
1.785007e-02
1.802717e-02
1.818797e-02
1.833184e-02
1.845828e-02
1.856694e-02
1.865754e-02
1.872993e-02
1.878406e-02
1.881997e-02
1.883786e-02
1.883802e-02
1.882118e-02
1.878798e-02
1.873905e-02
1.867517e-02
1.859717e-02
1.850596e-02
1.840251e-02
1.828783e-02
1.816299e-02
1.802909e-02
1.788725e-02
1.773861e-02
1.758430e-02
1.742547e-02
1.726324e-02
1.709872e-02
1.693302e-02
1.676718e-02
1.660224e-02
1.643921e-02
1.627903e-02
1.612262e-02
1.597085e-02
1.582455e-02
1.568445e-02
1.555125e-02
1.542556e-02
1.542543e-02
1.131746e-02
1.131820e-02
1.107062e-02
1.086390e-02
1.066179e-02
1.044843e-02