# vtk DataFile Version 3.0
Scalar Field
ASCII
DATASET RECTILINEAR_GRID
DIMENSIONS 102 102 1
X_COORDINATES 102 double
0.000000 0.100000 0.200000 0.300000 0.400000 0.500000 0.600000 0.700000 0.800000 0.900000 1.000000 1.100000 1.200000 1.300000 1.400000 1.500000 1.600000 1.700000 1.800000 1.900000 2.000000 2.100000 2.200000 2.300000 2.400000 2.500000 2.600000 2.700000 2.800000 2.900000 3.000000 3.100000 3.200000 3.300000 3.400000 3.500000 3.600000 3.700000 3.800000 3.900000 4.000000 4.100000 4.200000 4.300000 4.400000 4.500000 4.600000 4.700000 4.800000 4.900000 5.000000 5.100000 5.200000 5.300000 5.400000 5.500000 5.600000 5.700000 5.800000 5.900000 6.000000 6.100000 6.200000 6.300000 6.400000 6.500000 6.600000 6.700000 6.800000 6.900000 7.000000 7.100000 7.200000 7.300000 7.400000 7.500000 7.600000 7.700000 7.800000 7.900000 8.000000 8.100000 8.200000 8.300000 8.400000 8.500000 8.600000 8.700000 8.800000 8.900000 9.000000 9.100000 9.200000 9.300000 9.400000 9.500000 9.600000 9.700000 9.800000 9.900000 10.000000 10.100000 
Y_COORDINATES 102 double
0.000000 0.100000 0.200000 0.300000 0.400000 0.500000 0.600000 0.700000 0.800000 0.900000 1.000000 1.100000 1.200000 1.300000 1.400000 1.500000 1.600000 1.700000 1.800000 1.900000 2.000000 2.100000 2.200000 2.300000 2.400000 2.500000 2.600000 2.700000 2.800000 2.900000 3.000000 3.100000 3.200000 3.300000 3.400000 3.500000 3.600000 3.700000 3.800000 3.900000 4.000000 4.100000 4.200000 4.300000 4.400000 4.500000 4.600000 4.700000 4.800000 4.900000 5.000000 5.100000 5.200000 5.300000 5.400000 5.500000 5.600000 5.700000 5.800000 5.900000 6.000000 6.100000 6.200000 6.300000 6.400000 6.500000 6.600000 6.700000 6.800000 6.900000 7.000000 7.100000 7.200000 7.300000 7.400000 7.500000 7.600000 7.700000 7.800000 7.900000 8.000000 8.100000 8.200000 8.300000 8.400000 8.500000 8.600000 8.700000 8.800000 8.900000 9.000000 9.100000 9.200000 9.300000 9.400000 9.500000 9.600000 9.700000 9.800000 9.900000 10.000000 10.100000 
Z_COORDINATES 1 double
0.0
POINT_DATA 10404
SCALARS Pressure double 1
LOOKUP_TABLE default
0.000000e+00
-3.557183e-04
-3.896882e-04
-2.737567e-04
-1.121271e-04
9.874159e-06
3.895671e-05
-3.187637e-05
-1.712747e-04
-3.320220e-04
-4.747673e-04
-5.817405e-04
-6.563892e-04
-7.126708e-04
-7.620707e-04
-8.057554e-04
-8.349239e-04
-8.373876e-04
-8.054411e-04
-7.403450e-04
-6.514544e-04
-5.512664e-04
-4.496121e-04
-3.500943e-04
-2.501400e-04
-1.439166e-04
-2.602913e-05
1.060730e-04
2.519546e-04
4.099058e-04
5.791578e-04
7.611946e-04
9.594395e-04
1.177557e-03
1.417331e-03
1.677230e-03
1.952367e-03
2.235879e-03
2.521093e-03
2.803593e-03
3.082396e-03
3.359869e-03
3.640553e-03
3.929404e-03
4.230129e-03
4.544130e-03
4.870300e-03
5.205590e-03
5.546039e-03
5.887856e-03
6.228246e-03
6.565774e-03
6.900264e-03
7.232379e-03
7.563083e-03
7.893112e-03
8.222624e-03
8.551086e-03
8.877351e-03
9.199877e-03
9.516983e-03
9.827092e-03
1.012888e-02
1.042135e-02
1.070380e-02
1.097578e-02
1.123695e-02
1.148701e-02
1.172558e-02
1.195219e-02
1.216626e-02
1.236710e-02
1.255399e-02
1.272621e-02
1.288312e-02
1.302416e-02
1.314893e-02
1.325718e-02
1.334880e-02
1.342379e-02
1.348230e-02
1.352456e-02
1.355085e-02
1.356158e-02
1.355720e-02
1.353830e-02
1.350556e-02
1.345984e-02
1.340216e-02
1.333378e-02
1.325619e-02
1.317121e-02
1.308097e-02
1.298801e-02
1.289534e-02
1.280652e-02
1.272571e-02
1.265772e-02
1.260769e-02
1.258031e-02
1.257702e-02
0.000000e+00
-3.557183e-04
-4.905481e-04
-3.732963e-04
-1.555326e-04
3.477901e-05
1.227665e-04
8.696666e-05
-4.489514e-05
-2.193255e-04
-3.856409e-04
-5.156109e-04
-6.071724e-04
-6.744575e-04
-7.326471e-04
-7.868379e-04
-8.299379e-04
-8.486987e-04
-8.327865e-04
-7.811549e-04
-7.025491e-04
-6.107427e-04
-5.178406e-04
-4.294222e-04
-3.436566e-04
-2.540628e-04
-1.537648e-04
-3.874089e-05
9.140327e-05
2.349991e-04
3.908388e-04
5.599807e-04
7.457987e-04
9.523306e-04
1.181900e-03
1.433307e-03
1.701507e-03
1.978962e-03
2.258038e-03
2.533443e-03
2.803742e-03
3.071444e-03
3.341764e-03
3.620619e-03
3.912636e-03
4.219822e-03
4.541224e-03
4.873522e-03
5.212210e-03
5.552901e-03
5.892336e-03
6.228869e-03
6.562388e-03
6.893822e-03
7.224472e-03
7.555398e-03
7.886985e-03
8.218785e-03
8.549601e-03
8.877747e-03
9.201363e-03
9.518706e-03
9.828337e-03
1.012921e-02
1.042064e-02
1.070222e-02
1.097368e-02
1.123477e-02
1.148515e-02
1.172435e-02
1.195173e-02
1.216655e-02
1.236799e-02
1.255523e-02
1.272751e-02
1.288422e-02
1.302488e-02
1.314916e-02
1.325689e-02
1.334806e-02
1.342273e-02
1.348105e-02
1.352325e-02
1.354961e-02
1.356048e-02
1.355630e-02
1.353758e-02
1.350501e-02
1.345941e-02
1.340182e-02
1.333348e-02
1.325592e-02
1.317093e-02
1.308068e-02
1.298771e-02
1.289503e-02
1.280621e-02
1.272541e-02
1.265742e-02
1.260741e-02
1.258004e-02
1.257675e-02
1.257702e-02
-3.762208e-04
-3.598631e-04
-1.442200e-04
4.918449e-05
1.378504e-04
1.102883e-04
-2.341640e-06
-1.493652e-04
-2.866421e-04
-3.925761e-04
-4.689156e-04
-5.298065e-04
-5.876870e-04
-6.442930e-04
-6.904867e-04
-7.130576e-04
-7.032129e-04
-6.615805e-04
-5.974442e-04
-5.235051e-04
-4.496652e-04
-3.792296e-04
-3.090149e-04
-2.325280e-04
-1.439228e-04
-4.049791e-05
7.727768e-05
2.076782e-04
3.500639e-04
5.061534e-04
6.795262e-04
8.737240e-04
1.090054e-03
1.326280e-03
1.576864e-03
1.834654e-03
2.093245e-03
2.349014e-03
2.602054e-03
2.855748e-03
3.115252e-03
3.385578e-03
3.669951e-03
3.968967e-03
4.280688e-03
4.601481e-03
4.927211e-03
5.254344e-03
5.580651e-03
5.905385e-03
6.228992e-03
6.552546e-03
6.877116e-03
7.203272e-03
7.530877e-03
7.859056e-03
8.186375e-03
8.511125e-03
8.831606e-03
9.146345e-03
9.454206e-03
9.754405e-03
1.004644e-02
1.032996e-02
1.060468e-02
1.087024e-02
1.112616e-02
1.137184e-02
1.160652e-02
1.182937e-02
1.203957e-02
1.223631e-02
1.241890e-02
1.258678e-02
1.273952e-02
1.287686e-02
1.299863e-02
1.310477e-02
1.319531e-02
1.327032e-02
1.332991e-02
1.337427e-02
1.340363e-02
1.341829e-02
1.341868e-02
1.340535e-02
1.337898e-02
1.334045e-02
1.329081e-02
1.323134e-02
1.316354e-02
1.308918e-02
1.301031e-02
1.292929e-02
1.284888e-02
1.277219e-02
1.270277e-02
1.264446e-02
1.260120e-02
1.257659e-02
1.257334e-02
1.257351e-02
-1.959353e-04
-7.738714e-05
1.063196e-04
1.828882e-04
1.400801e-04
2.233768e-05
-1.144602e-04
-2.291656e-04
-3.082006e-04
-3.616412e-04
-4.084546e-04
-4.611434e-04
-5.181625e-04
-5.665410e-04
-5.910895e-04
-5.836728e-04
-5.472428e-04
-4.932137e-04
-4.346906e-04
-3.798902e-04
-3.292068e-04
-2.767776e-04
-2.148270e-04
-1.379118e-04
-4.480713e-05
6.250632e-05
1.815851e-04
3.120600e-04
4.564474e-04
6.188933e-04
8.026981e-04
1.008062e-03
1.231262e-03
1.465658e-03
1.704022e-03
1.941102e-03
2.175323e-03
2.409007e-03
2.647155e-03
2.895403e-03
3.157998e-03
3.436500e-03
3.729558e-03
4.033641e-03
4.344336e-03
4.657667e-03
4.971026e-03
5.283492e-03
5.595582e-03
5.908625e-03
6.224026e-03
6.542670e-03
6.864572e-03
7.188846e-03
7.513996e-03
7.838198e-03
8.159644e-03
8.476793e-03
8.788508e-03
9.094054e-03
9.393007e-03
9.685111e-03
9.970131e-03
1.024774e-02
1.051744e-02
1.077856e-02
1.103030e-02
1.127175e-02
1.150198e-02
1.172012e-02
1.192543e-02
1.211728e-02
1.229520e-02
1.245888e-02
1.260808e-02
1.274269e-02
1.286261e-02
1.296779e-02
1.305821e-02
1.313388e-02
1.319485e-02
1.324122e-02
1.327319e-02
1.329106e-02
1.329528e-02
1.328642e-02
1.326521e-02
1.323257e-02
1.318956e-02
1.313744e-02
1.307767e-02
1.301192e-02
1.294207e-02
1.287030e-02
1.279903e-02
1.273097e-02
1.266907e-02
1.261648e-02
1.257637e-02
1.255184e-02
1.254594e-02
1.254600e-02
7.451568e-05
2.225098e-04
2.884894e-04
2.261813e-04
8.732486e-05
-6.080403e-05
-1.726643e-04
-2.375395e-04
-2.726270e-04
-3.040008e-04
-3.480120e-04
-4.028973e-04
-4.529057e-04
-4.800003e-04
-4.750123e-04
-4.419963e-04
-3.944854e-04
-3.470856e-04
-3.078103e-04
-2.751821e-04
-2.407868e-04
-1.948642e-04
-1.313243e-04
-4.957157e-05
4.721184e-05
1.556532e-04
2.751929e-04
4.087689e-04
5.610018e-04
7.351338e-04
9.305394e-04
1.142172e-03
1.362202e-03
1.583003e-03
1.800051e-03
2.013480e-03
2.227724e-03
2.449555e-03
2.685438e-03
2.939271e-03
3.211296e-03
3.498383e-03
3.795385e-03
4.096926e-03
4.398934e-03
4.699483e-03
4.998796e-03
5.298597e-03
5.601130e-03
5.908228e-03
6.220693e-03
6.538096e-03
6.858929e-03
7.181018e-03
7.502134e-03
7.820332e-03
8.134196e-03
8.442892e-03
8.746065e-03
9.043645e-03
9.335624e-03
9.621875e-03
9.902036e-03
1.017548e-02
1.044135e-02
1.069863e-02
1.094627e-02
1.118325e-02
1.140868e-02
1.162184e-02
1.182220e-02
1.200940e-02
1.218320e-02
1.234342e-02
1.248996e-02
1.262270e-02
1.274151e-02
1.284627e-02
1.293685e-02
1.301319e-02
1.307529e-02
1.312323e-02
1.315721e-02
1.317759e-02
1.318483e-02
1.317957e-02
1.316258e-02
1.313476e-02
1.309717e-02
1.305102e-02
1.299768e-02
1.293868e-02
1.287574e-02
1.281080e-02
1.274598e-02
1.268358e-02
1.262606e-02
1.257600e-02
1.253595e-02
1.250844e-02
1.249602e-02
1.249595e-02
3.383863e-04
4.530766e-04
3.813161e-04
2.154508e-04
4.032013e-05
-8.900018e-05
-1.582221e-04
-1.871941e-04
-2.081208e-04
-2.432757e-04
-2.940198e-04
-3.444810e-04
-3.746371e-04
-3.734528e-04
-3.445422e-04
-3.024536e-04
-2.632876e-04
-2.358596e-04
-2.181935e-04
-2.003151e-04
-1.706553e-04
-1.218825e-04
-5.309161e-05
3.212562e-05
1.297755e-04
2.389197e-04
3.624688e-04
5.051267e-04
6.699605e-04
8.557031e-04
1.056322e-03
1.263069e-03
1.467950e-03
1.666918e-03
1.861375e-03
2.057419e-03
2.263310e-03
2.486327e-03
2.730278e-03
2.994502e-03
3.274534e-03
3.563939e-03
3.856500e-03
4.147964e-03
4.436847e-03
4.724215e-03
5.012723e-03
5.305357e-03
5.604326e-03
5.910413e-03
6.222857e-03
6.539699e-03
6.858327e-03
7.176096e-03
7.490955e-03
7.801591e-03
8.107418e-03
8.408393e-03
8.704730e-03
8.996616e-03
9.284000e-03
9.566480e-03
9.843302e-03
1.011344e-02
1.037572e-02
1.062897e-02
1.087210e-02
1.110424e-02
1.132471e-02
1.153306e-02
1.172901e-02
1.191237e-02
1.208303e-02
1.224085e-02
1.238568e-02
1.251730e-02
1.263548e-02
1.274001e-02
1.283068e-02
1.290740e-02
1.297017e-02
1.301912e-02
1.305450e-02
1.307672e-02
1.308630e-02
1.308390e-02
1.307028e-02
1.304635e-02
1.301308e-02
1.297163e-02
1.292323e-02
1.286929e-02
1.281135e-02
1.275113e-02
1.269044e-02
1.263125e-02
1.257558e-02
1.252548e-02
1.248297e-02
1.244996e-02
1.242821e-02
1.242801e-02
5.303229e-04
5.802088e-04
4.058597e-04
1.985918e-04
3.857172e-05
-5.218744e-05
-9.080836e-05
-1.118908e-04
-1.428261e-04
-1.898183e-04
-2.396164e-04
-2.723632e-04
-2.758163e-04
-2.524240e-04
-2.164658e-04
-1.846442e-04
-1.666116e-04
-1.607729e-04
-1.567745e-04
-1.420860e-04
-1.082864e-04
-5.365357e-05
1.860397e-05
1.045469e-04
2.031086e-04
3.169918e-04
4.505835e-04
6.064422e-04
7.825931e-04
9.722411e-04
1.166087e-03
1.356057e-03
1.538620e-03
1.716175e-03
1.895994e-03
2.087315e-03
2.297892e-03
2.531397e-03
2.786536e-03
3.057975e-03
3.338497e-03
3.621430e-03
3.902494e-03
4.180553e-03
4.457237e-03
4.735775e-03
5.019566e-03
5.310990e-03
5.610755e-03
5.917854e-03
6.230023e-03
6.544437e-03
6.858341e-03
7.169564e-03
7.476923e-03
7.780044e-03
8.079103e-03
8.374495e-03
8.666505e-03
8.955087e-03
9.239766e-03
9.519665e-03
9.793626e-03
1.006037e-02
1.031866e-02
1.056740e-02
1.080574e-02
1.103309e-02
1.124906e-02
1.145341e-02
1.164601e-02
1.182673e-02
1.199539e-02
1.215176e-02
1.229555e-02
1.242643e-02
1.254408e-02
1.264820e-02
1.273863e-02
1.281529e-02
1.287825e-02
1.292771e-02
1.296400e-02
1.298756e-02
1.299893e-02
1.299876e-02
1.298780e-02
1.296687e-02
1.293690e-02
1.289893e-02
1.285411e-02
1.280371e-02
1.274910e-02
1.269178e-02
1.263332e-02
1.257534e-02
1.251949e-02
1.246738e-02
1.242051e-02
1.238022e-02
1.234758e-02
1.234724e-02
6.320590e-04
6.201486e-04
4.037022e-04
2.099251e-04
8.785907e-05
2.635979e-05
-7.257057e-06
-4.245825e-05
-8.957138e-05
-1.392437e-04
-1.738765e-04
-1.816687e-04
-1.644092e-04
-1.355554e-04
-1.114379e-04
-1.018817e-04
-1.057317e-04
-1.129655e-04
-1.110308e-04
-9.108498e-05
-5.070558e-05
7.689264e-06
8.082932e-05
1.680511e-04
2.720369e-04
3.967101e-04
5.438191e-04
7.104575e-04
8.890751e-04
1.070058e-03
1.245584e-03
1.412852e-03
1.575225e-03
1.740835e-03
1.919406e-03
2.118695e-03
2.341957e-03
2.587283e-03
2.848781e-03
3.118928e-03
3.391078e-03
3.661260e-03
3.928783e-03
4.195698e-03
4.465499e-03
4.741644e-03
5.026384e-03
5.320184e-03
5.621784e-03
5.928735e-03
6.238151e-03
6.547410e-03
6.854546e-03
7.158440e-03
7.458927e-03
7.756335e-03
8.051125e-03
8.343564e-03
8.633515e-03
8.920377e-03
9.203141e-03
9.480550e-03
9.751277e-03
1.001408e-02
1.026794e-02
1.051208e-02
1.074597e-02
1.096930e-02
1.118187e-02
1.138351e-02
1.157406e-02
1.175327e-02
1.192081e-02
1.207629e-02
1.221928e-02
1.234937e-02
1.246623e-02
1.256962e-02
1.265941e-02
1.273563e-02
1.279844e-02
1.284809e-02
1.288496e-02
1.290948e-02
1.292220e-02
1.292370e-02
1.291469e-02
1.289593e-02
1.286829e-02
1.283271e-02
1.279025e-02
1.274205e-02
1.268935e-02
1.263344e-02
1.257563e-02
1.251727e-02
1.245968e-02
1.240407e-02
1.235152e-02
1.230289e-02
1.225871e-02
1.225820e-02
6.653205e-04
6.171494e-04
4.118633e-04
2.577154e-04
1.669193e-04
1.111924e-04
6.236436e-05
8.489763e-06
-4.422163e-05
-8.124969e-05
-9.276677e-05
-8.118249e-05
-5.959442e-05
-4.361879e-05
-4.255677e-05
-5.518757e-05
-7.183901e-05
-8.045021e-05
-7.246608e-05
-4.529012e-05
-6.713354e-07
5.907311e-05
1.341236e-04
2.275570e-04
3.430003e-04
4.813204e-04
6.384990e-04
8.061080e-04
9.742596e-04
1.135567e-03
1.288184e-03
1.436543e-03
1.589533e-03
1.757060e-03
1.946469e-03
2.160250e-03
2.395716e-03
2.646508e-03
2.905102e-03
3.165292e-03
3.423784e-03
3.680556e-03
3.938094e-03
4.199993e-03
4.469489e-03
4.748414e-03
5.036775e-03
5.332965e-03
5.634391e-03
5.938238e-03
6.242132e-03
6.544530e-03
6.844685e-03
7.142499e-03
7.438418e-03
7.732884e-03
8.026035e-03
8.317548e-03
8.606629e-03
8.892122e-03
9.172691e-03
9.447012e-03
9.713920e-03
9.972499e-03
1.022210e-02
1.046230e-02
1.069283e-02
1.091350e-02
1.112409e-02
1.132435e-02
1.151392e-02
1.169234e-02
1.185914e-02
1.201378e-02
1.215582e-02
1.228485e-02
1.240061e-02
1.250296e-02
1.259187e-02
1.266747e-02
1.272997e-02
1.277966e-02
1.281688e-02
1.284207e-02
1.285569e-02
1.285832e-02
1.285058e-02
1.283320e-02
1.280699e-02
1.277283e-02
1.273169e-02
1.268459e-02
1.263262e-02
1.257688e-02
1.251847e-02
1.245849e-02
1.239796e-02
1.233779e-02
1.227870e-02
1.222120e-02
1.216543e-02
1.216473e-02
6.699969e-04
6.153512e-04
4.468163e-04
3.276101e-04
2.457604e-04
1.763098e-04
1.083652e-04
4.715189e-05
4.972877e-06
-1.075611e-05
-4.209312e-06
1.078966e-05
1.883151e-05
1.128946e-05
-1.003768e-05
-3.538165e-05
-5.309976e-05
-5.525747e-05
-3.962655e-05
-7.743558e-06
3.886063e-05
1.013747e-04
1.835826e-04
2.891729e-04
4.183248e-04
5.659252e-04
7.225822e-04
8.780542e-04
1.025395e-03
1.163801e-03
1.298870e-03
1.440274e-03
1.597991e-03
1.778734e-03
1.983958e-03
2.209994e-03
2.449950e-03
2.696410e-03
2.943838e-03
3.189901e-03
3.435473e-03
3.683593e-03
3.937925e-03
4.201347e-03
4.475072e-03
4.758465e-03
5.049454e-03
5.345268e-03
5.643222e-03
5.941301e-03
6.238423e-03
6.534384e-03
6.829425e-03
7.123908e-03
7.418202e-03
7.712242e-03
8.005440e-03
8.296759e-03
8.584873e-03
8.868386e-03
9.146017e-03
9.416725e-03
9.679753e-03
9.934605e-03
1.018097e-02
1.041862e-02
1.064734e-02
1.086684e-02
1.107672e-02
1.127650e-02
1.146561e-02
1.164344e-02
1.180941e-02
1.196299e-02
1.210378e-02
1.223150e-02
1.234599e-02
1.244722e-02
1.253525e-02
1.261023e-02
1.267240e-02
1.272202e-02
1.275940e-02
1.278491e-02
1.279900e-02
1.280220e-02
1.279512e-02
1.277843e-02
1.275290e-02
1.271935e-02
1.267866e-02
1.263174e-02
1.257952e-02
1.252294e-02
1.246292e-02
1.240034e-02
1.233598e-02
1.227050e-02
1.220439e-02
1.213787e-02
1.207084e-02
1.206993e-02
6.805531e-04
6.387723e-04
5.029280e-04
3.965679e-04
3.036971e-04
2.160399e-04
1.400726e-04
8.783545e-05
6.527379e-05
6.624111e-05
7.525035e-05
7.608755e-05
6.023482e-05
3.010384e-05
-4.009605e-06
-3.042876e-05
-4.167773e-05
-3.611057e-05
-1.550430e-05
1.895730e-05
6.925724e-05
1.399734e-04
2.351024e-04
3.544838e-04
4.921405e-04
6.377892e-04
7.807812e-04
9.145117e-04
1.039145e-03
1.161434e-03
1.291855e-03
1.440466e-03
1.613305e-03
1.810695e-03
2.027861e-03
2.257280e-03
2.491610e-03
2.726037e-03
2.959302e-03
3.193317e-03
3.431783e-03
3.678494e-03
3.935954e-03
4.204692e-03
4.483338e-03
4.769267e-03
5.059485e-03
5.351432e-03
5.643488e-03
5.935090e-03
6.226523e-03
6.518496e-03
6.811528e-03
7.105678e-03
7.400638e-03
7.695519e-03
7.989010e-03
8.279615e-03
8.565893e-03
8.846637e-03
9.120962e-03
9.388299e-03
9.648315e-03
9.900802e-03
1.014556e-02
1.038233e-02
1.061070e-02
1.083014e-02
1.104002e-02
1.123964e-02
1.142829e-02
1.160533e-02
1.177019e-02
1.192247e-02
1.206188e-02
1.218827e-02
1.230157e-02
1.240182e-02
1.248911e-02
1.256357e-02
1.262541e-02
1.267483e-02
1.271212e-02
1.273762e-02
1.275177e-02
1.275507e-02
1.274812e-02
1.273156e-02
1.270610e-02
1.267249e-02
1.263152e-02
1.258399e-02
1.253069e-02
1.247244e-02
1.240997e-02
1.234402e-02
1.227518e-02
1.220393e-02
1.213058e-02
1.205515e-02
1.197741e-02
1.197629e-02
7.117310e-04
6.865402e-04
5.624007e-04
4.476726e-04
3.378193e-04
2.419506e-04
1.738486e-04
1.397936e-04
1.325901e-04
1.349501e-04
1.290022e-04
1.053745e-04
6.652793e-05
2.329750e-05
-1.219257e-05
-3.246572e-05
-3.626125e-05
-2.576347e-05
-2.220955e-06
3.672033e-05
9.621063e-05
1.806196e-04
2.896710e-04
4.168654e-04
5.512610e-04
6.818713e-04
8.023544e-04
9.136940e-04
1.023664e-03
1.143481e-03
1.283300e-03
1.448539e-03
1.638440e-03
1.847134e-03
2.066433e-03
2.289005e-03
2.510690e-03
2.731264e-03
2.953675e-03
3.182326e-03
3.421195e-03
3.672472e-03
3.936040e-03
4.209813e-03
4.490610e-03
4.775196e-03
5.061117e-03
5.347131e-03
5.633184e-03
5.920042e-03
6.208741e-03
6.500070e-03
6.794022e-03
7.089803e-03
7.386220e-03
7.681701e-03
7.974601e-03
8.263460e-03
8.547175e-03
8.825033e-03
9.096655e-03
9.361862e-03
9.620526e-03
9.872450e-03
1.011729e-02
1.035452e-02
1.058345e-02
1.080332e-02
1.101329e-02
1.121259e-02
1.140051e-02
1.157649e-02
1.174011e-02
1.189109e-02
1.202926e-02
1.215456e-02
1.226697e-02
1.236651e-02
1.245323e-02
1.252723e-02
1.258867e-02
1.263774e-02
1.267470e-02
1.269990e-02
1.271377e-02
1.271681e-02
1.270958e-02
1.269269e-02
1.266678e-02
1.263253e-02
1.259062e-02
1.254177e-02
1.248668e-02
1.242602e-02
1.236045e-02
1.229054e-02
1.221678e-02
1.213951e-02
1.205889e-02
1.197486e-02
1.188706e-02
1.188572e-02
7.578255e-04
7.416614e-04
6.087565e-04
4.778482e-04
3.595498e-04
2.706531e-04
2.196270e-04
1.998602e-04
1.930632e-04
1.795388e-04
1.482626e-04
1.008772e-04
4.827509e-05
3.073530e-06
-2.685277e-05
-4.020828e-05
-3.941417e-05
-2.594312e-05
2.560156e-06
5.144949e-05
1.252880e-04
2.237586e-04
3.400416e-04
4.628368e-04
5.810007e-04
6.884746e-04
7.869425e-04
8.850227e-04
9.945315e-04
1.125673e-03
1.283305e-03
1.465709e-03
1.666043e-03
1.875516e-03
2.086788e-03
2.296265e-03
2.504631e-03
2.715754e-03
2.934667e-03
3.165531e-03
3.410272e-03
3.668228e-03
3.936693e-03
4.212018e-03
4.490771e-03
4.770610e-03
5.050640e-03
5.331262e-03
5.613658e-03
5.899137e-03
6.188555e-03
6.481972e-03
6.778385e-03
7.076074e-03
7.373250e-03
7.668165e-03
7.959391e-03
8.245952e-03
8.527320e-03
8.803290e-03
9.073800e-03
9.338769e-03
9.597959e-03
9.850920e-03
1.009699e-02
1.033535e-02
1.056508e-02
1.078526e-02
1.099506e-02
1.119376e-02
1.138077e-02
1.155569e-02
1.171824e-02
1.186823e-02
1.200557e-02
1.213019e-02
1.224204e-02
1.234110e-02
1.242738e-02
1.250092e-02
1.256188e-02
1.261046e-02
1.264692e-02
1.267162e-02
1.268497e-02
1.268747e-02
1.267962e-02
1.266198e-02
1.263513e-02
1.259967e-02
1.255622e-02
1.250542e-02
1.244789e-02
1.238425e-02
1.231505e-02
1.224078e-02
1.216183e-02
1.207844e-02
1.199068e-02
1.189842e-02
1.180127e-02
1.179972e-02
8.023652e-04
7.854646e-04
6.359401e-04
4.959297e-04
3.837666e-04
3.112332e-04
2.739669e-04
2.540781e-04
2.306660e-04
1.908439e-04
1.347327e-04
7.257202e-05
1.711422e-05
-2.329078e-05
-4.697126e-05
-5.625228e-05
-5.271275e-05
-3.413783e-05
4.737938e-06
6.839699e-05
1.563646e-04
2.615738e-04
3.725118e-04
4.780916e-04
5.726358e-04
6.584965e-04
7.450061e-04
8.444287e-04
9.669261e-04
1.116806e-03
1.291496e-03
1.483335e-03
1.683060e-03
1.883375e-03
2.081204e-03
2.278007e-03
2.478402e-03
2.687906e-03
2.910779e-03
3.148691e-03
3.400516e-03
3.663069e-03
3.932367e-03
4.204894e-03
4.478471e-03
4.752538e-03
5.027888e-03
5.306024e-03
5.588429e-03
5.875952e-03
6.168499e-03
6.465042e-03
6.763665e-03
7.062157e-03
7.358742e-03
7.652080e-03
7.941360e-03
8.226239e-03
8.506659e-03
8.782636e-03
9.054074e-03
9.320655e-03
9.581799e-03
9.836697e-03
1.008439e-02
1.032387e-02
1.055415e-02
1.077435e-02
1.098375e-02
1.118179e-02
1.136806e-02
1.154227e-02
1.170422e-02
1.185376e-02
1.199076e-02
1.211511e-02
1.222669e-02
1.232543e-02
1.241132e-02
1.248440e-02
1.254485e-02
1.259286e-02
1.262873e-02
1.265280e-02
1.266545e-02
1.266714e-02
1.265832e-02
1.263950e-02
1.261121e-02
1.257399e-02
1.252844e-02
1.247514e-02
1.241468e-02
1.234760e-02
1.227440e-02
1.219550e-02
1.211122e-02
1.202172e-02
1.192703e-02
1.182697e-02
1.172116e-02
1.171940e-02
8.306656e-04
8.088702e-04
6.491915e-04
5.142240e-04
4.180475e-04
3.594521e-04
3.223314e-04
2.857060e-04
2.352892e-04
1.694867e-04
9.733517e-05
3.119406e-05
-2.036486e-05
-5.523008e-05
-7.538479e-05
-8.227766e-05
-7.374480e-05
-4.469258e-05
9.097945e-06
8.681862e-05
1.810763e-04
2.801726e-04
3.731308e-04
4.547642e-04
5.281220e-04
6.032055e-04
6.926362e-04
8.064523e-04
9.483894e-04
1.115082e-03
1.298170e-03
1.488053e-03
1.677572e-03
1.864173e-03
2.050008e-03
2.240291e-03
2.440854e-03
2.655923e-03
2.886863e-03
3.132122e-03
3.388147e-03
3.650777e-03
3.916552e-03
4.183550e-03
4.451571e-03
4.721749e-03
4.995816e-03
5.275313e-03
5.560987e-03
5.852531e-03
6.148683e-03
6.447581e-03
6.746975e-03
7.044850e-03
7.340019e-03
7.631878e-03
7.920266e-03
8.205243e-03
8.486848e-03
8.764920e-03
9.039010e-03
9.308381e-03
9.572079e-03
9.829031e-03
1.007815e-02
1.031842e-02
1.054896e-02
1.076906e-02
1.097819e-02
1.117592e-02
1.136198e-02
1.153610e-02
1.169810e-02
1.184776e-02
1.198487e-02
1.210927e-02
1.222078e-02
1.231933e-02
1.240490e-02
1.247757e-02
1.253752e-02
1.258498e-02
1.262020e-02
1.264351e-02
1.265525e-02
1.265581e-02
1.264564e-02
1.262518e-02
1.259495e-02
1.255550e-02
1.250737e-02
1.245114e-02
1.238736e-02
1.231652e-02
1.223907e-02
1.215537e-02
1.206569e-02
1.197016e-02
1.186878e-02
1.176137e-02
1.164756e-02
1.164559e-02
8.380256e-04
8.153047e-04
6.590505e-04
5.395641e-04
4.580148e-04
4.006955e-04
3.475807e-04
2.838374e-04
2.065247e-04
1.233692e-04
4.596547e-05
-1.726954e-05
-6.399191e-05
-9.583757e-05
-1.139769e-04
-1.161196e-04
-9.723207e-05
-5.335354e-05
1.429280e-05
9.786736e-05
1.853922e-04
2.659413e-04
3.347757e-04
3.956763e-04
4.593237e-04
5.386914e-04
6.436786e-04
7.774455e-04
9.358616e-04
1.109933e-03
1.289815e-03
1.468561e-03
1.644173e-03
1.819458e-03
2.000131e-03
2.192200e-03
2.399727e-03
2.623687e-03
2.862092e-03
3.111091e-03
3.366462e-03
3.624940e-03
3.884963e-03
4.146742e-03
4.411735e-03
4.681829e-03
4.958520e-03
5.242354e-03
5.532751e-03
5.828202e-03
6.126707e-03
6.426275e-03
6.725062e-03
7.021784e-03
7.316072e-03
7.607951e-03
7.897563e-03
8.184920e-03
8.469743e-03
8.751415e-03
9.029026e-03
9.301475e-03
9.567595e-03
9.826256e-03
1.007645e-02
1.031731e-02
1.054817e-02
1.076850e-02
1.097789e-02
1.117604e-02
1.136264e-02
1.153741e-02
1.170007e-02
1.185032e-02
1.198789e-02
1.211257e-02
1.222420e-02
1.232270e-02
1.240809e-02
1.248045e-02
1.253998e-02
1.258687e-02
1.262135e-02
1.264370e-02
1.265423e-02
1.265331e-02
1.264135e-02
1.261884e-02
1.258627e-02
1.254418e-02
1.249313e-02
1.243365e-02
1.236627e-02
1.229143e-02
1.220955e-02
1.212095e-02
1.202586e-02
1.192441e-02
1.181659e-02
1.170224e-02
1.158104e-02
1.157889e-02
8.302183e-04
8.156035e-04
6.732528e-04
5.689449e-04
4.902513e-04
4.184197e-04
3.387559e-04
2.476109e-04
1.517480e-04
6.200810e-05
-1.356951e-05
-7.270024e-05
-1.168885e-04
-1.470862e-04
-1.607848e-04
-1.528345e-04
-1.193635e-04
-6.192803e-05
1.115262e-05
8.749039e-05
1.560572e-04
2.124142e-04
2.609729e-04
3.131143e-04
3.822118e-04
4.780890e-04
6.033861e-04
7.532477e-04
9.180799e-04
1.087821e-03
1.255766e-03
1.420495e-03
1.585459e-03
1.756825e-03
1.940700e-03
2.140893e-03
2.357913e-03
2.589305e-03
2.830940e-03
3.078607e-03
3.329327e-03
3.581991e-03
3.837270e-03
4.096951e-03
4.363031e-03
4.636887e-03
4.918789e-03
5.207835e-03
5.502256e-03
5.799942e-03
6.098971e-03
6.397981e-03
6.696002e-03
6.992576e-03
7.287904e-03
7.582180e-03
7.875344e-03
8.166961e-03
8.456216e-03
8.742019e-03
9.023136e-03
9.298328e-03
9.566454e-03
9.826527e-03
1.007774e-02
1.031945e-02
1.055117e-02
1.077247e-02
1.098301e-02
1.118242e-02
1.137035e-02
1.154642e-02
1.171023e-02
1.186145e-02
1.199976e-02
1.212496e-02
1.223691e-02
1.233556e-02
1.242093e-02
1.249310e-02
1.255222e-02
1.259846e-02
1.263201e-02
1.265312e-02
1.266210e-02
1.265933e-02
1.264525e-02
1.262035e-02
1.258513e-02
1.254014e-02
1.248591e-02
1.242294e-02
1.235174e-02
1.227271e-02
1.218625e-02
1.209266e-02
1.199218e-02
1.188492e-02
1.177091e-02
1.165002e-02
1.152197e-02
1.151966e-02
8.177057e-04
8.194225e-04
6.914533e-04
5.913381e-04
4.998162e-04
4.024136e-04
2.951918e-04
1.844553e-04
8.065588e-05
-8.439186e-06
-8.074468e-05
-1.379011e-04
-1.808807e-04
-2.070444e-04
-2.110303e-04
-1.888421e-04
-1.421536e-04
-7.966105e-05
-1.421861e-05
4.285543e-05
8.720936e-05
1.236941e-04
1.642984e-04
2.228601e-04
3.092388e-04
4.256742e-04
5.666705e-04
7.220659e-04
8.815754e-04
1.038713e-03
1.192607e-03
1.347338e-03
1.509506e-03
1.685292e-03
1.878218e-03
2.088290e-03
2.312562e-03
2.546625e-03
2.786306e-03
3.028954e-03
3.273961e-03
3.522491e-03
3.776663e-03
4.038557e-03
4.309396e-03
4.589134e-03
4.876518e-03
5.169527e-03
5.465967e-03
5.764028e-03
6.062602e-03
6.361325e-03
6.660056e-03
6.958771e-03
7.257682e-03
7.556626e-03
7.854982e-03
8.151731e-03
8.445606e-03
8.735261e-03
9.019413e-03
9.296933e-03
9.566884e-03
9.828516e-03
1.008123e-02
1.032456e-02
1.055806e-02
1.078133e-02
1.099395e-02
1.119546e-02
1.138539e-02
1.156324e-02
1.172860e-02
1.188109e-02
1.202043e-02
1.214642e-02
1.225894e-02
1.235795e-02
1.244344e-02
1.251544e-02
1.257407e-02
1.261947e-02
1.265183e-02
1.267141e-02
1.267855e-02
1.267367e-02
1.265722e-02
1.262971e-02
1.259164e-02
1.254354e-02
1.248592e-02
1.241926e-02
1.234403e-02
1.226064e-02
1.216947e-02
1.207084e-02
1.196498e-02
1.185204e-02
1.173207e-02
1.160499e-02
1.147058e-02
1.146812e-02
8.080388e-04
8.286091e-04
7.052040e-04
5.936137e-04
4.774288e-04
3.523690e-04
2.245540e-04
1.044879e-04
4.158086e-08
-8.676067e-05
-1.578182e-04
-2.143897e-04
-2.539362e-04
-2.709419e-04
-2.611468e-04
-2.260983e-04
-1.746623e-04
-1.201062e-04
-7.416467e-05
-4.134705e-05
-1.658956e-05
1.253688e-05
6.030798e-05
1.367493e-04
2.438555e-04
3.756189e-04
5.213697e-04
6.705858e-04
8.169416e-04
9.600471e-04
1.104563e-03
1.257504e-03
1.425131e-03
1.610687e-03
1.813690e-03
2.030707e-03
2.257051e-03
2.488586e-03
2.722995e-03
2.960168e-03
3.201759e-03
3.450206e-03
3.707659e-03
3.975165e-03
4.252358e-03
4.537647e-03
4.828780e-03
5.123519e-03
5.420197e-03
5.717985e-03
6.016838e-03
6.317189e-03
6.619203e-03
6.922664e-03
7.227273e-03
7.532214e-03
7.836270e-03
8.138019e-03
8.436029e-03
8.729002e-03
9.015847e-03
9.295689e-03
9.567840e-03
9.831748e-03
1.008694e-02
1.033296e-02
1.056934e-02
1.079558e-02
1.101112e-02
1.121538e-02
1.140780e-02
1.158786e-02
1.175511e-02
1.190921e-02
1.204990e-02
1.217698e-02
1.229031e-02
1.238982e-02
1.247544e-02
1.254717e-02
1.260514e-02
1.264948e-02
1.268042e-02
1.269827e-02
1.270340e-02
1.269625e-02
1.267730e-02
1.264704e-02
1.260596e-02
1.255457e-02
1.249335e-02
1.242279e-02
1.234334e-02
1.225543e-02
1.215944e-02
1.205571e-02
1.194451e-02
1.182601e-02
1.170029e-02
1.156732e-02
1.142695e-02
1.142435e-02
8.009759e-04
8.358504e-04
7.023077e-04
5.666522e-04
4.224961e-04
2.756974e-04
1.370519e-04
1.494745e-05
-8.830582e-05
-1.747568e-04
-2.460866e-04
-3.000989e-04
-3.312945e-04
-3.351371e-04
-3.128699e-04
-2.733045e-04
-2.299888e-04
-1.951140e-04
-1.735403e-04
-1.602424e-04
-1.425229e-04
-1.057577e-04
-3.969892e-05
5.757293e-05
1.796864e-04
3.155479e-04
4.543983e-04
5.900053e-04
7.223712e-04
8.566611e-04
1.000272e-03
1.159548e-03
1.337495e-03
1.533183e-03
1.742732e-03
1.961198e-03
2.184481e-03
2.410576e-03
2.639841e-03
2.874377e-03
3.116907e-03
3.369622e-03
3.633394e-03
3.907550e-03
4.190200e-03
4.478910e-03
4.771444e-03
5.066312e-03
5.362974e-03
5.661688e-03
5.963113e-03
6.267847e-03
6.575708e-03
6.885784e-03
7.197064e-03
7.508149e-03
7.817496e-03
8.123624e-03
8.425248e-03
8.721336e-03
9.011084e-03
9.293866e-03
9.569161e-03
9.836491e-03
1.009536e-02
1.034524e-02
1.058552e-02
1.081555e-02
1.103466e-02
1.124218e-02
1.143752e-02
1.162017e-02
1.178970e-02
1.194578e-02
1.208814e-02
1.221655e-02
1.233084e-02
1.243086e-02
1.251654e-02
1.258787e-02
1.264501e-02
1.268815e-02
1.271756e-02
1.273360e-02
1.273666e-02
1.272719e-02
1.270565e-02
1.267251e-02
1.262825e-02
1.257336e-02
1.250833e-02
1.243366e-02
1.234981e-02
1.225723e-02
1.215634e-02
1.204749e-02
1.193097e-02
1.180699e-02
1.167569e-02
1.153708e-02
1.139108e-02
1.138836e-02
7.885121e-04
8.284442e-04
6.724809e-04
5.083730e-04
3.411609e-04
1.819056e-04
3.977371e-05
-8.225991e-05
-1.861187e-04
-2.738544e-04
-3.437474e-04
-3.904877e-04
-4.093346e-04
-4.011470e-04
-3.745118e-04
-3.431151e-04
-3.195862e-04
-3.092610e-04
-3.073607e-04
-3.011076e-04
-2.755953e-04
-2.203564e-04
-1.334356e-04
-2.141436e-05
1.042783e-04
2.326558e-04
3.575202e-04
4.791726e-04
6.031989e-04
7.373300e-04
8.879957e-04
1.058002e-03
1.246035e-03
1.447824e-03
1.658202e-03
1.873115e-03
2.090847e-03
2.312175e-03
2.539587e-03
2.776034e-03
3.023715e-03
3.283313e-03
3.553879e-03
3.833274e-03
4.118948e-03
4.408724e-03
4.701323e-03
4.996498e-03
5.294781e-03
5.597018e-03
5.903854e-03
6.215383e-03
6.530648e-03
6.847935e-03
7.165694e-03
7.482297e-03
7.796251e-03
8.106319e-03
8.411543e-03
8.711197e-03
9.004710e-03
9.291582e-03
9.571316e-03
9.843365e-03
1.010711e-02
1.036185e-02
1.060683e-02
1.084128e-02
1.106446e-02
1.127569e-02
1.147438e-02
1.166005e-02
1.183227e-02
1.199069e-02
1.213499e-02
1.226488e-02
1.238014e-02
1.248063e-02
1.256628e-02
1.263713e-02
1.269340e-02
1.273534e-02
1.276325e-02
1.277750e-02
1.277849e-02
1.276665e-02