# vtk DataFile Version 3.0
Scalar Field
ASCII
DATASET RECTILINEAR_GRID
DIMENSIONS 102 102 1
X_COORDINATES 102 double
0.000000 0.100000 0.200000 0.300000 0.400000 0.500000 0.600000 0.700000 0.800000 0.900000 1.000000 1.100000 1.200000 1.300000 1.400000 1.500000 1.600000 1.700000 1.800000 1.900000 2.000000 2.100000 2.200000 2.300000 2.400000 2.500000 2.600000 2.700000 2.800000 2.900000 3.000000 3.100000 3.200000 3.300000 3.400000 3.500000 3.600000 3.700000 3.800000 3.900000 4.000000 4.100000 4.200000 4.300000 4.400000 4.500000 4.600000 4.700000 4.800000 4.900000 5.000000 5.100000 5.200000 5.300000 5.400000 5.500000 5.600000 5.700000 5.800000 5.900000 6.000000 6.100000 6.200000 6.300000 6.400000 6.500000 6.600000 6.700000 6.800000 6.900000 7.000000 7.100000 7.200000 7.300000 7.400000 7.500000 7.600000 7.700000 7.800000 7.900000 8.000000 8.100000 8.200000 8.300000 8.400000 8.500000 8.600000 8.700000 8.800000 8.900000 9.000000 9.100000 9.200000 9.300000 9.400000 9.500000 9.600000 9.700000 9.800000 9.900000 10.000000 10.100000 
Y_COORDINATES 102 double
0.000000 0.100000 0.200000 0.300000 0.400000 0.500000 0.600000 0.700000 0.800000 0.900000 1.000000 1.100000 1.200000 1.300000 1.400000 1.500000 1.600000 1.700000 1.800000 1.900000 2.000000 2.100000 2.200000 2.300000 2.400000 2.500000 2.600000 2.700000 2.800000 2.900000 3.000000 3.100000 3.200000 3.300000 3.400000 3.500000 3.600000 3.700000 3.800000 3.900000 4.000000 4.100000 4.200000 4.300000 4.400000 4.500000 4.600000 4.700000 4.800000 4.900000 5.000000 5.100000 5.200000 5.300000 5.400000 5.500000 5.600000 5.700000 5.800000 5.900000 6.000000 6.100000 6.200000 6.300000 6.400000 6.500000 6.600000 6.700000 6.800000 6.900000 7.000000 7.100000 7.200000 7.300000 7.400000 7.500000 7.600000 7.700000 7.800000 7.900000 8.000000 8.100000 8.200000 8.300000 8.400000 8.500000 8.600000 8.700000 8.800000 8.900000 9.000000 9.100000 9.200000 9.300000 9.400000 9.500000 9.600000 9.700000 9.800000 9.900000 10.000000 10.100000 
Z_COORDINATES 1 double
0.0
POINT_DATA 10404
SCALARS Pressure double 1
LOOKUP_TABLE default
0.000000e+00
-4.647107e-03
-4.619070e-03
-4.598681e-03
-4.613740e-03
-4.683986e-03
-4.808471e-03
-4.963706e-03
-5.112178e-03
-5.216988e-03
-5.255935e-03
-5.229224e-03
-5.158188e-03
-5.076168e-03
-5.015643e-03
-4.996614e-03
-5.020277e-03
-5.069650e-03
-5.116257e-03
-5.130016e-03
-5.088752e-03
-4.984341e-03
-4.823913e-03
-4.626292e-03
-4.415304e-03
-4.212349e-03
-4.030546e-03
-3.872021e-03
-3.728738e-03
-3.586180e-03
-3.428413e-03
-3.242842e-03
-3.023306e-03
-2.770862e-03
-2.492390e-03
-2.197806e-03
-1.896924e-03
-1.596968e-03
-1.301309e-03
-1.009545e-03
-7.186185e-04
-4.244026e-04
-1.231980e-04
1.872763e-04
5.075551e-04
8.366865e-04
1.172848e-03
1.514036e-03
1.858612e-03
2.205566e-03
2.554503e-03
2.905428e-03
3.258431e-03
3.613401e-03
3.969865e-03
4.326934e-03
4.683371e-03
5.037741e-03
5.388592e-03
5.734620e-03
6.074785e-03
6.408358e-03
6.734899e-03
7.054191e-03
7.366133e-03
7.670633e-03
7.967515e-03
8.256457e-03
8.536965e-03
8.808380e-03
9.069915e-03
9.320713e-03
9.559902e-03
9.786645e-03
1.000018e-02
1.019984e-02
1.038506e-02
1.055537e-02
1.071039e-02
1.084979e-02
1.097328e-02
1.108064e-02
1.117166e-02
1.124619e-02
1.130412e-02
1.134544e-02
1.137025e-02
1.137877e-02
1.137143e-02
1.134887e-02
1.131199e-02
1.126206e-02
1.120071e-02
1.113010e-02
1.105299e-02
1.097289e-02
1.089426e-02
1.082262e-02
1.076463e-02
1.072753e-02
1.071686e-02
0.000000e+00
-4.647107e-03
-4.620978e-03
-4.582329e-03
-4.571746e-03
-4.612520e-03
-4.711965e-03
-4.854943e-03
-5.008477e-03
-5.134261e-03
-5.203355e-03
-5.206743e-03
-5.157701e-03
-5.085572e-03
-5.023967e-03
-4.998229e-03
-5.016741e-03
-5.068818e-03
-5.129266e-03
-5.167430e-03
-5.157254e-03
-5.084986e-03
-4.952314e-03
-4.774448e-03
-4.574295e-03
-4.374975e-03
-4.193127e-03
-4.034921e-03
-3.895647e-03
-3.762525e-03
-3.619483e-03
-3.452227e-03
-3.252048e-03
-3.017467e-03
-2.753549e-03
-2.469506e-03
-2.175561e-03
-1.880134e-03
-1.588089e-03
-1.300345e-03
-1.014659e-03
-7.270977e-04
-4.336221e-04
-1.312951e-04
1.811380e-04
5.033029e-04
8.336981e-04
1.170378e-03
1.511562e-03
1.856005e-03
2.203089e-03
2.552666e-03
2.904778e-03
3.259359e-03
3.616010e-03
3.973930e-03
4.331953e-03
4.688677e-03
5.042640e-03
5.392496e-03
5.737149e-03
6.075813e-03
6.408008e-03
6.733497e-03
7.052182e-03
7.363997e-03
7.668800e-03
7.966307e-03
8.256054e-03
8.537400e-03
8.809565e-03
9.071678e-03
9.322841e-03
9.562184e-03
9.788904e-03
1.000229e-02
1.020175e-02
1.038677e-02
1.055693e-02
1.071186e-02
1.085126e-02
1.097484e-02
1.108235e-02
1.117355e-02
1.124828e-02
1.130640e-02
1.134789e-02
1.137283e-02
1.138145e-02
1.137417e-02
1.135163e-02
1.131477e-02
1.126483e-02
1.120347e-02
1.113286e-02
1.105575e-02
1.097566e-02
1.089704e-02
1.082541e-02
1.076744e-02
1.073035e-02
1.071970e-02
1.071686e-02
-4.597577e-03
-4.560446e-03
-4.530483e-03
-4.549937e-03
-4.627395e-03
-4.747784e-03
-4.879700e-03
-4.987886e-03
-5.046842e-03
-5.049887e-03
-5.010389e-03
-4.955256e-03
-4.913820e-03
-4.906655e-03
-4.938421e-03
-4.996898e-03
-5.057936e-03
-5.094040e-03
-5.083326e-03
-5.015852e-03
-4.895584e-03
-4.737827e-03
-4.563466e-03
-4.392163e-03
-4.236727e-03
-4.100238e-03
-3.976433e-03
-3.852824e-03
-3.715222e-03
-3.552115e-03
-3.357604e-03
-3.132254e-03
-2.881928e-03
-2.615323e-03
-2.341151e-03
-2.065884e-03
-1.792598e-03
-1.521035e-03
-1.248586e-03
-9.716999e-04
-6.871998e-04
-3.931415e-04
-8.908531e-05
2.241468e-04
5.450115e-04
8.718379e-04
1.203275e-03
1.538498e-03
1.877166e-03
2.219221e-03
2.564619e-03
2.913099e-03
3.264050e-03
3.616480e-03
3.969144e-03
4.320685e-03
4.669790e-03
5.015330e-03
5.356439e-03
5.692535e-03
6.023278e-03
6.348486e-03
6.668037e-03
6.981772e-03
7.289416e-03
7.590540e-03
7.884551e-03
8.170716e-03
8.448207e-03
8.716156e-03
8.973708e-03
9.220064e-03
9.454506e-03
9.676410e-03
9.885242e-03
1.008055e-02
1.026193e-02
1.042903e-02
1.058153e-02
1.071912e-02
1.084152e-02
1.094847e-02
1.103975e-02
1.111522e-02
1.117478e-02
1.121849e-02
1.124649e-02
1.125913e-02
1.125690e-02
1.124055e-02
1.121107e-02
1.116977e-02
1.111830e-02
1.105876e-02
1.099375e-02
1.092643e-02
1.086066e-02
1.080096e-02
1.075246e-02
1.072053e-02
1.071022e-02
1.070747e-02
-4.502770e-03
-4.474808e-03
-4.484925e-03
-4.552557e-03
-4.661943e-03
-4.779868e-03
-4.871644e-03
-4.914905e-03
-4.907487e-03
-4.866682e-03
-4.820915e-03
-4.797786e-03
-4.813350e-03
-4.866534e-03
-4.940185e-03
-5.007729e-03
-5.042519e-03
-5.026402e-03
-4.954698e-03
-4.836360e-03
-4.689784e-03
-4.536120e-03
-4.392502e-03
-4.267332e-03
-4.158832e-03
-4.056911e-03
-3.947332e-03
-3.816565e-03
-3.655738e-03
-3.462599e-03
-3.241179e-03
-2.999645e-03
-2.747310e-03
-2.491868e-03
-2.237661e-03
-1.985306e-03
-1.732489e-03
-1.475451e-03
-1.210525e-03
-9.352592e-04
-6.488742e-04
-3.520947e-04
-4.656821e-05
2.658317e-04
5.835663e-04
9.057156e-04
1.231966e-03
1.562383e-03
1.897098e-03
2.236022e-03
2.578677e-03
2.924170e-03
3.271280e-03
3.618594e-03
3.964771e-03
4.308665e-03
4.649412e-03
4.986456e-03
5.319493e-03
5.648388e-03
5.973054e-03
6.293352e-03
6.609007e-03
6.919568e-03
7.224404e-03
7.522739e-03
7.813700e-03
8.096383e-03
8.369910e-03
8.633473e-03
8.886360e-03
9.127960e-03
9.357753e-03
9.575293e-03
9.780183e-03
9.972057e-03
1.015056e-02
1.031533e-02
1.046604e-02
1.060234e-02
1.072393e-02
1.083053e-02
1.092195e-02
1.099806e-02
1.105884e-02
1.110441e-02
1.113499e-02
1.115100e-02
1.115302e-02
1.114183e-02
1.111844e-02
1.108415e-02
1.104054e-02
1.098955e-02
1.093350e-02
1.087515e-02
1.081772e-02
1.076483e-02
1.072045e-02
1.068864e-02
1.067347e-02
1.067082e-02
-4.401621e-03
-4.398970e-03
-4.464831e-03
-4.572873e-03
-4.687242e-03
-4.771365e-03
-4.803531e-03
-4.784820e-03
-4.737059e-03
-4.692494e-03
-4.680063e-03
-4.713976e-03
-4.788724e-03
-4.881788e-03
-4.962285e-03
-5.001879e-03
-4.983884e-03
-4.907642e-03
-4.787189e-03
-4.645285e-03
-4.505273e-03
-4.383663e-03
-4.285743e-03
-4.205252e-03
-4.127726e-03
-4.035998e-03
-3.915822e-03
-3.759824e-03
-3.568777e-03
-3.350174e-03
-3.114990e-03
-2.873938e-03
-2.634480e-03
-2.399410e-03
-2.167130e-03
-1.933206e-03
-1.692420e-03
-1.440591e-03
-1.175620e-03
-8.976373e-04
-6.084274e-04
-3.104907e-04
-6.145727e-06
3.030548e-04
6.164886e-04
9.342635e-04
1.256808e-03
1.584439e-03
1.917045e-03
2.253961e-03
2.594030e-03
2.935801e-03
3.277780e-03
3.618588e-03
3.957242e-03
4.293148e-03
4.626060e-03
4.955960e-03
5.282918e-03
5.606947e-03
5.927886e-03
6.245343e-03
6.558684e-03
6.867073e-03
7.169543e-03
7.465082e-03
7.752708e-03
8.031537e-03
8.300807e-03
8.559896e-03
8.808297e-03
9.045594e-03
9.271422e-03
9.485436e-03
9.687289e-03
9.876612e-03
1.005302e-02
1.021611e-02
1.036549e-02
1.050079e-02
1.062170e-02
1.072794e-02
1.081937e-02
1.089591e-02
1.095761e-02
1.100466e-02
1.103736e-02
1.105615e-02
1.106167e-02
1.105470e-02
1.103623e-02
1.100747e-02
1.096988e-02
1.092517e-02
1.087539e-02
1.082284e-02
1.077013e-02
1.072012e-02
1.067575e-02
1.063999e-02
1.061558e-02
1.061302e-02
-4.328793e-03
-4.355721e-03
-4.467227e-03
-4.587296e-03
-4.673991e-03
-4.703835e-03
-4.678724e-03
-4.623759e-03
-4.575530e-03
-4.566445e-03
-4.611733e-03
-4.703974e-03
-4.816562e-03
-4.913988e-03
-4.964552e-03
-4.950709e-03
-4.873694e-03
-4.751385e-03
-4.610867e-03
-4.478735e-03
-4.372582e-03
-4.296352e-03
-4.240594e-03
-4.186971e-03
-4.115053e-03
-4.008911e-03
-3.861437e-03
-3.675303e-03
-3.460754e-03
-3.231395e-03
-2.999659e-03
-2.773433e-03
-2.554712e-03
-2.340322e-03
-2.124073e-03
-1.899354e-03
-1.661259e-03
-1.407677e-03
-1.139256e-03
-8.585162e-04
-5.686330e-04
-2.723437e-04
2.868834e-05
3.339737e-04
6.438674e-04
9.590249e-04
1.279875e-03
1.606273e-03
1.937407e-03
2.271927e-03
2.608218e-03
2.944717e-03
3.280166e-03
3.613665e-03
3.944875e-03
4.273823e-03
4.600742e-03
4.925873e-03
5.249298e-03
5.570822e-03
5.889936e-03
6.205832e-03
6.517490e-03
6.823779e-03
7.123571e-03
7.415831e-03
7.699675e-03
7.974397e-03
8.239455e-03
8.494435e-03
8.739005e-03
8.972864e-03
9.195700e-03
9.407168e-03
9.606876e-03
9.794394e-03
9.969268e-03
1.013105e-02
1.027930e-02
1.041366e-02
1.053383e-02
1.063960e-02
1.073085e-02
1.080761e-02
1.086999e-02
1.091821e-02
1.095264e-02
1.097373e-02
1.098211e-02
1.097853e-02
1.096391e-02
1.093934e-02
1.090612e-02
1.086575e-02
1.081994e-02
1.077059e-02
1.071977e-02
1.066964e-02
1.062235e-02
1.057986e-02
1.054376e-02
1.054130e-02
-4.297922e-03
-4.344770e-03
-4.472426e-03
-4.570051e-03
-4.606801e-03
-4.583142e-03
-4.525253e-03
-4.472988e-03
-4.462762e-03
-4.512775e-03
-4.616278e-03
-4.744819e-03
-4.859386e-03
-4.924613e-03
-4.920598e-03
-4.848380e-03
-4.727763e-03
-4.589015e-03
-4.461902e-03
-4.366019e-03
-4.305475e-03
-4.269239e-03
-4.236326e-03
-4.183570e-03
-4.093137e-03
-3.957354e-03
-3.779673e-03
-3.572010e-03
-3.349866e-03
-3.127145e-03
-2.912399e-03
-2.707415e-03
-2.508174e-03
-2.307381e-03
-2.097440e-03
-1.872822e-03
-1.631228e-03
-1.373456e-03
-1.102359e-03
-8.214439e-04
-5.336769e-04
-2.408077e-04
5.669593e-05
3.592500e-04
6.675452e-04
9.819802e-04
1.302313e-03
1.627598e-03
1.956361e-03
2.286926e-03
2.617750e-03
2.947698e-03
3.276155e-03
3.602904e-03
3.928205e-03
4.252471e-03
4.576049e-03
4.899034e-03
5.221166e-03
5.541807e-03
5.859999e-03
6.174572e-03
6.484278e-03
6.787921e-03
7.084447e-03
7.373005e-03
7.652947e-03
7.923805e-03
8.185237e-03
8.436967e-03
8.678726e-03
8.910209e-03
9.131051e-03
9.340823e-03
9.539047e-03
9.725214e-03
9.898820e-03
1.005939e-02
1.020652e-02
1.033987e-02
1.045921e-02
1.056439e-02
1.065538e-02
1.073225e-02
1.079517e-02
1.084439e-02
1.088027e-02
1.090327e-02
1.091394e-02
1.091300e-02
1.090125e-02
1.087967e-02
1.084938e-02
1.081166e-02
1.076792e-02
1.071970e-02
1.066860e-02
1.061621e-02
1.056401e-02
1.051319e-02
1.046448e-02
1.046213e-02
-4.298277e-03
-4.345642e-03
-4.454938e-03
-4.505833e-03
-4.491457e-03
-4.437130e-03
-4.384140e-03
-4.372093e-03
-4.422737e-03
-4.531720e-03
-4.670951e-03
-4.799772e-03
-4.880030e-03
-4.889144e-03
-4.826642e-03
-4.712468e-03
-4.578452e-03
-4.456580e-03
-4.368388e-03
-4.318956e-03
-4.296971e-03
-4.280188e-03
-4.243779e-03
-4.168479e-03
-4.045866e-03
-3.879450e-03
-3.681827e-03
-3.469425e-03
-3.256950e-03
-3.053384e-03
-2.860521e-03
-2.674035e-03
-2.486201e-03
-2.289033e-03
-2.076753e-03
-1.846952e-03
-1.600402e-03
-1.339941e-03
-1.069033e-03
-7.905723e-04
-5.062396e-04
-2.164842e-04
7.904819e-05
3.809033e-04
6.892792e-04
1.003726e-03
1.323132e-03
1.645945e-03
1.970514e-03
2.295426e-03
2.619750e-03
2.943119e-03
3.265655e-03
3.587673e-03
3.909693e-03
4.232083e-03
4.554882e-03
4.877713e-03
5.199797e-03
5.520038e-03
5.837158e-03
6.149850e-03
6.456909e-03
6.757315e-03
7.050279e-03
7.335225e-03
7.611753e-03
7.879568e-03
8.138417e-03
8.388027e-03
8.628066e-03
8.858127e-03
9.077729e-03
9.286341e-03
9.483405e-03
9.668377e-03
9.840751e-03
1.000009e-02
1.014605e-02
1.027836e-02
1.039687e-02
1.050151e-02
1.059229e-02
1.066931e-02
1.073276e-02
1.078289e-02
1.082001e-02
1.084454e-02
1.085699e-02
1.085796e-02
1.084819e-02
1.082851e-02
1.079989e-02
1.076339e-02
1.072019e-02
1.067150e-02
1.061852e-02
1.056241e-02
1.050410e-02
1.044423e-02
1.038295e-02
1.038073e-02
-4.302382e-03
-4.329303e-03
-4.396223e-03
-4.397319e-03
-4.353007e-03
-4.304480e-03
-4.293145e-03
-4.343741e-03
-4.454868e-03
-4.600215e-03
-4.739230e-03
-4.832405e-03
-4.855119e-03
-4.805080e-03
-4.701298e-03
-4.575749e-03
-4.461365e-03
-4.380893e-03
-4.340354e-03
-4.328816e-03
-4.323827e-03
-4.300015e-03
-4.237547e-03
-4.127634e-03
-3.973692e-03
-3.788398e-03
-3.588286e-03
-3.388069e-03
-3.196609e-03
-3.015529e-03
-2.840389e-03
-2.663491e-03
-2.477023e-03
-2.275443e-03
-2.056521e-03
-1.821050e-03
-1.571688e-03
-1.311573e-03
-1.043223e-03
-7.680239e-04
-4.863035e-04
-1.977901e-04
9.780873e-05
4.003502e-04
7.090566e-04
1.022588e-03
1.339317e-03
1.657675e-03
1.976465e-03
2.295044e-03
2.613341e-03
2.931731e-03
3.250803e-03
3.570973e-03
3.892548e-03
4.215434e-03
4.539088e-03
4.862563e-03
5.184639e-03
5.503971e-03
5.819248e-03
6.129312e-03
6.433233e-03
6.730316e-03
7.020074e-03
7.302165e-03
7.576323e-03
7.842281e-03
8.099728e-03
8.348275e-03
8.587448e-03
8.816704e-03
9.035454e-03
9.243100e-03
9.439067e-03
9.622836e-03
9.793962e-03
9.952089e-03
1.009695e-02
1.022837e-02
1.034624e-02
1.045054e-02
1.054130e-02
1.061863e-02
1.068266e-02
1.073361e-02
1.077176e-02
1.079746e-02
1.081114e-02
1.081334e-02
1.080470e-02
1.078595e-02
1.075791e-02
1.072149e-02
1.067763e-02
1.062726e-02
1.057131e-02
1.051053e-02
1.044551e-02
1.037648e-02
1.030321e-02
1.030114e-02
-4.280059e-03
-4.272548e-03
-4.293756e-03
-4.264846e-03
-4.226193e-03
-4.219910e-03
-4.272760e-03
-4.385921e-03
-4.535282e-03
-4.681436e-03
-4.784791e-03
-4.819724e-03
-4.782595e-03
-4.691276e-03
-4.577119e-03
-4.472986e-03
-4.401904e-03
-4.370287e-03
-4.367545e-03
-4.371490e-03
-4.356982e-03
-4.304451e-03
-4.205404e-03
-4.063465e-03
-3.891299e-03
-3.705107e-03
-3.518996e-03
-3.341107e-03
-3.172471e-03
-3.008397e-03
-2.841356e-03
-2.664049e-03
-2.471588e-03
-2.262280e-03
-2.037149e-03
-1.798713e-03
-1.549663e-03
-1.291945e-03
-1.026443e-03
-7.532096e-04
-4.719872e-04
-1.827494e-04
1.139540e-04
4.169360e-04
7.245678e-04
1.035122e-03
1.347137e-03
1.659676e-03
1.972441e-03
2.285698e-03
2.600082e-03
2.916323e-03
3.234967e-03
3.556034e-03
3.879234e-03
4.203809e-03
4.528632e-03
4.852362e-03
5.173622e-03
5.491145e-03
5.803875e-03
6.111008e-03
6.411976e-03
6.706390e-03
6.993963e-03
7.274429e-03
7.547488e-03
7.812759e-03
8.069771e-03
8.317966e-03
8.556729e-03
8.785416e-03
9.003395e-03
9.210077e-03
9.404941e-03
9.587548e-03
9.757548e-03
9.914675e-03
1.005874e-02
1.018961e-02
1.030721e-02
1.041150e-02
1.050249e-02
1.058025e-02
1.064488e-02
1.069653e-02
1.073542e-02
1.076185e-02
1.077622e-02
1.077899e-02
1.077073e-02
1.075209e-02
1.072376e-02
1.068650e-02
1.064107e-02
1.058819e-02
1.052853e-02
1.046259e-02
1.039066e-02
1.031271e-02
1.022831e-02
1.022641e-02
-4.212470e-03
-4.168948e-03
-4.163013e-03
-4.139067e-03
-4.142644e-03
-4.201819e-03
-4.319690e-03
-4.474038e-03
-4.626783e-03
-4.738878e-03
-4.784530e-03
-4.759503e-03
-4.680945e-03
-4.579567e-03
-4.487729e-03
-4.428092e-03
-4.406807e-03
-4.413181e-03
-4.425173e-03
-4.418121e-03
-4.373223e-03
-4.282865e-03
-4.151389e-03
-3.991729e-03
-3.819760e-03
-3.648722e-03
-3.485624e-03
-3.330477e-03
-3.178013e-03
-3.020733e-03
-2.851913e-03
-2.667522e-03
-2.466684e-03
-2.250909e-03
-2.022739e-03
-1.784480e-03
-1.537457e-03
-1.281946e-03
-1.017597e-03
-7.440615e-04
-4.615162e-04
-1.708989e-04
1.261820e-04
4.277838e-04
7.320632e-04
1.037657e-03
1.343905e-03
1.650867e-03
1.959163e-03
2.269683e-03
2.583271e-03
2.900445e-03
3.221206e-03
3.544849e-03
3.870376e-03
4.196469e-03
4.521685e-03
4.844641e-03
5.164151e-03
5.479297e-03
5.789432e-03
6.094128e-03
6.393096e-03
6.686092e-03
6.972838e-03
7.252974e-03
7.526033e-03
7.791445e-03
8.048562e-03
8.296694e-03
8.535149e-03
8.763271e-03
8.980467e-03
9.186227e-03
9.380128e-03
9.561833e-03
9.731079e-03
9.887662e-03
1.003142e-02
1.016222e-02
1.027996e-02
1.038457e-02
1.047599e-02
1.055423e-02
1.061935e-02
1.067146e-02
1.071074e-02
1.073747e-02
1.075199e-02
1.075475e-02
1.074624e-02
1.072704e-02
1.069774e-02
1.065897e-02
1.061134e-02
1.055540e-02
1.049161e-02
1.042028e-02
1.034150e-02
1.025511e-02
1.016056e-02
1.015884e-02
-4.100544e-03
-4.032296e-03
-4.032169e-03
-4.049999e-03
-4.120033e-03
-4.246856e-03
-4.409631e-03
-4.571229e-03
-4.693050e-03
-4.749385e-03
-4.735910e-03
-4.669640e-03
-4.581118e-03
-4.502406e-03
-4.455679e-03
-4.446458e-03
-4.463452e-03
-4.484334e-03
-4.484676e-03
-4.446478e-03
-4.363287e-03
-4.240580e-03
-4.091994e-03
-3.933392e-03
-3.777265e-03
-3.629398e-03
-3.488530e-03
-3.348499e-03
-3.201558e-03
-3.041381e-03
-2.864769e-03
-2.671753e-03
-2.464503e-03
-2.245781e-03
-2.017666e-03
-1.780961e-03
-1.535352e-03
-1.280049e-03
-1.014533e-03
-7.390947e-04
-4.549803e-04
-1.641626e-04
1.311352e-04
4.289652e-04
7.280629e-04
1.028031e-03
1.329277e-03
1.632747e-03
1.939565e-03
2.250653e-03
2.566461e-03
2.886816e-03
3.210916e-03
3.537329e-03
3.864557e-03
4.191077e-03
4.515531e-03
4.836839e-03
5.154244e-03
5.467266e-03
5.775619e-03
6.079099e-03
6.377492e-03
6.670491e-03
6.957662e-03
7.238442e-03
7.512158e-03
7.778075e-03
8.035437e-03
8.283513e-03
8.521635e-03
8.749217e-03
8.965767e-03
9.170883e-03
9.364243e-03
9.545581e-03
9.714675e-03
9.871324e-03
1.001534e-02
1.014654e-02
1.026477e-02
1.036987e-02
1.046176e-02
1.054039e-02
1.060580e-02
1.065806e-02
1.069737e-02
1.072397e-02
1.073821e-02
1.074048e-02
1.073124e-02
1.071099e-02
1.068024e-02
1.063949e-02
1.058923e-02
1.052988e-02
1.046174e-02
1.038500e-02
1.029963e-02
1.020536e-02
1.010164e-02
1.010012e-02
-3.964993e-03
-3.891836e-03
-3.932171e-03
-4.016938e-03
-4.157067e-03
-4.332806e-03
-4.507471e-03
-4.642369e-03
-4.711515e-03
-4.710478e-03
-4.656475e-03
-4.580434e-03
-4.514712e-03
-4.481401e-03
-4.485486e-03
-4.514862e-03
-4.546469e-03
-4.555627e-03
-4.524767e-03
-4.448478e-03
-4.333520e-03
-4.194570e-03
-4.047902e-03
-3.905629e-03
-3.772526e-03
-3.646074e-03
-3.519062e-03
-3.383231e-03
-3.232383e-03
-3.063937e-03
-2.878733e-03
-2.679624e-03
-2.469714e-03
-2.251022e-03
-2.024000e-03
-1.787875e-03
-1.541477e-03
-1.284110e-03
-1.016117e-03
-7.389585e-04
-4.548714e-04
-1.662756e-04
1.248322e-04
4.173078e-04
7.110082e-04
1.006652e-03
1.305471e-03
1.608763e-03
1.917490e-03
2.231991e-03
2.551888e-03
2.876153e-03
3.203287e-03
3.531445e-03
3.859058e-03
4.184823e-03
4.507793e-03
4.827375e-03
5.143253e-03
5.455263e-03
5.763271e-03
6.067065e-03
6.366294e-03
6.660441e-03
6.948845e-03
7.230741e-03
7.505317e-03
7.771766e-03
8.029336e-03
8.277357e-03
8.515260e-03
8.742576e-03
8.958923e-03
9.163985e-03
9.357489e-03
9.539182e-03
9.708815e-03
9.866133e-03
1.001088e-02
1.014280e-02
1.026166e-02
1.036728e-02
1.045952e-02
1.053834e-02
1.060376e-02
1.065589e-02
1.069491e-02
1.072108e-02
1.073471e-02
1.073617e-02
1.072587e-02
1.070423e-02
1.067168e-02
1.062864e-02
1.057549e-02
1.051253e-02
1.043998e-02
1.035792e-02
1.026628e-02
1.016476e-02
1.005281e-02
1.005149e-02
-3.838713e-03
-3.781830e-03
-3.886271e-03
-4.042851e-03
-4.235585e-03
-4.427950e-03
-4.580547e-03
-4.666397e-03
-4.680419e-03
-4.639879e-03
-4.576388e-03
-4.523206e-03
-4.503038e-03
-4.520857e-03
-4.563922e-03
-4.608246e-03
-4.628424e-03
-4.606760e-03
-4.538436e-03
-4.431315e-03
-4.301225e-03
-4.165172e-03
-4.035332e-03
-3.915869e-03
-3.803269e-03
-3.689329e-03
-3.565158e-03
-3.424441e-03
-3.264938e-03
-3.088073e-03
-2.897256e-03
-2.695927e-03
-2.486148e-03
-2.268182e-03
-2.040971e-03
-1.803101e-03
-1.553775e-03
-1.293383e-03
-1.023538e-03
-7.466379e-04
-4.651902e-04
-1.811518e-04
1.045058e-04
3.919023e-04
6.820391e-04
9.763721e-04
1.276313e-03
1.582794e-03
1.896007e-03
2.215347e-03
2.539549e-03
2.866953e-03
3.195773e-03
3.524234e-03
3.851123e-03
4.175644e-03
4.497369e-03
4.816127e-03
5.131850e-03
5.444438e-03
5.753659e-03
6.059097e-03
6.360150e-03
6.656064e-03
6.945997e-03
7.229081e-03
7.504479e-03
7.771435e-03
8.029294e-03
8.277510e-03
8.515636e-03
8.743304e-03
8.960195e-03
9.166014e-03
9.360464e-03
9.543236e-03
9.714000e-03
9.872415e-03
1.001814e-02
1.015087e-02
1.027034e-02
1.037633e-02
1.046874e-02
1.054754e-02
1.061277e-02
1.066457e-02
1.070312e-02
1.072866e-02
1.074149e-02
1.074195e-02
1.073037e-02
1.070712e-02
1.067255e-02
1.062701e-02
1.057079e-02
1.050413e-02
1.042719e-02
1.034000e-02
1.024246e-02
1.013428e-02
1.001496e-02
1.001382e-02
-3.755071e-03
-3.729796e-03
-3.902896e-03
-4.114831e-03
-4.328329e-03
-4.502940e-03
-4.609940e-03
-4.642752e-03
-4.618084e-03
-4.568087e-03
-4.527272e-03
-4.519643e-03
-4.550899e-03
-4.608183e-03
-4.666726e-03
-4.700136e-03
-4.690070e-03
-4.631722e-03
-4.533608e-03
-4.412549e-03
-4.286419e-03
-4.167791e-03
-4.060659e-03
-3.960894e-03
-3.859548e-03
-3.747145e-03
-3.617137e-03
-3.467395e-03
-3.299666e-03
-3.117708e-03
-2.925178e-03
-2.724180e-03
-2.514881e-03
-2.296085e-03
-2.066298e-03
-1.824740e-03
-1.571912e-03
-1.309563e-03
-1.040189e-03
-7.662868e-04
-4.896741e-04
-2.110776e-04
6.991625e-05
3.545777e-04
6.445395e-04
9.412562e-04
1.245568e-03
1.557468e-03
1.876107e-03
2.199994e-03
2.527317e-03
2.856277e-03
3.185315e-03
3.513134e-03
3.839102e-03
4.162955e-03
4.484640e-03
4.804151e-03
5.121387e-03
5.436066e-03
5.747691e-03
6.055570e-03
6.358872e-03
6.656695e-03
6.948138e-03
7.232363e-03
7.508627e-03
7.776301e-03
8.034870e-03
8.283904e-03
8.523040e-03
8.751942e-03
8.970276e-03
9.177687e-03
9.373791e-03
9.558178e-03
9.730423e-03
9.890107e-03
1.003684e-02
1.017030e-02
1.029023e-02
1.039646e-02
1.048889e-02
1.056755e-02
1.063252e-02
1.068391e-02
1.072193e-02
1.074679e-02
1.075874e-02
1.075807e-02
1.074507e-02
1.072005e-02
1.068330e-02
1.063511e-02
1.057573e-02
1.050535e-02
1.042410e-02
1.033199e-02
1.022892e-02
1.011464e-02
9.988710e-03
9.987741e-03
-3.736729e-03
-3.747793e-03
-3.974055e-03
-4.209875e-03
-4.409101e-03
-4.540816e-03
-4.596102e-03
-4.590245e-03
-4.555389e-03
-4.527263e-03
-4.531610e-03
-4.575562e-03
-4.646840e-03
-4.720299e-03
-4.768586e-03
-4.772370e-03
-4.726316e-03
-4.639060e-03
-4.528046e-03
-4.411943e-03
-4.303888e-03
-4.208031e-03
-4.120022e-03
-4.030485e-03
-3.929548e-03
-3.810447e-03
-3.671049e-03
-3.513228e-03
-3.340870e-03
-3.157681e-03
-2.965714e-03
-2.765044e-03
-2.554417e-03
-2.332381e-03
-2.098299e-03
-1.852874e-03
-1.598037e-03
-1.336361e-03
-1.070274e-03
-8.013757e-04
-5.300775e-04
-2.556282e-04
2.351695e-05
3.091371e-04
6.026771e-04
9.048251e-04
1.215332e-03
1.533083e-03
1.856375e-03
2.183277e-03
2.511991e-03
2.841103e-03
3.169652e-03
3.496963e-03
3.822925e-03
4.147579e-03
4.470944e-03
4.792883e-03
5.113037e-03
5.430813e-03
5.745432e-03
6.055997e-03
6.361569e-03
6.661243e-03
6.954197e-03
7.239724e-03
7.517231e-03
7.786232e-03
8.046312e-03
8.297100e-03
8.538226e-03
8.769301e-03
8.989897e-03
9.199546e-03
9.397749e-03
9.583999e-03
9.757805e-03
9.918720e-03
1.006636e-02
1.020044e-02
1.032074e-02
1.042715e-02
1.051961e-02
1.059818e-02
1.066294e-02
1.071401e-02
1.075153e-02
1.077571e-02
1.078674e-02
1.078487e-02
1.077035e-02
1.074343e-02
1.070438e-02
1.065345e-02
1.059086e-02
1.051678e-02
1.043133e-02
1.033453e-02
1.022628e-02
1.010639e-02
9.974501e-03
9.973680e-03
-3.788900e-03
-3.829538e-03
-4.079334e-03
-4.303484e-03
-4.461608e-03
-4.541907e-03
-4.557400e-03
-4.539464e-03
-4.524667e-03
-4.540600e-03
-4.596337e-03
-4.680827e-03
-4.769097e-03
-4.833070e-03
-4.852316e-03
-4.820585e-03
-4.746147e-03
-4.646651e-03
-4.541310e-03
-4.443841e-03
-4.358727e-03
-4.281672e-03
-4.203172e-03
-4.113183e-03
-4.004849e-03
-3.876037e-03
-3.728650e-03
-3.566557e-03
-3.393354e-03
-3.210920e-03
-3.019168e-03
-2.816786e-03
-2.602412e-03
-2.375641e-03
-2.137465e-03
-1.890059e-03
-1.636103e-03
-1.377945e-03
-1.116929e-03
-8.531031e-04
-5.853405e-04
-3.118066e-04
-3.058660e-05
2.597230e-04
5.596194e-04
8.685779e-04
1.185208e-03
1.507599e-03
1.833736e-03
2.161862e-03
2.490709e-03
2.819558e-03
3.148103e-03
3.476140e-03
3.803777e-03
4.131027e-03
4.457687e-03
4.783297e-03
5.107164e-03
5.428425e-03
5.746129e-03
6.059326e-03
6.367126e-03
6.668748e-03
6.963529e-03
7.250922e-03
7.530469e-03
7.801761e-03
8.064403e-03
8.317979e-03
8.562026e-03
8.796031e-03
9.019435e-03
9.231650e-03
9.432090e-03
9.620203e-03
9.795494e-03
9.957546e-03
1.010604e-02
1.024073e-02
1.036148e-02
1.046820e-02
1.056088e-02
1.063954e-02
1.070426e-02
1.075511e-02
1.079222e-02
1.081573e-02
1.082581e-02
1.082267e-02
1.080652e-02
1.077761e-02
1.073618e-02
1.068246e-02
1.061665e-02
1.053892e-02
1.044939e-02
1.034809e-02
1.023498e-02
1.010991e-02
9.972611e-03
9.971916e-03
-3.898961e-03
-3.953825e-03
-4.193597e-03
-4.377911e-03
-4.484149e-03
-4.522485e-03
-4.522795e-03
-4.521934e-03
-4.549176e-03
-4.615777e-03
-4.712411e-03
-4.814796e-03
-4.894474e-03
-4.929975e-03
-4.913936e-03
-4.853905e-03
-4.767369e-03
-4.673815e-03
-4.587411e-03
-4.513036e-03
-4.446587e-03
-4.378616e-03
-4.299100e-03
-4.201229e-03
-4.082949e-03
-3.946205e-03
-3.794798e-03
-3.632124e-03
-3.459782e-03
-3.277431e-03
-3.083639e-03
-2.877118e-03
-2.657712e-03
-2.426748e-03
-2.186705e-03
-1.940415e-03
-1.690173e-03
-1.437077e-03
-1.180800e-03
-9.198246e-04
-6.520144e-04
-3.753197e-04
-8.838920e-05
2.090671e-04
5.162367e-04
8.314509e-04
1.152608e-03
1.477634e-03
1.804847e-03
2.133151e-03
2.462041e-03
2.791459e-03
3.121513e-03
3.452109e-03
3.783226e-03
4.114571e-03
4.445574e-03
4.775436e-03
5.103219e-03
5.427939e-03
5.748651e-03
6.064501e-03
6.374761e-03
6.678824e-03
6.976190e-03
7.266420e-03
7.549103e-03
7.823806e-03
8.090049e-03
8.347288e-03
8.594913e-03
8.832269e-03
9.058686e-03
9.273509e-03
9.476132e-03
9.666029e-03
9.842761e-03
1.000599e-02
1.015545e-02
1.029098e-02
1.041246e-02
1.051980e-02
1.061297e-02
1.069198e-02
1.075684e-02
1.080760e-02
1.084434e-02
1.086718e-02
1.087626e-02
1.087178e-02
1.085393e-02
1.082296e-02
1.077908e-02
1.072253e-02
1.065350e-02
1.057217e-02
1.047868e-02
1.037307e-02
1.025536e-02
1.012546e-02
9.983193e-03
9.982613e-03
-4.041917e-03
-4.092494e-03
-4.295474e-03
-4.427377e-03
-4.489027e-03
-4.508262e-03
-4.521692e-03
-4.559990e-03
-4.636630e-03
-4.744317e-03
-4.859862e-03
-4.954754e-03
-5.006622e-03
-5.006927e-03
-4.962286e-03
-4.889768e-03
-4.808925e-03
-4.734244e-03
-4.670946e-03
-4.615178e-03
-4.557611e-03
-4.488326e-03
-4.400660e-03
-4.292725e-03
-4.166577e-03
-4.025987e-03
-3.874151e-03
-3.712345e-03
-3.539903e-03
-3.355193e-03
-3.156931e-03
-2.945169e-03
-2.721562e-03
-2.488912e-03
-2.250247e-03
-2.007855e-03
-1.762624e-03
-1.513879e-03
-1.259727e-03
-9.977377e-04
-7.257262e-04
-4.423931e-04
-1.476519e-04
1.574056e-04
4.708475e-04
7.904034e-04
1.113965e-03
1.439949e-03
1.767449e-03
2.096180e-03
2.426270e-03
2.757998e-03
3.091486e-03
3.426395e-03
3.762331e-03
4.098606e-03
4.434324e-03
4.768486e-03
5.100092e-03
5.428219e-03
5.752064e-03
6.070961e-03
6.384363e-03
6.691808e-03
6.992873e-03
7.287127e-03
7.574088e-03
7.853200e-03
8.123824e-03
8.385255e-03
8.636745e-03
8.877546e-03
9.106948e-03
9.324307e-03
9.529078e-03
9.720811e-03
9.899153e-03
1.006383e-02
1.021465e-02
1.035142e-02
1.047404e-02
1.058237e-02
1.067634e-02
1.075590e-02
1.082105e-02
1.087178e-02
1.090817e-02
1.093032e-02
1.093836e-02
1.093248e-02
1.091288e-02
1.087978e-02
1.083342e-02
1.077401e-02
1.070177e-02
1.061688e-02
1.051950e-02
1.040974e-02
1.028765e-02
1.015320e-02
1.000630e-02
1.000583e-02
-4.189352e-03
-4.219902e-03
-4.373810e-03
-4.458884e-03
-4.497436e-03
-4.525414e-03
-4.574615e-03
-4.660696e-03
-4.778571e-03
-4.906426e-03
-5.015943e-03
-5.083979e-03
-5.100803e-03
-5.071994e-03
-5.014067e-03
-4.946528e-03
-4.884113e-03
-4.832349e-03
-4.787594e-03
-4.740649e-03
-4.681673e-03
-4.604155e-03
-4.506418e-03
-4.390707e-03
-4.260851e-03
-4.119913e-03
-3.968881e-03
-3.806743e-03
-3.631605e-03
-3.442107e-03
-3.238427e-03
-3.022494e-03
-2.797412e-03
-2.566416e-03
-2.331828e-03
-2.094378e-03
-1.853097e-03
-1.605754e-03
-1.349653e-03
-1.082487e-03
-8.030057e-04
-5.113120e-04
-2.087530e-04
1.025060e-04
4.200568e-04
7.417852e-04
1.066225e-03
1.392668e-03
1.721041e-03
2.051645e-03
2.384847e-03
2.720836e-03
3.059409e-03
3.399782e-03
3.741154e-03
4.082545e-03
4.422913e-03
4.761262e-03
5.096704e-03
5.428501e-03
5.756050e-03
6.078861e-03
6.396503e-03
6.708554e-03
7.014551e-03
7.313946e-03
7.606099e-03
7.890274e-03
8.165668e-03
8.431452e-03
8.686812e-03
8.930998e-03
9.163346e-03
9.383300e-03
9.590408e-03
9.784309e-03
9.964711e-03
1.013137e-02
1.028406e-02
1.042258e-02
1.054676e-02
1.065642e-02
1.075142e-02
1.083170e-02
1.089720e-02
1.094795e-02
1.098398e-02
1.100541e-02
1.101237e-02
1.100504e-02
1.098363e-02
1.094836e-02
1.089946e-02
1.083716e-02
1.076169e-02
1.067327e-02
1.057208e-02
1.045828e-02
1.033197e-02
1.019319e-02
1.004192e-02
1.004157e-02
-4.318596e-03
-4.320675e-03
-4.430213e-03
-4.488847e-03
-4.532001e-03
-4.592356e-03
-4.687735e-03
-4.815408e-03
-4.955152e-03
-5.079023e-03
-5.163172e-03
-5.196642e-03
-5.183887e-03
-5.140805e-03
-5.086832e-03
-5.036985e-03
-4.997125e-03
-4.963816e-03
-4.927914e-03
-4.879611e-03
-4.812455e-03
-4.724951e-03
-4.619569e-03
-4.500284e-03
-4.370139e-03
-4.229917e-03
-4.078304e-03
-3.913125e-03
-3.732876e-03
-3.537775e-03
-3.329942e-03
-3.112727e-03
-2.889558e-03
-2.662808e-03
-2.433094e-03
-2.199210e-03
-1.958648e-03
-1.708487e-03
-1.446323e-03