# vtk DataFile Version 3.0
Scalar Field
ASCII
DATASET RECTILINEAR_GRID
DIMENSIONS 102 102 1
X_COORDINATES 102 double
0.000000 0.100000 0.200000 0.300000 0.400000 0.500000 0.600000 0.700000 0.800000 0.900000 1.000000 1.100000 1.200000 1.300000 1.400000 1.500000 1.600000 1.700000 1.800000 1.900000 2.000000 2.100000 2.200000 2.300000 2.400000 2.500000 2.600000 2.700000 2.800000 2.900000 3.000000 3.100000 3.200000 3.300000 3.400000 3.500000 3.600000 3.700000 3.800000 3.900000 4.000000 4.100000 4.200000 4.300000 4.400000 4.500000 4.600000 4.700000 4.800000 4.900000 5.000000 5.100000 5.200000 5.300000 5.400000 5.500000 5.600000 5.700000 5.800000 5.900000 6.000000 6.100000 6.200000 6.300000 6.400000 6.500000 6.600000 6.700000 6.800000 6.900000 7.000000 7.100000 7.200000 7.300000 7.400000 7.500000 7.600000 7.700000 7.800000 7.900000 8.000000 8.100000 8.200000 8.300000 8.400000 8.500000 8.600000 8.700000 8.800000 8.900000 9.000000 9.100000 9.200000 9.300000 9.400000 9.500000 9.600000 9.700000 9.800000 9.900000 10.000000 10.100000 
Y_COORDINATES 102 double
0.000000 0.100000 0.200000 0.300000 0.400000 0.500000 0.600000 0.700000 0.800000 0.900000 1.000000 1.100000 1.200000 1.300000 1.400000 1.500000 1.600000 1.700000 1.800000 1.900000 2.000000 2.100000 2.200000 2.300000 2.400000 2.500000 2.600000 2.700000 2.800000 2.900000 3.000000 3.100000 3.200000 3.300000 3.400000 3.500000 3.600000 3.700000 3.800000 3.900000 4.000000 4.100000 4.200000 4.300000 4.400000 4.500000 4.600000 4.700000 4.800000 4.900000 5.000000 5.100000 5.200000 5.300000 5.400000 5.500000 5.600000 5.700000 5.800000 5.900000 6.000000 6.100000 6.200000 6.300000 6.400000 6.500000 6.600000 6.700000 6.800000 6.900000 7.000000 7.100000 7.200000 7.300000 7.400000 7.500000 7.600000 7.700000 7.800000 7.900000 8.000000 8.100000 8.200000 8.300000 8.400000 8.500000 8.600000 8.700000 8.800000 8.900000 9.000000 9.100000 9.200000 9.300000 9.400000 9.500000 9.600000 9.700000 9.800000 9.900000 10.000000 10.100000 
Z_COORDINATES 1 double
0.0
POINT_DATA 10404
SCALARS Pressure double 1
LOOKUP_TABLE default
0.000000e+00
1.669533e-02
1.668014e-02
1.671750e-02
1.677295e-02
1.677861e-02
1.667732e-02
1.645452e-02
1.614621e-02
1.582078e-02
1.554610e-02
1.535994e-02
1.525792e-02
1.520276e-02
1.514761e-02
1.506006e-02
1.493527e-02
1.479352e-02
1.466621e-02
1.457908e-02
1.454147e-02
1.454565e-02
1.457468e-02
1.461314e-02
1.465479e-02
1.470401e-02
1.477146e-02
1.486724e-02
1.499560e-02
1.515338e-02
1.533243e-02
1.552399e-02
1.572262e-02
1.592794e-02
1.614375e-02
1.637548e-02
1.662743e-02
1.690097e-02
1.719436e-02
1.750378e-02
1.782491e-02
1.815428e-02
1.848987e-02
1.883102e-02
1.917773e-02
1.952995e-02
1.988700e-02
2.024741e-02
2.060895e-02
2.096911e-02
2.132535e-02
2.167541e-02
2.201731e-02
2.234936e-02
2.267004e-02
2.297787e-02
2.327139e-02
2.354905e-02
2.380929e-02
2.405060e-02
2.427156e-02
2.447089e-02
2.464750e-02
2.480049e-02
2.492916e-02
2.503295e-02
2.511152e-02
2.516464e-02
2.519228e-02
2.519459e-02
2.517187e-02
2.512460e-02
2.505343e-02
2.495915e-02
2.484272e-02
2.470528e-02
2.454812e-02
2.437271e-02
2.418070e-02
2.397391e-02
2.375433e-02
2.352409e-02
2.328545e-02
2.304077e-02
2.279254e-02
2.254333e-02
2.229583e-02
2.205283e-02
2.181722e-02
2.159196e-02
2.138014e-02
2.118488e-02
2.100933e-02
2.085660e-02
2.072967e-02
2.063118e-02
2.056312e-02
2.052619e-02
2.051863e-02
2.053401e-02
2.055756e-02
0.000000e+00
1.669533e-02
1.667716e-02
1.672235e-02
1.679334e-02
1.683899e-02
1.679816e-02
1.663865e-02
1.637484e-02
1.606095e-02
1.576489e-02
1.553766e-02
1.539383e-02
1.531143e-02
1.524880e-02
1.516785e-02
1.505177e-02
1.490937e-02
1.476652e-02
1.465097e-02
1.457927e-02
1.455177e-02
1.455652e-02
1.457830e-02
1.460736e-02
1.464337e-02
1.469370e-02
1.476799e-02
1.487247e-02
1.500698e-02
1.516573e-02
1.534063e-02
1.552527e-02
1.571743e-02
1.591920e-02
1.613526e-02
1.637020e-02
1.662651e-02
1.690373e-02
1.719895e-02
1.750819e-02
1.782775e-02
1.815510e-02
1.848910e-02
1.882950e-02
1.917632e-02
1.952920e-02
1.988707e-02
2.024812e-02
2.060995e-02
2.097004e-02
2.132600e-02
2.167572e-02
2.201735e-02
2.234929e-02
2.266999e-02
2.297796e-02
2.327164e-02
2.354944e-02
2.380975e-02
2.405107e-02
2.427198e-02
2.447122e-02
2.464774e-02
2.480066e-02
2.492926e-02
2.503303e-02
2.511159e-02
2.516473e-02
2.519242e-02
2.519478e-02
2.517213e-02
2.512492e-02
2.505378e-02
2.495949e-02
2.484303e-02
2.470550e-02
2.454824e-02
2.437272e-02
2.418061e-02
2.397376e-02
2.375414e-02
2.352389e-02
2.328524e-02
2.304057e-02
2.279234e-02
2.254312e-02
2.229561e-02
2.205259e-02
2.181694e-02
2.159167e-02
2.137983e-02
2.118455e-02
2.100899e-02
2.085626e-02
2.072932e-02
2.063083e-02
2.056277e-02
2.052584e-02
2.051827e-02
2.053365e-02
2.055720e-02
2.055756e-02
1.667957e-02
1.672289e-02
1.682997e-02
1.691181e-02
1.690714e-02
1.678614e-02
1.656481e-02
1.629573e-02
1.604191e-02
1.584819e-02
1.572460e-02
1.564836e-02
1.558099e-02
1.549006e-02
1.536427e-02
1.521558e-02
1.506966e-02
1.495151e-02
1.487414e-02
1.483550e-02
1.482344e-02
1.482460e-02
1.483193e-02
1.484722e-02
1.487850e-02
1.493446e-02
1.501956e-02
1.513211e-02
1.526582e-02
1.541331e-02
1.556970e-02
1.573432e-02
1.591020e-02
1.610202e-02
1.631362e-02
1.654640e-02
1.679904e-02
1.706834e-02
1.735059e-02
1.764281e-02
1.794328e-02
1.825148e-02
1.856752e-02
1.889144e-02
1.922277e-02
1.956033e-02
1.990228e-02
2.024642e-02
2.059039e-02
2.093198e-02
2.126930e-02
2.160066e-02
2.192453e-02
2.223942e-02
2.254379e-02
2.283607e-02
2.311466e-02
2.337797e-02
2.362445e-02
2.385271e-02
2.406147e-02
2.424963e-02
2.441623e-02
2.456048e-02
2.468173e-02
2.477949e-02
2.485342e-02
2.490332e-02
2.492917e-02
2.493108e-02
2.490934e-02
2.486440e-02
2.479686e-02
2.470750e-02
2.459725e-02
2.446723e-02
2.431875e-02
2.415326e-02
2.397240e-02
2.377792e-02
2.357172e-02
2.335581e-02
2.313231e-02
2.290344e-02
2.267154e-02
2.243902e-02
2.220842e-02
2.198235e-02
2.176350e-02
2.155463e-02
2.135854e-02
2.117802e-02
2.101584e-02
2.087467e-02
2.075693e-02
2.066468e-02
2.059927e-02
2.056095e-02
2.054821e-02
2.055700e-02
2.058056e-02
2.058091e-02
1.680358e-02
1.688349e-02
1.699591e-02
1.701837e-02
1.691784e-02
1.671696e-02
1.647468e-02
1.625585e-02
1.610115e-02
1.601251e-02
1.595923e-02
1.589906e-02
1.580166e-02
1.566221e-02
1.550015e-02
1.534602e-02
1.522521e-02
1.514733e-02
1.510552e-02
1.508420e-02
1.506954e-02
1.505680e-02
1.505121e-02
1.506334e-02
1.510240e-02
1.517133e-02
1.526606e-02
1.537847e-02
1.550093e-02
1.562985e-02
1.576671e-02
1.591645e-02
1.608458e-02
1.627452e-02
1.648638e-02
1.671739e-02
1.696340e-02
1.722060e-02
1.748662e-02
1.776078e-02
1.804355e-02
1.833565e-02
1.863733e-02
1.894797e-02
1.926612e-02
1.958975e-02
1.991665e-02
2.024470e-02
2.057186e-02
2.089641e-02
2.121693e-02
2.153201e-02
2.184023e-02
2.214005e-02
2.242986e-02
2.270801e-02
2.297289e-02
2.322295e-02
2.345679e-02
2.367312e-02
2.387082e-02
2.404889e-02
2.420647e-02
2.434283e-02
2.445734e-02
2.454954e-02
2.461910e-02
2.466583e-02
2.468969e-02
2.469081e-02
2.466946e-02
2.462608e-02
2.456126e-02
2.447578e-02
2.437059e-02
2.424683e-02
2.410576e-02
2.394883e-02
2.377759e-02
2.359372e-02
2.339902e-02
2.319537e-02
2.298478e-02
2.276937e-02
2.255132e-02
2.233296e-02
2.211665e-02
2.190486e-02
2.170008e-02
2.150486e-02
2.132172e-02
2.115321e-02
2.100176e-02
2.086969e-02
2.075910e-02
2.067171e-02
2.060870e-02
2.057052e-02
2.055662e-02
2.056560e-02
2.059598e-02
2.059631e-02
1.703933e-02
1.711254e-02
1.715369e-02
1.706858e-02
1.687580e-02
1.664276e-02
1.644150e-02
1.631440e-02
1.625853e-02
1.623447e-02
1.619210e-02
1.609794e-02
1.594995e-02
1.577423e-02
1.560815e-02
1.548075e-02
1.540092e-02
1.535798e-02
1.533202e-02
1.530689e-02
1.527837e-02
1.525438e-02
1.524838e-02
1.527107e-02
1.532489e-02
1.540385e-02
1.549781e-02
1.559823e-02
1.570221e-02
1.581301e-02
1.593757e-02
1.608261e-02
1.625158e-02
1.644360e-02
1.665450e-02
1.687901e-02
1.711296e-02
1.735439e-02
1.760353e-02
1.786181e-02
1.813071e-02
1.841076e-02
1.870128e-02
1.900057e-02
1.930635e-02
1.961634e-02
1.992854e-02
2.024133e-02
2.055310e-02
2.086253e-02
2.116840e-02
2.146936e-02
2.176390e-02
2.205038e-02
2.232711e-02
2.259245e-02
2.284483e-02
2.308283e-02
2.330518e-02
2.351073e-02
2.369846e-02
2.386745e-02
2.401689e-02
2.414607e-02
2.425441e-02
2.434144e-02
2.440684e-02
2.445042e-02
2.447213e-02
2.447210e-02
2.445060e-02
2.440809e-02
2.434519e-02
2.426269e-02
2.416158e-02
2.404295e-02
2.390807e-02
2.375832e-02
2.359516e-02
2.342019e-02
2.323511e-02
2.304172e-02
2.284192e-02
2.263773e-02
2.243126e-02
2.222469e-02
2.202027e-02
2.182030e-02
2.162710e-02
2.144300e-02
2.127032e-02
2.111135e-02
2.096829e-02
2.084323e-02
2.073804e-02
2.065431e-02
2.059328e-02
2.055575e-02
2.054214e-02
2.055279e-02
2.058881e-02
2.058912e-02
1.730732e-02
1.733426e-02
1.725817e-02
1.706837e-02
1.683206e-02
1.663060e-02
1.651336e-02
1.647816e-02
1.647992e-02
1.645985e-02
1.637747e-02
1.622871e-02
1.604297e-02
1.586376e-02
1.572561e-02
1.563964e-02
1.559378e-02
1.556468e-02
1.553303e-02
1.549345e-02
1.545485e-02
1.543284e-02
1.543988e-02
1.547882e-02
1.554270e-02
1.561992e-02
1.570092e-02
1.578290e-02
1.587028e-02
1.597153e-02
1.609454e-02
1.624306e-02
1.641565e-02
1.660709e-02
1.681119e-02
1.702335e-02
1.724182e-02
1.746748e-02
1.770260e-02
1.794926e-02
1.820835e-02
1.847921e-02
1.875996e-02
1.904816e-02
1.934144e-02
1.963790e-02
1.993613e-02
2.023510e-02
2.053344e-02
2.082991e-02
2.112325e-02
2.141200e-02
2.169452e-02
2.196908e-02
2.223400e-02
2.248770e-02
2.272876e-02
2.295589e-02
2.316794e-02
2.336386e-02
2.354270e-02
2.370359e-02
2.384573e-02
2.396844e-02
2.407113e-02
2.415335e-02
2.421476e-02
2.425517e-02
2.427455e-02
2.427301e-02
2.425089e-02
2.420869e-02
2.414705e-02
2.406679e-02
2.396889e-02
2.385441e-02
2.372456e-02
2.358064e-02
2.342407e-02
2.325634e-02
2.307909e-02
2.289405e-02
2.270306e-02
2.250806e-02
2.231106e-02
2.211412e-02
2.191937e-02
2.172894e-02
2.154501e-02
2.136972e-02
2.120521e-02
2.105356e-02
2.091682e-02
2.079687e-02
2.069547e-02
2.061417e-02
2.055431e-02
2.051702e-02
2.050335e-02
2.051458e-02
2.055278e-02
2.055308e-02
1.752831e-02
1.749219e-02
1.730447e-02
1.705954e-02
1.684598e-02
1.672213e-02
1.669135e-02
1.670782e-02
1.670660e-02
1.663933e-02
1.649651e-02
1.630670e-02
1.611678e-02
1.596625e-02
1.587011e-02
1.581740e-02
1.578340e-02
1.574633e-02
1.569893e-02
1.564963e-02
1.561478e-02
1.560793e-02
1.563253e-02
1.568147e-02
1.574251e-02
1.580562e-02
1.586802e-02
1.593477e-02
1.601525e-02
1.611803e-02
1.624707e-02
1.640057e-02
1.657273e-02
1.675682e-02
1.694805e-02
1.714485e-02
1.734858e-02
1.756203e-02
1.778771e-02
1.802672e-02
1.827842e-02
1.854086e-02
1.881156e-02
1.908817e-02
1.936889e-02
1.965252e-02
1.993826e-02
2.022539e-02
2.051248e-02
2.079807e-02
2.108072e-02
2.135881e-02
2.163061e-02
2.189443e-02
2.214868e-02
2.239192e-02
2.262286e-02
2.284035e-02
2.304331e-02
2.323078e-02
2.340181e-02
2.355555e-02
2.369121e-02
2.380810e-02
2.390563e-02
2.398333e-02
2.404089e-02
2.407811e-02
2.409499e-02
2.409171e-02
2.406863e-02
2.402631e-02
2.396542e-02
2.388678e-02
2.379129e-02
2.368001e-02
2.355405e-02
2.341467e-02
2.326322e-02
2.310116e-02
2.293008e-02
2.275166e-02
2.256768e-02
2.237999e-02
2.219052e-02
2.200121e-02
2.181405e-02
2.163106e-02
2.145425e-02
2.128563e-02
2.112719e-02
2.098086e-02
2.084851e-02
2.073193e-02
2.063277e-02
2.055258e-02
2.049276e-02
2.045465e-02
2.043964e-02
2.044938e-02
2.048612e-02
2.048639e-02
1.766062e-02
1.757443e-02
1.732594e-02
1.709497e-02
1.695407e-02
1.691385e-02
1.693165e-02
1.694021e-02
1.688515e-02
1.675072e-02
1.656191e-02
1.636572e-02
1.620450e-02
1.609674e-02
1.603387e-02
1.599172e-02
1.594768e-02
1.589319e-02
1.583569e-02
1.579111e-02
1.577297e-02
1.578476e-02
1.581934e-02
1.586446e-02
1.591029e-02
1.595454e-02
1.600285e-02
1.606503e-02
1.614983e-02
1.626095e-02
1.639618e-02
1.654932e-02
1.671353e-02
1.688417e-02
1.706009e-02
1.724310e-02
1.743630e-02
1.764235e-02
1.786234e-02
1.809555e-02
1.833999e-02
1.859322e-02
1.885305e-02
1.911789e-02
1.938679e-02
1.965914e-02
1.993441e-02
2.021186e-02
2.048970e-02
2.076611e-02
2.103948e-02
2.130810e-02
2.157028e-02
2.182445e-02
2.206917e-02
2.230317e-02
2.252527e-02
2.273440e-02
2.292954e-02
2.310972e-02
2.327400e-02
2.342152e-02
2.355146e-02
2.366312e-02
2.375591e-02
2.382938e-02
2.388322e-02
2.391729e-02
2.393165e-02
2.392651e-02
2.390228e-02
2.385956e-02
2.379900e-02
2.372137e-02
2.362754e-02
2.351851e-02
2.339534e-02
2.325926e-02
2.311159e-02
2.295377e-02
2.278735e-02
2.261397e-02
2.243535e-02
2.225325e-02
2.206949e-02
2.188593e-02
2.170444e-02
2.152692e-02
2.135526e-02
2.119134e-02
2.103703e-02
2.089414e-02
2.076443e-02
2.064956e-02
2.055112e-02
2.047061e-02
2.040948e-02
2.036916e-02
2.035115e-02
2.035717e-02
2.038929e-02
2.038953e-02
1.771534e-02
1.761428e-02
1.737380e-02
1.721080e-02
1.715267e-02
1.716106e-02
1.716916e-02
1.711933e-02
1.699086e-02
1.680463e-02
1.660581e-02
1.643728e-02
1.631939e-02
1.624553e-02
1.619290e-02
1.613943e-02
1.607652e-02
1.601117e-02
1.595865e-02
1.593166e-02
1.593286e-02
1.595459e-02
1.598460e-02
1.601364e-02
1.604045e-02
1.607159e-02
1.611733e-02
1.618622e-02
1.628129e-02
1.639958e-02
1.653444e-02
1.667908e-02
1.682937e-02
1.698485e-02
1.714791e-02
1.732194e-02
1.750956e-02
1.771161e-02
1.792713e-02
1.815401e-02
1.838990e-02
1.863284e-02
1.888160e-02
1.913553e-02
1.939425e-02
1.965740e-02
1.992429e-02
2.019392e-02
2.046406e-02
2.073253e-02
2.099766e-02
2.125778e-02
2.151137e-02
2.175702e-02
2.199346e-02
2.221955e-02
2.243417e-02
2.263629e-02
2.282488e-02
2.299892e-02
2.315746e-02
2.329959e-02
2.342450e-02
2.353146e-02
2.361992e-02
2.368945e-02
2.373980e-02
2.377090e-02
2.378284e-02
2.377587e-02
2.375042e-02
2.370706e-02
2.364643e-02
2.356924e-02
2.347633e-02
2.336864e-02
2.324724e-02
2.311334e-02
2.296824e-02
2.281339e-02
2.265028e-02
2.248050e-02
2.230571e-02
2.212758e-02
2.194785e-02
2.176828e-02
2.159066e-02
2.141679e-02
2.124845e-02
2.108744e-02
2.093549e-02
2.079432e-02
2.066557e-02
2.055081e-02
2.045157e-02
2.036929e-02
2.030541e-02
2.026136e-02
2.023863e-02
2.023884e-02
2.026379e-02
2.026401e-02
1.774516e-02
1.766935e-02
1.749000e-02
1.740917e-02
1.740149e-02
1.740106e-02
1.734861e-02
1.722033e-02
1.703409e-02
1.683315e-02
1.665976e-02
1.653445e-02
1.645121e-02
1.638799e-02
1.632359e-02
1.625030e-02
1.617578e-02
1.611529e-02
1.608069e-02
1.607333e-02
1.608429e-02
1.610081e-02
1.611414e-02
1.612416e-02
1.613885e-02
1.616922e-02
1.622368e-02
1.630439e-02
1.640732e-02
1.652512e-02
1.665098e-02
1.678140e-02
1.691681e-02
1.706042e-02
1.721598e-02
1.738605e-02
1.757108e-02
1.776969e-02
1.797954e-02
1.819832e-02
1.842438e-02
1.865688e-02
1.889555e-02
1.914035e-02
1.939102e-02
1.964698e-02
1.990721e-02
2.017034e-02
2.043381e-02
2.069521e-02
2.095296e-02
2.120555e-02
2.145167e-02
2.169008e-02
2.191964e-02
2.213926e-02
2.234784e-02
2.254429e-02
2.272753e-02
2.289651e-02
2.305021e-02
2.318771e-02
2.330820e-02
2.341100e-02
2.349558e-02
2.356159e-02
2.360883e-02
2.363727e-02
2.364704e-02
2.363837e-02
2.361164e-02
2.356744e-02
2.350633e-02
2.342902e-02
2.333631e-02
2.322915e-02
2.310863e-02
2.297593e-02
2.283237e-02
2.267934e-02
2.251831e-02
2.235081e-02
2.217841e-02
2.200273e-02
2.182546e-02
2.164826e-02
2.147286e-02
2.130097e-02
2.113430e-02
2.097452e-02
2.082329e-02
2.068221e-02
2.055283e-02
2.043665e-02
2.033511e-02
2.024960e-02
2.018151e-02
2.013222e-02
2.010314e-02
2.009574e-02
2.011153e-02
2.011173e-02
1.781495e-02
1.779122e-02
1.768695e-02
1.765849e-02
1.764397e-02
1.758229e-02
1.744734e-02
1.725534e-02
1.704884e-02
1.686983e-02
1.673850e-02
1.664811e-02
1.657595e-02
1.650088e-02
1.641608e-02
1.633058e-02
1.626063e-02
1.621807e-02
1.620306e-02
1.620507e-02
1.621015e-02
1.620947e-02
1.620391e-02
1.620282e-02
1.621842e-02
1.625927e-02
1.632680e-02
1.641579e-02
1.651795e-02
1.662623e-02
1.673766e-02
1.685364e-02
1.697828e-02
1.711587e-02
1.726894e-02
1.743756e-02
1.761988e-02
1.781321e-02
1.801522e-02
1.822451e-02
1.844067e-02
1.866387e-02
1.889440e-02
1.913222e-02
1.937678e-02
1.962706e-02
1.988167e-02
2.013907e-02
2.039657e-02
2.065165e-02
2.090292e-02
2.114912e-02
2.138909e-02
2.162173e-02
2.184593e-02
2.206058e-02
2.226450e-02
2.245654e-02
2.263553e-02
2.280038e-02
2.295005e-02
2.308365e-02
2.320038e-02
2.329962e-02
2.338093e-02
2.344398e-02
2.348863e-02
2.351486e-02
2.352275e-02
2.351252e-02
2.348447e-02
2.343919e-02
2.337723e-02
2.329930e-02
2.320620e-02
2.309891e-02
2.297851e-02
2.284619e-02
2.270324e-02
2.255100e-02
2.239091e-02
2.222443e-02
2.205311e-02
2.187851e-02
2.170224e-02
2.152595e-02
2.135126e-02
2.117983e-02
2.101327e-02
2.085318e-02
2.070111e-02
2.055858e-02
2.042706e-02
2.030796e-02
2.020267e-02
2.011251e-02
2.003881e-02
1.998285e-02
1.994596e-02
1.992942e-02
1.993451e-02
1.993469e-02
1.796938e-02
1.800071e-02
1.794270e-02
1.790928e-02
1.783302e-02
1.768488e-02
1.747986e-02
1.726109e-02
1.707177e-02
1.693244e-02
1.683533e-02
1.675587e-02
1.667146e-02
1.657520e-02
1.647739e-02
1.639599e-02
1.634379e-02
1.632059e-02
1.631441e-02
1.630973e-02
1.629696e-02
1.627742e-02
1.626166e-02
1.626303e-02
1.629071e-02
1.634569e-02
1.642171e-02
1.650950e-02
1.660156e-02
1.669522e-02
1.679273e-02
1.689908e-02
1.701918e-02
1.715564e-02
1.730824e-02
1.747465e-02
1.765184e-02
1.783739e-02
1.803010e-02
1.822995e-02
1.843756e-02
1.865355e-02
1.887810e-02
1.911075e-02
1.935047e-02
1.959585e-02
1.984536e-02
2.009749e-02
2.034964e-02
2.059927e-02
2.084522e-02
2.108640e-02
2.132177e-02
2.155022e-02
2.177060e-02
2.198168e-02
2.218221e-02
2.237093e-02
2.254664e-02
2.270822e-02
2.285466e-02
2.298511e-02
2.309885e-02
2.319531e-02
2.327410e-02
2.333491e-02
2.337759e-02
2.340207e-02
2.340839e-02
2.339672e-02
2.336732e-02
2.332077e-02
2.325768e-02
2.317874e-02
2.308482e-02
2.297687e-02
2.285598e-02
2.272331e-02
2.258013e-02
2.242775e-02
2.226754e-02
2.210097e-02
2.192953e-02
2.175475e-02
2.157820e-02
2.140146e-02
2.122611e-02
2.105371e-02
2.088582e-02
2.072395e-02
2.056956e-02
2.042412e-02
2.028900e-02
2.016557e-02
2.005514e-02
1.995899e-02
1.987834e-02
1.981442e-02
1.976840e-02
1.974146e-02
1.973464e-02
1.973479e-02
1.821289e-02
1.827942e-02
1.821223e-02
1.811640e-02
1.794928e-02
1.772387e-02
1.748442e-02
1.727682e-02
1.712361e-02
1.701681e-02
1.692960e-02
1.683662e-02
1.672942e-02
1.661864e-02
1.652395e-02
1.645983e-02
1.642667e-02
1.641170e-02
1.639788e-02
1.637445e-02
1.634250e-02
1.631332e-02
1.630130e-02
1.631616e-02
1.635890e-02
1.642250e-02
1.649680e-02
1.657381e-02
1.665098e-02
1.673118e-02
1.682018e-02
1.692342e-02
1.704368e-02
1.718052e-02
1.733123e-02
1.749249e-02
1.766179e-02
1.783812e-02
1.802176e-02
1.821374e-02
1.841500e-02
1.862592e-02
1.884613e-02
1.907462e-02
1.930999e-02
1.955072e-02
1.979537e-02
2.004269e-02
2.029035e-02
2.053571e-02
2.077777e-02
2.101553e-02
2.124791e-02
2.147373e-02
2.169169e-02
2.190046e-02
2.209868e-02
2.228505e-02
2.245836e-02
2.261753e-02
2.276163e-02
2.288984e-02
2.300153e-02
2.309616e-02
2.317331e-02
2.323267e-02
2.327400e-02
2.329720e-02
2.330225e-02
2.328927e-02
2.325854e-02
2.321065e-02
2.314626e-02
2.306611e-02
2.297104e-02
2.286203e-02
2.274013e-02
2.260650e-02
2.246234e-02
2.230896e-02
2.214773e-02
2.198006e-02
2.180744e-02
2.163136e-02
2.145334e-02
2.127493e-02
2.109762e-02
2.092293e-02
2.075233e-02
2.058728e-02
2.042919e-02
2.027944e-02
2.013937e-02
2.001028e-02
1.989341e-02
1.978998e-02
1.970115e-02
1.962805e-02
1.957177e-02
1.953334e-02
1.951367e-02
1.951379e-02
1.850961e-02
1.857972e-02
1.844779e-02
1.825660e-02
1.800434e-02
1.773584e-02
1.750053e-02
1.732466e-02
1.720164e-02
1.710303e-02
1.700016e-02
1.688172e-02
1.675739e-02
1.664787e-02
1.656951e-02
1.652397e-02
1.649845e-02
1.647486e-02
1.644114e-02
1.639774e-02
1.635618e-02
1.633153e-02
1.633409e-02
1.636479e-02
1.641623e-02
1.647756e-02
1.654036e-02
1.660211e-02
1.666613e-02
1.673880e-02
1.682598e-02
1.693056e-02
1.705193e-02
1.718710e-02
1.733253e-02
1.748569e-02
1.764574e-02
1.781327e-02
1.798963e-02
1.817603e-02
1.837301e-02
1.858028e-02
1.879687e-02
1.902138e-02
1.925237e-02
1.948850e-02
1.972867e-02
1.997195e-02
2.021633e-02
2.045890e-02
2.069871e-02
2.093468e-02
2.116562e-02
2.139016e-02
2.160690e-02
2.181439e-02
2.201124e-02
2.219617e-02
2.236802e-02
2.252579e-02
2.266860e-02
2.279570e-02
2.290644e-02
2.300028e-02
2.307673e-02
2.313541e-02
2.317603e-02
2.319840e-02
2.320249e-02
2.318844e-02
2.315652e-02
2.310734e-02
2.304166e-02
2.296019e-02
2.286380e-02
2.275342e-02
2.263009e-02
2.249494e-02
2.234918e-02
2.219409e-02
2.203103e-02
2.186140e-02
2.168666e-02
2.150827e-02
2.132771e-02
2.114646e-02
2.096598e-02
2.078774e-02
2.061315e-02
2.044362e-02
2.028052e-02
2.012517e-02
1.997887e-02
1.984285e-02
1.971831e-02
1.960641e-02
1.950825e-02
1.942487e-02
1.935729e-02
1.930645e-02
1.927315e-02
1.927325e-02
1.880135e-02
1.884659e-02
1.861801e-02
1.833393e-02
1.802948e-02
1.775760e-02
1.754942e-02
1.740146e-02
1.728498e-02
1.716831e-02
1.703654e-02
1.689729e-02
1.677131e-02
1.667650e-02
1.661604e-02
1.657766e-02
1.654266e-02
1.649788e-02
1.644298e-02
1.638936e-02
1.635251e-02
1.634312e-02
1.636208e-02
1.640152e-02
1.645016e-02
1.649923e-02
1.654627e-02
1.659500e-02
1.665225e-02
1.672418e-02
1.681371e-02
1.692002e-02
1.703986e-02
1.716956e-02
1.730662e-02
1.745042e-02
1.760187e-02
1.776259e-02
1.793401e-02
1.811678e-02
1.831066e-02
1.851468e-02
1.872750e-02
1.894776e-02
1.917426e-02
1.940607e-02
1.964249e-02
1.988289e-02
2.012552e-02
2.036694e-02
2.060611e-02
2.084178e-02
2.107255e-02
2.129693e-02
2.151341e-02
2.172054e-02
2.191695e-02
2.210145e-02
2.227296e-02
2.243053e-02
2.257331e-02
2.270056e-02
2.281155e-02
2.290567e-02
2.298234e-02
2.304110e-02
2.308161e-02
2.310365e-02
2.310722e-02
2.309244e-02
2.305965e-02
2.300941e-02
2.294256e-02
2.285982e-02
2.276200e-02
2.265004e-02
2.252496e-02
2.238788e-02
2.224001e-02
2.208262e-02
2.191706e-02
2.174472e-02
2.156702e-02
2.138540e-02
2.120128e-02
2.101612e-02
2.083135e-02
2.064838e-02
2.046860e-02
2.029339e-02
2.012406e-02
1.996190e-02
1.980816e-02
1.966402e-02
1.953065e-02
1.940913e-02
1.930054e-02
1.920587e-02
1.912606e-02
1.906200e-02
1.901442e-02
1.901449e-02
1.903345e-02
1.904023e-02
1.871736e-02
1.837223e-02
1.805698e-02
1.780802e-02
1.762630e-02
1.748421e-02
1.734790e-02
1.719889e-02
1.704203e-02
1.689741e-02
1.678389e-02
1.670610e-02
1.665250e-02
1.660403e-02
1.654664e-02
1.647922e-02
1.641297e-02
1.636365e-02
1.634223e-02
1.634956e-02
1.637724e-02
1.641338e-02
1.644901e-02
1.648176e-02
1.651573e-02
1.655819e-02
1.661554e-02
1.669063e-02
1.678236e-02
1.688719e-02
1.700132e-02
1.712233e-02
1.724986e-02
1.738518e-02
1.753018e-02
1.768647e-02
1.785477e-02
1.803482e-02
1.822565e-02
1.842596e-02
1.863449e-02
1.885022e-02
1.907245e-02
1.930068e-02
1.953450e-02
1.977345e-02
2.001595e-02
2.025777e-02
2.049767e-02
2.073420e-02
2.096580e-02
2.119091e-02
2.140802e-02
2.161573e-02
2.181278e-02
2.199807e-02
2.217057e-02
2.232935e-02
2.247351e-02
2.260221e-02
2.271465e-02
2.281008e-02
2.288786e-02
2.294747e-02
2.298854e-02
2.301089e-02
2.301451e-02
2.299956e-02
2.296636e-02
2.291542e-02
2.284766e-02
2.276376e-02
2.266453e-02
2.255089e-02
2.242387e-02
2.228457e-02
2.213421e-02
2.197405e-02
2.180544e-02
2.162972e-02
2.144831e-02
2.126260e-02
2.107401e-02
2.088396e-02
2.069386e-02
2.050510e-02
2.031904e-02
2.013702e-02
1.996033e-02
1.979022e-02
1.962789e-02
1.947450e-02
1.933116e-02
1.919896e-02
1.907890e-02
1.897197e-02
1.887907e-02
1.880104e-02
1.873860e-02
1.873864e-02
1.917608e-02
1.914925e-02
1.876308e-02
1.839993e-02
1.810398e-02
1.788122e-02
1.770627e-02
1.754405e-02
1.737284e-02
1.719460e-02
1.702832e-02
1.689352e-02
1.679607e-02
1.672509e-02
1.666122e-02
1.658947e-02
1.650796e-02
1.642774e-02
1.636491e-02
1.633081e-02
1.632622e-02
1.634223e-02
1.636615e-02
1.638858e-02
1.640727e-02
1.642674e-02
1.645473e-02
1.649790e-02
1.655900e-02
1.663661e-02
1.672682e-02
1.682563e-02
1.693071e-02
1.704199e-02
1.716109e-02
1.729023e-02
1.743117e-02
1.758468e-02
1.775046e-02
1.792748e-02
1.811449e-02
1.831032e-02
1.851416e-02
1.872555e-02
1.894423e-02
1.917002e-02
1.940264e-02
1.964157e-02
1.988537e-02
2.012883e-02
2.037048e-02
2.060872e-02
2.084194e-02
2.106861e-02
2.128729e-02
2.149673e-02
2.169575e-02
2.188329e-02
2.205831e-02
2.221980e-02
2.236675e-02
2.249819e-02
2.261320e-02
2.271095e-02
2.279074e-02
2.285206e-02
2.289454e-02
2.291801e-02
2.292246e-02
2.290804e-02
2.287504e-02
2.282391e-02
2.275558e-02
2.267076e-02
2.257026e-02
2.245497e-02
2.232594e-02
2.218427e-02
2.203116e-02
2.186788e-02
2.169573e-02
2.151607e-02
2.133027e-02
2.113973e-02
2.094585e-02
2.075004e-02
2.055369e-02
2.035816e-02
2.016482e-02
1.997495e-02
1.978982e-02
1.961066e-02
1.943864e-02
1.927489e-02
1.912053e-02
1.897659e-02
1.884408e-02
1.872398e-02
1.861717e-02
1.852447e-02
1.844660e-02
1.844663e-02
1.923207e-02
1.918982e-02
1.878256e-02
1.843518e-02
1.816598e-02
1.795243e-02
1.775880e-02
1.756051e-02
1.735667e-02
1.716510e-02
1.700593e-02
1.688631e-02
1.679600e-02
1.671511e-02
1.662749e-02
1.653032e-02
1.643446e-02
1.635652e-02
1.630846e-02
1.629119e-02
1.629529e-02
1.630723e-02
1.631679e-02
1.632164e-02
1.632672e-02
1.634033e-02
1.636944e-02
1.641679e-02
1.648061e-02
1.655656e-02
1.664037e-02
1.672974e-02
1.682483e-02
1.692764e-02
1.704073e-02
1.716605e-02
1.730440e-02
1.745543e-02
1.761804e-02
1.779097e-02
1.797317e-02
1.816402e-02
1.836332e-02
1.857107e-02
1.878735e-02
1.901204e-02
1.924477e-02
1.948483e-02
1.973092e-02
1.997685e-02
2.022096e-02
2.046159e-02
2.069720e-02
2.092638e-02
2.114784e-02
2.136040e-02
2.156295e-02
2.175435e-02
2.193346e-02
2.209914e-02
2.225022e-02
2.238560e-02
2.250429e-02
2.260542e-02
2.268828e-02
2.275235e-02
2.279727e-02
2.282287e-02
2.282910e-02
2.281606e-02
2.278400e-02
2.273330e-02
2.266488e-02
2.257951e-02
2.247800e-02
2.236125e-02
2.223027e-02
2.208620e-02
2.193020e-02
2.176352e-02
2.158748e-02
2.140340e-02
2.121267e-02
2.101666e-02
2.081679e-02
2.061444e-02
2.041101e-02
2.020784e-02
2.000626e-02
1.980755e-02
1.961296e-02
1.942370e-02
1.924093e-02
1.906578e-02
1.889934e-02
1.874266e-02
1.859676e-02
1.846259e-02
1.834108e-02
1.823303e-02
1.813919e-02
1.813919e-02
1.922955e-02
1.919316e-02
1.879843e-02
1.847826e-02
1.822150e-02
1.799204e-02
1.776247e-02
1.752898e-02
1.730820e-02
1.712110e-02
1.697637e-02
1.686457e-02
1.676523e-02
1.666061e-02
1.654652e-02
1.643345e-02
1.633861e-02
1.627489e-02
1.624370e-02
1.623528e-02
1.623516e-02
1.623224e-02
1.622358e-02
1.621440e-02
1.621359e-02
1.622859e-02
1.626221e-02
1.631239e-02
1.637436e-02
1.644349e-02
1.651739e-02
1.659644e-02
1.668295e-02
1.677983e-02
1.688923e-02
1.701202e-02
1.714778e-02
1.729535e-02
1.745345e-02
1.762112e-02
1.779793e-02
1.798391e-02
1.817936e-02
1.838459e-02
1.859970e-02
1.882446e-02
1.905827e-02
1.930018e-02
1.954897e-02
1.979792e-02
2.004503e-02
2.028876e-02
2.052772e-02
2.076063e-02
2.098633e-02
2.120365e-02
2.141138e-02
2.160826e-02
2.179297e-02
2.196420e-02
2.212066e-02
2.226119e-02
2.238474e-02
2.249046e-02
2.257763e-02
2.264571e-02
2.269433e-02
2.272324e-02
2.273234e-02
2.272166e-02
2.269140e-02
2.264191e-02
2.257401e-02
2.248862e-02
2.238652e-02
2.226861e-02
2.213591e-02
2.198952e-02
2.183059e-02
2.166038e-02
2.148019e-02
2.129135e-02
2.109525e-02
2.089327e-02
2.068681e-02
2.047726e-02
2.026600e-02
2.005436e-02
1.984366e-02
1.963517e-02
1.943014e-02
1.922977e-02
1.903523e-02
1.884766e-02
1.866815e-02
1.849776e-02
1.833754e-02
1.818845e-02
1.805142e-02
1.792733e-02
1.781694e-02
1.781693e-02
1.920460e-02
1.918835e-02
1.881823e-02
1.851357e-02
1.824418e-02
1.797960e-02
1.771271e-02
1.745876e-02
1.723967e-02
1.706622e-02
1.693021e-02
1.681067e-02
1.668800e-02
1.655605e-02
1.642448e-02
1.631102e-02
1.622980e-02
1.618310e-02
1.616114e-02
1.614861e-02
1.613330e-02
1.611155e-02
1.608833e-02
1.607309e-02
1.607386e-02
1.609363e-02
1.613018e-02
1.617831e-02
1.623301e-02
1.629172e-02
1.635489e-02
1.642516e-02
1.650571e-02
1.659893e-02
1.670576e-02
1.682574e-02
1.695765e-02
1.710018e-02
1.725244e-02
1.741417e-02
1.758565e-02
1.776745e-02
1.796011e-02
1.816394e-02
1.837887e-02
1.860442e-02
1.883975e-02
1.908378e-02
1.933528e-02
1.958769e-02
1.983844e-02
2.008620e-02
2.032973e-02
2.056789e-02
2.079947e-02
2.102321e-02
2.123772e-02
2.144155e-02
2.163321e-02
2.181127e-02
2.197438e-02
2.212136e-02
2.225116e-02
2.236291e-02
2.245587e-02
2.252945e-02
2.258318e-02
2.261672e-02
2.262991e-02
2.262271e-02
2.259527e-02
2.254790e-02
2.248131e-02
2.239658e-02
2.229448e-02
2.217589e-02
2.204180e-02
2.189330e-02
2.173156e-02
2.155781e-02
2.137337e-02
2.117957e-02
2.097779e-02
2.076944e-02
2.055590e-02
2.033855e-02
2.011877e-02
1.989790e-02
1.967725e-02
1.945810e-02
1.924171e-02
1.902928e-02
1.882200e-02
1.862103e-02
1.842748e-02
1.824244e-02
1.806696e-02
1.790207e-02
1.774874e-02
1.760788e-02
1.748031e-02
1.748027e-02
1.918312e-02
1.918907e-02
1.883287e-02
1.851876e-02
1.821520e-02
1.791115e-02
1.761991e-02
1.736432e-02
1.715770e-02
1.699380e-02
1.685152e-02
1.670926e-02
1.655842e-02
1.640720e-02
1.627357e-02
1.617295e-02
1.610893e-02
1.607209e-02
1.604644e-02
1.601856e-02
1.598383e-02
1.594691e-02
1.591730e-02
1.590369e-02
1.590946e-02
1.593230e-02
1.596665e-02
1.600709e-02
1.605081e-02
1.609830e-02
1.615240e-02
1.621658e-02
1.629342e-02
1.638394e-02
1.648768e-02
1.660333e-02
1.672957e-02
1.686557e-02
1.701124e-02
1.716709e-02
1.733391e-02
1.751250e-02
1.770335e-02
1.790656e-02
1.812178e-02
1.834827e-02
1.858508e-02
1.883112e-02
1.908535e-02
1.934173e-02
1.959699e-02
1.984999e-02
2.009959e-02
2.034460e-02
2.058369e-02
2.081537e-02
2.103807e-02
2.125015e-02
2.145003e-02
2.163623e-02
2.180741e-02
2.196236e-02
2.210004e-02
2.221950e-02
2.231993e-02
2.240062e-02
2.246100e-02
2.250063e-02
2.251927e-02
2.251682e-02
2.249339e-02
2.244925e-02
2.238497e-02
2.230178e-02
2.220042e-02
2.208177e-02
2.194680e-02
2.179658e-02
2.163229e-02
2.145516e-02
2.126650e-02
2.106767e-02
2.086004e-02
2.064501e-02
2.042397e-02
2.019832e-02
1.996942e-02
1.973862e-02
1.950726e-02
1.927663e-02
1.904801e-02
1.882262e-02
1.860168e-02
1.838636e-02
1.817782e-02
1.797718e-02
1.778553e-02
1.760396e-02
1.743347e-02
1.727507e-02
1.712964e-02
1.712958e-02
1.917010e-02
1.918930e-02
1.882286e-02
1.847562e-02
1.813021e-02
1.779729e-02