# vtk DataFile Version 3.0
Scalar Field
ASCII
DATASET RECTILINEAR_GRID
DIMENSIONS 102 102 1
X_COORDINATES 102 double
0.000000 0.100000 0.200000 0.300000 0.400000 0.500000 0.600000 0.700000 0.800000 0.900000 1.000000 1.100000 1.200000 1.300000 1.400000 1.500000 1.600000 1.700000 1.800000 1.900000 2.000000 2.100000 2.200000 2.300000 2.400000 2.500000 2.600000 2.700000 2.800000 2.900000 3.000000 3.100000 3.200000 3.300000 3.400000 3.500000 3.600000 3.700000 3.800000 3.900000 4.000000 4.100000 4.200000 4.300000 4.400000 4.500000 4.600000 4.700000 4.800000 4.900000 5.000000 5.100000 5.200000 5.300000 5.400000 5.500000 5.600000 5.700000 5.800000 5.900000 6.000000 6.100000 6.200000 6.300000 6.400000 6.500000 6.600000 6.700000 6.800000 6.900000 7.000000 7.100000 7.200000 7.300000 7.400000 7.500000 7.600000 7.700000 7.800000 7.900000 8.000000 8.100000 8.200000 8.300000 8.400000 8.500000 8.600000 8.700000 8.800000 8.900000 9.000000 9.100000 9.200000 9.300000 9.400000 9.500000 9.600000 9.700000 9.800000 9.900000 10.000000 10.100000 
Y_COORDINATES 102 double
0.000000 0.100000 0.200000 0.300000 0.400000 0.500000 0.600000 0.700000 0.800000 0.900000 1.000000 1.100000 1.200000 1.300000 1.400000 1.500000 1.600000 1.700000 1.800000 1.900000 2.000000 2.100000 2.200000 2.300000 2.400000 2.500000 2.600000 2.700000 2.800000 2.900000 3.000000 3.100000 3.200000 3.300000 3.400000 3.500000 3.600000 3.700000 3.800000 3.900000 4.000000 4.100000 4.200000 4.300000 4.400000 4.500000 4.600000 4.700000 4.800000 4.900000 5.000000 5.100000 5.200000 5.300000 5.400000 5.500000 5.600000 5.700000 5.800000 5.900000 6.000000 6.100000 6.200000 6.300000 6.400000 6.500000 6.600000 6.700000 6.800000 6.900000 7.000000 7.100000 7.200000 7.300000 7.400000 7.500000 7.600000 7.700000 7.800000 7.900000 8.000000 8.100000 8.200000 8.300000 8.400000 8.500000 8.600000 8.700000 8.800000 8.900000 9.000000 9.100000 9.200000 9.300000 9.400000 9.500000 9.600000 9.700000 9.800000 9.900000 10.000000 10.100000 
Z_COORDINATES 1 double
0.0
POINT_DATA 10404
SCALARS Pressure double 1
LOOKUP_TABLE default
0.000000e+00
6.418571e-03
6.316242e-03
6.322399e-03
6.421512e-03
6.547428e-03
6.618830e-03
6.578109e-03
6.416224e-03
6.172720e-03
5.913784e-03
5.701533e-03
5.570043e-03
5.517930e-03
5.517748e-03
5.534509e-03
5.542890e-03
5.535577e-03
5.521068e-03
5.514663e-03
5.528750e-03
5.567350e-03
5.626576e-03
5.699321e-03
5.780729e-03
5.871354e-03
5.976715e-03
6.104033e-03
6.258244e-03
6.439389e-03
6.642523e-03
6.859900e-03
7.084191e-03
7.311196e-03
7.540953e-03
7.777015e-03
8.024464e-03
8.287654e-03
8.568605e-03
8.866539e-03
9.178486e-03
9.500518e-03
9.829017e-03
1.016151e-02
1.049689e-02
1.083515e-02
1.117674e-02
1.152208e-02
1.187107e-02
1.222303e-02
1.257668e-02
1.293040e-02
1.328243e-02
1.363107e-02
1.397473e-02
1.431194e-02
1.464138e-02
1.496182e-02
1.527213e-02
1.557127e-02
1.585830e-02
1.613236e-02
1.639269e-02
1.663858e-02
1.686932e-02
1.708423e-02
1.728261e-02
1.746377e-02
1.762708e-02
1.777200e-02
1.789815e-02
1.800527e-02
1.809332e-02
1.816240e-02
1.821276e-02
1.824477e-02
1.825889e-02
1.825569e-02
1.823578e-02
1.819989e-02
1.814882e-02
1.808348e-02
1.800492e-02
1.791430e-02
1.781293e-02
1.770227e-02
1.758392e-02
1.745963e-02
1.733128e-02
1.720091e-02
1.707069e-02
1.694296e-02
1.682024e-02
1.670523e-02
1.660081e-02
1.651005e-02
1.643610e-02
1.638195e-02
1.634985e-02
1.633990e-02
1.634711e-02
0.000000e+00
6.418571e-03
6.298612e-03
6.297266e-03
6.400244e-03
6.553197e-03
6.672112e-03
6.685391e-03
6.565739e-03
6.339187e-03
6.069036e-03
5.825310e-03
5.655888e-03
5.572228e-03
5.553550e-03
5.563935e-03
5.571838e-03
5.562590e-03
5.539851e-03
5.518151e-03
5.512409e-03
5.530333e-03
5.570766e-03
5.627300e-03
5.693995e-03
5.769647e-03
5.858555e-03
5.967928e-03
6.103785e-03
6.267672e-03
6.455765e-03
6.660538e-03
6.873963e-03
7.090623e-03
7.309411e-03
7.533279e-03
7.767434e-03
8.016939e-03
8.284749e-03
8.570878e-03
8.872755e-03
9.186412e-03
9.507876e-03
9.834222e-03
1.016399e-02
1.049702e-02
1.083386e-02
1.117515e-02
1.152109e-02
1.187123e-02
1.222449e-02
1.257929e-02
1.293383e-02
1.328631e-02
1.363505e-02
1.397852e-02
1.431534e-02
1.464427e-02
1.496414e-02
1.527389e-02
1.557256e-02
1.585926e-02
1.613318e-02
1.639355e-02
1.663962e-02
1.687063e-02
1.708581e-02
1.728439e-02
1.746564e-02
1.762891e-02
1.777368e-02
1.789960e-02
1.800649e-02
1.809435e-02
1.816331e-02
1.821363e-02
1.824568e-02
1.825991e-02
1.825683e-02
1.823703e-02
1.820121e-02
1.815015e-02
1.808477e-02
1.800611e-02
1.791536e-02
1.781384e-02
1.770305e-02
1.758459e-02
1.746022e-02
1.733183e-02
1.720145e-02
1.707124e-02
1.694353e-02
1.682083e-02
1.670584e-02
1.660143e-02
1.651068e-02
1.643673e-02
1.638258e-02
1.635047e-02
1.634052e-02
1.634772e-02
1.634711e-02
6.323893e-03
6.304697e-03
6.432068e-03
6.603805e-03
6.732695e-03
6.754771e-03
6.650376e-03
6.449118e-03
6.212132e-03
6.002737e-03
5.860782e-03
5.791921e-03
5.773993e-03
5.774135e-03
5.766391e-03
5.741541e-03
5.706433e-03
5.675829e-03
5.662684e-03
5.672140e-03
5.701353e-03
5.743809e-03
5.794758e-03
5.854572e-03
5.928538e-03
6.023753e-03
6.145184e-03
6.293031e-03
6.462599e-03
6.646445e-03
6.837570e-03
7.032078e-03
7.230225e-03
7.435642e-03
7.653336e-03
7.887470e-03
8.139847e-03
8.409541e-03
8.693588e-03
8.988235e-03
9.290169e-03
9.597277e-03
9.908792e-03
1.022494e-02
1.054633e-02
1.087342e-02
1.120617e-02
1.154387e-02
1.188534e-02
1.222902e-02
1.257324e-02
1.291631e-02
1.325672e-02
1.359308e-02
1.392415e-02
1.424875e-02
1.456581e-02
1.487430e-02
1.517327e-02
1.546184e-02
1.573915e-02
1.600439e-02
1.625675e-02
1.649538e-02
1.671945e-02
1.692814e-02
1.712066e-02
1.729637e-02
1.745471e-02
1.759531e-02
1.771795e-02
1.782256e-02
1.790917e-02
1.797794e-02
1.802909e-02
1.806293e-02
1.807984e-02
1.808027e-02
1.806479e-02
1.803406e-02
1.798886e-02
1.793013e-02
1.785892e-02
1.777643e-02
1.768397e-02
1.758300e-02
1.747506e-02
1.736183e-02
1.724509e-02
1.712672e-02
1.700876e-02
1.689334e-02
1.678274e-02
1.667940e-02
1.658583e-02
1.650463e-02
1.643835e-02
1.638927e-02
1.635904e-02
1.634813e-02
1.635540e-02
1.635477e-02
6.395689e-03
6.474714e-03
6.664911e-03
6.806532e-03
6.827568e-03
6.718433e-03
6.519797e-03
6.299432e-03
6.119765e-03
6.013000e-03
5.974383e-03
5.973524e-03
5.974884e-03
5.955739e-03
5.913591e-03
5.861920e-03
5.819185e-03
5.798255e-03
5.801553e-03
5.823050e-03
5.854471e-03
5.891420e-03
5.936103e-03
5.995764e-03
6.078350e-03
6.188121e-03
6.323488e-03
6.477927e-03
6.643136e-03
6.812683e-03
6.984401e-03
7.160652e-03
7.346648e-03
7.547871e-03
7.767793e-03
8.006790e-03
8.262435e-03
8.530770e-03
8.807861e-03
9.090956e-03
9.378929e-03
9.672018e-03
9.971153e-03
1.027723e-02
1.059058e-02
1.091081e-02
1.123686e-02
1.156724e-02
1.190032e-02
1.223450e-02
1.256826e-02
1.290020e-02
1.322916e-02
1.355405e-02
1.387382e-02
1.418749e-02
1.449408e-02
1.479267e-02
1.508236e-02
1.536227e-02
1.563154e-02
1.588924e-02
1.613448e-02
1.636632e-02
1.658387e-02
1.678634e-02
1.697303e-02
1.714342e-02
1.729712e-02
1.743389e-02
1.755360e-02
1.765622e-02
1.774177e-02
1.781037e-02
1.786216e-02
1.789739e-02
1.791638e-02
1.791956e-02
1.790749e-02
1.788085e-02
1.784046e-02
1.778728e-02
1.772238e-02
1.764695e-02
1.756227e-02
1.746973e-02
1.737079e-02
1.726703e-02
1.716010e-02
1.705175e-02
1.694386e-02
1.683840e-02
1.673746e-02
1.664319e-02
1.655784e-02
1.648364e-02
1.642274e-02
1.637709e-02
1.634830e-02
1.633755e-02
1.634600e-02
1.634536e-02
6.617705e-03
6.754002e-03
6.904971e-03
6.930769e-03
6.813310e-03
6.603442e-03
6.379811e-03
6.211007e-03
6.127893e-03
6.118033e-03
6.141215e-03
6.154702e-03
6.134049e-03
6.080309e-03
6.013111e-03
5.956299e-03
5.925115e-03
5.921111e-03
5.935624e-03
5.958003e-03
5.983123e-03
6.014227e-03
6.060386e-03
6.130864e-03
6.229876e-03
6.354475e-03
6.496256e-03
6.645579e-03
6.795939e-03
6.946414e-03
7.101337e-03
7.267747e-03
7.452070e-03
7.657574e-03
7.883523e-03
8.126048e-03
8.380035e-03
8.641078e-03
8.906703e-03
9.176585e-03
9.451919e-03
9.734413e-03
1.002536e-02
1.032513e-02
1.063305e-02
1.094772e-02
1.126737e-02
1.159019e-02
1.191458e-02
1.223919e-02
1.256284e-02
1.288440e-02
1.320298e-02
1.351769e-02
1.382761e-02
1.413186e-02
1.442954e-02
1.471975e-02
1.500158e-02
1.527409e-02
1.553631e-02
1.578724e-02
1.602587e-02
1.625125e-02
1.646255e-02
1.665907e-02
1.684029e-02
1.700581e-02
1.715539e-02
1.728884e-02
1.740606e-02
1.750697e-02
1.759155e-02
1.765981e-02
1.771187e-02
1.774792e-02
1.776828e-02
1.777341e-02
1.776391e-02
1.774049e-02
1.770403e-02
1.765548e-02
1.759592e-02
1.752649e-02
1.744841e-02
1.736297e-02
1.727156e-02
1.717562e-02
1.707671e-02
1.697646e-02
1.687661e-02
1.677899e-02
1.668549e-02
1.659806e-02
1.651870e-02
1.644934e-02
1.639189e-02
1.634808e-02
1.631954e-02
1.630780e-02
1.631473e-02
1.631408e-02
6.915998e-03
7.049050e-03
7.078727e-03
6.956304e-03
6.729737e-03
6.487889e-03
6.309676e-03
6.231201e-03
6.238037e-03
6.282480e-03
6.313011e-03
6.299331e-03
6.241630e-03
6.162925e-03
6.092089e-03
6.048267e-03
6.034311e-03
6.040523e-03
6.054314e-03
6.069249e-03
6.088606e-03
6.122534e-03
6.181456e-03
6.269939e-03
6.384285e-03
6.514660e-03
6.650126e-03
6.783747e-03
6.915278e-03
7.050529e-03
7.198129e-03
7.365557e-03
7.556239e-03
7.768780e-03
7.998231e-03
8.238486e-03
8.484596e-03
8.734137e-03
8.987298e-03
9.245999e-03
9.512607e-03
9.788834e-03
1.007516e-02
1.037080e-02
1.067413e-02
1.098313e-02
1.129586e-02
1.161066e-02
1.192628e-02
1.224172e-02
1.255606e-02
1.286839e-02
1.317795e-02
1.348396e-02
1.378560e-02
1.408199e-02
1.437225e-02
1.465545e-02
1.493059e-02
1.519662e-02
1.545247e-02
1.569706e-02
1.592941e-02
1.614865e-02
1.635407e-02
1.654515e-02
1.672149e-02
1.688281e-02
1.702891e-02
1.715957e-02
1.727464e-02
1.737396e-02
1.745743e-02
1.752503e-02
1.757685e-02
1.761312e-02
1.763421e-02
1.764062e-02
1.763301e-02
1.761215e-02
1.757891e-02
1.753422e-02
1.747912e-02
1.741467e-02
1.734201e-02
1.726236e-02
1.717699e-02
1.708727e-02
1.699467e-02
1.690072e-02
1.680706e-02
1.671536e-02
1.662737e-02
1.654484e-02
1.646953e-02
1.640316e-02
1.634741e-02
1.630385e-02
1.627401e-02
1.625944e-02
1.626191e-02
1.626124e-02
7.197065e-03
7.273201e-03
7.152033e-03
6.910580e-03
6.644447e-03
6.442429e-03
6.349704e-03
6.355679e-03
6.410035e-03
6.454361e-03
6.451041e-03
6.395821e-03
6.311363e-03
6.229269e-03
6.172318e-03
6.145966e-03
6.141301e-03
6.145139e-03
6.150086e-03
6.158947e-03
6.182077e-03
6.230386e-03
6.308634e-03
6.412704e-03
6.531895e-03
6.654422e-03
6.773009e-03
6.887800e-03
7.005552e-03
7.135975e-03
7.287312e-03
7.463187e-03
7.661865e-03
7.877769e-03
8.104192e-03
8.335847e-03
8.570319e-03
8.808085e-03
9.051488e-03
9.303296e-03
9.565499e-03
9.838697e-03
1.012211e-02
1.041400e-02
1.071227e-02
1.101488e-02
1.132017e-02
1.162690e-02
1.193418e-02
1.224132e-02
1.254756e-02
1.285205e-02
1.315411e-02
1.345298e-02
1.374787e-02
1.403786e-02
1.432202e-02
1.459928e-02
1.486855e-02
1.512868e-02
1.537856e-02
1.561717e-02
1.584362e-02
1.605721e-02
1.625739e-02
1.644378e-02
1.661605e-02
1.677393e-02
1.691713e-02
1.704538e-02
1.715842e-02
1.725604e-02
1.733810e-02
1.740461e-02
1.745571e-02
1.749171e-02
1.751304e-02
1.752028e-02
1.751411e-02
1.749529e-02
1.746466e-02
1.742311e-02
1.737158e-02
1.731106e-02
1.724263e-02
1.716741e-02
1.708663e-02
1.700162e-02
1.691375e-02
1.682449e-02
1.673536e-02
1.664792e-02
1.656373e-02
1.648439e-02
1.641145e-02
1.634643e-02
1.629080e-02
1.624596e-02
1.621327e-02
1.619409e-02
1.618981e-02
1.618912e-02
7.387124e-03
7.380966e-03
7.138935e-03
6.849898e-03
6.618821e-03
6.499689e-03
6.488995e-03
6.538592e-03
6.587118e-03
6.591132e-03
6.540756e-03
6.455438e-03
6.366518e-03
6.298548e-03
6.259326e-03
6.241721e-03
6.233385e-03
6.227055e-03
6.225388e-03
6.238566e-03
6.277296e-03
6.345971e-03
6.439913e-03
6.547807e-03
6.657509e-03
6.761806e-03
6.861329e-03
6.963527e-03
7.078717e-03
7.215424e-03
7.377194e-03
7.561986e-03
7.763897e-03
7.976040e-03
8.193159e-03
8.413020e-03
8.636340e-03
8.865654e-03
9.103845e-03
9.352947e-03
9.613568e-03
9.884935e-03
1.016534e-02
1.045271e-02
1.074505e-02
1.104075e-02
1.133860e-02
1.163778e-02
1.193766e-02
1.223774e-02
1.253730e-02
1.283546e-02
1.313156e-02
1.342481e-02
1.371435e-02
1.399917e-02
1.427819e-02
1.455025e-02
1.481417e-02
1.506879e-02
1.531307e-02
1.554615e-02
1.576733e-02
1.597605e-02
1.617191e-02
1.635453e-02
1.652354e-02
1.667858e-02
1.681926e-02
1.694521e-02
1.705613e-02
1.715179e-02
1.723212e-02
1.729720e-02
1.734728e-02
1.738273e-02
1.740406e-02
1.741185e-02
1.740677e-02
1.738953e-02
1.736091e-02
1.732170e-02
1.727278e-02
1.721510e-02
1.714967e-02
1.707760e-02
1.700009e-02
1.691840e-02
1.683387e-02
1.674788e-02
1.666183e-02
1.657715e-02
1.649527e-02
1.641760e-02
1.634553e-02
1.628039e-02
1.622348e-02
1.617599e-02
1.613909e-02
1.611386e-02
1.610133e-02
1.610061e-02
7.459317e-03
7.381040e-03
7.088508e-03
6.830175e-03
6.681233e-03
6.645028e-03
6.678046e-03
6.719611e-03
6.723513e-03
6.675498e-03
6.591048e-03
6.499155e-03
6.423862e-03
6.373781e-03
6.343211e-03
6.321287e-03
6.301951e-03
6.288608e-03
6.291619e-03
6.321280e-03
6.381120e-03
6.465455e-03
6.562223e-03
6.659077e-03
6.749250e-03
6.834182e-03
6.922094e-03
7.023693e-03
7.147392e-03
7.296269e-03
7.467759e-03
7.655677e-03
7.853217e-03
8.055503e-03
8.260770e-03
8.470091e-03
8.686131e-03
8.911694e-03
9.148626e-03
9.397367e-03
9.657077e-03
9.926096e-03
1.020247e-02
1.048438e-02
1.077032e-02
1.105919e-02
1.135020e-02
1.164281e-02
1.193655e-02
1.223099e-02
1.252537e-02
1.281874e-02
1.311035e-02
1.339932e-02
1.368464e-02
1.396517e-02
1.423969e-02
1.450699e-02
1.476590e-02
1.501542e-02
1.525468e-02
1.548301e-02
1.569985e-02
1.590476e-02
1.609729e-02
1.627698e-02
1.644335e-02
1.659589e-02
1.673415e-02
1.685771e-02
1.696631e-02
1.705982e-02
1.713825e-02
1.720179e-02
1.725077e-02
1.728562e-02
1.730684e-02
1.731498e-02
1.731063e-02
1.729444e-02
1.726710e-02
1.722936e-02
1.718206e-02
1.712613e-02
1.706258e-02
1.699251e-02
1.691708e-02
1.683753e-02
1.675511e-02
1.667111e-02
1.658684e-02
1.650359e-02
1.642266e-02
1.634531e-02
1.627277e-02
1.620623e-02
1.614679e-02
1.609550e-02
1.605329e-02
1.602099e-02
1.599928e-02
1.599853e-02
7.438103e-03
7.324757e-03
7.058281e-03
6.882053e-03
6.819051e-03
6.830027e-03
6.856590e-03
6.852359e-03
6.801085e-03
6.715482e-03
6.621919e-03
6.542524e-03
6.484969e-03
6.443642e-03
6.408675e-03
6.375561e-03
6.349257e-03
6.341090e-03
6.361360e-03
6.412684e-03
6.488029e-03
6.574219e-03
6.658558e-03
6.734775e-03
6.805389e-03
6.879638e-03
6.968687e-03
7.080691e-03
7.217970e-03
7.377152e-03
7.551613e-03
7.734664e-03
7.921993e-03
8.112549e-03
8.307956e-03
8.511089e-03
8.724626e-03
8.950096e-03
9.187620e-03
9.436171e-03
9.694084e-03
9.959547e-03
1.023094e-02
1.050696e-02
1.078666e-02
1.106937e-02
1.135458e-02
1.164189e-02
1.193092e-02
1.222121e-02
1.251194e-02
1.280194e-02
1.309033e-02
1.337604e-02
1.365789e-02
1.393462e-02
1.420501e-02
1.446790e-02
1.472230e-02
1.496741e-02
1.520258e-02
1.542725e-02
1.564092e-02
1.584306e-02
1.603311e-02
1.621044e-02
1.637445e-02
1.652458e-02
1.666034e-02
1.678143e-02
1.688766e-02
1.697902e-02
1.705565e-02
1.711779e-02
1.716579e-02
1.720008e-02
1.722108e-02
1.722928e-02
1.722519e-02
1.720938e-02
1.718252e-02
1.714536e-02
1.709874e-02
1.704359e-02
1.698094e-02
1.691188e-02
1.683752e-02
1.675905e-02
1.667763e-02
1.659448e-02
1.651079e-02
1.642774e-02
1.634652e-02
1.626826e-02
1.619408e-02
1.612500e-02
1.606201e-02
1.600596e-02
1.595760e-02
1.591755e-02
1.588621e-02
1.588544e-02
7.381355e-03
7.277978e-03
7.087973e-03
7.001141e-03
6.990381e-03
6.998965e-03
6.981192e-03
6.920672e-03
6.829337e-03
6.732211e-03
6.649626e-03
6.587373e-03
6.538491e-03
6.492839e-03
6.446856e-03
6.407211e-03
6.386856e-03
6.396835e-03
6.439314e-03
6.505962e-03
6.582231e-03
6.654733e-03
6.717518e-03
6.774143e-03
6.835052e-03
6.912072e-03
7.013183e-03
7.139878e-03
7.287796e-03
7.449673e-03
7.618809e-03
7.791447e-03
7.967348e-03
8.148835e-03
8.339129e-03
8.540858e-03
8.755236e-03
8.982002e-03
9.219852e-03
9.467030e-03
9.721807e-03
9.982750e-03
1.024879e-02
1.051917e-02
1.079335e-02
1.107096e-02
1.135166e-02
1.163512e-02
1.192094e-02
1.220860e-02
1.249705e-02
1.278486e-02
1.307090e-02
1.335395e-02
1.363272e-02
1.390596e-02
1.417257e-02
1.443162e-02
1.468236e-02
1.492416e-02
1.515646e-02
1.537871e-02
1.559027e-02
1.579046e-02
1.597852e-02
1.615374e-02
1.631546e-02
1.646315e-02
1.659646e-02
1.671517e-02
1.681925e-02
1.690877e-02
1.698392e-02
1.704492e-02
1.709208e-02
1.712576e-02
1.714631e-02
1.715412e-02
1.714968e-02
1.713355e-02
1.710641e-02
1.706902e-02
1.702227e-02
1.696711e-02
1.690454e-02
1.683562e-02
1.676143e-02
1.668306e-02
1.660162e-02
1.651823e-02
1.643400e-02
1.635002e-02
1.626738e-02
1.618713e-02
1.611026e-02
1.603770e-02
1.597027e-02
1.590872e-02
1.585363e-02
1.580542e-02
1.576431e-02
1.576352e-02
7.350746e-03
7.290945e-03
7.185191e-03
7.155485e-03
7.146984e-03
7.113784e-03
7.039722e-03
6.937404e-03
6.832337e-03
6.744418e-03
6.677897e-03
6.623743e-03
6.570247e-03
6.513573e-03
6.461469e-03
6.428612e-03
6.427392e-03
6.460228e-03
6.517940e-03
6.584663e-03
6.646075e-03
6.696207e-03
6.739459e-03
6.787393e-03
6.852655e-03
6.943243e-03
7.059943e-03
7.197397e-03
7.347590e-03
7.503646e-03
7.662228e-03
7.823849e-03
7.991561e-03
8.169027e-03
8.358940e-03
8.562294e-03
8.778490e-03
9.005933e-03
9.242713e-03
9.487105e-03
9.737798e-03
9.993905e-03
1.025487e-02
1.052035e-02
1.079011e-02
1.106393e-02
1.134159e-02
1.162274e-02
1.190685e-02
1.219318e-02
1.248041e-02
1.276675e-02
1.305089e-02
1.333152e-02
1.360744e-02
1.387759e-02
1.414112e-02
1.439734e-02
1.464566e-02
1.488550e-02
1.511623e-02
1.533710e-02
1.554729e-02
1.574593e-02
1.593221e-02
1.610539e-02
1.626489e-02
1.641033e-02
1.654148e-02
1.665825e-02
1.676066e-02
1.684882e-02
1.692286e-02
1.698293e-02
1.702926e-02
1.706211e-02
1.708180e-02
1.708869e-02
1.708328e-02
1.706618e-02
1.703810e-02
1.699985e-02
1.695234e-02
1.689649e-02
1.683328e-02
1.676372e-02
1.668883e-02
1.660963e-02
1.652718e-02
1.644253e-02
1.635671e-02
1.627077e-02
1.618572e-02
1.610252e-02
1.602207e-02
1.594520e-02
1.587264e-02
1.580500e-02
1.574275e-02
1.568618e-02
1.563537e-02
1.563458e-02
7.385021e-03
7.379581e-03
7.327547e-03
7.303953e-03
7.255802e-03
7.166120e-03
7.048377e-03
6.929897e-03
6.831917e-03
6.758492e-03
6.698873e-03
6.639116e-03
6.573896e-03
6.510925e-03
6.466057e-03
6.453157e-03
6.475461e-03
6.523556e-03
6.580619e-03
6.631391e-03
6.669618e-03
6.700225e-03
6.735724e-03
6.789483e-03
6.869693e-03
6.976624e-03
7.104058e-03
7.243243e-03
7.387043e-03
7.532380e-03
7.680368e-03
7.834701e-03
7.999482e-03
8.177550e-03
8.369798e-03
8.575400e-03
8.792527e-03
9.019115e-03
9.253383e-03
9.494061e-03
9.740376e-03
9.991934e-03
1.024857e-02
1.051025e-02
1.077693e-02
1.104850e-02
1.132470e-02
1.160500e-02
1.188864e-02
1.217454e-02
1.246108e-02
1.274619e-02
1.302855e-02
1.330698e-02
1.358052e-02
1.384841e-02
1.411004e-02
1.436483e-02
1.461218e-02
1.485134e-02
1.508147e-02
1.530161e-02
1.551077e-02
1.570804e-02
1.589265e-02
1.606398e-02
1.622162e-02
1.636532e-02
1.649493e-02
1.661041e-02
1.671177e-02
1.679901e-02
1.687218e-02
1.693134e-02
1.697662e-02
1.700829e-02
1.702664e-02
1.703211e-02
1.702523e-02
1.700667e-02
1.697718e-02
1.693759e-02
1.688877e-02
1.683163e-02
1.676710e-02
1.669612e-02
1.661968e-02
1.653875e-02
1.645435e-02
1.636747e-02
1.627913e-02
1.619030e-02
1.610195e-02
1.601495e-02
1.593016e-02
1.584830e-02
1.577003e-02
1.569586e-02
1.562618e-02
1.556119e-02
1.550087e-02
1.550007e-02
7.487441e-03
7.524625e-03
7.477374e-03
7.415126e-03
7.309273e-03
7.173122e-03
7.036061e-03
6.922006e-03
6.836495e-03
6.768251e-03
6.701319e-03
6.628218e-03
6.555541e-03
6.499409e-03
6.474770e-03
6.485849e-03
6.523473e-03
6.570319e-03
6.610401e-03
6.637111e-03
6.655643e-03
6.679196e-03
6.721773e-03
6.791680e-03
6.888857e-03
7.006403e-03
7.134945e-03
7.267090e-03
7.399930e-03
7.535025e-03
7.676563e-03
7.829002e-03
7.995328e-03
8.176409e-03
8.371306e-03
8.578060e-03
8.794500e-03
9.018783e-03
9.249625e-03
9.486294e-03
9.728497e-03
9.976233e-03
1.022965e-02
1.048892e-02
1.075411e-02
1.102505e-02
1.130124e-02
1.158184e-02
1.186570e-02
1.215148e-02
1.243739e-02
1.272128e-02
1.300206e-02
1.327886e-02
1.355103e-02
1.381802e-02
1.407929e-02
1.433414e-02
1.458175e-02
1.482112e-02
1.505118e-02
1.527084e-02
1.547913e-02
1.567524e-02
1.585854e-02
1.602858e-02
1.618508e-02
1.632783e-02
1.645671e-02
1.657159e-02
1.667237e-02
1.675894e-02
1.683126e-02
1.688933e-02
1.693325e-02
1.696336e-02
1.698001e-02
1.698369e-02
1.697501e-02
1.695467e-02
1.692342e-02
1.688206e-02
1.683143e-02
1.677239e-02
1.670583e-02
1.663267e-02
1.655384e-02
1.647033e-02
1.638311e-02
1.629315e-02
1.620144e-02
1.610891e-02
1.601647e-02
1.592495e-02
1.583514e-02
1.574771e-02
1.566324e-02
1.558221e-02
1.550492e-02
1.543152e-02
1.536196e-02
1.536115e-02
7.630604e-03
7.685934e-03
7.600134e-03
7.477865e-03
7.321668e-03
7.162143e-03
7.026276e-03
6.922391e-03
6.840149e-03
6.762502e-03
6.679887e-03
6.597175e-03
6.529898e-03
6.493444e-03
6.492789e-03
6.519146e-03
6.555006e-03
6.583913e-03
6.598978e-03
6.605569e-03
6.617395e-03
6.648935e-03
6.708605e-03
6.795949e-03
6.903551e-03
7.021546e-03
7.142349e-03
7.263208e-03
7.386039e-03
7.515391e-03
7.655956e-03
7.810805e-03
7.980788e-03
8.164917e-03
8.361194e-03
8.567416e-03
8.781714e-03
9.002778e-03
9.229874e-03
9.462760e-03
9.701557e-03
9.946597e-03
1.019826e-02
1.045679e-02
1.072213e-02
1.099384e-02
1.127100e-02
1.155238e-02
1.183653e-02
1.212203e-02
1.240723e-02
1.269016e-02
1.297008e-02
1.324645e-02
1.351878e-02
1.378652e-02
1.404890e-02
1.430496e-02
1.455357e-02
1.479356e-02
1.502376e-02
1.524315e-02
1.545091e-02
1.564640e-02
1.582915e-02
1.599882e-02
1.615514e-02
1.629785e-02
1.642672e-02
1.654148e-02
1.664192e-02
1.672784e-02
1.679916e-02
1.685590e-02
1.689821e-02
1.692653e-02
1.694128e-02
1.694301e-02
1.693235e-02
1.690998e-02
1.687664e-02
1.683308e-02
1.678010e-02
1.671853e-02
1.664925e-02
1.657315e-02
1.649119e-02
1.640431e-02
1.631349e-02
1.621969e-02
1.612386e-02
1.602689e-02
1.592966e-02
1.583297e-02
1.573755e-02
1.564403e-02
1.555297e-02
1.546478e-02
1.537975e-02
1.529801e-02
1.521951e-02
1.521868e-02
7.773493e-03
7.822889e-03
7.677459e-03
7.500199e-03
7.315872e-03
7.153941e-03
7.026004e-03
6.923781e-03
6.830265e-03
6.734444e-03
6.639471e-03
6.559863e-03
6.510891e-03
6.497882e-03
6.512275e-03
6.536405e-03
6.553454e-03
6.556339e-03
6.550617e-03
6.550467e-03
6.570786e-03
6.620050e-03
6.697459e-03
6.794975e-03
6.902361e-03
7.011900e-03
7.121021e-03
7.231976e-03
7.349607e-03
7.478751e-03
7.622473e-03
7.781561e-03
7.954977e-03
8.140722e-03
8.336623e-03
8.540832e-03
8.752042e-03
8.969518e-03
9.193050e-03
9.422850e-03
9.659406e-03
9.903287e-03
1.015492e-02
1.041436e-02
1.068118e-02
1.095445e-02
1.123281e-02
1.151477e-02
1.179888e-02
1.208397e-02
1.236880e-02
1.265167e-02
1.293213e-02
1.320976e-02
1.348394e-02
1.375383e-02
1.401834e-02
1.427620e-02
1.452613e-02
1.476693e-02
1.499755e-02
1.521716e-02
1.542514e-02
1.562099e-02
1.580429e-02
1.597468e-02
1.613178e-02
1.627519e-02
1.640451e-02
1.651938e-02
1.661950e-02
1.670467e-02
1.677485e-02
1.683013e-02
1.687077e-02
1.689725e-02
1.691008e-02
1.690981e-02
1.689703e-02
1.687240e-02
1.683661e-02
1.679038e-02
1.673449e-02
1.666977e-02
1.659710e-02
1.651740e-02
1.643161e-02
1.634068e-02
1.624558e-02
1.614725e-02
1.604661e-02
1.594455e-02
1.584190e-02
1.573943e-02
1.563786e-02
1.553779e-02
1.543975e-02
1.534415e-02
1.525128e-02
1.516127e-02
1.507410e-02
1.507325e-02
7.880927e-03
7.910618e-03
7.709918e-03
7.499423e-03
7.308954e-03
7.153038e-03
7.025889e-03
6.911346e-03
6.797708e-03
6.686841e-03
6.592308e-03
6.529096e-03
6.502611e-03
6.504263e-03
6.516030e-03
6.520600e-03
6.510633e-03
6.491880e-03
6.479050e-03
6.487527e-03
6.525905e-03
6.593046e-03
6.680338e-03
6.776992e-03
6.875220e-03
6.972639e-03
7.071851e-03
7.177992e-03
7.296010e-03
7.428913e-03
7.577361e-03
7.740220e-03
7.915472e-03
8.100985e-03
8.294968e-03
8.496158e-03
8.703850e-03
8.917883e-03
9.138556e-03
9.366495e-03
9.602434e-03
9.846943e-03
1.010018e-02
1.036172e-02
1.063059e-02
1.090536e-02
1.118448e-02
1.146654e-02
1.175046e-02
1.203558e-02
1.232115e-02
1.260555e-02
1.288836e-02
1.316892e-02
1.344627e-02
1.371917e-02
1.398624e-02
1.424612e-02
1.449757e-02
1.473957e-02
1.497130e-02
1.519212e-02
1.540149e-02
1.559894e-02
1.578397e-02
1.595605e-02
1.611463e-02
1.625917e-02
1.638916e-02
1.650419e-02
1.660397e-02
1.668838e-02
1.675745e-02
1.681137e-02
1.685047e-02
1.687525e-02
1.688621e-02
1.688388e-02
1.686882e-02
1.684163e-02
1.680298e-02
1.675360e-02
1.669427e-02
1.662584e-02
1.654921e-02
1.646531e-02
1.637508e-02
1.627949e-02
1.617948e-02
1.607599e-02
1.596992e-02
1.586214e-02
1.575346e-02
1.564466e-02
1.553641e-02
1.542934e-02
1.532398e-02
1.522074e-02
1.511992e-02
1.502171e-02
1.492610e-02
1.492524e-02
7.936201e-03
7.945570e-03
7.710399e-03
7.490022e-03
7.303987e-03
7.148806e-03
7.009401e-03
6.873814e-03
6.743077e-03
6.630170e-03
6.550021e-03
6.508192e-03
6.495969e-03
6.494733e-03
6.486365e-03
6.462993e-03
6.430434e-03
6.403960e-03
6.399607e-03
6.426263e-03
6.482559e-03
6.559307e-03
6.645150e-03
6.731985e-03
6.817638e-03
6.905057e-03
6.999708e-03
7.106678e-03
7.228920e-03
7.366926e-03
7.519408e-03
7.684271e-03
7.859391e-03
8.043035e-03
8.234007e-03
8.431679e-03
8.635973e-03
8.847302e-03
9.066428e-03
9.294225e-03
9.531377e-03
9.778096e-03
1.003395e-02
1.029790e-02
1.056845e-02
1.084405e-02
1.112333e-02
1.140538e-02
1.168971e-02
1.197615e-02
1.226424e-02
1.255205e-02
1.283883e-02
1.312349e-02
1.340465e-02
1.368084e-02
1.395063e-02
1.421280e-02
1.446632e-02
1.471041e-02
1.494443e-02
1.516779e-02
1.537992e-02
1.558018e-02
1.576788e-02
1.594233e-02
1.610281e-02
1.624870e-02
1.637946e-02
1.649473e-02
1.659430e-02
1.667815e-02
1.674639e-02
1.679925e-02
1.683705e-02
1.686029e-02
1.686943e-02
1.686495e-02
1.684737e-02
1.681729e-02
1.677539e-02
1.672241e-02
1.665918e-02
1.658656e-02
1.650547e-02
1.641685e-02
1.632166e-02
1.622084e-02
1.611534e-02
1.600609e-02
1.589398e-02
1.577987e-02
1.566458e-02
1.554888e-02
1.543346e-02
1.531895e-02
1.520591e-02
1.509478e-02
1.498591e-02
1.487951e-02
1.477565e-02
1.477479e-02
7.942548e-03
7.940123e-03
7.693308e-03
7.475956e-03
7.291150e-03
7.124703e-03
6.964371e-03
6.810483e-03
6.675735e-03
6.575424e-03
6.515678e-03
6.487881e-03
6.472749e-03
6.451028e-03
6.413896e-03
6.366915e-03
6.325839e-03
6.307497e-03
6.321326e-03
6.365941e-03
6.431651e-03
6.506473e-03
6.581900e-03
6.655699e-03
6.731196e-03
6.814200e-03
6.910004e-03
7.021550e-03
7.149171e-03
7.291386e-03
7.445963e-03
7.610724e-03
7.783956e-03
7.964534e-03
8.151932e-03
8.346199e-03
8.547896e-03
8.757938e-03
8.977330e-03
9.206843e-03
9.446705e-03
9.696444e-03
9.954933e-03
1.022064e-02
1.049199e-02
1.076774e-02
1.104714e-02
1.132995e-02
1.161618e-02
1.190582e-02
1.219832e-02
1.249106e-02
1.278278e-02
1.307198e-02
1.335711e-02
1.363671e-02
1.390958e-02
1.417474e-02
1.443143e-02
1.467899e-02
1.491678e-02
1.514410e-02
1.536018e-02
1.556416e-02
1.575518e-02
1.593238e-02
1.609500e-02
1.624241e-02
1.637417e-02
1.648998e-02
1.658974e-02
1.667348e-02
1.674134e-02
1.679353e-02
1.683031e-02
1.685212e-02
1.685941e-02
1.685262e-02
1.683227e-02
1.679900e-02
1.675351e-02
1.669658e-02
1.662906e-02
1.655185e-02
1.646587e-02
1.637207e-02
1.627141e-02
1.616483e-02
1.605327e-02
1.593766e-02
1.581890e-02
1.569787e-02
1.557538e-02
1.545222e-02
1.532913e-02
1.520675e-02
1.508567e-02
1.496640e-02
1.484932e-02
1.473472e-02
1.462273e-02
1.462188e-02
7.915120e-03
7.911180e-03
7.665864e-03
7.450433e-03
7.255836e-03
7.069245e-03
6.890032e-03
6.730601e-03
6.606935e-03
6.526270e-03
6.480596e-03
6.450182e-03
6.414478e-03
6.363282e-03
6.301453e-03
6.244980e-03
6.211522e-03
6.211308e-03
6.243213e-03
6.297206e-03
6.360666e-03
6.424567e-03
6.486496e-03
6.549913e-03
6.621042e-03
6.705431e-03
6.806080e-03
6.923209e-03
7.055141e-03
7.199461e-03
7.353878e-03
7.516649e-03
7.686693e-03
7.863590e-03
8.047543e-03
8.239291e-03
8.439924e-03
8.650582e-03
8.872104e-03
9.104711e-03
9.347862e-03
9.600335e-03
9.860536e-03
1.012692e-02
1.039836e-02
1.067433e-02
1.095482e-02
1.124006e-02
1.153016e-02
1.182482e-02
1.212307e-02
1.242146e-02
1.271836e-02
1.301214e-02
1.330136e-02
1.358484e-02
1.386167e-02
1.413112e-02
1.439251e-02
1.464511e-02
1.488810e-02
1.512055e-02
1.534144e-02
1.554974e-02
1.574445e-02
1.592470e-02
1.608975e-02
1.623908e-02
1.637232e-02
1.648926e-02
1.658984e-02
1.667408e-02
1.674207e-02
1.679394e-02
1.682990e-02
1.685032e-02
1.685567e-02
1.684642e-02
1.682312e-02
1.678643e-02
1.673710e-02
1.667595e-02
1.660384e-02
1.652169e-02
1.643043e-02
1.633101e-02
1.622438e-02
1.611149e-02
1.599330e-02
1.587074e-02
1.574474e-02
1.561617e-02
1.548590e-02
1.535475e-02
1.522348e-02
1.509279e-02
1.496332e-02
1.483562e-02
1.471015e-02
1.458725e-02
1.446716e-02
1.446632e-02
7.869361e-03
7.869620e-03
7.625488e-03
7.401884e-03
7.188176e-03
6.982344e-03
6.796163e-03
6.646341e-03
6.541658e-03
6.475332e-03
6.427650e-03
6.376854e-03
6.311066e-03
6.233976e-03
6.161445e-03
6.111865e-03
6.096410e-03
6.114485e-03
6.155928e-03
6.207535e-03
6.259669e-03
6.309608e-03
6.360842e-03
6.419834e-03
6.492489e-03
6.581933e-03
6.688327e-03
6.809819e-03
6.943796e-03
7.087814e-03
7.240054e-03
7.399442e-03
7.565651e-03
7.739037e-03
7.920532e-03
8.111410e-03
8.312957e-03
8.526075e-03
8.750966e-03
8.987005e-03
9.232868e-03
9.486900e-03
9.747585e-03
1.001394e-02
1.028566e-02
1.056300e-02
1.084639e-02
1.113607e-02
1.143175e-02
1.173251e-02
1.203697e-02
1.234106e-02
1.264307e-02
1.294157e-02
1.323547e-02
1.352390e-02
1.380617e-02
1.408156e-02
1.434926e-02
1.460831e-02
1.485761e-02
1.509599e-02
1.532224e-02
1.553525e-02
1.573402e-02
1.591776e-02
1.608581e-02
1.623775e-02
1.637325e-02
1.649214e-02
1.659429e-02
1.667964e-02
1.674820e-02
1.680002e-02
1.683529e-02
1.685434e-02
1.685772e-02
1.684593e-02
1.681956e-02
1.677933e-02
1.672601e-02
1.666043e-02
1.658349e-02
1.649608e-02
1.639915e-02
1.629365e-02
1.618055e-02
1.606082e-02
1.593542e-02
1.580531e-02
1.567145e-02
1.553477e-02
1.539616e-02
1.525648e-02
1.511654e-02
1.497710e-02
1.483885e-02
1.470239e-02
1.456827e-02
1.443691e-02
1.430865e-02
1.430783e-02
7.812286e-03
7.815696e-03
7.563413e-03
7.321798e-03
7.088471e-03
6.874071e-03