# vtk DataFile Version 3.0
Scalar Field
ASCII
DATASET RECTILINEAR_GRID
DIMENSIONS 102 102 1
X_COORDINATES 102 double
0.000000 0.100000 0.200000 0.300000 0.400000 0.500000 0.600000 0.700000 0.800000 0.900000 1.000000 1.100000 1.200000 1.300000 1.400000 1.500000 1.600000 1.700000 1.800000 1.900000 2.000000 2.100000 2.200000 2.300000 2.400000 2.500000 2.600000 2.700000 2.800000 2.900000 3.000000 3.100000 3.200000 3.300000 3.400000 3.500000 3.600000 3.700000 3.800000 3.900000 4.000000 4.100000 4.200000 4.300000 4.400000 4.500000 4.600000 4.700000 4.800000 4.900000 5.000000 5.100000 5.200000 5.300000 5.400000 5.500000 5.600000 5.700000 5.800000 5.900000 6.000000 6.100000 6.200000 6.300000 6.400000 6.500000 6.600000 6.700000 6.800000 6.900000 7.000000 7.100000 7.200000 7.300000 7.400000 7.500000 7.600000 7.700000 7.800000 7.900000 8.000000 8.100000 8.200000 8.300000 8.400000 8.500000 8.600000 8.700000 8.800000 8.900000 9.000000 9.100000 9.200000 9.300000 9.400000 9.500000 9.600000 9.700000 9.800000 9.900000 10.000000 10.100000 
Y_COORDINATES 102 double
0.000000 0.100000 0.200000 0.300000 0.400000 0.500000 0.600000 0.700000 0.800000 0.900000 1.000000 1.100000 1.200000 1.300000 1.400000 1.500000 1.600000 1.700000 1.800000 1.900000 2.000000 2.100000 2.200000 2.300000 2.400000 2.500000 2.600000 2.700000 2.800000 2.900000 3.000000 3.100000 3.200000 3.300000 3.400000 3.500000 3.600000 3.700000 3.800000 3.900000 4.000000 4.100000 4.200000 4.300000 4.400000 4.500000 4.600000 4.700000 4.800000 4.900000 5.000000 5.100000 5.200000 5.300000 5.400000 5.500000 5.600000 5.700000 5.800000 5.900000 6.000000 6.100000 6.200000 6.300000 6.400000 6.500000 6.600000 6.700000 6.800000 6.900000 7.000000 7.100000 7.200000 7.300000 7.400000 7.500000 7.600000 7.700000 7.800000 7.900000 8.000000 8.100000 8.200000 8.300000 8.400000 8.500000 8.600000 8.700000 8.800000 8.900000 9.000000 9.100000 9.200000 9.300000 9.400000 9.500000 9.600000 9.700000 9.800000 9.900000 10.000000 10.100000 
Z_COORDINATES 1 double
0.0
POINT_DATA 10404
SCALARS Pressure double 1
LOOKUP_TABLE default
0.000000e+00
-2.943376e-03
-2.959886e-03
-2.837520e-03
-2.682165e-03
-2.578109e-03
-2.573118e-03
-2.668052e-03
-2.827104e-03
-2.999967e-03
-3.144073e-03
-3.237932e-03
-3.282550e-03
-3.293602e-03
-3.290125e-03
-3.285275e-03
-3.282284e-03
-3.275712e-03
-3.255917e-03
-3.214016e-03
-3.145262e-03
-3.050043e-03
-2.932857e-03
-2.800248e-03
-2.658670e-03
-2.512929e-03
-2.365406e-03
-2.215972e-03
-2.062405e-03
-1.901119e-03
-1.728042e-03
-1.539500e-03
-1.332961e-03
-1.107493e-03
-8.638508e-04
-6.041980e-04
-3.315825e-04
-4.931244e-05
2.396011e-04
5.328369e-04
8.289609e-04
1.127455e-03
1.428622e-03
1.733396e-03
2.043093e-03
2.359093e-03
2.682496e-03
3.013800e-03
3.352667e-03
3.697854e-03
4.047341e-03
4.398647e-03
4.749255e-03
5.097036e-03
5.440606e-03
5.779449e-03
6.113830e-03
6.444532e-03
6.772487e-03
7.098405e-03
7.422480e-03
7.744247e-03
8.062605e-03
8.375966e-03
8.682500e-03
8.980394e-03
9.268075e-03
9.544356e-03
9.808479e-03
1.006008e-02
1.029909e-02
1.052556e-02
1.073955e-02
1.094102e-02
1.112973e-02
1.130522e-02
1.146690e-02
1.161404e-02
1.174591e-02
1.186181e-02
1.196119e-02
1.204370e-02
1.210916e-02
1.215761e-02
1.218928e-02
1.220459e-02
1.220407e-02
1.218844e-02
1.215855e-02
1.211541e-02
1.206026e-02
1.199462e-02
1.192035e-02
1.183974e-02
1.175563e-02
1.167153e-02
1.159176e-02
1.152153e-02
1.146682e-02
1.143368e-02
1.142571e-02
0.000000e+00
-2.943376e-03
-3.048067e-03
-2.919635e-03
-2.707171e-03
-2.536288e-03
-2.477007e-03
-2.543617e-03
-2.702294e-03
-2.895207e-03
-3.067876e-03
-3.188077e-03
-3.250913e-03
-3.271744e-03
-3.273207e-03
-3.273235e-03
-3.278622e-03
-3.285099e-03
-3.281971e-03
-3.258108e-03
-3.206534e-03
-3.126281e-03
-3.021646e-03
-2.899891e-03
-2.768627e-03
-2.633771e-03
-2.498433e-03
-2.362706e-03
-2.224111e-03
-2.078463e-03
-1.920922e-03
-1.747053e-03
-1.553729e-03
-1.339689e-03
-1.105672e-03
-8.541166e-04
-5.885413e-04
-3.127979e-04
-3.038880e-05
2.560191e-04
5.448381e-04
8.355871e-04
1.128761e-03
1.425591e-03
1.727737e-03
2.036915e-03
2.354505e-03
2.681182e-03
3.016661e-03
3.359612e-03
3.707814e-03
4.058512e-03
4.408916e-03
4.756693e-03
5.100345e-03
5.439398e-03
5.774296e-03
6.106092e-03
6.436013e-03
6.765011e-03
7.093429e-03
7.420820e-03
7.745979e-03
8.067127e-03
8.382203e-03
8.689179e-03
8.986324e-03
9.272376e-03
9.546589e-03
9.808682e-03
1.005870e-02
1.029682e-02
1.052322e-02
1.073791e-02
1.094062e-02
1.113088e-02
1.130795e-02
1.147099e-02
1.161911e-02
1.175149e-02
1.186746e-02
1.196655e-02
1.204852e-02
1.211334e-02
1.216119e-02
1.219239e-02
1.220741e-02
1.220681e-02
1.219128e-02
1.216163e-02
1.211882e-02
1.206405e-02
1.199876e-02
1.192480e-02
1.184443e-02
1.176049e-02
1.167651e-02
1.159681e-02
1.152661e-02
1.147192e-02
1.143880e-02
1.143084e-02
1.142571e-02
-2.941815e-03
-2.901501e-03
-2.690884e-03
-2.517978e-03
-2.458063e-03
-2.515696e-03
-2.654109e-03
-2.818792e-03
-2.962201e-03
-3.059128e-03
-3.108984e-03
-3.127658e-03
-3.135194e-03
-3.145536e-03
-3.161918e-03
-3.178113e-03
-3.183300e-03
-3.167498e-03
-3.125264e-03
-3.056758e-03
-2.966587e-03
-2.861522e-03
-2.748174e-03
-2.631326e-03
-2.513130e-03
-2.393067e-03
-2.268437e-03
-2.135193e-03
-1.988916e-03
-1.825789e-03
-1.643369e-03
-1.441026e-03
-1.219945e-03
-9.827292e-04
-7.327556e-04
-4.734734e-04
-2.078207e-04
6.213977e-05
3.353542e-04
6.117309e-04
8.919725e-04
1.177332e-03
1.469314e-03
1.769326e-03
2.078333e-03
2.396550e-03
2.723270e-03
3.056883e-03
3.395100e-03
3.735355e-03
4.075278e-03
4.413112e-03
4.747964e-03
5.079808e-03
5.409342e-03
5.737599e-03
6.065534e-03
6.393655e-03
6.721797e-03
7.049068e-03
7.373972e-03
7.694649e-03
8.009168e-03
8.315797e-03
8.613196e-03
8.900494e-03
9.177269e-03
9.443435e-03
9.699082e-03
9.944313e-03
1.017910e-02
1.040320e-02
1.061613e-02
1.081718e-02
1.100552e-02
1.118024e-02
1.134050e-02
1.148557e-02
1.161490e-02
1.172816e-02
1.182521e-02
1.190606e-02
1.197091e-02
1.202002e-02
1.205377e-02
1.207257e-02
1.207695e-02
1.206749e-02
1.204494e-02
1.201023e-02
1.196448e-02
1.190916e-02
1.184603e-02
1.177728e-02
1.170557e-02
1.163408e-02
1.156655e-02
1.150725e-02
1.146085e-02
1.143195e-02
1.142463e-02
1.141968e-02
-2.749944e-03
-2.619883e-03
-2.458083e-03
-2.412876e-03
-2.486199e-03
-2.628231e-03
-2.780152e-03
-2.898398e-03
-2.966574e-03
-2.993116e-03
-2.999500e-03
-3.006530e-03
-3.024992e-03
-3.053293e-03
-3.081054e-03
-3.095395e-03
-3.086559e-03
-3.050823e-03
-2.990398e-03
-2.911313e-03
-2.820673e-03
-2.724406e-03
-2.625997e-03
-2.526148e-03
-2.423121e-03
-2.313441e-03
-2.192810e-03
-2.057061e-03
-1.903045e-03
-1.729259e-03
-1.536085e-03
-1.325570e-03
-1.100843e-03
-8.653657e-04
-6.222383e-04
-3.737239e-04
-1.210551e-04
1.355266e-04
3.965873e-04
6.632524e-04
9.369308e-04
1.219015e-03
1.510562e-03
1.811996e-03
2.122886e-03
2.441892e-03
2.766923e-03
3.095486e-03
3.425164e-03
3.754073e-03
4.081188e-03
4.406425e-03
4.730478e-03
5.054405e-03
5.379282e-03
5.705745e-03
6.033717e-03
6.362338e-03
6.690083e-03
7.015022e-03
7.335148e-03
7.648676e-03
7.954259e-03
8.251075e-03
8.538788e-03
8.817412e-03
9.087124e-03
9.348071e-03
9.600222e-03
9.843275e-03
1.007664e-02
1.029950e-02
1.051087e-02
1.070975e-02
1.089520e-02
1.106643e-02
1.122286e-02
1.136414e-02
1.149009e-02
1.160072e-02
1.169614e-02
1.177652e-02
1.184209e-02
1.189308e-02
1.192975e-02
1.195241e-02
1.196144e-02
1.195735e-02
1.194083e-02
1.191276e-02
1.187427e-02
1.182678e-02
1.177200e-02
1.171200e-02
1.164921e-02
1.158641e-02
1.152678e-02
1.147379e-02
1.143109e-02
1.140238e-02
1.139133e-02
1.138666e-02
-2.483937e-03
-2.339259e-03
-2.306303e-03
-2.401923e-03
-2.565409e-03
-2.726868e-03
-2.839371e-03
-2.890484e-03
-2.896658e-03
-2.887250e-03
-2.887667e-03
-2.909004e-03
-2.946701e-03
-2.986238e-03
-3.011429e-03
-3.011153e-03
-2.982256e-03
-2.928657e-03
-2.858191e-03
-2.779088e-03
-2.697401e-03
-2.615849e-03
-2.533860e-03
-2.448317e-03
-2.354614e-03
-2.247766e-03
-2.123464e-03
-1.978949e-03
-1.813527e-03
-1.628612e-03
-1.427265e-03
-1.213380e-03
-9.907652e-04
-7.624009e-04
-5.300315e-04
-2.941180e-04
-5.405577e-05
1.914830e-04
4.441863e-04
7.057608e-04
9.776069e-04
1.260511e-03
1.554387e-03
1.858152e-03
2.169790e-03
2.486667e-03
2.806019e-03
3.125512e-03
3.443702e-03
3.760268e-03
4.075933e-03
4.392100e-03
4.710319e-03
5.031667e-03
5.356490e-03
5.684152e-03
6.013111e-03
6.341211e-03
6.666087e-03
6.985578e-03
7.298041e-03
7.602509e-03
7.898672e-03
8.186718e-03
8.467084e-03
8.740189e-03
9.006218e-03
9.264982e-03
9.515890e-03
9.758002e-03
9.990155e-03
1.021112e-02
1.041973e-02
1.061504e-02
1.079635e-02
1.096325e-02
1.111555e-02
1.125328e-02
1.137656e-02
1.148558e-02
1.158049e-02
1.166142e-02
1.172849e-02
1.178176e-02
1.182134e-02
1.184742e-02
1.186031e-02
1.186048e-02
1.184860e-02
1.182558e-02
1.179255e-02
1.175091e-02
1.170229e-02
1.164859e-02
1.159197e-02
1.153482e-02
1.147973e-02
1.142947e-02
1.138687e-02
1.135470e-02
1.133565e-02
1.133130e-02
-2.242128e-03
-2.143384e-03
-2.249853e-03
-2.442285e-03
-2.630321e-03
-2.757985e-03
-2.810346e-03
-2.807580e-03
-2.786020e-03
-2.777685e-03
-2.797352e-03
-2.840560e-03
-2.890294e-03
-2.927092e-03
-2.937378e-03
-2.917168e-03
-2.871060e-03
-2.808381e-03
-2.738819e-03
-2.669245e-03
-2.602343e-03
-2.536759e-03
-2.468182e-03
-2.390764e-03
-2.298552e-03
-2.186746e-03
-2.052647e-03
-1.896123e-03
-1.719484e-03
-1.526783e-03
-1.322758e-03
-1.111724e-03
-8.967452e-04
-6.792438e-04
-4.590651e-04
-2.348438e-04
-4.500047e-06
2.342686e-04
4.835533e-04
7.448570e-04
1.018777e-03
1.304786e-03
1.601193e-03
1.905349e-03
2.214105e-03
2.524444e-03
2.834109e-03
3.142067e-03
3.448632e-03
3.755237e-03
4.063895e-03
4.376519e-03
4.694300e-03
5.017199e-03
5.344076e-03
5.672804e-03
6.000705e-03
6.325080e-03
6.643685e-03
6.955043e-03
7.258546e-03
7.554334e-03
7.843034e-03
8.125409e-03
8.402038e-03
8.673081e-03
8.938166e-03
9.196416e-03
9.446579e-03
9.687214e-03
9.916897e-03
1.013439e-02
1.033877e-02
1.052945e-02
1.070617e-02
1.086894e-02
1.101792e-02
1.115332e-02
1.127534e-02
1.138409e-02
1.147960e-02
1.156182e-02
1.163064e-02
1.168601e-02
1.172793e-02
1.175653e-02
1.177213e-02
1.177526e-02
1.176662e-02
1.174718e-02
1.171808e-02
1.168065e-02
1.163641e-02
1.158705e-02
1.153442e-02
1.148049e-02
1.142734e-02
1.137710e-02
1.133185e-02
1.129354e-02
1.126383e-02
1.125976e-02
-2.084852e-03
-2.058474e-03
-2.260466e-03
-2.481214e-03
-2.638218e-03
-2.709426e-03
-2.713280e-03
-2.689426e-03
-2.675680e-03
-2.692148e-03
-2.737267e-03
-2.794092e-03
-2.841282e-03
-2.862856e-03
-2.853101e-03
-2.816125e-03
-2.761868e-03
-2.701185e-03
-2.642031e-03
-2.587626e-03
-2.536464e-03
-2.483488e-03
-2.421793e-03
-2.344405e-03
-2.245818e-03
-2.123108e-03
-1.976417e-03
-1.808716e-03
-1.624897e-03
-1.430478e-03
-1.230317e-03
-1.027674e-03
-8.238205e-04
-6.181682e-04
-4.087469e-04
-1.928263e-04
3.247093e-05
2.696320e-04
5.203049e-04
7.849541e-04
1.062674e-03
1.351242e-03
1.647459e-03
1.947761e-03
2.248970e-03
2.548975e-03
2.847155e-03
3.144400e-03
3.442724e-03
3.744580e-03
4.052078e-03
4.366329e-03
4.687080e-03
5.012604e-03
5.340312e-03
5.667178e-03
5.990345e-03
6.307619e-03
6.617761e-03
6.920508e-03
7.216373e-03
7.506286e-03
7.791190e-03
8.071687e-03
8.347816e-03
8.618981e-03
8.884038e-03
9.141484e-03
9.389698e-03
9.627172e-03
9.852685e-03
1.006540e-02
1.026489e-02
1.045104e-02
1.062399e-02
1.078400e-02
1.093128e-02
1.106600e-02
1.118817e-02
1.129769e-02
1.139433e-02
1.147784e-02
1.154800e-02
1.160469e-02
1.164792e-02
1.167791e-02
1.169506e-02
1.169998e-02
1.169348e-02
1.167652e-02
1.165020e-02
1.161577e-02
1.157456e-02
1.152801e-02
1.147764e-02
1.142504e-02
1.137181e-02
1.131954e-02
1.126969e-02
1.122351e-02
1.118189e-02
1.117805e-02
-2.022594e-03
-2.059675e-03
-2.290544e-03
-2.480604e-03
-2.581089e-03
-2.605041e-03
-2.590988e-03
-2.579518e-03
-2.595332e-03
-2.641014e-03
-2.701893e-03
-2.756788e-03
-2.788449e-03
-2.789505e-03
-2.762880e-03
-2.718196e-03
-2.666761e-03
-2.617356e-03
-2.573932e-03
-2.535284e-03
-2.496121e-03
-2.448881e-03
-2.385744e-03
-2.300481e-03
-2.189782e-03
-2.053823e-03
-1.895978e-03
-1.721747e-03
-1.537265e-03
-1.347852e-03
-1.156977e-03
-9.658551e-04
-7.736137e-04
-5.778446e-04
-3.753164e-04
-1.626855e-04
6.286887e-05
3.031173e-04
5.584014e-04
8.274763e-04
1.107658e-03
1.395308e-03
1.686582e-03
1.978284e-03
2.268561e-03
2.557260e-03
2.845811e-03
3.136684e-03
3.432583e-03
3.735606e-03
4.046619e-03
4.364974e-03
4.688641e-03
5.014529e-03
5.339446e-03
5.660577e-03
5.975955e-03
6.284675e-03
6.586834e-03
6.883237e-03
7.174982e-03
7.463020e-03
7.747820e-03
8.029185e-03
8.306245e-03
8.577604e-03
8.841585e-03
9.096498e-03
9.340873e-03
9.573612e-03
9.794051e-03
1.000193e-02
1.019728e-02
1.038034e-02
1.055135e-02
1.071049e-02
1.085779e-02
1.099313e-02
1.111623e-02
1.122670e-02
1.132416e-02
1.140826e-02
1.147881e-02
1.153576e-02
1.157926e-02
1.160968e-02
1.162754e-02
1.163354e-02
1.162849e-02
1.161334e-02
1.158907e-02
1.155676e-02
1.151753e-02
1.147256e-02
1.142305e-02
1.137024e-02
1.131535e-02
1.125952e-02
1.120376e-02
1.114878e-02
1.109493e-02
1.109125e-02
-2.026374e-03
-2.095637e-03
-2.298317e-03
-2.429400e-03
-2.480383e-03
-2.485821e-03
-2.485588e-03
-2.506503e-03
-2.554586e-03
-2.618301e-03
-2.678287e-03
-2.717612e-03
-2.728169e-03
-2.711803e-03
-2.677321e-03
-2.635769e-03
-2.596186e-03
-2.563029e-03
-2.535521e-03
-2.508490e-03
-2.474126e-03
-2.424104e-03
-2.351630e-03
-2.253005e-03
-2.128311e-03
-1.981112e-03
-1.817284e-03
-1.643374e-03
-1.465008e-03
-1.285793e-03
-1.106895e-03
-9.272357e-04
-7.440969e-04
-5.538930e-04
-3.529536e-04
-1.382390e-04
9.206311e-05
3.381282e-04
5.983734e-04
8.697072e-04
1.148155e-03
1.429743e-03
1.711417e-03
1.991727e-03
2.271066e-03
2.551394e-03
2.835536e-03
3.126272e-03
3.425492e-03
3.733635e-03
4.049556e-03
4.370806e-03
4.694193e-03
5.016339e-03
5.334659e-03
5.647576e-03
5.954628e-03
6.256294e-03
6.553611e-03
6.847719e-03
7.139426e-03
7.428917e-03
7.715652e-03
7.998439e-03
8.275650e-03
8.545507e-03
8.806358e-03
9.056885e-03
9.296214e-03
9.523915e-03
9.739924e-03
9.944405e-03
1.013760e-02
1.031971e-02
1.049076e-02
1.065062e-02
1.079895e-02
1.093528e-02
1.105909e-02
1.116986e-02
1.126719e-02
1.135084e-02
1.142078e-02
1.147714e-02
1.152027e-02
1.155066e-02
1.156892e-02
1.157575e-02
1.157190e-02
1.155820e-02
1.153546e-02
1.150455e-02
1.146638e-02
1.142187e-02
1.137199e-02
1.131769e-02
1.125989e-02
1.119942e-02
1.113694e-02
1.107279e-02
1.100697e-02
1.100345e-02
-2.050741e-03
-2.116930e-03
-2.263953e-03
-2.341640e-03
-2.371008e-03
-2.388994e-03
-2.421814e-03
-2.476866e-03
-2.545005e-03
-2.609199e-03
-2.654052e-03
-2.671974e-03
-2.664518e-03
-2.639834e-03
-2.608376e-03
-2.578898e-03
-2.555910e-03
-2.538863e-03
-2.522782e-03
-2.499873e-03
-2.461633e-03
-2.400988e-03
-2.313976e-03
-2.200580e-03
-2.064446e-03
-1.911647e-03
-1.748946e-03
-1.582106e-03
-1.414749e-03
-1.247933e-03
-1.080380e-03
-9.091251e-04
-7.303330e-04
-5.401340e-04
-3.354009e-04
-1.143975e-04
1.227996e-04
3.742319e-04
6.364239e-04
9.051534e-04
1.176456e-03
1.447582e-03
1.717624e-03
1.987605e-03
2.260018e-03
2.537963e-03
2.824157e-03
3.120111e-03
3.425695e-03
3.739178e-03
4.057674e-03
4.377839e-03
4.696583e-03
5.011489e-03
5.321503e-03
5.626686e-03
5.927913e-03
6.226408e-03
6.523251e-03
6.818983e-03
7.113397e-03
7.405531e-03
7.693841e-03
7.976496e-03
8.251684e-03
8.517883e-03
8.774021e-03
9.019520e-03
9.254226e-03
9.478275e-03
9.691921e-03
9.895379e-03
1.008871e-02
1.027175e-02
1.044413e-02
1.060527e-02
1.075452e-02
1.089120e-02
1.101475e-02
1.112473e-02
1.122092e-02
1.130331e-02
1.137209e-02
1.142762e-02
1.147035e-02
1.150084e-02
1.151964e-02
1.152737e-02
1.152464e-02
1.151207e-02
1.149030e-02
1.146003e-02
1.142197e-02
1.137687e-02
1.132550e-02
1.126863e-02
1.120699e-02
1.114115e-02
1.107155e-02
1.099828e-02
1.092110e-02
1.091777e-02
-2.057056e-03
-2.096002e-03
-2.192360e-03
-2.244645e-03
-2.283995e-03
-2.334258e-03
-2.402031e-03
-2.478782e-03
-2.549015e-03
-2.599101e-03
-2.622865e-03
-2.622592e-03
-2.606489e-03
-2.584639e-03
-2.565311e-03
-2.552660e-03
-2.545994e-03
-2.540349e-03
-2.527987e-03
-2.500424e-03
-2.450554e-03
-2.374386e-03
-2.271900e-03
-2.146817e-03
-2.005321e-03
-1.854250e-03
-1.699362e-03
-1.544167e-03
-1.389523e-03
-1.233909e-03
-1.074111e-03
-9.060887e-04
-7.258600e-04
-5.303240e-04
-3.179435e-04
-8.915391e-05
1.536445e-04
4.065876e-04
6.652683e-04
9.258464e-04
1.186018e-03
1.445538e-03
1.706130e-03
1.970823e-03
2.242922e-03
2.524970e-03
2.817978e-03
3.121152e-03
3.432124e-03
3.747582e-03
4.064074e-03
4.378762e-03
4.689881e-03
4.996745e-03
5.299976e-03
5.600838e-03
5.900686e-03
6.200466e-03
6.500369e-03
6.799726e-03
7.097120e-03
7.390666e-03
7.678367e-03
7.958447e-03
8.229589e-03
8.491027e-03
8.742515e-03
8.984185e-03
9.216350e-03
9.439308e-03
9.653188e-03
9.857860e-03
1.005292e-02
1.023771e-02
1.041144e-02
1.057327e-02
1.072242e-02
1.085830e-02
1.098049e-02
1.108883e-02
1.118339e-02
1.126440e-02
1.133225e-02
1.138737e-02
1.143021e-02
1.146123e-02
1.148086e-02
1.148953e-02
1.148766e-02
1.147571e-02
1.145419e-02
1.142366e-02
1.138471e-02
1.133800e-02
1.128420e-02
1.122394e-02
1.115781e-02
1.108623e-02
1.100943e-02
1.092736e-02
1.083962e-02
1.083656e-02
-2.027707e-03
-2.032897e-03
-2.105109e-03
-2.164865e-03
-2.235349e-03
-2.320910e-03
-2.411782e-03
-2.492402e-03
-2.550082e-03
-2.580109e-03
-2.586185e-03
-2.577449e-03
-2.564281e-03
-2.554741e-03
-2.552525e-03
-2.556491e-03
-2.561377e-03
-2.559326e-03
-2.541871e-03
-2.502014e-03
-2.435918e-03
-2.343745e-03
-2.229367e-03
-2.099084e-03
-1.959756e-03
-1.817046e-03
-1.674254e-03
-1.531954e-03
-1.388308e-03
-1.239812e-03
-1.082213e-03
-9.114511e-04
-7.245255e-04
-5.201983e-04
-2.993657e-04
-6.494372e-05
1.787909e-04
4.272823e-04
6.769003e-04
9.258912e-04
1.174764e-03
1.425987e-03
1.683105e-03
1.949569e-03
2.227658e-03
2.517807e-03
2.818509e-03
3.126760e-03
3.438863e-03
3.751329e-03
4.061617e-03
4.368539e-03
4.672214e-03
4.973568e-03
5.274204e-03
5.575545e-03
5.878330e-03
6.182354e-03
6.486464e-03
6.788802e-03
7.087183e-03
7.379515e-03
7.664128e-03
7.939963e-03
8.206599e-03
8.464123e-03
8.712920e-03
8.953430e-03
9.185934e-03
9.410416e-03
9.626509e-03
9.833529e-03
1.003056e-02
1.021660e-02
1.039065e-02
1.055190e-02
1.069974e-02
1.083386e-02
1.095418e-02
1.106085e-02
1.115416e-02
1.123448e-02
1.130222e-02
1.135772e-02
1.140130e-02
1.143319e-02
1.145366e-02
1.146294e-02
1.146135e-02
1.144923e-02
1.142703e-02
1.139527e-02
1.135452e-02
1.130539e-02
1.124846e-02
1.118430e-02
1.111336e-02
1.103592e-02
1.095209e-02
1.086170e-02
1.076426e-02
1.076154e-02
-1.967969e-03
-1.948254e-03
-2.027694e-03
-2.117827e-03
-2.224013e-03
-2.334051e-03
-2.430651e-03
-2.500576e-03
-2.539747e-03
-2.553236e-03
-2.551661e-03
-2.546473e-03
-2.546151e-03
-2.554239e-03
-2.569111e-03
-2.584974e-03
-2.593586e-03
-2.586327e-03
-2.556264e-03
-2.499796e-03
-2.417402e-03
-2.313256e-03
-2.193846e-03
-2.066086e-03
-1.935529e-03
-1.805223e-03
-1.675394e-03
-1.543822e-03
-1.406653e-03
-1.259382e-03
-1.097859e-03
-9.192144e-04
-7.225701e-04
-5.093583e-04
-2.830738e-04
-4.843359e-05
1.898752e-04
4.284871e-04
6.662669e-04
9.045287e-04
1.146496e-03
1.396195e-03
1.657152e-03
1.931313e-03
2.218489e-03
2.516458e-03
2.821623e-03
3.129975e-03
3.438073e-03
3.743743e-03
4.046367e-03
4.346723e-03
4.646417e-03
4.947050e-03
5.250021e-03
5.555802e-03
5.863755e-03
6.172258e-03
6.479066e-03
6.781780e-03
7.078298e-03
7.367133e-03
7.647536e-03
7.919434e-03
8.183218e-03
8.439466e-03
8.688666e-03
8.931008e-03
9.166271e-03
9.393817e-03
9.612679e-03
9.821700e-03
1.001970e-02
1.020561e-02
1.037862e-02
1.053820e-02
1.068413e-02
1.081645e-02
1.093540e-02
1.104129e-02
1.113446e-02
1.121521e-02
1.128377e-02
1.134028e-02
1.138481e-02
1.141743e-02
1.143824e-02
1.144740e-02
1.144519e-02
1.143197e-02
1.140820e-02
1.137442e-02
1.133121e-02
1.127912e-02
1.121870e-02
1.115041e-02
1.107459e-02
1.099141e-02
1.090086e-02
1.080270e-02
1.069642e-02
1.069403e-02
-1.898090e-03
-1.869858e-03
-1.978605e-03
-2.105193e-03
-2.237273e-03
-2.354836e-03
-2.442572e-03
-2.495639e-03
-2.519685e-03
-2.526729e-03
-2.529752e-03
-2.538343e-03
-2.556477e-03
-2.582357e-03
-2.609671e-03
-2.629609e-03
-2.633154e-03
-2.613265e-03
-2.566500e-03
-2.493685e-03
-2.399402e-03
-2.290461e-03
-2.173917e-03
-2.055272e-03
-1.937344e-03
-1.819994e-03
-1.700583e-03
-1.574850e-03
-1.437982e-03
-1.285703e-03
-1.115263e-03
-9.261663e-04
-7.204184e-04
-5.021305e-04
-2.764770e-04
-4.826682e-05
1.794299e-04
4.061298e-04
6.339655e-04
8.668941e-04
1.109367e-03
1.364913e-03
1.635081e-03
1.919032e-03
2.213858e-03
2.515439e-03
2.819561e-03
3.122924e-03
3.423793e-03
3.722137e-03
4.019309e-03
4.317377e-03
4.618289e-03
4.923043e-03
5.231764e-03
5.543365e-03
5.855792e-03
6.166496e-03
6.472971e-03
6.773213e-03
7.065999e-03
7.350926e-03
7.628263e-03
7.898649e-03
8.162771e-03
8.421072e-03
8.673564e-03
8.919762e-03
9.158738e-03
9.389254e-03
9.609957e-03
9.819560e-03
1.001700e-02
1.020152e-02
1.037273e-02
1.053053e-02
1.067509e-02
1.080668e-02
1.092561e-02
1.103214e-02
1.112641e-02
1.120848e-02
1.127831e-02
1.133580e-02
1.138087e-02
1.141348e-02
1.143373e-02
1.144182e-02
1.143810e-02
1.142300e-02
1.139705e-02
1.136081e-02
1.131482e-02
1.125960e-02
1.119560e-02
1.112317e-02
1.104256e-02
1.095383e-02
1.085690e-02
1.075151e-02
1.063718e-02
1.063509e-02
-1.841455e-03
-1.819914e-03
-1.964134e-03
-2.118159e-03
-2.259340e-03
-2.369490e-03
-2.441631e-03
-2.480711e-03
-2.499419e-03
-2.512187e-03
-2.530114e-03
-2.558214e-03
-2.595054e-03
-2.634097e-03
-2.665995e-03
-2.681180e-03
-2.672268e-03
-2.635790e-03
-2.572818e-03
-2.488341e-03
-2.389587e-03
-2.283884e-03
-2.176789e-03
-2.070971e-03
-1.965970e-03
-1.858725e-03
-1.744535e-03
-1.618232e-03
-1.475361e-03
-1.313259e-03
-1.131794e-03
-9.335486e-04
-7.232569e-04
-5.065504e-04
-2.883478e-04
-7.140788e-05
1.444442e-04
3.621423e-04
5.863284e-04
8.218069e-04
1.072030e-03
1.338093e-03
1.618496e-03
1.909683e-03
2.207106e-03
2.506456e-03
2.804686e-03
3.100564e-03
3.394665e-03
3.688864e-03
3.985542e-03
4.286738e-03
4.593417e-03
4.904996e-03
5.219918e-03
5.535747e-03
5.849729e-03
6.159373e-03
6.462888e-03
6.759395e-03
7.048868e-03
7.331887e-03
7.609273e-03
7.881724e-03
8.149536e-03
8.412461e-03
8.669700e-03
8.920023e-03
9.161960e-03
9.394020e-03
9.614895e-03
9.823593e-03
1.001951e-02
1.020240e-02
1.037232e-02
1.052951e-02
1.067426e-02
1.080681e-02
1.092727e-02
1.103560e-02
1.113164e-02
1.121513e-02
1.128585e-02
1.134358e-02
1.138823e-02
1.141983e-02
1.143861e-02
1.144488e-02
1.143910e-02
1.142178e-02
1.139347e-02
1.135469e-02
1.130594e-02
1.124762e-02
1.118008e-02
1.110359e-02
1.101829e-02
1.092419e-02
1.082122e-02
1.070909e-02
1.058741e-02
1.058554e-02
-1.814679e-03
-1.807973e-03
-1.979415e-03
-2.144030e-03
-2.278759e-03
-2.373858e-03
-2.432391e-03
-2.466609e-03
-2.491754e-03
-2.520361e-03
-2.558839e-03
-2.606643e-03
-2.657483e-03
-2.701733e-03
-2.729297e-03
-2.732296e-03
-2.707004e-03
-2.654545e-03
-2.580209e-03
-2.491631e-03
-2.396514e-03
-2.300608e-03
-2.206546e-03
-2.113646e-03
-2.018468e-03
-1.915877e-03
-1.800313e-03
-1.667099e-03
-1.513605e-03
-1.340026e-03
-1.149492e-03
-9.473380e-04
-7.396338e-04
-5.313900e-04
-3.250447e-04
-1.197751e-04
8.811584e-05
3.038894e-04
5.326202e-04
7.776056e-04
1.039434e-03
1.315939e-03
1.602969e-03
1.895637e-03
2.189656e-03
2.482335e-03
2.773017e-03
3.062889e-03
3.354304e-03
3.649852e-03
3.951478e-03
4.259871e-03
4.574180e-03
4.892065e-03
5.210761e-03
5.527412e-03
5.839664e-03
6.146053e-03
6.446111e-03
6.740202e-03
7.029182e-03
7.313969e-03
7.595174e-03
7.872849e-03
8.146413e-03
8.414719e-03
8.676246e-03
8.929340e-03
9.172452e-03
9.404335e-03
9.624150e-03
9.831483e-03
1.002628e-02
1.020873e-02
1.037911e-02
1.053764e-02
1.068444e-02
1.081940e-02
1.094227e-02
1.105265e-02
1.115011e-02
1.123426e-02
1.130484e-02
1.136174e-02
1.140501e-02
1.143486e-02
1.145167e-02
1.145588e-02
1.144802e-02
1.142859e-02
1.139808e-02
1.135693e-02
1.130552e-02
1.124417e-02
1.117312e-02
1.109257e-02
1.100263e-02
1.090330e-02
1.079454e-02
1.067611e-02
1.054769e-02
1.054599e-02
-1.823059e-03
-1.830737e-03
-2.013502e-03
-2.172457e-03
-2.292066e-03
-2.373034e-03
-2.426218e-03
-2.466762e-03
-2.508111e-03
-2.558005e-03
-2.617086e-03
-2.679758e-03
-2.736509e-03
-2.776921e-03
-2.792622e-03
-2.779468e-03
-2.738413e-03
-2.674861e-03
-2.596763e-03
-2.512197e-03
-2.427220e-03
-2.344575e-03
-2.263467e-03
-2.180173e-03
-2.089161e-03
-1.984480e-03
-1.861190e-03
-1.716644e-03
-1.551307e-03
-1.368807e-03
-1.175039e-03
-9.764786e-04
-7.782055e-04
-5.823306e-04
-3.874013e-04
-1.890052e-04
1.866616e-05
2.408742e-04
4.806869e-04
7.381417e-04
1.010405e-03
1.292773e-03
1.580113e-03
1.868261e-03
2.154983e-03
2.440254e-03
2.725881e-03
3.014641e-03
3.309242e-03
3.611423e-03
3.921428e-03
4.237947e-03
4.558402e-03
4.879431e-03
5.198182e-03
5.512555e-03
5.821501e-03
6.125016e-03
6.423852e-03
6.719081e-03
7.011635e-03
7.301938e-03
7.589720e-03
7.874013e-03
8.153313e-03
8.425841e-03
8.689819e-03
8.943728e-03
9.186463e-03
9.417401e-03
9.636356e-03
9.843457e-03
1.003898e-02
1.022318e-02
1.039616e-02
1.055781e-02
1.070779e-02
1.084559e-02
1.097060e-02
1.108224e-02
1.118003e-02
1.126366e-02
1.133307e-02
1.138836e-02
1.142980e-02
1.145778e-02
1.147276e-02
1.147523e-02
1.146564e-02
1.144443e-02
1.141197e-02
1.136858e-02
1.131454e-02
1.125008e-02
1.117541e-02
1.109072e-02
1.099611e-02
1.089165e-02
1.077732e-02
1.065298e-02
1.051838e-02
1.051684e-02
-1.861664e-03
-1.876873e-03
-2.055348e-03
-2.199013e-03
-2.303420e-03
-2.377687e-03
-2.436152e-03
-2.492473e-03
-2.555309e-03
-2.626444e-03
-2.701208e-03
-2.770560e-03
-2.824069e-03
-2.853012e-03
-2.852793e-03
-2.824038e-03
-2.772063e-03
-2.704980e-03
-2.631181e-03
-2.557052e-03
-2.485571e-03
-2.415966e-03
-2.344336e-03
-2.264828e-03
-2.171122e-03
-2.058001e-03
-1.922751e-03
-1.766047e-03
-1.591954e-03
-1.406874e-03
-1.217650e-03
-1.029409e-03
-8.439320e-04
-6.591596e-04
-4.700115e-04
-2.702003e-04
-5.435234e-05
1.803072e-04
4.332293e-04
7.009155e-04
9.781558e-04
1.259644e-03
1.541434e-03
1.821827e-03
2.101480e-03
2.382818e-03
2.668989e-03
2.962730e-03
3.265479e-03
3.576955e-03
3.895276e-03
4.217507e-03
4.540342e-03
4.860679e-03
5.176770e-03
5.488058e-03
5.795024e-03
6.098777e-03
6.400539e-03
6.701162e-03
7.000799e-03
7.298792e-03
7.593767e-03
7.883881e-03
8.167148e-03
8.441750e-03
8.706274e-03
8.959834e-03
9.202065e-03
9.433013e-03
9.652953e-03
9.862190e-03
1.006089e-02
1.024894e-02
1.042599e-02
1.059140e-02
1.074441e-02
1.088426e-02
1.101024e-02
1.112186e-02
1.121883e-02
1.130113e-02
1.136895e-02
1.142262e-02
1.146254e-02
1.148916e-02
1.150290e-02
1.150416e-02
1.149326e-02
1.147051e-02
1.143616e-02
1.139043e-02
1.133356e-02
1.126576e-02
1.118726e-02
1.109827e-02
1.099896e-02
1.088946e-02
1.076979e-02
1.063988e-02
1.049957e-02
1.049824e-02
-1.920027e-03
-1.933540e-03
-2.098151e-03
-2.225594e-03
-2.321601e-03
-2.399459e-03
-2.472560e-03
-2.549985e-03
-2.634353e-03
-2.721880e-03
-2.804168e-03
-2.871030e-03
-2.913602e-03
-2.926924e-03
-2.911237e-03
-2.871624e-03
-2.816201e-03
-2.753564e-03
-2.690407e-03
-2.629983e-03
-2.571677e-03
-2.511522e-03
-2.443429e-03
-2.360760e-03
-2.258019e-03
-2.132388e-03
-1.984693e-03
-1.819370e-03
-1.643277e-03
-1.463586e-03
-1.285458e-03
-1.110352e-03
-9.356242e-04
-7.555709e-04
-5.634814e-04
-3.539283e-04
-1.244766e-04
1.237147e-04
3.864909e-04
6.581746e-04
9.333502e-04
1.208363e-03
1.482111e-03
1.755964e-03
2.032953e-03
2.316542e-03
2.609415e-03
2.912622e-03
3.225303e-03
3.544996e-03
3.868369e-03
4.192101e-03
4.513559e-03
4.831055e-03
5.144567e-03
5.455055e-03
5.763934e-03
6.072489e-03
6.381400e-03
6.690479e-03
6.998641e-03
7.304112e-03
7.604759e-03
7.898464e-03
8.183455e-03
8.458506e-03
8.723000e-03
8.976845e-03
9.220293e-03
9.453711e-03
9.677351e-03
9.891197e-03
1.009489e-02
1.028775e-02
1.046889e-02
1.063732e-02
1.079215e-02
1.093266e-02
1.105836e-02
1.116905e-02
1.126479e-02
1.134582e-02
1.141251e-02
1.146527e-02
1.150449e-02
1.153051e-02
1.154361e-02
1.154403e-02
1.153196e-02
1.150757e-02
1.147107e-02
1.142267e-02
1.136261e-02
1.129117e-02
1.120861e-02
1.111522e-02
1.101123e-02
1.089680e-02
1.077202e-02
1.063688e-02
1.049126e-02
1.049019e-02
-1.987590e-03
-1.991660e-03
-2.140977e-03
-2.258523e-03
-2.356315e-03
-2.447319e-03
-2.540739e-03
-2.639693e-03
-2.741065e-03
-2.837053e-03
-2.917811e-03
-2.974497e-03
-3.001913e-03
-2.999949e-03
-2.973404e-03
-2.930291e-03
-2.879311e-03
-2.827406e-03
-2.778117e-03
-2.731033e-03
-2.682253e-03
-2.625534e-03
-2.553971e-03
-2.461803e-03
-2.346084e-03
-2.207733e-03
-2.051501e-03
-1.884649e-03
-1.714656e-03
-1.546713e-03
-1.381974e-03
-1.217245e-03
-1.046235e-03
-8.618509e-04
-6.586469e-04
-4.345537e-04
-1.913475e-04
6.617455e-05
3.319044e-04
6.003676e-04
8.682543e-04
1.135101e-03
1.403006e-03
1.675582e-03
1.956549e-03
2.248458e-03
2.551900e-03
2.865401e-03
3.185937e-03
3.509840e-03
3.833782e-03
4.155529e-03
4.474188e-03
4.789882e-03
5.104018e-03
5.418240e-03
5.733802e-03
6.051128e-03
6.369625e-03
6.687775e-03
7.003437e-03
7.314256e-03
7.618080e-03
7.913268e-03
8.198849e-03
8.474505e-03
8.740405e-03
8.996958e-03
9.244534e-03
9.483248e-03
9.712831e-03
9.932610e-03
1.014160e-02
1.033866e-02
1.052266e-02
1.069263e-02
1.084789e-02
1.098805e-02
1.111300e-02
1.122288e-02
1.131798e-02
1.139864e-02
1.146526e-02
1.151812e-02
1.155745e-02
1.158339e-02
1.159607e-02
1.159558e-02
1.158205e-02
1.155561e-02
1.151650e-02
1.146499e-02
1.140139e-02
1.132605e-02
1.123931e-02
1.114152e-02
1.103293e-02
1.091376e-02
1.078410e-02
1.064401e-02
1.049339e-02
1.049263e-02
-2.057670e-03
-2.048422e-03
-2.187952e-03
-2.305767e-03
-2.415274e-03
-2.525724e-03
-2.640559e-03
-2.757110e-03
-2.867998e-03
-2.963655e-03
-3.035289e-03
-3.077534e-03
-3.089994e-03
-3.077199e-03
-3.047026e-03
-3.008229e-03
-2.967958e-03
-2.930030e-03
-2.894271e-03
-2.856887e-03
-2.811597e-03
-2.751269e-03
-2.669893e-03
-2.564372e-03
-2.435672e-03
-2.288802e-03
-2.131389e-03
-1.971203e-03
-1.813484e-03
-1.659115e-03
-1.504391e-03
-1.342468e-03
-1.165895e-03
-9.692197e-04
-7.507403e-04
-5.128406e-04
-2.609381e-04
-1.538858e-06
2.598632e-04
5.203393e-04
7.800874e-04
1.041930e-03
1.310024e-03
1.588284e-03
1.879053e-03
2.182408e-03
2.496243e-03
2.817007e-03
3.140780e-03