# vtk DataFile Version 3.0
Scalar Field
ASCII
DATASET RECTILINEAR_GRID
DIMENSIONS 102 102 1
X_COORDINATES 102 double
0.000000 0.100000 0.200000 0.300000 0.400000 0.500000 0.600000 0.700000 0.800000 0.900000 1.000000 1.100000 1.200000 1.300000 1.400000 1.500000 1.600000 1.700000 1.800000 1.900000 2.000000 2.100000 2.200000 2.300000 2.400000 2.500000 2.600000 2.700000 2.800000 2.900000 3.000000 3.100000 3.200000 3.300000 3.400000 3.500000 3.600000 3.700000 3.800000 3.900000 4.000000 4.100000 4.200000 4.300000 4.400000 4.500000 4.600000 4.700000 4.800000 4.900000 5.000000 5.100000 5.200000 5.300000 5.400000 5.500000 5.600000 5.700000 5.800000 5.900000 6.000000 6.100000 6.200000 6.300000 6.400000 6.500000 6.600000 6.700000 6.800000 6.900000 7.000000 7.100000 7.200000 7.300000 7.400000 7.500000 7.600000 7.700000 7.800000 7.900000 8.000000 8.100000 8.200000 8.300000 8.400000 8.500000 8.600000 8.700000 8.800000 8.900000 9.000000 9.100000 9.200000 9.300000 9.400000 9.500000 9.600000 9.700000 9.800000 9.900000 10.000000 10.100000 
Y_COORDINATES 102 double
0.000000 0.100000 0.200000 0.300000 0.400000 0.500000 0.600000 0.700000 0.800000 0.900000 1.000000 1.100000 1.200000 1.300000 1.400000 1.500000 1.600000 1.700000 1.800000 1.900000 2.000000 2.100000 2.200000 2.300000 2.400000 2.500000 2.600000 2.700000 2.800000 2.900000 3.000000 3.100000 3.200000 3.300000 3.400000 3.500000 3.600000 3.700000 3.800000 3.900000 4.000000 4.100000 4.200000 4.300000 4.400000 4.500000 4.600000 4.700000 4.800000 4.900000 5.000000 5.100000 5.200000 5.300000 5.400000 5.500000 5.600000 5.700000 5.800000 5.900000 6.000000 6.100000 6.200000 6.300000 6.400000 6.500000 6.600000 6.700000 6.800000 6.900000 7.000000 7.100000 7.200000 7.300000 7.400000 7.500000 7.600000 7.700000 7.800000 7.900000 8.000000 8.100000 8.200000 8.300000 8.400000 8.500000 8.600000 8.700000 8.800000 8.900000 9.000000 9.100000 9.200000 9.300000 9.400000 9.500000 9.600000 9.700000 9.800000 9.900000 10.000000 10.100000 
Z_COORDINATES 1 double
0.0
POINT_DATA 10404
SCALARS Pressure double 1
LOOKUP_TABLE default
0.000000e+00
3.435522e-03
3.339593e-03
3.050397e-03
2.708523e-03
2.408805e-03
2.209902e-03
2.124853e-03
2.127607e-03
2.170951e-03
2.207925e-03
2.208549e-03
2.166670e-03
2.096318e-03
2.021154e-03
1.962707e-03
1.932472e-03
1.930326e-03
1.948510e-03
1.978101e-03
2.014409e-03
2.058931e-03
2.117575e-03
2.196748e-03
2.299660e-03
2.424700e-03
2.566458e-03
2.718541e-03
2.876587e-03
3.039984e-03
3.211630e-03
3.396102e-03
3.597265e-03
3.816517e-03
4.052357e-03
4.301306e-03
4.559552e-03
4.824511e-03
5.095598e-03
5.373988e-03
5.661619e-03
5.959946e-03
6.269042e-03
6.587361e-03
6.912209e-03
7.240646e-03
7.570413e-03
7.900524e-03
8.231329e-03
8.564066e-03
8.900124e-03
9.240297e-03
9.584271e-03
9.930558e-03
1.027675e-02
1.061999e-02
1.095759e-02
1.128742e-02
1.160814e-02
1.191922e-02
1.222067e-02
1.251273e-02
1.279557e-02
1.306906e-02
1.333266e-02
1.358549e-02
1.382638e-02
1.405412e-02
1.426752e-02
1.446559e-02
1.464757e-02
1.481292e-02
1.496134e-02
1.509267e-02
1.520688e-02
1.530401e-02
1.538417e-02
1.544750e-02
1.549418e-02
1.552448e-02
1.553873e-02
1.553735e-02
1.552089e-02
1.549000e-02
1.544548e-02
1.538827e-02
1.531945e-02
1.524028e-02
1.515218e-02
1.505677e-02
1.495588e-02
1.485159e-02
1.474623e-02
1.464247e-02
1.454331e-02
1.445216e-02
1.437281e-02
1.430937e-02
1.426583e-02
1.424496e-02
1.424540e-02
0.000000e+00
3.435522e-03
3.489111e-03
3.243974e-03
2.875751e-03
2.534716e-03
2.298060e-03
2.190869e-03
2.190435e-03
2.245002e-03
2.298413e-03
2.311100e-03
2.270528e-03
2.189262e-03
2.093910e-03
2.011241e-03
1.957707e-03
1.936004e-03
1.938528e-03
1.954614e-03
1.977355e-03
2.006845e-03
2.048973e-03
2.111238e-03
2.198237e-03
2.309220e-03
2.438688e-03
2.579351e-03
2.725695e-03
2.876317e-03
3.034051e-03
3.204094e-03
3.391256e-03
3.597726e-03
3.822310e-03
4.061288e-03
4.310262e-03
4.566044e-03
4.827711e-03
5.096495e-03
5.374698e-03
5.664254e-03
5.965592e-03
6.277267e-03
6.596424e-03
6.919813e-03
7.244880e-03
7.570514e-03
7.897164e-03
8.226372e-03
8.559924e-03
8.898968e-03
9.243403e-03
9.591697e-03
9.941229e-03
1.028885e-02
1.063155e-02
1.096699e-02
1.129377e-02
1.161140e-02
1.192007e-02
1.222021e-02
1.251217e-02
1.279593e-02
1.307095e-02
1.333626e-02
1.359059e-02
1.383254e-02
1.406076e-02
1.427411e-02
1.447174e-02
1.465305e-02
1.481767e-02
1.496542e-02
1.509624e-02
1.521013e-02
1.530711e-02
1.538726e-02
1.545067e-02
1.549749e-02
1.552793e-02
1.554230e-02
1.554103e-02
1.552463e-02
1.549377e-02
1.544924e-02
1.539200e-02
1.532313e-02
1.524390e-02
1.515574e-02
1.506028e-02
1.495935e-02
1.485503e-02
1.474965e-02
1.464587e-02
1.454670e-02
1.445555e-02
1.437620e-02
1.431277e-02
1.426923e-02
1.424837e-02
1.424881e-02
1.424540e-02
3.352192e-03
3.256093e-03
2.959383e-03
2.678337e-03
2.494826e-03
2.421956e-03
2.433777e-03
2.482007e-03
2.518013e-03
2.510650e-03
2.453906e-03
2.363310e-03
2.264755e-03
2.181800e-03
2.127055e-03
2.100446e-03
2.093583e-03
2.096880e-03
2.105469e-03
2.121253e-03
2.150846e-03
2.201207e-03
2.275614e-03
2.372061e-03
2.484587e-03
2.606505e-03
2.733669e-03
2.866135e-03
3.007613e-03
3.163224e-03
3.336861e-03
3.529453e-03
3.738816e-03
3.960941e-03
4.191923e-03
4.429554e-03
4.673903e-03
4.926765e-03
5.190380e-03
5.466090e-03
5.753538e-03
6.050683e-03
6.354544e-03
6.662265e-03
6.972049e-03
7.283590e-03
7.597901e-03
7.916643e-03
8.241277e-03
8.572330e-03
8.909037e-03
9.249405e-03
9.590626e-03
9.929777e-03
1.026436e-02
1.059265e-02
1.091383e-02
1.122779e-02
1.153479e-02
1.183516e-02
1.212893e-02
1.241571e-02
1.269466e-02
1.296459e-02
1.322416e-02
1.347200e-02
1.370692e-02
1.392794e-02
1.413432e-02
1.432557e-02
1.450136e-02
1.466149e-02
1.480582e-02
1.493424e-02
1.504667e-02
1.514305e-02
1.522338e-02
1.528771e-02
1.533615e-02
1.536893e-02
1.538638e-02
1.538893e-02
1.537715e-02
1.535173e-02
1.531348e-02
1.526336e-02
1.520245e-02
1.513201e-02
1.505343e-02
1.496828e-02
1.487831e-02
1.478548e-02
1.469199e-02
1.460025e-02
1.451297e-02
1.443309e-02
1.436377e-02
1.430826e-02
1.426958e-02
1.425007e-02
1.425088e-02
1.424750e-02
3.128718e-03
2.952559e-03
2.735322e-03
2.614310e-03
2.598345e-03
2.647890e-03
2.709646e-03
2.737974e-03
2.710129e-03
2.630111e-03
2.521407e-03
2.413512e-03
2.328936e-03
2.276120e-03
2.250149e-03
2.239356e-03
2.233537e-03
2.229524e-03
2.231876e-03
2.249231e-03
2.288942e-03
2.353085e-03
2.437745e-03
2.535552e-03
2.639744e-03
2.747492e-03
2.860888e-03
2.985366e-03
3.126649e-03
3.287911e-03
3.468490e-03
3.664571e-03
3.871259e-03
4.084854e-03
4.304252e-03
4.530929e-03
4.767716e-03
5.017084e-03
5.279788e-03
5.554430e-03
5.838015e-03
6.127145e-03
6.419278e-03
6.713512e-03
7.010642e-03
7.312542e-03
7.621189e-03
7.937723e-03
8.261876e-03
8.591929e-03
8.925133e-03
9.258389e-03
9.588879e-03
9.914710e-03
1.023500e-02
1.054970e-02
1.085926e-02
1.116414e-02
1.146453e-02
1.176007e-02
1.204986e-02
1.233264e-02
1.260689e-02
1.287115e-02
1.312410e-02
1.336472e-02
1.359224e-02
1.380615e-02
1.400610e-02
1.419182e-02
1.436310e-02
1.451972e-02
1.466144e-02
1.478807e-02
1.489940e-02
1.499531e-02
1.507573e-02
1.514070e-02
1.519037e-02
1.522497e-02
1.524489e-02
1.525059e-02
1.524267e-02
1.522183e-02
1.518890e-02
1.514482e-02
1.509068e-02
1.502767e-02
1.495714e-02
1.488058e-02
1.479965e-02
1.471617e-02
1.463215e-02
1.454977e-02
1.447143e-02
1.439967e-02
1.433714e-02
1.428652e-02
1.425038e-02
1.423106e-02
1.423089e-02
1.422755e-02
2.898673e-03
2.722259e-03
2.646417e-03
2.686070e-03
2.786583e-03
2.883082e-03
2.925212e-03
2.892610e-03
2.796624e-03
2.669570e-03
2.547832e-03
2.456777e-03
2.403552e-03
2.379369e-03
2.368449e-03
2.358174e-03
2.345395e-03
2.336516e-03
2.342430e-03
2.371795e-03
2.426428e-03
2.500975e-03
2.586466e-03
2.675423e-03
2.765652e-03
2.860905e-03
2.968438e-03
3.095044e-03
3.243739e-03
3.412654e-03
3.596415e-03
3.789010e-03
3.986580e-03
4.188808e-03
4.398436e-03
4.619392e-03
4.854579e-03
5.104385e-03
5.366519e-03
5.637052e-03
5.912094e-03
6.189281e-03
6.468487e-03
6.751542e-03
7.041195e-03
7.339800e-03
7.648265e-03
7.965602e-03
8.289174e-03
8.615459e-03
8.940993e-03
9.263154e-03
9.580476e-03
9.892853e-03
1.020102e-02
1.050597e-02
1.080842e-02
1.110841e-02
1.140526e-02
1.169759e-02
1.198369e-02
1.226175e-02
1.253015e-02
1.278764e-02
1.303333e-02
1.326667e-02
1.348735e-02
1.369516e-02
1.388991e-02
1.407137e-02
1.423925e-02
1.439320e-02
1.453289e-02
1.465799e-02
1.476826e-02
1.486353e-02
1.494374e-02
1.500898e-02
1.505941e-02
1.509533e-02
1.511716e-02
1.512538e-02
1.512062e-02
1.510358e-02
1.507509e-02
1.503606e-02
1.498755e-02
1.493068e-02
1.486676e-02
1.479719e-02
1.472350e-02
1.464739e-02
1.457066e-02
1.449529e-02
1.442335e-02
1.435705e-02
1.429863e-02
1.425035e-02
1.421440e-02
1.419294e-02
1.418827e-02
1.418497e-02
2.745038e-03
2.631389e-03
2.698287e-03
2.848487e-03
2.990640e-03
3.064358e-03
3.045117e-03
2.946399e-03
2.807011e-03
2.670974e-03
2.569383e-03
2.511501e-03
2.487163e-03
2.477287e-03
2.466066e-03
2.448765e-03
2.432132e-03
2.428600e-03
2.448340e-03
2.493733e-03
2.558856e-03
2.633601e-03
2.709641e-03
2.784847e-03
2.863981e-03
2.955706e-03
3.067881e-03
3.203729e-03
3.360701e-03
3.532294e-03
3.711555e-03
3.894342e-03
4.080805e-03
4.274597e-03
4.480505e-03
4.701814e-03
4.938694e-03
5.188204e-03
5.445732e-03
5.707035e-03
5.969927e-03
6.234924e-03
6.504689e-03
6.782655e-03
7.071446e-03
7.371739e-03
7.681935e-03
7.998648e-03
8.317750e-03
8.635514e-03
8.949481e-03
9.258786e-03
9.563801e-03
9.865890e-03
1.016648e-02
1.046645e-02
1.076575e-02
1.106337e-02
1.135759e-02
1.164632e-02
1.192753e-02
1.219951e-02
1.246103e-02
1.271136e-02
1.295010e-02
1.317709e-02
1.339224e-02
1.359540e-02
1.378632e-02
1.396464e-02
1.412992e-02
1.428170e-02
1.441956e-02
1.454313e-02
1.465216e-02
1.474652e-02
1.482621e-02
1.489134e-02
1.494215e-02
1.497897e-02
1.500223e-02
1.501244e-02
1.501022e-02
1.499627e-02
1.497139e-02
1.493647e-02
1.489250e-02
1.484058e-02
1.478192e-02
1.471783e-02
1.464975e-02
1.457920e-02
1.450783e-02
1.443738e-02
1.436968e-02
1.430660e-02
1.425004e-02
1.420188e-02
1.416395e-02
1.413805e-02
1.412597e-02
1.412272e-02
2.715669e-03
2.694957e-03
2.857641e-03
3.042233e-03
3.154895e-03
3.162428e-03
3.074876e-03
2.933108e-03
2.786807e-03
2.673447e-03
2.606834e-03
2.578284e-03
2.567472e-03
2.556036e-03
2.536959e-03
2.515969e-03
2.505779e-03
2.517484e-03
2.554218e-03
2.610182e-03
2.674864e-03
2.739473e-03
2.801820e-03
2.867163e-03
2.944983e-03
3.043816e-03
3.167069e-03
3.311837e-03
3.470982e-03
3.637040e-03
3.805780e-03
3.977712e-03
4.157078e-03
4.349139e-03
4.557301e-03
4.781457e-03
5.018190e-03
5.262498e-03
5.510079e-03
5.759090e-03
6.010662e-03
6.268099e-03
6.535234e-03
6.814713e-03
7.106860e-03
7.409507e-03
7.718710e-03
8.029987e-03
8.339585e-03
8.645328e-03
8.946856e-03
9.245231e-03
9.542006e-03
9.838843e-03
1.013662e-02
1.043512e-02
1.073308e-02
1.102849e-02
1.131908e-02
1.160268e-02
1.187760e-02
1.214269e-02
1.239730e-02
1.264118e-02
1.287426e-02
1.309647e-02
1.330766e-02
1.350754e-02
1.369569e-02
1.387157e-02
1.403465e-02
1.418439e-02
1.432037e-02
1.444226e-02
1.454985e-02
1.464308e-02
1.472199e-02
1.478676e-02
1.483766e-02
1.487504e-02
1.489934e-02
1.491106e-02
1.491082e-02
1.489930e-02
1.487725e-02
1.484554e-02
1.480511e-02
1.475700e-02
1.470234e-02
1.464237e-02
1.457839e-02
1.451179e-02
1.444407e-02
1.437675e-02
1.431141e-02
1.424966e-02
1.419308e-02
1.414321e-02
1.410152e-02
1.406937e-02
1.404799e-02
1.404479e-02
2.815118e-03
2.881787e-03
3.068673e-03
3.214512e-03
3.252191e-03
3.184500e-03
3.049732e-03
2.899590e-03
2.776328e-03
2.698819e-03
2.661808e-03
2.645984e-03
2.632037e-03
2.611147e-03
2.587463e-03
2.572904e-03
2.578512e-03
2.607705e-03
2.654949e-03
2.709844e-03
2.763682e-03
2.814488e-03
2.867892e-03
2.933759e-03
3.020829e-03
3.132383e-03
3.265159e-03
3.411674e-03
3.564379e-03
3.719310e-03
3.877477e-03
4.043583e-03
4.223055e-03
4.419077e-03
4.631057e-03
4.855105e-03
5.086029e-03
5.319770e-03
5.555076e-03
5.793789e-03
6.039750e-03
6.296954e-03
6.567778e-03
6.851993e-03
7.146814e-03
7.447864e-03
7.750558e-03
8.051385e-03
8.348657e-03
8.642569e-03
8.934668e-03
9.226951e-03
9.520787e-03
9.816865e-03
1.011469e-02
1.041271e-02
1.070874e-02
1.100043e-02
1.128568e-02
1.156289e-02
1.183106e-02
1.208966e-02
1.233851e-02
1.257755e-02
1.280669e-02
1.302572e-02
1.323426e-02
1.343180e-02
1.361775e-02
1.379148e-02
1.395242e-02
1.410007e-02
1.423406e-02
1.435414e-02
1.446017e-02
1.455214e-02
1.463016e-02
1.469442e-02
1.474521e-02
1.478289e-02
1.480789e-02
1.482070e-02
1.482191e-02
1.481217e-02
1.479222e-02
1.476287e-02
1.472503e-02
1.467967e-02
1.462786e-02
1.457075e-02
1.450952e-02
1.444546e-02
1.437988e-02
1.431413e-02
1.424958e-02
1.418758e-02
1.412945e-02
1.407641e-02
1.402959e-02
1.398996e-02
1.395825e-02
1.395511e-02
3.010358e-03
3.132209e-03
3.274495e-03
3.334374e-03
3.286363e-03
3.163050e-03
3.014444e-03
2.884664e-03
2.796351e-03
2.748021e-03
2.722819e-03
2.702183e-03
2.676721e-03
2.649407e-03
2.631006e-03
2.631732e-03
2.654556e-03
2.693810e-03
2.739243e-03
2.782550e-03
2.822334e-03
2.864792e-03
2.920093e-03
2.996858e-03
3.097913e-03
3.219415e-03
3.353540e-03
3.492872e-03
3.634026e-03
3.778762e-03
3.932317e-03
4.100162e-03
4.285012e-03
4.485555e-03
4.697307e-03
4.914947e-03
5.134839e-03
5.356544e-03
5.582757e-03
5.817856e-03
6.065847e-03
6.328623e-03
6.605197e-03
6.892078e-03
7.184506e-03
7.477969e-03
7.769429e-03
8.057885e-03
8.344193e-03
8.630332e-03
8.918450e-03
9.209979e-03
9.504882e-03
9.802249e-03
1.010022e-02
1.039648e-02
1.068870e-02
1.097495e-02
1.125388e-02
1.152467e-02
1.178697e-02
1.204063e-02
1.228556e-02
1.252157e-02
1.274834e-02
1.296536e-02
1.317202e-02
1.336764e-02
1.355157e-02
1.372318e-02
1.388195e-02
1.402747e-02
1.415945e-02
1.427771e-02
1.438220e-02
1.447293e-02
1.455002e-02
1.461370e-02
1.466425e-02
1.470201e-02
1.472739e-02
1.474088e-02
1.474303e-02
1.473446e-02
1.471590e-02
1.468812e-02
1.465197e-02
1.460839e-02
1.455838e-02
1.450299e-02
1.444332e-02
1.438053e-02
1.431579e-02
1.425029e-02
1.418519e-02
1.412165e-02
1.406073e-02
1.400340e-02
1.395050e-02
1.390265e-02
1.386021e-02
1.385716e-02
3.247325e-03
3.381627e-03
3.435028e-03
3.397554e-03
3.283036e-03
3.137322e-03
3.003533e-03
2.905777e-03
2.845205e-03
2.807526e-03
2.775902e-03
2.741621e-03
2.707480e-03
2.683519e-03
2.678979e-03
2.695861e-03
2.727780e-03
2.764232e-03
2.797219e-03
2.826078e-03
2.857820e-03
2.903103e-03
2.970441e-03
3.062000e-03
3.173142e-03
3.295524e-03
3.421825e-03
3.549356e-03
3.680814e-03
3.822128e-03
3.978865e-03
4.153204e-03
4.342971e-03
4.542967e-03
4.747688e-03
4.953969e-03
5.162289e-03
5.376294e-03
5.600931e-03
5.840166e-03
6.095290e-03
6.364434e-03
6.643330e-03
6.926852e-03
7.210658e-03
7.492329e-03
7.771690e-03
8.050340e-03
8.330691e-03
8.614930e-03
8.904226e-03
9.198344e-03
9.495456e-03
9.793353e-03
1.008959e-02
1.038194e-02
1.066875e-02
1.094896e-02
1.122204e-02
1.148779e-02
1.174611e-02
1.199684e-02
1.223968e-02
1.247411e-02
1.269949e-02
1.291509e-02
1.312015e-02
1.331396e-02
1.349588e-02
1.366538e-02
1.382203e-02
1.396550e-02
1.409560e-02
1.421220e-02
1.431527e-02
1.440485e-02
1.448107e-02
1.454413e-02
1.459431e-02
1.463194e-02
1.465740e-02
1.467115e-02
1.467374e-02
1.466577e-02
1.464793e-02
1.462097e-02
1.458570e-02
1.454301e-02
1.449384e-02
1.443915e-02
1.437998e-02
1.431735e-02
1.425232e-02
1.418593e-02
1.411918e-02
1.405305e-02
1.398840e-02
1.392597e-02
1.386636e-02
1.380993e-02
1.375679e-02
1.375384e-02
3.471446e-03
3.581403e-03
3.535630e-03
3.420716e-03
3.274079e-03
3.135966e-03
3.029777e-03
2.957434e-03
2.906135e-03
2.860628e-03
2.813505e-03
2.768360e-03
2.735409e-03
2.723433e-03
2.733487e-03
2.758095e-03
2.785965e-03
2.808957e-03
2.826941e-03
2.847817e-03
2.882954e-03
2.940982e-03
3.023515e-03
3.125003e-03
3.236422e-03
3.350355e-03
3.464704e-03
3.583121e-03
3.712332e-03
3.858123e-03
4.022220e-03
4.201599e-03
4.390302e-03
4.582587e-03
4.775713e-03
4.971058e-03
5.173217e-03
5.387704e-03
5.618426e-03
5.866044e-03
6.127784e-03
6.398598e-03
6.673024e-03
6.946950e-03
7.218643e-03
7.488804e-03
7.759794e-03
8.034444e-03
8.314927e-03
8.602047e-03
8.895069e-03
9.191980e-03
9.489739e-03
9.785791e-03
1.007806e-02
1.036518e-02
1.064644e-02
1.092160e-02
1.119064e-02
1.145349e-02
1.170993e-02
1.195950e-02
1.220151e-02
1.243516e-02
1.265957e-02
1.287391e-02
1.307742e-02
1.326944e-02
1.344944e-02
1.361698e-02
1.377171e-02
1.391340e-02
1.404189e-02
1.415707e-02
1.425893e-02
1.434750e-02
1.442290e-02
1.448531e-02
1.453499e-02
1.457226e-02
1.459748e-02
1.461111e-02
1.461366e-02
1.460574e-02
1.458799e-02
1.456116e-02
1.452602e-02
1.448341e-02
1.443420e-02
1.437932e-02
1.431968e-02
1.425625e-02
1.418996e-02
1.412173e-02
1.405244e-02
1.398289e-02
1.391378e-02
1.384568e-02
1.377901e-02
1.371394e-02
1.365038e-02
1.364754e-02
3.644588e-03
3.710349e-03
3.585010e-03
3.429150e-03
3.282895e-03
3.167553e-03
3.084113e-03
3.019660e-03
2.959458e-03
2.897090e-03
2.837363e-03
2.791522e-03
2.768774e-03
2.769802e-03
2.786134e-03
2.805357e-03
2.818646e-03
2.825932e-03
2.835777e-03
2.860339e-03
2.908630e-03
2.981981e-03
3.074080e-03
3.175123e-03
3.277432e-03
3.379273e-03
3.485095e-03
3.602395e-03
3.737256e-03
3.891090e-03
4.060154e-03
4.237808e-03
4.418072e-03
4.598573e-03
4.781498e-03
4.972293e-03
5.176963e-03
5.399318e-03
5.639395e-03
5.893566e-03
6.156078e-03
6.421213e-03
6.685147e-03
6.946856e-03
7.207901e-03
7.471350e-03
7.740388e-03
8.017125e-03
8.301965e-03
8.593628e-03
8.889659e-03
9.187103e-03
9.482809e-03
9.774864e-03
1.006220e-02
1.034444e-02
1.062163e-02
1.089390e-02
1.116123e-02
1.142329e-02
1.167949e-02
1.192897e-02
1.217076e-02
1.240387e-02
1.262739e-02
1.284050e-02
1.304254e-02
1.323294e-02
1.341128e-02
1.357718e-02
1.373038e-02
1.387067e-02
1.399789e-02
1.411196e-02
1.421283e-02
1.430053e-02
1.437514e-02
1.443684e-02
1.448588e-02
1.452255e-02
1.454722e-02
1.456033e-02
1.456240e-02
1.455401e-02
1.453579e-02
1.450845e-02
1.447274e-02
1.442947e-02
1.437946e-02
1.432356e-02
1.426264e-02
1.419757e-02
1.412920e-02
1.405834e-02
1.398577e-02
1.391215e-02
1.383806e-02
1.376393e-02
1.369004e-02
1.361643e-02
1.354289e-02
1.354018e-02
3.753130e-03
3.774458e-03
3.605202e-03
3.443897e-03
3.316275e-03
3.221395e-03
3.144793e-03
3.070781e-03
2.992876e-03
2.916732e-03
2.854973e-03
2.818044e-03
2.807124e-03
2.813299e-03
2.823103e-03
2.826673e-03
2.823463e-03
2.822264e-03
2.835869e-03
2.873801e-03
2.937415e-03
3.019906e-03
3.110810e-03
3.202063e-03
3.292096e-03
3.385924e-03
3.491655e-03
3.615652e-03
3.759111e-03
3.917735e-03
4.084351e-03
4.252829e-03
4.421154e-03
4.592225e-03
4.772203e-03
4.967443e-03
5.181577e-03
5.414012e-03
5.660336e-03
5.914214e-03
6.169801e-03
6.423647e-03
6.675456e-03
6.927589e-03
7.183726e-03
7.447293e-03
7.720254e-03
8.002595e-03
8.292517e-03
8.587138e-03
8.883353e-03
9.178470e-03
9.470181e-03
9.757713e-03
1.004100e-02
1.032030e-02
1.059586e-02
1.086765e-02
1.113528e-02
1.139800e-02
1.165481e-02
1.190461e-02
1.214632e-02
1.237894e-02
1.260162e-02
1.281365e-02
1.301448e-02
1.320364e-02
1.338076e-02
1.354551e-02
1.369766e-02
1.383698e-02
1.396333e-02
1.407657e-02
1.417665e-02
1.426357e-02
1.433741e-02
1.439832e-02
1.444655e-02
1.448239e-02
1.450621e-02
1.451845e-02
1.451960e-02
1.451025e-02
1.449102e-02
1.446260e-02
1.442570e-02
1.438110e-02
1.432959e-02
1.427196e-02
1.420903e-02
1.414161e-02
1.407047e-02
1.399635e-02
1.391990e-02
1.384172e-02
1.376227e-02
1.368190e-02
1.360077e-02
1.351884e-02
1.343585e-02
1.343328e-02
3.805894e-03
3.797123e-03
3.618936e-03
3.473539e-03
3.364953e-03
3.276431e-03
3.190046e-03
3.097872e-03
3.005421e-03
2.926386e-03
2.872823e-03
2.847180e-03
2.840882e-03
2.839851e-03
2.833169e-03
2.819449e-03
2.807249e-03
2.809677e-03
2.836727e-03
2.889956e-03
2.962348e-03
3.042992e-03
3.123469e-03
3.202220e-03
3.284632e-03
3.379227e-03
3.492547e-03
3.625592e-03
3.773626e-03
3.929100e-03
4.085857e-03
4.242289e-03
4.401958e-03
4.571613e-03
4.757816e-03
4.963901e-03
5.188608e-03
5.426796e-03
5.671674e-03
5.917409e-03
6.161040e-03
6.403026e-03
6.646482e-03
6.895576e-03
7.153845e-03
7.423004e-03
7.702580e-03
7.990296e-03
8.282930e-03
8.577264e-03
8.870798e-03
9.161986e-03
9.449693e-03
9.734106e-03
1.001565e-02
1.029463e-02
1.057095e-02
1.084413e-02
1.111329e-02
1.137730e-02
1.163498e-02
1.188517e-02
1.212682e-02
1.235904e-02
1.258112e-02
1.279246e-02
1.299257e-02
1.318104e-02
1.335752e-02
1.352170e-02
1.367331e-02
1.381212e-02
1.393793e-02
1.405060e-02
1.415005e-02
1.423626e-02
1.430930e-02
1.436932e-02
1.441658e-02
1.445137e-02
1.447405e-02
1.448507e-02
1.448492e-02
1.447417e-02
1.445345e-02
1.442340e-02
1.438476e-02
1.433824e-02
1.428461e-02
1.422464e-02
1.415909e-02
1.408872e-02
1.401423e-02
1.393629e-02
1.385550e-02
1.377237e-02
1.368730e-02
1.360056e-02
1.351225e-02
1.342231e-02
1.333043e-02
1.332799e-02
3.824555e-03
3.805291e-03
3.639815e-03
3.513118e-03
3.411028e-03
3.312813e-03
3.207923e-03
3.100481e-03
3.004406e-03
2.933167e-03
2.890877e-03
2.869978e-03
2.856391e-03
2.838423e-03
2.813759e-03
2.790413e-03
2.781485e-03
2.797277e-03
2.839589e-03
2.901366e-03
2.971436e-03
3.041138e-03
3.108882e-03
3.180269e-03
3.264107e-03
3.366998e-03
3.489706e-03
3.627100e-03
3.771355e-03
3.916389e-03
4.061065e-03
4.209610e-03
4.369290e-03
4.546760e-03
4.744951e-03
4.961880e-03
5.191701e-03
5.427254e-03
5.662850e-03
5.896115e-03
6.128315e-03
6.363276e-03
6.605560e-03
6.858680e-03
7.123999e-03
7.400535e-03
7.685559e-03
7.975595e-03
8.267420e-03
8.558742e-03
8.848428e-03
9.136233e-03
9.421832e-03
9.705754e-03
9.988273e-03
1.026922e-02
1.054796e-02
1.082349e-02
1.109460e-02
1.136003e-02
1.161858e-02
1.186920e-02
1.211097e-02
1.234316e-02
1.256514e-02
1.277638e-02
1.297643e-02
1.316489e-02
1.334138e-02
1.350557e-02
1.365714e-02
1.379583e-02
1.392141e-02
1.403372e-02
1.413265e-02
1.421818e-02
1.429038e-02
1.434941e-02
1.439554e-02
1.442906e-02
1.445034e-02
1.445983e-02
1.445803e-02
1.444549e-02
1.442283e-02
1.439071e-02
1.434981e-02
1.430087e-02
1.424460e-02
1.418175e-02
1.411305e-02
1.403919e-02
1.396086e-02
1.387866e-02
1.379314e-02
1.370476e-02
1.361387e-02
1.352071e-02
1.342535e-02
1.332771e-02
1.322750e-02
1.322519e-02
3.831581e-03
3.817620e-03
3.668651e-03
3.549236e-03
3.437738e-03
3.320531e-03
3.199312e-03
3.087172e-03
2.998352e-03
2.938538e-03
2.901542e-03
2.873792e-03
2.843222e-03
2.806729e-03
2.771693e-03
2.751022e-03
2.755168e-03
2.786130e-03
2.836872e-03
2.896049e-03
2.954821e-03
3.011591e-03
3.072112e-03
3.145380e-03
3.238014e-03
3.350510e-03
3.477333e-03
3.610401e-03
3.743751e-03
3.876752e-03
4.014305e-03
4.164175e-03
4.333058e-03
4.523422e-03
4.732522e-03
4.953808e-03
5.179804e-03
5.405042e-03
5.627816e-03
5.850230e-03
6.076804e-03
6.312411e-03
6.560448e-03
6.821835e-03
7.095042e-03
7.376900e-03
7.663743e-03
7.952438e-03
8.240989e-03
8.528640e-03
8.815580e-03
9.102345e-03
9.388699e-03
9.674843e-03
9.960466e-03
1.024477e-02
1.052663e-02
1.080474e-02
1.107781e-02
1.134464e-02
1.160417e-02
1.185550e-02
1.209787e-02
1.233064e-02
1.255323e-02
1.276514e-02
1.296590e-02
1.315505e-02
1.333219e-02
1.349693e-02
1.364891e-02
1.378782e-02
1.391341e-02
1.402551e-02
1.412400e-02
1.420888e-02
1.428021e-02
1.433816e-02
1.438302e-02
1.441509e-02
1.443475e-02
1.444244e-02
1.443867e-02
1.442400e-02
1.439903e-02
1.436442e-02
1.432086e-02
1.426904e-02
1.420967e-02
1.414347e-02
1.407114e-02
1.399335e-02
1.391073e-02
1.382387e-02
1.373328e-02
1.363940e-02
1.354255e-02
1.344295e-02
1.334069e-02
1.323567e-02
1.312765e-02
1.312548e-02
3.840799e-03
3.838838e-03
3.696181e-03
3.567930e-03
3.436781e-03
3.301649e-03
3.173974e-03
3.067967e-03
2.990442e-03
2.936536e-03
2.893416e-03
2.848941e-03
2.799435e-03
2.751725e-03
2.718513e-03
2.710368e-03
2.729470e-03
2.768791e-03
2.816806e-03
2.864471e-03
2.910148e-03
2.959739e-03
3.022402e-03
3.104769e-03
3.207099e-03
3.323451e-03
3.445467e-03
3.567263e-03
3.688692e-03
3.815315e-03
3.955392e-03
4.115663e-03
4.298131e-03
4.499291e-03
4.711899e-03
4.928189e-03
5.142948e-03
5.355167e-03
5.567795e-03
5.786020e-03
6.014979e-03
6.257881e-03
6.515154e-03
6.784695e-03
7.062914e-03
7.346005e-03
7.630993e-03
7.916237e-03
8.201403e-03
8.487026e-03
8.773941e-03
9.062681e-03
9.352434e-03
9.642709e-03
9.932535e-03
1.022064e-02
1.050566e-02
1.078628e-02
1.106130e-02
1.132971e-02
1.159061e-02
1.184326e-02
1.208698e-02
1.232116e-02
1.254523e-02
1.275863e-02
1.296085e-02
1.315139e-02
1.332976e-02
1.349552e-02
1.364827e-02
1.378769e-02
1.391350e-02
1.402553e-02
1.412366e-02
1.420791e-02
1.427836e-02
1.433517e-02
1.437866e-02
1.440914e-02
1.442700e-02
1.443267e-02
1.442668e-02
1.440958e-02
1.438199e-02
1.434455e-02
1.429794e-02
1.424284e-02
1.417996e-02
1.410998e-02
1.403358e-02
1.395142e-02
1.386412e-02
1.377225e-02
1.367629e-02
1.357669e-02
1.347376e-02
1.336773e-02
1.325871e-02
1.314663e-02
1.303128e-02
1.302925e-02
3.853765e-03
3.861304e-03
3.709682e-03
3.561233e-03
3.410220e-03
3.266184e-03
3.142748e-03
3.047319e-03
2.976052e-03
2.916772e-03
2.857325e-03
2.793575e-03
2.731910e-03
2.684934e-03
2.663440e-03
2.669874e-03
2.697247e-03
2.733803e-03
2.770186e-03
2.804600e-03
2.843038e-03
2.894858e-03
2.966743e-03
3.058780e-03
3.164687e-03
3.275794e-03
3.386228e-03
3.496235e-03
3.611978e-03
3.742197e-03
3.893699e-03
4.068069e-03
4.261087e-03
4.464852e-03
4.671327e-03
4.875560e-03
5.077224e-03
5.280090e-03
5.489971e-03
5.712220e-03
5.949824e-03
6.202693e-03
6.468162e-03
6.742247e-03
7.021050e-03
7.301796e-03
7.583241e-03
7.865484e-03
8.149408e-03
8.436034e-03
8.725999e-03
9.019221e-03
9.314014e-03
9.609223e-03
9.903449e-03
1.019525e-02
1.048331e-02
1.076645e-02
1.104370e-02
1.131421e-02
1.157723e-02
1.183206e-02
1.207806e-02
1.231459e-02
1.254102e-02
1.275674e-02
1.296115e-02
1.315367e-02
1.333377e-02
1.350096e-02
1.365482e-02
1.379499e-02
1.392121e-02
1.403331e-02
1.413120e-02
1.421489e-02
1.428447e-02
1.434013e-02
1.438220e-02
1.441099e-02
1.442691e-02
1.443040e-02
1.442198e-02
1.440222e-02
1.437172e-02
1.433114e-02
1.428113e-02
1.422238e-02
1.415557e-02
1.408140e-02
1.400052e-02
1.391359e-02
1.382123e-02
1.372400e-02
1.362241e-02
1.351689e-02
1.340779e-02
1.329534e-02
1.317969e-02
1.306082e-02
1.293857e-02
1.293669e-02
3.862217e-03
3.871591e-03
3.699760e-03
3.529609e-03
3.366942e-03
3.224671e-03
3.110500e-03
3.021279e-03
2.945241e-03
2.870045e-03
2.791002e-03
2.714062e-03
2.651844e-03
2.615558e-03
2.608122e-03
2.622715e-03
2.647342e-03
2.672197e-03
2.695148e-03
2.722141e-03
2.762719e-03
2.823731e-03
2.905172e-03
3.000496e-03
3.100752e-03
3.199994e-03
3.298739e-03
3.403655e-03
3.523916e-03
3.666417e-03
3.832392e-03
4.016984e-03
4.211694e-03
4.408243e-03
4.601932e-03
4.793081e-03
4.986226e-03
5.187749e-03
5.403169e-03
5.635223e-03
5.883309e-03
6.144225e-03
6.413641e-03
6.687616e-03
6.963614e-03
7.240799e-03
7.519702e-03
7.801535e-03
8.087476e-03
8.378162e-03
8.673469e-03
8.972519e-03
9.272860e-03
9.572974e-03
9.871370e-03
1.016672e-02
1.045789e-02
1.074395e-02
1.102408e-02
1.129756e-02
1.156367e-02
1.182172e-02
1.207101e-02
1.231084e-02
1.254049e-02
1.275927e-02
1.296649e-02
1.316154e-02
1.334380e-02
1.351278e-02
1.366804e-02
1.380923e-02
1.393608e-02
1.404844e-02
1.414623e-02
1.422948e-02
1.429828e-02
1.435282e-02
1.439346e-02
1.442052e-02
1.443441e-02
1.443559e-02
1.442458e-02
1.440194e-02
1.436828e-02
1.432424e-02
1.427049e-02
1.420771e-02
1.413659e-02
1.405780e-02
1.397204e-02
1.387995e-02
1.378217e-02
1.367927e-02
1.357179e-02
1.346017e-02
1.334480e-02
1.322595e-02
1.310378e-02
1.297835e-02
1.284955e-02
1.284784e-02
3.854301e-03
3.858216e-03
3.664145e-03
3.479759e-03
3.316247e-03
3.181619e-03
3.073326e-03
2.979802e-03
2.888245e-03
2.793138e-03
2.699812e-03
2.620895e-03
2.568192e-03
2.545367e-03
2.546003e-03
2.557949e-03
2.570861e-03
2.582065e-03
2.597278e-03
2.626148e-03
2.675746e-03
2.746149e-03
2.830603e-03
2.919920e-03
3.008036e-03
3.095624e-03
3.189733e-03
3.299909e-03
3.433146e-03
3.590385e-03
3.766220e-03
3.951624e-03
4.138112e-03
4.321228e-03
4.501896e-03
4.685351e-03
4.878476e-03
5.086905e-03
5.313102e-03
5.555963e-03
5.811790e-03
6.075965e-03
6.344555e-03
6.615297e-03
6.887773e-03
7.162924e-03
7.442259e-03
7.727084e-03
8.018009e-03
8.314788e-03
8.616452e-03
8.921546e-03
9.227206e-03
9.531907e-03
9.834330e-03
1.013339e-02
1.042819e-02
1.071795e-02
1.100195e-02
1.127947e-02
1.154978e-02
1.181212e-02
1.206569e-02
1.230969e-02
1.254333e-02
1.276582e-02
1.297643e-02
1.317446e-02
1.335931e-02
1.353045e-02
1.368744e-02
1.382995e-02
1.395772e-02
1.407058e-02
1.416849e-02
1.425147e-02
1.431961e-02
1.437313e-02
1.441238e-02
1.443771e-02
1.444952e-02
1.444828e-02
1.443451e-02
1.440877e-02
1.437168e-02
1.432387e-02
1.426603e-02
1.419884e-02
1.412299e-02
1.403920e-02
1.394815e-02
1.385054e-02
1.374700e-02
1.363815e-02
1.352453e-02
1.340665e-02
1.328491e-02
1.315962e-02
1.303102e-02
1.289919e-02
1.276413e-02
1.276258e-02
3.821090e-03
3.816798e-03
3.607211e-03
3.419587e-03
3.262142e-03
3.133048e-03
3.020937e-03
2.912354e-03
2.800618e-03
2.690111e-03
2.593297e-03
2.522637e-03
2.482795e-03
2.468053e-03
2.466290e-03
2.466611e-03
2.465644e-03
2.468673e-03
2.485329e-03
2.522921e-03
2.581713e-03
2.654915e-03
2.733075e-03
2.809997e-03
2.886419e-03
2.969662e-03
3.069577e-03
3.193255e-03
3.341406e-03
3.508146e-03
3.683987e-03
3.860263e-03
4.032750e-03
4.202931e-03
4.376680e-03
4.561318e-03
4.762548e-03
4.982540e-03
5.219700e-03
5.469877e-03
5.728216e-03
5.990846e-03
6.255812e-03
6.523114e-03
6.794086e-03
7.070490e-03
7.353723e-03
7.644345e-03
7.941985e-03
8.245539e-03
8.553487e-03
8.864215e-03
9.174824e-03
9.484012e-03
9.790736e-03
1.009414e-02
1.039348e-02
1.068803e-02
1.097707e-02
1.125981e-02
1.153542e-02
1.180305e-02
1.206179e-02
1.231076e-02
1.254906e-02
1.277585e-02
1.299035e-02
1.319185e-02
1.337972e-02
1.355344e-02
1.371257e-02
1.385678e-02
1.398580e-02
1.409950e-02
1.419780e-02
1.428073e-02
1.434841e-02
1.440103e-02
1.443897e-02
1.446258e-02
1.447226e-02
1.446849e-02
1.445178e-02
1.442271e-02
1.438190e-02
1.433000e-02
1.426770e-02
1.419571e-02
1.411476e-02
1.402557e-02
1.392888e-02
1.382538e-02
1.371577e-02
1.360068e-02
1.348070e-02
1.335637e-02
1.322812e-02
1.309635e-02
1.296132e-02
1.282321e-02
1.268208e-02
1.268071e-02
3.760355e-03
3.750698e-03
3.536172e-03
3.353223e-03
3.201122e-03
3.068866e-03