# vtk DataFile Version 3.0
Scalar Field
ASCII
DATASET RECTILINEAR_GRID
DIMENSIONS 102 102 1
X_COORDINATES 102 double
0.000000 0.100000 0.200000 0.300000 0.400000 0.500000 0.600000 0.700000 0.800000 0.900000 1.000000 1.100000 1.200000 1.300000 1.400000 1.500000 1.600000 1.700000 1.800000 1.900000 2.000000 2.100000 2.200000 2.300000 2.400000 2.500000 2.600000 2.700000 2.800000 2.900000 3.000000 3.100000 3.200000 3.300000 3.400000 3.500000 3.600000 3.700000 3.800000 3.900000 4.000000 4.100000 4.200000 4.300000 4.400000 4.500000 4.600000 4.700000 4.800000 4.900000 5.000000 5.100000 5.200000 5.300000 5.400000 5.500000 5.600000 5.700000 5.800000 5.900000 6.000000 6.100000 6.200000 6.300000 6.400000 6.500000 6.600000 6.700000 6.800000 6.900000 7.000000 7.100000 7.200000 7.300000 7.400000 7.500000 7.600000 7.700000 7.800000 7.900000 8.000000 8.100000 8.200000 8.300000 8.400000 8.500000 8.600000 8.700000 8.800000 8.900000 9.000000 9.100000 9.200000 9.300000 9.400000 9.500000 9.600000 9.700000 9.800000 9.900000 10.000000 10.100000 
Y_COORDINATES 102 double
0.000000 0.100000 0.200000 0.300000 0.400000 0.500000 0.600000 0.700000 0.800000 0.900000 1.000000 1.100000 1.200000 1.300000 1.400000 1.500000 1.600000 1.700000 1.800000 1.900000 2.000000 2.100000 2.200000 2.300000 2.400000 2.500000 2.600000 2.700000 2.800000 2.900000 3.000000 3.100000 3.200000 3.300000 3.400000 3.500000 3.600000 3.700000 3.800000 3.900000 4.000000 4.100000 4.200000 4.300000 4.400000 4.500000 4.600000 4.700000 4.800000 4.900000 5.000000 5.100000 5.200000 5.300000 5.400000 5.500000 5.600000 5.700000 5.800000 5.900000 6.000000 6.100000 6.200000 6.300000 6.400000 6.500000 6.600000 6.700000 6.800000 6.900000 7.000000 7.100000 7.200000 7.300000 7.400000 7.500000 7.600000 7.700000 7.800000 7.900000 8.000000 8.100000 8.200000 8.300000 8.400000 8.500000 8.600000 8.700000 8.800000 8.900000 9.000000 9.100000 9.200000 9.300000 9.400000 9.500000 9.600000 9.700000 9.800000 9.900000 10.000000 10.100000 
Z_COORDINATES 1 double
0.0
POINT_DATA 10404
SCALARS Pressure double 1
LOOKUP_TABLE default
0.000000e+00
5.041477e-03
4.780889e-03
4.537939e-03
4.424792e-03
4.436365e-03
4.504559e-03
4.546600e-03
4.507446e-03
4.379112e-03
4.194460e-03
4.004794e-03
3.855103e-03
3.768015e-03
3.740805e-03
3.753155e-03
3.779657e-03
3.800897e-03
3.809320e-03
3.809169e-03
3.812187e-03
3.831781e-03
3.878048e-03
3.955085e-03
4.060854e-03
4.189021e-03
4.331741e-03
4.482341e-03
4.637132e-03
4.795991e-03
4.961778e-03
5.138985e-03
5.332149e-03
5.544526e-03
5.777330e-03
6.029624e-03
6.298750e-03
6.581078e-03
6.872833e-03
7.170812e-03
7.472867e-03
7.778096e-03
8.086747e-03
8.399872e-03
8.718832e-03
9.044773e-03
9.378198e-03
9.718736e-03
1.006515e-02
1.041555e-02
1.076775e-02
1.111958e-02
1.146925e-02
1.181539e-02
1.215708e-02
1.249362e-02
1.282438e-02
1.314865e-02
1.346549e-02
1.377381e-02
1.407241e-02
1.436010e-02
1.463578e-02
1.489852e-02
1.514754e-02
1.538221e-02
1.560198e-02
1.580634e-02
1.599476e-02
1.616675e-02
1.632180e-02
1.645947e-02
1.657944e-02
1.668147e-02
1.676550e-02
1.683160e-02
1.687998e-02
1.691097e-02
1.692501e-02
1.692265e-02
1.690452e-02
1.687137e-02
1.682402e-02
1.676343e-02
1.669067e-02
1.660694e-02
1.651358e-02
1.641207e-02
1.630406e-02
1.619137e-02
1.607600e-02
1.596017e-02
1.584631e-02
1.573710e-02
1.563550e-02
1.554475e-02
1.546834e-02
1.540982e-02
1.537233e-02
1.535734e-02
1.536173e-02
0.000000e+00
5.041477e-03
4.896434e-03
4.665385e-03
4.506922e-03
4.482344e-03
4.545465e-03
4.612925e-03
4.613136e-03
4.517458e-03
4.344479e-03
4.142486e-03
3.963371e-03
3.841325e-03
3.784013e-03
3.776539e-03
3.793204e-03
3.810316e-03
3.814824e-03
3.806697e-03
3.795905e-03
3.796573e-03
3.821125e-03
3.876400e-03
3.962514e-03
4.074156e-03
4.203318e-03
4.342306e-03
4.486067e-03
4.633269e-03
4.786068e-03
4.948890e-03
5.126758e-03
5.323725e-03
5.541838e-03
5.780790e-03
6.038219e-03
6.310454e-03
6.593417e-03
6.883475e-03
7.178053e-03
7.475928e-03
7.777190e-03
8.082909e-03
8.394627e-03
8.713774e-03
9.041180e-03
9.376775e-03
9.719546e-03
1.006772e-02
1.041912e-02
1.077153e-02
1.112297e-02
1.147196e-02
1.181745e-02
1.215871e-02
1.249512e-02
1.282598e-02
1.315042e-02
1.346740e-02
1.377570e-02
1.407411e-02
1.436148e-02
1.463680e-02
1.489923e-02
1.514808e-02
1.538272e-02
1.560259e-02
1.580711e-02
1.599570e-02
1.616779e-02
1.632285e-02
1.646044e-02
1.658024e-02
1.668205e-02
1.676586e-02
1.683175e-02
1.687997e-02
1.691084e-02
1.692480e-02
1.692240e-02
1.690424e-02
1.687105e-02
1.682367e-02
1.676303e-02
1.669020e-02
1.660640e-02
1.651296e-02
1.641138e-02
1.630330e-02
1.619056e-02
1.607515e-02
1.595927e-02
1.584537e-02
1.573613e-02
1.563450e-02
1.554373e-02
1.546729e-02
1.540875e-02
1.537125e-02
1.535626e-02
1.536065e-02
1.536173e-02
4.789418e-03
4.673376e-03
4.580288e-03
4.598304e-03
4.685306e-03
4.759810e-03
4.759598e-03
4.665745e-03
4.502110e-03
4.316361e-03
4.155412e-03
4.047231e-03
3.994973e-03
3.982575e-03
3.986416e-03
3.986747e-03
3.974527e-03
3.952366e-03
3.930888e-03
3.923138e-03
3.939515e-03
3.984837e-03
4.057935e-03
4.153273e-03
4.263593e-03
4.382533e-03
4.506456e-03
4.635100e-03
4.771094e-03
4.918704e-03
5.082313e-03
5.265115e-03
5.468337e-03
5.691107e-03
5.930866e-03
6.184113e-03
6.447245e-03
6.717274e-03
6.992302e-03
7.271675e-03
7.555846e-03
7.845986e-03
8.143479e-03
8.449409e-03
8.764176e-03
9.087328e-03
9.417616e-03
9.753250e-03
1.009224e-02
1.043271e-02
1.077311e-02
1.111226e-02
1.144928e-02
1.178353e-02
1.211433e-02
1.244087e-02
1.276218e-02
1.307711e-02
1.338447e-02
1.368310e-02
1.397195e-02
1.425009e-02
1.451673e-02
1.477119e-02
1.501281e-02
1.524094e-02
1.545491e-02
1.565406e-02
1.583776e-02
1.600542e-02
1.615659e-02
1.629090e-02
1.640816e-02
1.650827e-02
1.659127e-02
1.665730e-02
1.670660e-02
1.673948e-02
1.675636e-02
1.675772e-02
1.674417e-02
1.671641e-02
1.667525e-02
1.662163e-02
1.655660e-02
1.648137e-02
1.639722e-02
1.630563e-02
1.620818e-02
1.610660e-02
1.600279e-02
1.589880e-02
1.579690e-02
1.569950e-02
1.560922e-02
1.552885e-02
1.546125e-02
1.540919e-02
1.537501e-02
1.536010e-02
1.536443e-02
1.536550e-02
4.609083e-03
4.578327e-03
4.655610e-03
4.789244e-03
4.887487e-03
4.889716e-03
4.788255e-03
4.619828e-03
4.439921e-03
4.295573e-03
4.208713e-03
4.174302e-03
4.170012e-03
4.170236e-03
4.157538e-03
4.127726e-03
4.088396e-03
4.053410e-03
4.036504e-03
4.046582e-03
4.085845e-03
4.150610e-03
4.233837e-03
4.328129e-03
4.428183e-03
4.532078e-03
4.641286e-03
4.759670e-03
4.891942e-03
5.042145e-03
5.212560e-03
5.403271e-03
5.612373e-03
5.836645e-03
6.072430e-03
6.316463e-03
6.566475e-03
6.821475e-03
7.081693e-03
7.348253e-03
7.622661e-03
7.906254e-03
8.199748e-03
8.502980e-03
8.814911e-03
9.133856e-03
9.457843e-03
9.784986e-03
1.011375e-02
1.044306e-02
1.077219e-02
1.110054e-02
1.142756e-02
1.175253e-02
1.207454e-02
1.239243e-02
1.270497e-02
1.301094e-02
1.330923e-02
1.359889e-02
1.387911e-02
1.414917e-02
1.440840e-02
1.465610e-02
1.489153e-02
1.511393e-02
1.532253e-02
1.551662e-02
1.569559e-02
1.585895e-02
1.600635e-02
1.613756e-02
1.625246e-02
1.635104e-02
1.643335e-02
1.649951e-02
1.654975e-02
1.658433e-02
1.660363e-02
1.660814e-02
1.659842e-02
1.657520e-02
1.653927e-02
1.649158e-02
1.643317e-02
1.636520e-02
1.628894e-02
1.620579e-02
1.611724e-02
1.602494e-02
1.593067e-02
1.583632e-02
1.574396e-02
1.565577e-02
1.557406e-02
1.550124e-02
1.543971e-02
1.539179e-02
1.535956e-02
1.534477e-02
1.534913e-02
1.535018e-02
4.611058e-03
4.671329e-03
4.845417e-03
4.982782e-03
5.002448e-03
4.900050e-03
4.723330e-03
4.539295e-03
4.401234e-03
4.330165e-03
4.314896e-03
4.325623e-03
4.331585e-03
4.314299e-03
4.272246e-03
4.217558e-03
4.168300e-03
4.140544e-03
4.143225e-03
4.176823e-03
4.235261e-03
4.309490e-03
4.391181e-03
4.475322e-03
4.561227e-03
4.651984e-03
4.752901e-03
4.869558e-03
5.006122e-03
5.164328e-03
5.343294e-03
5.540050e-03
5.750520e-03
5.970615e-03
6.197148e-03
6.428383e-03
6.664161e-03
6.905631e-03
7.154693e-03
7.413330e-03
7.682972e-03
7.964074e-03
8.255968e-03
8.557047e-03
8.865155e-03
9.178079e-03
9.493968e-03
9.811555e-03
1.013015e-02
1.044945e-02
1.076925e-02
1.108903e-02
1.140804e-02
1.172527e-02
1.203945e-02
1.234925e-02
1.265345e-02
1.295099e-02
1.324101e-02
1.352279e-02
1.379568e-02
1.405902e-02
1.431204e-02
1.455393e-02
1.478383e-02
1.500090e-02
1.520435e-02
1.539354e-02
1.556797e-02
1.572730e-02
1.587127e-02
1.599973e-02
1.611261e-02
1.620987e-02
1.629156e-02
1.635775e-02
1.640864e-02
1.644447e-02
1.646562e-02
1.647258e-02
1.646594e-02
1.644640e-02
1.641478e-02
1.637201e-02
1.631910e-02
1.625718e-02
1.618745e-02
1.611123e-02
1.602996e-02
1.594516e-02
1.585850e-02
1.577172e-02
1.568671e-02
1.560543e-02
1.552992e-02
1.546225e-02
1.540449e-02
1.535865e-02
1.532663e-02
1.531025e-02
1.531158e-02
1.531260e-02
4.782358e-03
4.896839e-03
5.059294e-03
5.108907e-03
5.016511e-03
4.834342e-03
4.639878e-03
4.496347e-03
4.429474e-03
4.426481e-03
4.451844e-03
4.468491e-03
4.454010e-03
4.406513e-03
4.340675e-03
4.278298e-03
4.238598e-03
4.231978e-03
4.258563e-03
4.310709e-03
4.377511e-03
4.449290e-03
4.520617e-03
4.591308e-03
4.665584e-03
4.750030e-03
4.851242e-03
4.973873e-03
5.119542e-03
5.286762e-03
5.471698e-03
5.669434e-03
5.875308e-03
6.085981e-03
6.300016e-03
6.517902e-03
6.741592e-03
6.973744e-03
7.216857e-03
7.472548e-03
7.741124e-03
8.021539e-03
8.311719e-03
8.609111e-03
8.911285e-03
9.216391e-03
9.523352e-03
9.831778e-03
1.014167e-02
1.045306e-02
1.076568e-02
1.107868e-02
1.139092e-02
1.170110e-02
1.200785e-02
1.230997e-02
1.260647e-02
1.289655e-02
1.317957e-02
1.345489e-02
1.372182e-02
1.397956e-02
1.422721e-02
1.446384e-02
1.468853e-02
1.490048e-02
1.509902e-02
1.528365e-02
1.545398e-02
1.560976e-02
1.575080e-02
1.587694e-02
1.598807e-02
1.608413e-02
1.616511e-02
1.623108e-02
1.628223e-02
1.631883e-02
1.634127e-02
1.635005e-02
1.634578e-02
1.632917e-02
1.630102e-02
1.626223e-02
1.621377e-02
1.615671e-02
1.609221e-02
1.602151e-02
1.594597e-02
1.586703e-02
1.578622e-02
1.570518e-02
1.562560e-02
1.554923e-02
1.547787e-02
1.541332e-02
1.535736e-02
1.531171e-02
1.527805e-02
1.525801e-02
1.525340e-02
1.525436e-02
5.043039e-03
5.157640e-03
5.222302e-03
5.148748e-03
4.968248e-03
4.763207e-03
4.606168e-03
4.530966e-03
4.528188e-03
4.560527e-03
4.586084e-03
4.577484e-03
4.529949e-03
4.458040e-03
4.385535e-03
4.334345e-03
4.316997e-03
4.334484e-03
4.378786e-03
4.437884e-03
4.500896e-03
4.561621e-03
4.619749e-03
4.679958e-03
4.749655e-03
4.836276e-03
4.945071e-03
5.077864e-03
5.232949e-03
5.405967e-03
5.591358e-03
5.783919e-03
5.980052e-03
6.178423e-03
6.379947e-03
6.587195e-03
6.803443e-03
7.031651e-03
7.273629e-03
7.529615e-03
7.798306e-03
8.077307e-03
8.363806e-03
8.655248e-03
8.949816e-03
9.246583e-03
9.545362e-03
9.846338e-03
1.014966e-02
1.045514e-02
1.076211e-02
1.106924e-02
1.137518e-02
1.167862e-02
1.197841e-02
1.227366e-02
1.256363e-02
1.284768e-02
1.312517e-02
1.339534e-02
1.365733e-02
1.391017e-02
1.415287e-02
1.438451e-02
1.460426e-02
1.481146e-02
1.500558e-02
1.518622e-02
1.535309e-02
1.550592e-02
1.564449e-02
1.576860e-02
1.587809e-02
1.597288e-02
1.605295e-02
1.611840e-02
1.616943e-02
1.620637e-02
1.622962e-02
1.623969e-02
1.623720e-02
1.622283e-02
1.619736e-02
1.616164e-02
1.611660e-02
1.606327e-02
1.600275e-02
1.593624e-02
1.586503e-02
1.579046e-02
1.571396e-02
1.563703e-02
1.556120e-02
1.548802e-02
1.541906e-02
1.535588e-02
1.529998e-02
1.525285e-02
1.521586e-02
1.519038e-02
1.517773e-02
1.517862e-02
5.295632e-03
5.366407e-03
5.302467e-03
5.129369e-03
4.918171e-03
4.746024e-03
4.654388e-03
4.640066e-03
4.668093e-03
4.695015e-03
4.689744e-03
4.643790e-03
4.569528e-03
4.490501e-03
4.429822e-03
4.401724e-03
4.408576e-03
4.442979e-03
4.492789e-03
4.546558e-03
4.597447e-03
4.644730e-03
4.693012e-03
4.749929e-03
4.823359e-03
4.918997e-03
5.038953e-03
5.181574e-03
5.342307e-03
5.515241e-03
5.694815e-03
5.877209e-03
6.061103e-03
6.247667e-03
6.439885e-03
6.641466e-03
6.855685e-03
7.084481e-03
7.328029e-03
7.584854e-03
7.852373e-03
8.127666e-03
8.408188e-03
8.692231e-03
8.979028e-03
9.268533e-03
9.561012e-03
9.856630e-03
1.015516e-02
1.045593e-02
1.075786e-02
1.105944e-02
1.135938e-02
1.165668e-02
1.195053e-02
1.224025e-02
1.252520e-02
1.280468e-02
1.307784e-02
1.334373e-02
1.360132e-02
1.384961e-02
1.408766e-02
1.431468e-02
1.452999e-02
1.473307e-02
1.492349e-02
1.510088e-02
1.526491e-02
1.541526e-02
1.555164e-02
1.567383e-02
1.578164e-02
1.587502e-02
1.595397e-02
1.601865e-02
1.606930e-02
1.610625e-02
1.612993e-02
1.614084e-02
1.613956e-02
1.612675e-02
1.610317e-02
1.606963e-02
1.602703e-02
1.597636e-02
1.591870e-02
1.585520e-02
1.578706e-02
1.571556e-02
1.564202e-02
1.556778e-02
1.549421e-02
1.542270e-02
1.535460e-02
1.529125e-02
1.523393e-02
1.518388e-02
1.514222e-02
1.510996e-02
1.508799e-02
1.508880e-02
5.470157e-03
5.480248e-03
5.313501e-03
5.099969e-03
4.915914e-03
4.806424e-03
4.773939e-03
4.787973e-03
4.806761e-03
4.798161e-03
4.751073e-03
4.675147e-03
4.592110e-03
4.524523e-03
4.487093e-03
4.483168e-03
4.506320e-03
4.545052e-03
4.588140e-03
4.628639e-03
4.665539e-03
4.703159e-03
4.748950e-03
4.810746e-03
4.894351e-03
5.002030e-03
5.132238e-03
5.280436e-03
5.440633e-03
5.607151e-03
5.776103e-03
5.946222e-03
6.118861e-03
6.297266e-03
6.485394e-03
6.686669e-03
6.903031e-03
7.134544e-03
7.379578e-03
7.635453e-03
7.899265e-03
8.168608e-03
8.441984e-03
8.718830e-03
8.999227e-03
9.283460e-03
9.571626e-03
9.863399e-03
1.015802e-02
1.045444e-02
1.075155e-02
1.104794e-02
1.134266e-02
1.163502e-02
1.192441e-02
1.221016e-02
1.249148e-02
1.276743e-02
1.303696e-02
1.329899e-02
1.355250e-02
1.379658e-02
1.403045e-02
1.425349e-02
1.446513e-02
1.466492e-02
1.485241e-02
1.502717e-02
1.518880e-02
1.533693e-02
1.547124e-02
1.559151e-02
1.569760e-02
1.578949e-02
1.586724e-02
1.593101e-02
1.598109e-02
1.601781e-02
1.604157e-02
1.605285e-02
1.605221e-02
1.604030e-02
1.601784e-02
1.598563e-02
1.594458e-02
1.589564e-02
1.583986e-02
1.577832e-02
1.571217e-02
1.564259e-02
1.557077e-02
1.549793e-02
1.542530e-02
1.535409e-02
1.528549e-02
1.522066e-02
1.516068e-02
1.510656e-02
1.505918e-02
1.501925e-02
1.498732e-02
1.498807e-02
5.546761e-03
5.507851e-03
5.297175e-03
5.104221e-03
4.980016e-03
4.929191e-03
4.924924e-03
4.928543e-03
4.909296e-03
4.855643e-03
4.775552e-03
4.688703e-03
4.615991e-03
4.571245e-03
4.557775e-03
4.569722e-03
4.596428e-03
4.627460e-03
4.656383e-03
4.682356e-03
4.709557e-03
4.745128e-03
4.796558e-03
4.869371e-03
4.965719e-03
5.084035e-03
5.219823e-03
5.367159e-03
5.520455e-03
5.675955e-03
5.832572e-03
5.991877e-03
6.157320e-03
6.332984e-03
6.522287e-03
6.727036e-03
6.947090e-03
7.180635e-03
7.424923e-03
7.677141e-03
7.935113e-03
8.197641e-03
8.464422e-03
8.735685e-03
9.011724e-03
9.292526e-03
9.577623e-03
9.866151e-03
1.015705e-02
1.044930e-02
1.074205e-02
1.103420e-02
1.132506e-02
1.161407e-02
1.190053e-02
1.218356e-02
1.246211e-02
1.273506e-02
1.300129e-02
1.325977e-02
1.350961e-02
1.375009e-02
1.398057e-02
1.420051e-02
1.440937e-02
1.460663e-02
1.479178e-02
1.496432e-02
1.512381e-02
1.526987e-02
1.540220e-02
1.552062e-02
1.562505e-02
1.571549e-02
1.579204e-02
1.585486e-02
1.590422e-02
1.594044e-02
1.596390e-02
1.597508e-02
1.597451e-02
1.596285e-02
1.594083e-02
1.590925e-02
1.586898e-02
1.582097e-02
1.576621e-02
1.570572e-02
1.564056e-02
1.557181e-02
1.550057e-02
1.542794e-02
1.535502e-02
1.528290e-02
1.521263e-02
1.514520e-02
1.508155e-02
1.502248e-02
1.496866e-02
1.492057e-02
1.487846e-02
1.487915e-02
5.551587e-03
5.492841e-03
5.297860e-03
5.161711e-03
5.096075e-03
5.074754e-03
5.061092e-03
5.026518e-03
4.960874e-03
4.872274e-03
4.779403e-03
4.701526e-03
4.650854e-03
4.629610e-03
4.631634e-03
4.646685e-03
4.665172e-03
4.681568e-03
4.695691e-03
4.711976e-03
4.737427e-03
4.779139e-03
4.842160e-03
4.928204e-03
5.035475e-03
5.159389e-03
5.294089e-03
5.434175e-03
5.576174e-03
5.719329e-03
5.865536e-03
6.018481e-03
6.182331e-03
6.360409e-03
6.554282e-03
6.763504e-03
6.986016e-03
7.218980e-03
7.459693e-03
7.706255e-03
7.957818e-03
8.214391e-03
8.476385e-03
8.744118e-03
9.017477e-03
9.295844e-03
9.578242e-03
9.863596e-03
1.015096e-02
1.043965e-02
1.072916e-02
1.101856e-02
1.130716e-02
1.159424e-02
1.187884e-02
1.215982e-02
1.243600e-02
1.270622e-02
1.296949e-02
1.322494e-02
1.347186e-02
1.370963e-02
1.393766e-02
1.415538e-02
1.436219e-02
1.455749e-02
1.474070e-02
1.491131e-02
1.506888e-02
1.521306e-02
1.534361e-02
1.546039e-02
1.556334e-02
1.565246e-02
1.572784e-02
1.578962e-02
1.583807e-02
1.587349e-02
1.589626e-02
1.590688e-02
1.590589e-02
1.589397e-02
1.587183e-02
1.584028e-02
1.580015e-02
1.575235e-02
1.569781e-02
1.563748e-02
1.557235e-02
1.550340e-02
1.543166e-02
1.535813e-02
1.528383e-02
1.520973e-02
1.513680e-02
1.506588e-02
1.499776e-02
1.493310e-02
1.487238e-02
1.481589e-02
1.476369e-02
1.476434e-02
5.534076e-03
5.486245e-03
5.342121e-03
5.264221e-03
5.229532e-03
5.200684e-03
5.150037e-03
5.069193e-03
4.967830e-03
4.865243e-03
4.780134e-03
4.723318e-03
4.695438e-03
4.689184e-03
4.693942e-03
4.700517e-03
4.704249e-03
4.705886e-03
4.710523e-03
4.725387e-03
4.757375e-03
4.811062e-03
4.887613e-03
4.984722e-03
5.097554e-03
5.220191e-03
5.347392e-03
5.476018e-03
5.605754e-03
5.738930e-03
5.879554e-03
6.031915e-03
6.199226e-03
6.382760e-03
6.581699e-03
6.793674e-03
7.015707e-03
7.245179e-03
7.480462e-03
7.721071e-03
7.967349e-03
8.219918e-03
8.479150e-03
8.744864e-03
9.016321e-03
9.292452e-03
9.572166e-03
9.854597e-03
1.013917e-02
1.042554e-02
1.071335e-02
1.100155e-02
1.128918e-02
1.157520e-02
1.185843e-02
1.213764e-02
1.241171e-02
1.267963e-02
1.294058e-02
1.319385e-02
1.343881e-02
1.367484e-02
1.390129e-02
1.411750e-02
1.432280e-02
1.451655e-02
1.469817e-02
1.486716e-02
1.502314e-02
1.516578e-02
1.529489e-02
1.541031e-02
1.551197e-02
1.559986e-02
1.567404e-02
1.573464e-02
1.578195e-02
1.581629e-02
1.583806e-02
1.584776e-02
1.584599e-02
1.583340e-02
1.581069e-02
1.577865e-02
1.573806e-02
1.568977e-02
1.563465e-02
1.557359e-02
1.550752e-02
1.543738e-02
1.536413e-02
1.528872e-02
1.521209e-02
1.513515e-02
1.505874e-02
1.498362e-02
1.491045e-02
1.483974e-02
1.477185e-02
1.470693e-02
1.464491e-02
1.464550e-02
5.539898e-03
5.522453e-03
5.430785e-03
5.384730e-03
5.343937e-03
5.279247e-03
5.182750e-03
5.065869e-03
4.949701e-03
4.853840e-03
4.788747e-03
4.753785e-03
4.740124e-03
4.736044e-03
4.732018e-03
4.723788e-03
4.712939e-03
4.705427e-03
4.709044e-03
4.730820e-03
4.775062e-03
4.842421e-03
4.930029e-03
5.032552e-03
5.143878e-03
5.258796e-03
5.374449e-03
5.490975e-03
5.611207e-03
5.739565e-03
5.880536e-03
6.037273e-03
6.210768e-03
6.399809e-03
6.601675e-03
6.813197e-03
7.031787e-03
7.256055e-03
7.485851e-03
7.721847e-03
7.964887e-03
8.215423e-03
8.473243e-03
8.737529e-03
9.007158e-03
9.281053e-03
9.558421e-03
9.838802e-03
1.012193e-02
1.040752e-02
1.069508e-02
1.098316e-02
1.127047e-02
1.155577e-02
1.183785e-02
1.211559e-02
1.238805e-02
1.265442e-02
1.291399e-02
1.316610e-02
1.341007e-02
1.364519e-02
1.387075e-02
1.408600e-02
1.429026e-02
1.448290e-02
1.466337e-02
1.483121e-02
1.498605e-02
1.512759e-02
1.525559e-02
1.536989e-02
1.547039e-02
1.555706e-02
1.562996e-02
1.568926e-02
1.573527e-02
1.576834e-02
1.578891e-02
1.579748e-02
1.579465e-02
1.578105e-02
1.575734e-02
1.572427e-02
1.568257e-02
1.563304e-02
1.557651e-02
1.551385e-02
1.544594e-02
1.537372e-02
1.529809e-02
1.521996e-02
1.514023e-02
1.505972e-02
1.497919e-02
1.489931e-02
1.482062e-02
1.474355e-02
1.466836e-02
1.459510e-02
1.452363e-02
1.452416e-02
5.592030e-03
5.607934e-03
5.543705e-03
5.492088e-03
5.415584e-03
5.304619e-03
5.171217e-03
5.038430e-03
4.927814e-03
4.850793e-03
4.806405e-03
4.784587e-03
4.772190e-03
4.758682e-03
4.739540e-03
4.716746e-03
4.697003e-03
4.688831e-03
4.699688e-03
4.733916e-03
4.791852e-03
4.870121e-03
4.962869e-03
5.063563e-03
5.166908e-03
5.270193e-03
5.373933e-03
5.481450e-03
5.597620e-03
5.727209e-03
5.873391e-03
6.036936e-03
6.216274e-03
6.408319e-03
6.609679e-03
6.817750e-03
7.031319e-03
7.250533e-03
7.476357e-03
7.709848e-03
7.951547e-03
8.201240e-03
8.458072e-03
8.720912e-03
8.988727e-03
9.260818e-03
9.536825e-03
9.816553e-03
1.009973e-02
1.038584e-02
1.067401e-02
1.096245e-02
1.124964e-02
1.153441e-02
1.181569e-02
1.209257e-02
1.236428e-02
1.263011e-02
1.288933e-02
1.314123e-02
1.338503e-02
1.361993e-02
1.384518e-02
1.406003e-02
1.426381e-02
1.445590e-02
1.463580e-02
1.480304e-02
1.495722e-02
1.509802e-02
1.522518e-02
1.533851e-02
1.543790e-02
1.552337e-02
1.559499e-02
1.565296e-02
1.569763e-02
1.572938e-02
1.574864e-02
1.575592e-02
1.575177e-02
1.573678e-02
1.571158e-02
1.567687e-02
1.563336e-02
1.558183e-02
1.552310e-02
1.545802e-02
1.538750e-02
1.531243e-02
1.523370e-02
1.515218e-02
1.506870e-02
1.498403e-02
1.489883e-02
1.481371e-02
1.472915e-02
1.464550e-02
1.456295e-02
1.448152e-02
1.440103e-02
1.440149e-02
5.685865e-03
5.724240e-03
5.652001e-03
5.563797e-03
5.439334e-03
5.289408e-03
5.138107e-03
5.009159e-03
4.915931e-03
4.858289e-03
4.825750e-03
4.803952e-03
4.781049e-03
4.751648e-03
4.717529e-03
4.685759e-03
4.665480e-03
4.664719e-03
4.688113e-03
4.735951e-03
4.804536e-03
4.887557e-03
4.978049e-03
5.070413e-03
5.161976e-03
5.253484e-03
5.348665e-03
5.452828e-03
5.571058e-03
5.706632e-03
5.860185e-03
6.029846e-03
6.212199e-03
6.403620e-03
6.601453e-03
6.804615e-03
7.013493e-03
7.229310e-03
7.453304e-03
7.686100e-03
7.927490e-03
8.176612e-03
8.432362e-03
8.693790e-03
8.960312e-03
9.231674e-03
9.507740e-03
9.788233e-03
1.007257e-02
1.035985e-02
1.064893e-02
1.093784e-02
1.122511e-02
1.150977e-02
1.179096e-02
1.206793e-02
1.233996e-02
1.260629e-02
1.286611e-02
1.311860e-02
1.336293e-02
1.359828e-02
1.382387e-02
1.403898e-02
1.424295e-02
1.443516e-02
1.461507e-02
1.478220e-02
1.493611e-02
1.507645e-02
1.520296e-02
1.531546e-02
1.541388e-02
1.549825e-02
1.556871e-02
1.562545e-02
1.566885e-02
1.569928e-02
1.571715e-02
1.572292e-02
1.571710e-02
1.570026e-02
1.567301e-02
1.563601e-02
1.559000e-02
1.553576e-02
1.547413e-02
1.540599e-02
1.533221e-02
1.525368e-02
1.517126e-02
1.508577e-02
1.499798e-02
1.490860e-02
1.481826e-02
1.472750e-02
1.463675e-02
1.454634e-02
1.445643e-02
1.436703e-02
1.427796e-02
1.427835e-02
5.796829e-03
5.840453e-03
5.730859e-03
5.592155e-03
5.425555e-03
5.254692e-03
5.104793e-03
4.991433e-03
4.916174e-03
4.869071e-03
4.835192e-03
4.801517e-03
4.761490e-03
4.716175e-03
4.672499e-03
4.639915e-03
4.626939e-03
4.638621e-03
4.675431e-03
4.733579e-03
4.806455e-03
4.886718e-03
4.968446e-03
5.048778e-03
5.128591e-03
5.211877e-03
5.304303e-03
5.411263e-03
5.536183e-03
5.679642e-03
5.839547e-03
6.012200e-03
6.193762e-03
6.381511e-03
6.574461e-03
6.773203e-03
6.979170e-03
7.193751e-03
7.417632e-03
7.650606e-03
7.891813e-03
8.140197e-03
8.394917e-03
8.655530e-03
8.921900e-03
9.193948e-03
9.471386e-03
9.753574e-03
1.003954e-02
1.032812e-02
1.061815e-02
1.090774e-02
1.119562e-02
1.148099e-02
1.176312e-02
1.204128e-02
1.231466e-02
1.258241e-02
1.284364e-02
1.309748e-02
1.334308e-02
1.357962e-02
1.380632e-02
1.402244e-02
1.422728e-02
1.442021e-02
1.460064e-02
1.476805e-02
1.492199e-02
1.506214e-02
1.518825e-02
1.530018e-02
1.539789e-02
1.548144e-02
1.555095e-02
1.560664e-02
1.564883e-02
1.567789e-02
1.569417e-02
1.569811e-02
1.569020e-02
1.567098e-02
1.564109e-02
1.560121e-02
1.555211e-02
1.549460e-02
1.542953e-02
1.535779e-02
1.528024e-02
1.519772e-02
1.511108e-02
1.502107e-02
1.492845e-02
1.483386e-02
1.473792e-02
1.464114e-02
1.454395e-02
1.444665e-02
1.434942e-02
1.425226e-02
1.415503e-02
1.415535e-02
5.894187e-03
5.927627e-03
5.767591e-03
5.583052e-03
5.391758e-03
5.219272e-03
5.082909e-03
4.986191e-03
4.920423e-03
4.870853e-03
4.823769e-03
4.771540e-03
4.714269e-03
4.658338e-03
4.613118e-03
4.587378e-03
4.586527e-03
4.611322e-03
4.658063e-03
4.720031e-03
4.789632e-03
4.860654e-03
4.930011e-03
4.998488e-03
5.070256e-03
5.151222e-03
5.247041e-03
5.361299e-03
5.494566e-03
5.644590e-03
5.807444e-03
5.979103e-03
6.156787e-03
6.339594e-03
6.528294e-03
6.724506e-03
6.929738e-03
7.144711e-03
7.369199e-03
7.602334e-03
7.843114e-03
8.090823e-03
8.345170e-03
8.606154e-03
8.873759e-03
9.147687e-03
9.427246e-03
9.711408e-03
9.998999e-03
1.028889e-02
1.058013e-02
1.087103e-02
1.116042e-02
1.144759e-02
1.173178e-02
1.201215e-02
1.228779e-02
1.255779e-02
1.282125e-02
1.307726e-02
1.332496e-02
1.356352e-02
1.379210e-02
1.400992e-02
1.421623e-02
1.441037e-02
1.459172e-02
1.475978e-02
1.491414e-02
1.505448e-02
1.518059e-02
1.529236e-02
1.538974e-02
1.547279e-02
1.554160e-02
1.559634e-02
1.563731e-02
1.566482e-02
1.567922e-02
1.568094e-02
1.567047e-02
1.564840e-02
1.561538e-02
1.557215e-02
1.551952e-02
1.545831e-02
1.538939e-02
1.531361e-02
1.523181e-02
1.514482e-02
1.505342e-02
1.495837e-02
1.486038e-02
1.476010e-02
1.465814e-02
1.455500e-02
1.445112e-02
1.434683e-02
1.424231e-02
1.413759e-02
1.403258e-02
1.403284e-02
5.953901e-03
5.968934e-03
5.763006e-03
5.549853e-03
5.353657e-03
5.192585e-03
5.071787e-03
4.984019e-03
4.915233e-03
4.851573e-03
4.784689e-03
4.713798e-03
4.644568e-03
4.586004e-03
4.546846e-03
4.532694e-03
4.544552e-03
4.578900e-03
4.629049e-03
4.687289e-03
4.747198e-03
4.805477e-03
4.862763e-03
4.923202e-03
4.992893e-03
5.077676e-03
5.181273e-03
5.304266e-03
5.444281e-03
5.597200e-03
5.758835e-03
5.926361e-03
6.098967e-03
6.277599e-03
6.464051e-03
6.659937e-03
6.865983e-03
7.081922e-03
7.306858e-03
7.539831e-03
7.780247e-03
8.027979e-03
8.283164e-03
8.545858e-03
8.815766e-03
9.092147e-03
9.373939e-03
9.659976e-03
9.949191e-03
1.024072e-02
1.053386e-02
1.082706e-02
1.111910e-02
1.140917e-02
1.169641e-02
1.197989e-02
1.225866e-02
1.253179e-02
1.279834e-02
1.305741e-02
1.330807e-02
1.354941e-02
1.378055e-02
1.400064e-02
1.420893e-02
1.440474e-02
1.458750e-02
1.475672e-02
1.491202e-02
1.505310e-02
1.517977e-02
1.529186e-02
1.538933e-02
1.547216e-02
1.554041e-02
1.559420e-02
1.563379e-02
1.565950e-02
1.567170e-02
1.567082e-02
1.565741e-02
1.563212e-02
1.559564e-02
1.554876e-02
1.549228e-02
1.542705e-02
1.535389e-02
1.527364e-02
1.518713e-02
1.509513e-02
1.499844e-02
1.489780e-02
1.479392e-02
1.468749e-02
1.457910e-02
1.446930e-02
1.435853e-02
1.424714e-02
1.413535e-02
1.402326e-02
1.391079e-02
1.391099e-02
5.965700e-03
5.962666e-03
5.727347e-03
5.506082e-03
5.319257e-03
5.172980e-03
5.061172e-03
4.970580e-03
4.887539e-03
4.803362e-03
4.716655e-03
4.632463e-03
4.559349e-03
4.505850e-03
4.477576e-03
4.475660e-03
4.496731e-03
4.534185e-03
4.580289e-03
4.628493e-03
4.675320e-03
4.721258e-03
4.770374e-03
4.828795e-03
4.902539e-03
4.995433e-03
5.108067e-03
5.237955e-03
5.380796e-03
5.532253e-03
5.689462e-03
5.851713e-03
6.020140e-03
6.196724e-03
6.383178e-03
6.580226e-03
6.787529e-03
7.004137e-03
7.229114e-03
7.461976e-03
7.702755e-03
7.951726e-03
8.209027e-03
8.474364e-03
8.746972e-03
9.025768e-03
9.309616e-03
9.597531e-03
9.888753e-03
1.018269e-02
1.047877e-02
1.077542e-02
1.107118e-02
1.136512e-02
1.165631e-02
1.194378e-02
1.222658e-02
1.250376e-02
1.277433e-02
1.303730e-02
1.329166e-02
1.353644e-02
1.377070e-02
1.399361e-02
1.420444e-02
1.440253e-02
1.458735e-02
1.475842e-02
1.491537e-02
1.505786e-02
1.518564e-02
1.529853e-02
1.539639e-02
1.547916e-02
1.554686e-02
1.559960e-02
1.563762e-02
1.566129e-02
1.567101e-02
1.566729e-02
1.565073e-02
1.562202e-02
1.558189e-02
1.553114e-02
1.547056e-02
1.540096e-02
1.532317e-02
1.523800e-02
1.514624e-02
1.504869e-02
1.494616e-02
1.483940e-02
1.472916e-02
1.461613e-02
1.450096e-02
1.438419e-02
1.426632e-02
1.414773e-02
1.402868e-02
1.390932e-02
1.378966e-02
1.378980e-02
5.933157e-03
5.918808e-03
5.673790e-03
5.459982e-03
5.287381e-03
5.150562e-03
5.036773e-03
4.932503e-03
4.828899e-03
4.724211e-03
4.623098e-03
4.533810e-03
4.464695e-03
4.421291e-03
4.404750e-03
4.411762e-03
4.435773e-03
4.469040e-03
4.504925e-03
4.539805e-03
4.574026e-03
4.611578e-03
4.658580e-03
4.721119e-03
4.803162e-03
4.905299e-03
5.024926e-03
5.157554e-03
5.298679e-03
5.445392e-03
5.597086e-03
5.755099e-03
5.921620e-03
6.098474e-03
6.286379e-03
6.484910e-03
6.693037e-03
6.909820e-03
7.134868e-03
7.368359e-03
7.610706e-03
7.862121e-03
8.122324e-03
8.390530e-03
8.665661e-03
8.946633e-03
9.232561e-03
9.522809e-03
9.816884e-03
1.011429e-02
1.041443e-02
1.071556e-02
1.101595e-02
1.131463e-02
1.161065e-02
1.190305e-02
1.219083e-02
1.247297e-02
1.274838e-02
1.301597e-02
1.327466e-02
1.352346e-02
1.376146e-02
1.398787e-02
1.420199e-02
1.440319e-02
1.459091e-02
1.476466e-02
1.492400e-02
1.506852e-02
1.519793e-02
1.531194e-02
1.541038e-02
1.549316e-02
1.556028e-02
1.561186e-02
1.564817e-02
1.566967e-02
1.567682e-02
1.567018e-02
1.565040e-02
1.561819e-02
1.557428e-02
1.551945e-02
1.545448e-02
1.538015e-02
1.529726e-02
1.520664e-02
1.510910e-02
1.500547e-02
1.489657e-02
1.478320e-02
1.466614e-02
1.454612e-02
1.442380e-02
1.429978e-02
1.417459e-02
1.404865e-02
1.392229e-02
1.379572e-02
1.366903e-02
1.366911e-02
5.868615e-03
5.852179e-03
5.612574e-03
5.412458e-03
5.249921e-03
5.112297e-03
4.985897e-03
4.861552e-03
4.737208e-03
4.617320e-03
4.510049e-03
4.423724e-03
4.363895e-03
4.331718e-03
4.323877e-03
4.333787e-03
4.353639e-03
4.376676e-03
4.399123e-03
4.421179e-03
4.446755e-03
4.481989e-03
4.533027e-03
4.603920e-03
4.695319e-03
4.804500e-03
4.926765e-03
5.057416e-03
5.193464e-03
5.334395e-03
5.481760e-03
5.637974e-03
5.805000e-03
5.983555e-03
6.173121e-03
6.372567e-03
6.580926e-03
6.797879e-03
7.023736e-03
7.259039e-03
7.504072e-03
7.758567e-03
8.021731e-03
8.292502e-03
8.569870e-03
8.853072e-03
9.141604e-03
9.435084e-03
9.733083e-03
1.003502e-02
1.034013e-02
1.064659e-02
1.095245e-02
1.125676e-02
1.155856e-02
1.185682e-02
1.215048e-02
1.243836e-02
1.271929e-02
1.299211e-02
1.325578e-02
1.350932e-02
1.375189e-02
1.398272e-02
1.420110e-02
1.440638e-02
1.459794e-02
1.477518e-02
1.493757e-02
1.508466e-02
1.521605e-02
1.533143e-02
1.543058e-02
1.551342e-02
1.557996e-02
1.563038e-02
1.566501e-02
1.568439e-02
1.568903e-02
1.567954e-02
1.565656e-02
1.562079e-02
1.557296e-02
1.551379e-02
1.544406e-02
1.536455e-02
1.527608e-02
1.517949e-02
1.507564e-02
1.496541e-02
1.484966e-02
1.472923e-02
1.460492e-02
1.447751e-02
1.434770e-02
1.421612e-02
1.408335e-02
1.394988e-02
1.381610e-02
1.368230e-02
1.354867e-02
1.354866e-02
5.786247e-03
5.775600e-03
5.547733e-03
5.358181e-03
5.195993e-03
5.046939e-03