# vtk DataFile Version 3.0
Scalar Field
ASCII
DATASET RECTILINEAR_GRID
DIMENSIONS 102 102 1
X_COORDINATES 102 double
0.000000 0.100000 0.200000 0.300000 0.400000 0.500000 0.600000 0.700000 0.800000 0.900000 1.000000 1.100000 1.200000 1.300000 1.400000 1.500000 1.600000 1.700000 1.800000 1.900000 2.000000 2.100000 2.200000 2.300000 2.400000 2.500000 2.600000 2.700000 2.800000 2.900000 3.000000 3.100000 3.200000 3.300000 3.400000 3.500000 3.600000 3.700000 3.800000 3.900000 4.000000 4.100000 4.200000 4.300000 4.400000 4.500000 4.600000 4.700000 4.800000 4.900000 5.000000 5.100000 5.200000 5.300000 5.400000 5.500000 5.600000 5.700000 5.800000 5.900000 6.000000 6.100000 6.200000 6.300000 6.400000 6.500000 6.600000 6.700000 6.800000 6.900000 7.000000 7.100000 7.200000 7.300000 7.400000 7.500000 7.600000 7.700000 7.800000 7.900000 8.000000 8.100000 8.200000 8.300000 8.400000 8.500000 8.600000 8.700000 8.800000 8.900000 9.000000 9.100000 9.200000 9.300000 9.400000 9.500000 9.600000 9.700000 9.800000 9.900000 10.000000 10.100000 
Y_COORDINATES 102 double
0.000000 0.100000 0.200000 0.300000 0.400000 0.500000 0.600000 0.700000 0.800000 0.900000 1.000000 1.100000 1.200000 1.300000 1.400000 1.500000 1.600000 1.700000 1.800000 1.900000 2.000000 2.100000 2.200000 2.300000 2.400000 2.500000 2.600000 2.700000 2.800000 2.900000 3.000000 3.100000 3.200000 3.300000 3.400000 3.500000 3.600000 3.700000 3.800000 3.900000 4.000000 4.100000 4.200000 4.300000 4.400000 4.500000 4.600000 4.700000 4.800000 4.900000 5.000000 5.100000 5.200000 5.300000 5.400000 5.500000 5.600000 5.700000 5.800000 5.900000 6.000000 6.100000 6.200000 6.300000 6.400000 6.500000 6.600000 6.700000 6.800000 6.900000 7.000000 7.100000 7.200000 7.300000 7.400000 7.500000 7.600000 7.700000 7.800000 7.900000 8.000000 8.100000 8.200000 8.300000 8.400000 8.500000 8.600000 8.700000 8.800000 8.900000 9.000000 9.100000 9.200000 9.300000 9.400000 9.500000 9.600000 9.700000 9.800000 9.900000 10.000000 10.100000 
Z_COORDINATES 1 double
0.0
POINT_DATA 10404
SCALARS Pressure double 1
LOOKUP_TABLE default
0.000000e+00
1.628457e-02
1.650784e-02
1.654766e-02
1.639025e-02
1.610298e-02
1.578069e-02
1.550278e-02
1.530645e-02
1.518382e-02
1.509881e-02
1.501160e-02
1.489786e-02
1.475551e-02
1.459955e-02
1.445083e-02
1.432575e-02
1.423129e-02
1.416590e-02
1.412390e-02
1.410008e-02
1.409221e-02
1.410113e-02
1.412917e-02
1.417832e-02
1.424915e-02
1.434080e-02
1.445167e-02
1.458026e-02
1.472571e-02
1.488789e-02
1.506710e-02
1.526366e-02
1.547762e-02
1.570863e-02
1.595595e-02
1.621863e-02
1.649566e-02
1.678604e-02
1.708882e-02
1.740309e-02
1.772786e-02
1.806206e-02
1.840447e-02
1.875372e-02
1.910830e-02
1.946657e-02
1.982679e-02
2.018706e-02
2.054549e-02
2.090021e-02
2.124935e-02
2.159109e-02
2.192362e-02
2.224517e-02
2.255403e-02
2.284859e-02
2.312726e-02
2.338860e-02
2.363124e-02
2.385391e-02
2.405546e-02
2.423487e-02
2.439124e-02
2.452381e-02
2.463198e-02
2.471533e-02
2.477358e-02
2.480666e-02
2.481467e-02
2.479789e-02
2.475679e-02
2.469200e-02
2.460431e-02
2.449471e-02
2.436432e-02
2.421445e-02
2.404656e-02
2.386226e-02
2.366331e-02
2.345161e-02
2.322921e-02
2.299827e-02
2.276108e-02
2.252006e-02
2.227773e-02
2.203674e-02
2.179983e-02
2.156984e-02
2.134971e-02
2.114245e-02
2.095113e-02
2.077886e-02
2.062870e-02
2.050359e-02
2.040617e-02
2.033844e-02
2.030118e-02
2.029277e-02
2.030707e-02
2.032974e-02
0.000000e+00
1.628457e-02
1.652262e-02
1.664270e-02
1.654789e-02
1.628182e-02
1.594814e-02
1.564555e-02
1.542979e-02
1.530289e-02
1.522792e-02
1.515671e-02
1.505478e-02
1.491326e-02
1.474589e-02
1.457690e-02
1.442791e-02
1.431028e-02
1.422447e-02
1.416453e-02
1.412375e-02
1.409847e-02
1.408885e-02
1.409738e-02
1.412669e-02
1.417800e-02
1.425075e-02
1.434330e-02
1.445391e-02
1.458145e-02
1.472571e-02
1.488707e-02
1.506604e-02
1.526291e-02
1.547748e-02
1.570910e-02
1.595685e-02
1.621971e-02
1.649671e-02
1.678694e-02
1.708956e-02
1.740371e-02
1.772843e-02
1.806264e-02
1.840509e-02
1.875438e-02
1.910898e-02
1.946727e-02
1.982749e-02
2.018777e-02
2.054621e-02
2.090094e-02
2.125009e-02
2.159182e-02
2.192432e-02
2.224583e-02
2.255465e-02
2.284915e-02
2.312779e-02
2.338910e-02
2.363174e-02
2.385441e-02
2.405598e-02
2.423541e-02
2.439178e-02
2.452434e-02
2.463249e-02
2.471580e-02
2.477401e-02
2.480705e-02
2.481502e-02
2.479822e-02
2.475709e-02
2.469227e-02
2.460457e-02
2.449495e-02
2.436455e-02
2.421468e-02
2.404678e-02
2.386248e-02
2.366353e-02
2.345184e-02
2.322943e-02
2.299849e-02
2.276129e-02
2.252026e-02
2.227791e-02
2.203690e-02
2.179997e-02
2.156997e-02
2.134982e-02
2.114255e-02
2.095123e-02
2.077896e-02
2.062880e-02
2.050369e-02
2.040627e-02
2.033854e-02
2.030128e-02
2.029287e-02
2.030717e-02
2.032985e-02
2.032974e-02
1.651837e-02
1.665396e-02
1.658887e-02
1.636621e-02
1.609185e-02
1.585171e-02
1.568890e-02
1.559768e-02
1.554010e-02
1.547257e-02
1.536778e-02
1.522312e-02
1.505546e-02
1.488868e-02
1.474185e-02
1.462345e-02
1.453221e-02
1.446212e-02
1.440761e-02
1.436657e-02
1.434028e-02
1.433168e-02
1.434323e-02
1.437572e-02
1.442835e-02
1.449947e-02
1.458760e-02
1.469201e-02
1.481277e-02
1.495039e-02
1.510539e-02
1.527794e-02
1.546776e-02
1.567419e-02
1.589637e-02
1.613343e-02
1.638454e-02
1.664897e-02
1.692602e-02
1.721495e-02
1.751490e-02
1.782489e-02
1.814381e-02
1.847039e-02
1.880330e-02
1.914109e-02
1.948223e-02
1.982509e-02
2.016788e-02
2.050878e-02
2.084601e-02
2.117780e-02
2.150240e-02
2.181810e-02
2.212326e-02
2.241627e-02
2.269562e-02
2.295985e-02
2.320758e-02
2.343752e-02
2.364846e-02
2.383931e-02
2.400908e-02
2.415694e-02
2.428217e-02
2.438424e-02
2.446277e-02
2.451754e-02
2.454851e-02
2.455580e-02
2.453970e-02
2.450066e-02
2.443932e-02
2.435644e-02
2.425297e-02
2.413001e-02
2.398882e-02
2.383080e-02
2.365751e-02
2.347061e-02
2.327195e-02
2.306345e-02
2.284720e-02
2.262536e-02
2.240022e-02
2.217418e-02
2.194973e-02
2.172942e-02
2.151592e-02
2.131190e-02
2.112013e-02
2.094336e-02
2.078431e-02
2.064561e-02
2.052967e-02
2.043855e-02
2.037363e-02
2.033523e-02
2.032193e-02
2.032990e-02
2.035261e-02
2.035250e-02
1.665689e-02
1.665498e-02
1.645198e-02
1.620506e-02
1.601466e-02
1.590999e-02
1.586934e-02
1.584381e-02
1.578753e-02
1.567872e-02
1.552389e-02
1.534789e-02
1.517827e-02
1.503317e-02
1.491736e-02
1.482573e-02
1.475013e-02
1.468512e-02
1.463015e-02
1.458837e-02
1.456389e-02
1.455938e-02
1.457519e-02
1.460992e-02
1.466162e-02
1.472896e-02
1.481162e-02
1.491014e-02
1.502536e-02
1.515786e-02
1.530774e-02
1.547453e-02
1.565747e-02
1.585569e-02
1.606843e-02
1.629504e-02
1.653498e-02
1.678772e-02
1.705263e-02
1.732898e-02
1.761587e-02
1.791227e-02
1.821706e-02
1.852905e-02
1.884697e-02
1.916948e-02
1.949512e-02
1.982238e-02
2.014945e-02
2.047456e-02
2.079601e-02
2.111211e-02
2.142123e-02
2.172177e-02
2.201217e-02
2.229096e-02
2.255667e-02
2.280794e-02
2.304342e-02
2.326189e-02
2.346217e-02
2.364324e-02
2.380416e-02
2.394415e-02
2.406257e-02
2.415895e-02
2.423293e-02
2.428434e-02
2.431316e-02
2.431952e-02
2.430371e-02
2.426619e-02
2.420757e-02
2.412860e-02
2.403021e-02
2.391346e-02
2.377957e-02
2.362990e-02
2.346593e-02
2.328929e-02
2.310171e-02
2.290507e-02
2.270133e-02
2.249257e-02
2.228097e-02
2.206877e-02
2.185833e-02
2.165204e-02
2.145235e-02
2.126175e-02
2.108273e-02
2.091779e-02
2.076933e-02
2.063966e-02
2.053086e-02
2.044463e-02
2.038221e-02
2.034406e-02
2.032972e-02
2.033789e-02
2.036716e-02
2.036706e-02
1.667800e-02
1.656016e-02
1.632398e-02
1.615126e-02
1.608646e-02
1.609435e-02
1.611083e-02
1.607992e-02
1.597812e-02
1.581743e-02
1.563116e-02
1.545375e-02
1.530599e-02
1.519121e-02
1.510077e-02
1.502325e-02
1.495176e-02
1.488619e-02
1.483120e-02
1.479239e-02
1.477319e-02
1.477390e-02
1.479261e-02
1.482696e-02
1.487551e-02
1.493820e-02
1.501600e-02
1.511016e-02
1.522145e-02
1.534997e-02
1.549514e-02
1.565606e-02
1.583182e-02
1.602169e-02
1.622517e-02
1.644190e-02
1.667150e-02
1.691351e-02
1.716729e-02
1.743202e-02
1.770680e-02
1.799060e-02
1.828238e-02
1.858100e-02
1.888531e-02
1.919401e-02
1.950574e-02
1.981901e-02
2.013199e-02
2.044290e-02
2.075013e-02
2.105213e-02
2.134736e-02
2.163432e-02
2.191156e-02
2.217764e-02
2.243119e-02
2.267084e-02
2.289532e-02
2.310342e-02
2.329402e-02
2.346616e-02
2.361897e-02
2.375174e-02
2.386387e-02
2.395494e-02
2.402462e-02
2.407278e-02
2.409938e-02
2.410458e-02
2.408866e-02
2.405209e-02
2.399547e-02
2.391954e-02
2.382521e-02
2.371350e-02
2.358560e-02
2.344282e-02
2.328660e-02
2.311850e-02
2.294020e-02
2.275348e-02
2.256023e-02
2.236243e-02
2.216215e-02
2.196152e-02
2.176273e-02
2.156803e-02
2.137970e-02
2.120002e-02
2.103129e-02
2.087576e-02
2.073561e-02
2.061289e-02
2.050946e-02
2.042693e-02
2.036652e-02
2.032907e-02
2.031502e-02
2.032476e-02
2.035940e-02
2.035929e-02
1.662798e-02
1.645555e-02
1.628139e-02
1.622958e-02
1.627166e-02
1.632986e-02
1.633408e-02
1.625224e-02
1.609570e-02
1.590320e-02
1.571660e-02
1.556219e-02
1.544498e-02
1.535473e-02
1.527703e-02
1.520251e-02
1.513017e-02
1.506519e-02
1.501434e-02
1.498206e-02
1.496906e-02
1.497334e-02
1.499220e-02
1.502396e-02
1.506866e-02
1.512754e-02
1.520218e-02
1.529362e-02
1.540204e-02
1.552685e-02
1.566706e-02
1.582171e-02
1.599008e-02
1.617176e-02
1.636652e-02
1.657415e-02
1.679430e-02
1.702645e-02
1.726990e-02
1.752383e-02
1.778735e-02
1.805953e-02
1.833939e-02
1.862589e-02
1.891793e-02
1.921424e-02
1.951348e-02
1.981420e-02
2.011453e-02
2.041271e-02
2.070725e-02
2.099670e-02
2.127961e-02
2.155458e-02
2.182019e-02
2.207505e-02
2.231778e-02
2.254706e-02
2.276165e-02
2.296039e-02
2.314225e-02
2.330630e-02
2.345175e-02
2.357794e-02
2.368432e-02
2.377047e-02
2.383613e-02
2.388112e-02
2.390546e-02
2.390927e-02
2.389288e-02
2.385674e-02
2.380145e-02
2.372774e-02
2.363650e-02
2.352874e-02
2.340561e-02
2.326837e-02
2.311842e-02
2.295728e-02
2.278655e-02
2.260797e-02
2.242332e-02
2.223451e-02
2.204350e-02
2.185230e-02
2.166298e-02
2.147763e-02
2.129839e-02
2.112737e-02
2.096668e-02
2.081838e-02
2.068447e-02
2.056682e-02
2.046718e-02
2.038709e-02
2.032787e-02
2.029066e-02
2.027653e-02
2.028674e-02
2.032333e-02
2.032323e-02
1.658422e-02
1.642785e-02
1.636272e-02
1.641614e-02
1.650420e-02
1.654362e-02
1.649011e-02
1.634856e-02
1.615812e-02
1.596567e-02
1.580351e-02
1.568068e-02
1.558789e-02
1.550933e-02
1.543339e-02
1.535736e-02
1.528584e-02
1.522593e-02
1.518280e-02
1.515778e-02
1.514910e-02
1.515405e-02
1.517086e-02
1.519951e-02
1.524140e-02
1.529828e-02
1.537141e-02
1.546110e-02
1.556679e-02
1.568751e-02
1.582230e-02
1.597044e-02
1.613160e-02
1.630562e-02
1.649241e-02
1.669172e-02
1.690316e-02
1.712613e-02
1.735994e-02
1.760381e-02
1.785694e-02
1.811849e-02
1.838757e-02
1.866317e-02
1.894417e-02
1.922933e-02
1.951733e-02
1.980682e-02
2.009588e-02
2.038278e-02
2.066614e-02
2.094461e-02
2.121679e-02
2.148129e-02
2.173672e-02
2.198168e-02
2.221482e-02
2.243486e-02
2.264061e-02
2.283098e-02
2.300500e-02
2.316182e-02
2.330069e-02
2.342098e-02
2.352215e-02
2.360382e-02
2.366570e-02
2.370764e-02
2.372967e-02
2.373191e-02
2.371470e-02
2.367851e-02
2.362394e-02
2.355171e-02
2.346269e-02
2.335787e-02
2.323836e-02
2.310542e-02
2.296038e-02
2.280473e-02
2.264002e-02
2.246790e-02
2.229012e-02
2.210847e-02
2.192481e-02
2.174107e-02
2.155918e-02
2.138112e-02
2.120886e-02
2.104440e-02
2.088969e-02
2.074664e-02
2.061708e-02
2.050277e-02
2.040537e-02
2.032638e-02
2.026720e-02
2.022918e-02
2.021368e-02
2.022233e-02
2.025731e-02
2.025722e-02
1.661741e-02
1.652777e-02
1.655863e-02
1.665636e-02
1.671999e-02
1.669368e-02
1.657276e-02
1.639210e-02
1.619963e-02
1.603180e-02
1.590208e-02
1.580393e-02
1.572210e-02
1.564402e-02
1.556544e-02
1.548979e-02
1.542364e-02
1.537222e-02
1.533719e-02
1.531716e-02
1.530967e-02
1.531308e-02
1.532745e-02
1.535417e-02
1.539511e-02
1.545161e-02
1.552404e-02
1.561195e-02
1.571442e-02
1.583053e-02
1.595965e-02
1.610149e-02
1.625596e-02
1.642302e-02
1.660253e-02
1.679416e-02
1.699745e-02
1.721181e-02
1.743662e-02
1.767121e-02
1.791487e-02
1.816684e-02
1.842621e-02
1.869197e-02
1.896300e-02
1.923810e-02
1.951602e-02
1.979553e-02
2.007471e-02
2.035183e-02
2.062557e-02
2.089461e-02
2.115755e-02
2.141299e-02
2.165953e-02
2.189579e-02
2.212047e-02
2.233234e-02
2.253029e-02
2.271331e-02
2.288047e-02
2.303096e-02
2.316405e-02
2.327911e-02
2.337562e-02
2.345320e-02
2.351156e-02
2.355058e-02
2.357027e-02
2.357079e-02
2.355248e-02
2.351583e-02
2.346144e-02
2.339003e-02
2.330243e-02
2.319964e-02
2.308274e-02
2.295294e-02
2.281158e-02
2.266007e-02
2.249993e-02
2.233275e-02
2.216020e-02
2.198400e-02
2.180592e-02
2.162779e-02
2.145144e-02
2.127874e-02
2.111154e-02
2.095171e-02
2.080108e-02
2.066141e-02
2.053446e-02
2.042184e-02
2.032515e-02
2.024585e-02
2.018539e-02
2.014517e-02
2.012668e-02
2.013158e-02
2.016189e-02
2.016181e-02
1.676201e-02
1.675393e-02
1.682344e-02
1.689257e-02
1.688199e-02
1.677818e-02
1.660942e-02
1.642110e-02
1.625073e-02
1.611467e-02
1.600932e-02
1.592131e-02
1.583853e-02
1.575623e-02
1.567684e-02
1.560601e-02
1.554833e-02
1.550527e-02
1.547554e-02
1.545699e-02
1.544831e-02
1.544978e-02
1.546292e-02
1.548956e-02
1.553106e-02
1.558779e-02
1.565931e-02
1.574479e-02
1.584342e-02
1.595467e-02
1.607833e-02
1.621436e-02
1.636278e-02
1.652348e-02
1.669622e-02
1.688061e-02
1.707621e-02
1.728254e-02
1.749906e-02
1.772523e-02
1.796037e-02
1.820368e-02
1.845426e-02
1.871109e-02
1.897307e-02
1.923911e-02
1.950812e-02
1.977897e-02
2.004975e-02
2.031861e-02
2.058425e-02
2.084529e-02
2.110033e-02
2.134794e-02
2.158675e-02
2.181543e-02
2.203275e-02
2.223757e-02
2.242883e-02
2.260556e-02
2.276686e-02
2.291193e-02
2.304003e-02
2.315053e-02
2.324291e-02
2.331679e-02
2.337191e-02
2.340815e-02
2.342554e-02
2.342426e-02
2.340463e-02
2.336719e-02
2.331253e-02
2.324134e-02
2.315448e-02
2.305290e-02
2.293768e-02
2.281001e-02
2.267119e-02
2.252259e-02
2.236569e-02
2.220202e-02
2.203319e-02
2.186085e-02
2.168669e-02
2.151246e-02
2.133990e-02
2.117077e-02
2.100685e-02
2.084986e-02
2.070154e-02
2.056356e-02
2.043754e-02
2.032504e-02
2.022755e-02
2.014652e-02
2.008335e-02
2.003945e-02
2.001628e-02
2.001541e-02
2.003860e-02
2.003853e-02
1.700690e-02
1.706131e-02
1.709963e-02
1.708689e-02
1.698771e-02
1.682467e-02
1.663920e-02
1.646722e-02
1.632556e-02
1.621216e-02
1.611544e-02
1.602465e-02
1.593563e-02
1.585067e-02
1.577469e-02
1.571140e-02
1.566152e-02
1.562343e-02
1.559501e-02
1.557528e-02
1.556487e-02
1.556556e-02
1.557923e-02
1.560712e-02
1.564956e-02
1.570607e-02
1.577584e-02
1.585817e-02
1.595265e-02
1.605919e-02
1.617783e-02
1.630862e-02
1.645147e-02
1.660619e-02
1.677248e-02
1.695001e-02
1.713842e-02
1.733736e-02
1.754639e-02
1.776496e-02
1.799237e-02
1.822779e-02
1.847031e-02
1.871897e-02
1.897281e-02
1.923088e-02
1.949223e-02
1.975583e-02
2.001969e-02
2.028174e-02
2.054062e-02
2.079493e-02
2.104323e-02
2.128413e-02
2.151633e-02
2.173858e-02
2.194972e-02
2.214866e-02
2.233439e-02
2.250592e-02
2.266237e-02
2.280290e-02
2.292677e-02
2.303335e-02
2.312213e-02
2.319274e-02
2.324493e-02
2.327860e-02
2.329380e-02
2.329071e-02
2.326963e-02
2.323115e-02
2.317583e-02
2.310439e-02
2.301765e-02
2.291657e-02
2.280222e-02
2.267575e-02
2.253843e-02
2.239162e-02
2.223673e-02
2.207526e-02
2.190874e-02
2.173879e-02
2.156702e-02
2.139510e-02
2.122470e-02
2.105751e-02
2.089519e-02
2.073940e-02
2.059176e-02
2.045385e-02
2.032720e-02
2.021329e-02
2.011355e-02
2.002935e-02
1.996205e-02
1.991300e-02
1.988358e-02
1.987520e-02
1.988933e-02
1.988927e-02
1.730710e-02
1.738638e-02
1.734180e-02
1.723016e-02
1.705966e-02
1.686890e-02
1.669153e-02
1.654293e-02
1.642057e-02
1.631327e-02
1.621137e-02
1.611189e-02
1.601786e-02
1.593426e-02
1.586416e-02
1.580734e-02
1.576140e-02
1.572385e-02
1.569376e-02
1.567212e-02
1.566103e-02
1.566255e-02
1.567789e-02
1.570716e-02
1.574983e-02
1.580507e-02
1.587222e-02
1.595099e-02
1.604141e-02
1.614361e-02
1.625768e-02
1.638357e-02
1.652111e-02
1.667005e-02
1.683017e-02
1.700126e-02
1.718308e-02
1.737534e-02
1.757758e-02
1.778921e-02
1.800948e-02
1.823759e-02
1.847269e-02
1.871398e-02
1.896069e-02
1.921199e-02
1.946702e-02
1.972474e-02
1.998304e-02
2.023954e-02
2.049282e-02
2.074147e-02
2.098411e-02
2.121943e-02
2.144619e-02
2.166324e-02
2.186946e-02
2.206377e-02
2.224513e-02
2.241255e-02
2.256510e-02
2.270194e-02
2.282233e-02
2.292564e-02
2.301138e-02
2.307919e-02
2.312884e-02
2.316024e-02
2.317343e-02
2.316858e-02
2.314601e-02
2.310630e-02
2.305004e-02
2.297794e-02
2.289082e-02
2.278963e-02
2.267542e-02
2.254933e-02
2.241259e-02
2.226653e-02
2.211252e-02
2.195203e-02
2.178654e-02
2.161761e-02
2.144681e-02
2.127574e-02
2.110602e-02
2.093924e-02
2.077699e-02
2.062086e-02
2.047237e-02
2.033302e-02
2.020426e-02
2.008749e-02
1.998407e-02
1.989532e-02
1.982252e-02
1.976693e-02
1.972983e-02
1.971247e-02
1.971607e-02
1.971603e-02
1.760724e-02
1.767466e-02
1.753005e-02
1.733621e-02
1.712713e-02
1.693551e-02
1.677503e-02
1.664125e-02
1.652163e-02
1.640624e-02
1.629291e-02
1.618585e-02
1.609086e-02
1.601107e-02
1.594562e-02
1.589116e-02
1.584446e-02
1.580427e-02
1.577170e-02
1.574912e-02
1.573885e-02
1.574215e-02
1.575905e-02
1.578876e-02
1.583043e-02
1.588338e-02
1.594740e-02
1.602261e-02
1.610923e-02
1.620740e-02
1.631710e-02
1.643819e-02
1.657049e-02
1.671386e-02
1.686818e-02
1.703336e-02
1.720920e-02
1.739536e-02
1.759131e-02
1.779642e-02
1.800997e-02
1.823127e-02
1.845967e-02
1.869456e-02
1.893527e-02
1.918106e-02
1.943103e-02
1.968407e-02
1.993794e-02
2.018992e-02
2.043861e-02
2.068264e-02
2.092074e-02
2.115169e-02
2.137433e-02
2.158750e-02
2.179009e-02
2.198098e-02
2.215910e-02
2.232342e-02
2.247300e-02
2.260699e-02
2.272467e-02
2.282542e-02
2.290876e-02
2.297433e-02
2.302191e-02
2.305139e-02
2.306281e-02
2.305635e-02
2.303230e-02
2.299127e-02
2.293387e-02
2.286081e-02
2.277290e-02
2.267109e-02
2.255639e-02
2.242994e-02
2.229294e-02
2.214670e-02
2.199255e-02
2.183193e-02
2.166629e-02
2.149715e-02
2.132602e-02
2.115447e-02
2.098404e-02
2.081626e-02
2.065267e-02
2.049475e-02
2.034397e-02
2.020175e-02
2.006947e-02
1.994847e-02
1.984003e-02
1.974540e-02
1.966579e-02
1.960239e-02
1.955635e-02
1.952878e-02
1.952071e-02
1.952068e-02
1.786435e-02
1.789831e-02
1.766925e-02
1.742765e-02
1.720983e-02
1.702908e-02
1.687897e-02
1.674440e-02
1.661359e-02
1.648394e-02
1.636047e-02
1.625019e-02
1.615698e-02
1.607995e-02
1.601508e-02
1.595825e-02
1.590762e-02
1.586402e-02
1.582995e-02
1.580793e-02
1.579933e-02
1.580415e-02
1.582149e-02
1.585024e-02
1.588977e-02
1.593986e-02
1.600065e-02
1.607245e-02
1.615544e-02
1.624964e-02
1.635494e-02
1.647122e-02
1.659841e-02
1.673650e-02
1.688548e-02
1.704525e-02
1.721555e-02
1.739594e-02
1.758586e-02
1.778471e-02
1.799195e-02
1.820710e-02
1.842969e-02
1.865923e-02
1.889511e-02
1.913652e-02
1.938246e-02
1.963176e-02
1.988212e-02
2.013050e-02
2.037559e-02
2.061615e-02
2.085097e-02
2.107889e-02
2.129874e-02
2.150936e-02
2.170956e-02
2.189819e-02
2.207413e-02
2.223634e-02
2.238389e-02
2.251593e-02
2.263174e-02
2.273071e-02
2.281236e-02
2.287633e-02
2.292236e-02
2.295035e-02
2.296033e-02
2.295247e-02
2.292707e-02
2.288471e-02
2.282607e-02
2.275184e-02
2.266283e-02
2.255996e-02
2.244424e-02
2.231679e-02
2.217880e-02
2.203153e-02
2.187633e-02
2.171459e-02
2.154774e-02
2.137727e-02
2.120464e-02
2.103138e-02
2.085897e-02
2.068889e-02
2.052261e-02
2.036155e-02
2.020713e-02
2.006069e-02
1.992356e-02
1.979701e-02
1.968226e-02
1.958050e-02
1.949289e-02
1.942050e-02
1.936440e-02
1.932559e-02
1.930495e-02
1.930494e-02
1.806014e-02
1.805839e-02
1.777824e-02
1.752193e-02
1.731061e-02
1.713697e-02
1.698322e-02
1.683465e-02
1.668685e-02
1.654463e-02
1.641590e-02
1.630568e-02
1.621364e-02
1.613558e-02
1.606676e-02
1.600459e-02
1.594942e-02
1.590357e-02
1.586961e-02
1.584899e-02
1.584174e-02
1.584688e-02
1.586317e-02
1.588978e-02
1.592653e-02
1.597358e-02
1.603122e-02
1.609966e-02
1.617895e-02
1.626904e-02
1.636984e-02
1.648137e-02
1.660370e-02
1.673690e-02
1.688093e-02
1.703559e-02
1.720050e-02
1.737520e-02
1.755921e-02
1.775213e-02
1.795364e-02
1.816345e-02
1.838123e-02
1.860649e-02
1.883852e-02
1.907640e-02
1.931905e-02
1.956532e-02
1.981301e-02
2.005878e-02
2.030141e-02
2.053976e-02
2.077266e-02
2.099892e-02
2.121733e-02
2.142664e-02
2.162562e-02
2.181308e-02
2.198789e-02
2.214902e-02
2.229553e-02
2.242658e-02
2.254145e-02
2.263951e-02
2.272026e-02
2.278331e-02
2.282840e-02
2.285540e-02
2.286435e-02
2.285540e-02
2.282885e-02
2.278527e-02
2.272539e-02
2.264987e-02
2.255954e-02
2.245528e-02
2.233810e-02
2.220911e-02
2.206948e-02
2.192048e-02
2.176342e-02
2.159969e-02
2.143069e-02
2.125787e-02
2.108268e-02
2.090657e-02
2.073100e-02
2.055739e-02
2.038718e-02
2.022172e-02
2.006237e-02
1.991045e-02
1.976720e-02
1.963385e-02
1.951159e-02
1.940153e-02
1.930476e-02
1.922232e-02
1.915518e-02
1.910424e-02
1.907029e-02
1.907030e-02
1.820008e-02
1.817479e-02
1.787624e-02
1.762389e-02
1.741807e-02
1.723920e-02
1.706938e-02
1.690139e-02
1.673868e-02
1.658932e-02
1.645925e-02
1.634901e-02
1.625474e-02
1.617144e-02
1.609596e-02
1.602810e-02
1.596982e-02
1.592351e-02
1.589060e-02
1.587110e-02
1.586397e-02
1.586792e-02
1.588196e-02
1.590578e-02
1.593957e-02
1.598359e-02
1.603803e-02
1.610295e-02
1.617832e-02
1.626412e-02
1.636045e-02
1.646743e-02
1.658521e-02
1.671379e-02
1.685301e-02
1.700254e-02
1.716200e-02
1.733102e-02
1.750935e-02
1.769684e-02
1.789339e-02
1.809879e-02
1.831269e-02
1.853447e-02
1.876330e-02
1.899822e-02
1.923815e-02
1.948206e-02
1.972803e-02
1.997230e-02
2.021376e-02
2.045126e-02
2.068360e-02
2.090951e-02
2.112770e-02
2.133687e-02
2.153575e-02
2.172314e-02
2.189792e-02
2.205906e-02
2.220562e-02
2.233674e-02
2.245166e-02
2.254974e-02
2.263043e-02
2.269332e-02
2.273814e-02
2.276476e-02
2.277318e-02
2.276357e-02
2.273620e-02
2.269160e-02
2.263056e-02
2.255374e-02
2.246194e-02
2.235606e-02
2.223709e-02
2.210612e-02
2.196435e-02
2.181301e-02
2.165342e-02
2.148694e-02
2.131495e-02
2.113887e-02
2.096012e-02
2.078013e-02
2.060031e-02
2.042205e-02
2.024672e-02
2.007567e-02
1.991021e-02
1.975158e-02
1.960102e-02
1.945971e-02
1.932877e-02
1.920929e-02
1.910232e-02
1.900883e-02
1.892974e-02
1.886590e-02
1.881803e-02
1.881805e-02
1.830288e-02
1.827111e-02
1.797340e-02
1.772642e-02
1.751507e-02
1.731889e-02
1.712756e-02
1.694234e-02
1.677054e-02
1.661846e-02
1.648743e-02
1.637414e-02
1.627368e-02
1.618264e-02
1.610041e-02
1.602855e-02
1.596916e-02
1.592348e-02
1.589140e-02
1.587181e-02
1.586332e-02
1.586489e-02
1.587605e-02
1.589689e-02
1.592768e-02
1.596857e-02
1.601958e-02
1.608069e-02
1.615193e-02
1.623345e-02
1.632546e-02
1.642814e-02
1.654154e-02
1.666549e-02
1.679973e-02
1.694391e-02
1.709781e-02
1.726130e-02
1.743441e-02
1.761719e-02
1.780960e-02
1.801138e-02
1.822201e-02
1.844079e-02
1.866682e-02
1.889918e-02
1.913696e-02
1.937930e-02
1.962464e-02
1.986868e-02
2.011030e-02
2.034827e-02
2.058131e-02
2.080805e-02
2.102716e-02
2.123730e-02
2.143721e-02
2.162570e-02
2.180164e-02
2.196399e-02
2.211176e-02
2.224406e-02
2.236009e-02
2.245917e-02
2.254072e-02
2.260431e-02
2.264966e-02
2.267659e-02
2.268512e-02
2.267536e-02
2.264760e-02
2.260228e-02
2.254027e-02
2.246223e-02
2.236895e-02
2.226132e-02
2.214034e-02
2.200710e-02
2.186279e-02
2.170863e-02
2.154594e-02
2.137605e-02
2.120033e-02
2.102018e-02
2.083698e-02
2.065215e-02
2.046707e-02
2.028310e-02
2.010158e-02
1.992382e-02
1.975109e-02
1.958464e-02
1.942563e-02
1.927522e-02
1.913451e-02
1.900456e-02
1.888638e-02
1.878091e-02
1.868904e-02
1.861159e-02
1.854924e-02
1.854928e-02
1.838761e-02
1.836272e-02
1.806836e-02
1.781654e-02
1.758734e-02
1.736782e-02
1.715680e-02
1.696019e-02
1.678404e-02
1.663000e-02
1.649520e-02
1.637498e-02
1.626590e-02
1.616715e-02
1.608004e-02
1.600636e-02
1.594709e-02
1.590189e-02
1.586946e-02
1.584830e-02
1.583728e-02
1.583587e-02
1.584397e-02
1.586177e-02
1.588943e-02
1.592690e-02
1.597414e-02
1.603120e-02
1.609828e-02
1.617565e-02
1.626352e-02
1.636195e-02
1.647081e-02
1.658983e-02
1.671873e-02
1.685737e-02
1.700579e-02
1.716416e-02
1.733270e-02
1.751149e-02
1.770038e-02
1.789898e-02
1.810665e-02
1.832261e-02
1.854610e-02
1.877637e-02
1.901271e-02
1.925443e-02
1.950034e-02
1.974542e-02
1.998843e-02
2.022806e-02
2.046290e-02
2.069158e-02
2.091272e-02
2.112500e-02
2.132716e-02
2.151801e-02
2.169638e-02
2.186117e-02
2.201137e-02
2.214602e-02
2.226428e-02
2.236543e-02
2.244887e-02
2.251413e-02
2.256090e-02
2.258899e-02
2.259835e-02
2.258910e-02
2.256147e-02
2.251586e-02
2.245317e-02
2.237410e-02
2.227944e-02
2.217007e-02
2.204700e-02
2.191132e-02
2.176419e-02
2.160685e-02
2.144058e-02
2.126673e-02
2.108663e-02
2.090168e-02
2.071324e-02
2.052270e-02
2.033143e-02
2.014077e-02
1.995204e-02
1.976653e-02
1.958548e-02
1.941011e-02
1.924157e-02
1.908099e-02
1.892947e-02
1.878803e-02
1.865767e-02
1.853934e-02
1.843391e-02
1.834216e-02
1.826480e-02
1.826487e-02
1.846460e-02
1.845199e-02
1.815177e-02
1.788221e-02
1.762807e-02
1.738618e-02
1.716100e-02
1.695788e-02
1.677837e-02
1.661967e-02
1.647720e-02
1.634752e-02
1.622982e-02
1.612527e-02
1.603555e-02
1.596139e-02
1.590216e-02
1.585626e-02
1.582200e-02
1.579809e-02
1.578393e-02
1.577934e-02
1.578430e-02
1.579889e-02
1.582307e-02
1.585675e-02
1.589997e-02
1.595293e-02
1.601595e-02
1.608926e-02
1.617294e-02
1.626685e-02
1.637071e-02
1.648432e-02
1.660760e-02
1.674073e-02
1.688403e-02
1.703786e-02
1.720243e-02
1.737770e-02
1.756336e-02
1.775886e-02
1.796357e-02
1.817687e-02
1.839818e-02
1.862699e-02
1.886276e-02
1.910486e-02
1.935243e-02
1.959967e-02
1.984516e-02
2.008747e-02
2.032517e-02
2.055687e-02
2.078121e-02
2.099688e-02
2.120260e-02
2.139712e-02
2.157923e-02
2.174777e-02
2.190166e-02
2.203989e-02
2.216160e-02
2.226601e-02
2.235248e-02
2.242051e-02
2.246973e-02
2.249991e-02
2.251096e-02
2.250295e-02
2.247610e-02
2.243078e-02
2.236784e-02
2.228808e-02
2.219228e-02
2.208132e-02
2.195621e-02
2.181803e-02
2.166793e-02
2.150714e-02
2.133695e-02
2.115867e-02
2.097365e-02
2.078326e-02
2.058887e-02
2.039184e-02
2.019354e-02
1.999530e-02
1.979842e-02
1.960417e-02
1.941378e-02
1.922846e-02
1.904935e-02
1.887758e-02
1.871422e-02
1.856032e-02
1.841687e-02
1.828480e-02
1.816502e-02
1.805832e-02
1.796543e-02
1.796552e-02
1.853310e-02
1.853086e-02
1.821231e-02
1.791660e-02
1.763739e-02
1.737819e-02
1.714379e-02
1.693540e-02
1.674998e-02
1.658265e-02
1.642979e-02
1.629049e-02
1.616600e-02
1.605799e-02
1.596708e-02
1.589238e-02
1.583200e-02
1.578390e-02
1.574660e-02
1.571932e-02
1.570179e-02
1.569392e-02
1.569551e-02
1.570650e-02
1.572679e-02
1.575639e-02
1.579549e-02
1.584441e-02
1.590339e-02
1.597250e-02
1.605157e-02
1.614036e-02
1.623867e-02
1.634650e-02
1.646415e-02
1.659207e-02
1.673076e-02
1.688053e-02
1.704145e-02
1.721328e-02
1.739558e-02
1.758785e-02
1.778961e-02
1.800049e-02
1.822016e-02
1.844828e-02
1.868439e-02
1.892783e-02
1.917775e-02
1.942817e-02
1.967707e-02
1.992303e-02
2.016464e-02
2.040052e-02
2.062932e-02
2.084970e-02
2.106031e-02
2.125985e-02
2.144705e-02
2.162067e-02
2.177958e-02
2.192275e-02
2.204923e-02
2.215821e-02
2.224899e-02
2.232100e-02
2.237381e-02
2.240714e-02
2.242086e-02
2.241499e-02
2.238971e-02
2.234539e-02
2.228278e-02
2.220282e-02
2.210628e-02
2.199403e-02
2.186707e-02
2.172646e-02
2.157335e-02
2.140897e-02
2.123460e-02
2.105154e-02
2.086115e-02
2.066479e-02
2.046383e-02
2.025962e-02
2.005353e-02
1.984688e-02
1.964097e-02
1.943705e-02
1.923637e-02
1.904012e-02
1.884945e-02
1.866549e-02
1.848932e-02
1.832200e-02
1.816453e-02
1.801789e-02
1.788298e-02
1.776065e-02
1.765166e-02
1.765177e-02
1.858447e-02
1.858705e-02
1.824157e-02
1.791837e-02
1.761865e-02
1.734722e-02
1.710526e-02
1.688936e-02
1.669407e-02
1.651522e-02
1.635160e-02
1.620444e-02
1.607551e-02
1.596550e-02
1.587340e-02
1.579702e-02
1.573397e-02
1.568243e-02
1.564142e-02
1.561050e-02
1.558947e-02
1.557803e-02
1.557582e-02
1.558275e-02
1.559884e-02
1.562424e-02
1.565924e-02
1.570406e-02
1.575874e-02
1.582311e-02
1.589688e-02
1.597989e-02
1.607220e-02
1.617420e-02
1.628647e-02
1.640961e-02
1.654404e-02
1.668991e-02
1.684705e-02
1.701513e-02
1.719377e-02
1.738267e-02
1.758163e-02
1.779053e-02
1.800922e-02
1.823740e-02
1.847457e-02
1.872002e-02
1.897286e-02
1.922726e-02
1.948045e-02
1.973105e-02
1.997767e-02
2.021895e-02
2.045350e-02
2.067990e-02
2.089677e-02
2.110270e-02
2.129637e-02
2.147649e-02
2.164188e-02
2.179143e-02
2.192414e-02
2.203912e-02
2.213560e-02
2.221293e-02
2.227060e-02
2.230829e-02
2.232579e-02
2.232310e-02
2.230038e-02
2.225793e-02
2.219642e-02
2.211692e-02
2.202019e-02
2.190709e-02
2.177859e-02
2.163575e-02
2.147973e-02
2.131173e-02
2.113304e-02
2.094498e-02
2.074888e-02
2.054612e-02
2.033807e-02
2.012608e-02
1.991152e-02
1.969571e-02
1.947994e-02
1.926550e-02
1.905362e-02
1.884550e-02
1.864231e-02
1.844520e-02
1.825526e-02
1.807358e-02
1.790120e-02
1.773911e-02
1.758828e-02
1.744961e-02
1.732391e-02
1.732403e-02
1.860789e-02
1.861017e-02
1.823584e-02
1.788919e-02
1.757431e-02
1.729295e-02
1.704171e-02
1.681454e-02
1.660644e-02
1.641555e-02
1.624285e-02
1.609019e-02
1.595842e-02
1.584653e-02
1.575216e-02
1.567258e-02
1.560561e-02
1.554994e-02
1.550493e-02
1.547020e-02
1.544533e-02
1.542986e-02
1.542335e-02
1.542588e-02
1.543762e-02
1.545879e-02
1.548956e-02
1.552994e-02
1.557968e-02
1.563850e-02
1.570621e-02
1.578295e-02
1.586915e-02
1.596551e-02
1.607272e-02
1.619131e-02
1.632146e-02
1.646311e-02
1.661600e-02
1.677987e-02
1.695459e-02
1.714017e-02
1.733666e-02
1.754411e-02
1.776240e-02
1.799116e-02
1.822984e-02
1.847770e-02
1.873389e-02
1.899299e-02
1.925135e-02
1.950762e-02
1.976042e-02
2.000833e-02
2.024990e-02
2.048365e-02
2.070812e-02
2.092185e-02
2.112345e-02
2.131159e-02
2.148501e-02
2.164252e-02
2.178303e-02
2.190556e-02
2.200925e-02
2.209335e-02
2.215731e-02
2.220070e-02
2.222330e-02
2.222503e-02
2.220601e-02
2.216652e-02
2.210706e-02
2.202885e-02
2.193264e-02
2.181927e-02
2.168970e-02
2.154499e-02
2.138628e-02
2.121479e-02
2.103179e-02
2.083860e-02
2.063658e-02
2.042709e-02
2.021152e-02
1.999124e-02
1.976760e-02
1.954195e-02
1.931559e-02
1.908981e-02
1.886587e-02
1.864499e-02
1.842836e-02
1.821715e-02
1.801250e-02
1.781552e-02
1.762730e-02
1.744890e-02
1.728132e-02
1.712555e-02
1.698247e-02
1.698261e-02
1.859512e-02
1.859475e-02
1.819508e-02
1.783055e-02
1.750357e-02
1.721131e-02