# vtk DataFile Version 3.0
Scalar Field
ASCII
DATASET RECTILINEAR_GRID
DIMENSIONS 102 102 1
X_COORDINATES 102 double
0.000000 0.100000 0.200000 0.300000 0.400000 0.500000 0.600000 0.700000 0.800000 0.900000 1.000000 1.100000 1.200000 1.300000 1.400000 1.500000 1.600000 1.700000 1.800000 1.900000 2.000000 2.100000 2.200000 2.300000 2.400000 2.500000 2.600000 2.700000 2.800000 2.900000 3.000000 3.100000 3.200000 3.300000 3.400000 3.500000 3.600000 3.700000 3.800000 3.900000 4.000000 4.100000 4.200000 4.300000 4.400000 4.500000 4.600000 4.700000 4.800000 4.900000 5.000000 5.100000 5.200000 5.300000 5.400000 5.500000 5.600000 5.700000 5.800000 5.900000 6.000000 6.100000 6.200000 6.300000 6.400000 6.500000 6.600000 6.700000 6.800000 6.900000 7.000000 7.100000 7.200000 7.300000 7.400000 7.500000 7.600000 7.700000 7.800000 7.900000 8.000000 8.100000 8.200000 8.300000 8.400000 8.500000 8.600000 8.700000 8.800000 8.900000 9.000000 9.100000 9.200000 9.300000 9.400000 9.500000 9.600000 9.700000 9.800000 9.900000 10.000000 10.100000 
Y_COORDINATES 102 double
0.000000 0.100000 0.200000 0.300000 0.400000 0.500000 0.600000 0.700000 0.800000 0.900000 1.000000 1.100000 1.200000 1.300000 1.400000 1.500000 1.600000 1.700000 1.800000 1.900000 2.000000 2.100000 2.200000 2.300000 2.400000 2.500000 2.600000 2.700000 2.800000 2.900000 3.000000 3.100000 3.200000 3.300000 3.400000 3.500000 3.600000 3.700000 3.800000 3.900000 4.000000 4.100000 4.200000 4.300000 4.400000 4.500000 4.600000 4.700000 4.800000 4.900000 5.000000 5.100000 5.200000 5.300000 5.400000 5.500000 5.600000 5.700000 5.800000 5.900000 6.000000 6.100000 6.200000 6.300000 6.400000 6.500000 6.600000 6.700000 6.800000 6.900000 7.000000 7.100000 7.200000 7.300000 7.400000 7.500000 7.600000 7.700000 7.800000 7.900000 8.000000 8.100000 8.200000 8.300000 8.400000 8.500000 8.600000 8.700000 8.800000 8.900000 9.000000 9.100000 9.200000 9.300000 9.400000 9.500000 9.600000 9.700000 9.800000 9.900000 10.000000 10.100000 
Z_COORDINATES 1 double
0.0
POINT_DATA 10404
SCALARS Pressure double 1
LOOKUP_TABLE default
0.000000e+00
-5.941430e-03
-5.967438e-03
-5.971485e-03
-5.948191e-03
-5.904079e-03
-5.857654e-03
-5.833230e-03
-5.852416e-03
-5.926218e-03
-6.050273e-03
-6.204721e-03
-6.358740e-03
-6.478374e-03
-6.535300e-03
-6.513979e-03
-6.415230e-03
-6.255346e-03
-6.061234e-03
-5.863103e-03
-5.686805e-03
-5.547878e-03
-5.448688e-03
-5.379117e-03
-5.320280e-03
-5.249982e-03
-5.148355e-03
-5.002244e-03
-4.807416e-03
-4.568356e-03
-4.296029e-03
-4.004465e-03
-3.707166e-03
-3.414216e-03
-3.130698e-03
-2.856552e-03
-2.587691e-03
-2.317871e-03
-2.040722e-03
-1.751424e-03
-1.447666e-03
-1.129778e-03
-8.001661e-04
-4.623327e-04
-1.198070e-04
2.246988e-04
5.697360e-04
9.151240e-04
1.261600e-03
1.610282e-03
1.962125e-03
2.317526e-03
2.676144e-03
3.036954e-03
3.398484e-03
3.759107e-03
4.117313e-03
4.471905e-03
4.822076e-03
5.167376e-03
5.507599e-03
5.842646e-03
6.172378e-03
6.496525e-03
6.814637e-03
7.126088e-03
7.430124e-03
7.725924e-03
8.012666e-03
8.289573e-03
8.555951e-03
8.811185e-03
9.054739e-03
9.286128e-03
9.504895e-03
9.710590e-03
9.902754e-03
1.008092e-02
1.024460e-02
1.039334e-02
1.052666e-02
1.064414e-02
1.074543e-02
1.083020e-02
1.089824e-02
1.094942e-02
1.098375e-02
1.100136e-02
1.100256e-02
1.098786e-02
1.095805e-02
1.091421e-02
1.085786e-02
1.079099e-02
1.071623e-02
1.063702e-02
1.055781e-02
1.048426e-02
1.042339e-02
1.038311e-02
1.037012e-02
0.000000e+00
-5.941430e-03
-5.969325e-03
-5.965064e-03
-5.939658e-03
-5.895697e-03
-5.845867e-03
-5.810982e-03
-5.812855e-03
-5.866294e-03
-5.973052e-03
-6.119676e-03
-6.279958e-03
-6.421246e-03
-6.512715e-03
-6.533170e-03
-6.476160e-03
-6.351061e-03
-6.179989e-03
-5.991586e-03
-5.813543e-03
-5.665890e-03
-5.556773e-03
-5.481568e-03
-5.425252e-03
-5.367091e-03
-5.286189e-03
-5.166433e-03
-4.999654e-03
-4.786481e-03
-4.534995e-03
-4.257824e-03
-3.968638e-03
-3.678969e-03
-3.396074e-03
-3.122184e-03
-2.855075e-03
-2.589592e-03
-2.319573e-03
-2.039640e-03
-1.746427e-03
-1.439059e-03
-1.118898e-03
-7.887761e-04
-4.520183e-04
-1.115443e-04
2.307180e-04
5.740223e-04
9.186240e-04
1.265356e-03
1.615125e-03
1.968483e-03
2.325371e-03
2.685075e-03
3.046354e-03
3.407710e-03
3.767644e-03
4.124875e-03
4.478455e-03
4.827782e-03
5.172535e-03
5.512544e-03
5.847661e-03
6.177650e-03
6.502123e-03
6.820523e-03
7.132155e-03
7.436231e-03
7.731938e-03
8.018488e-03
8.295155e-03
8.561290e-03
8.816319e-03
9.059725e-03
9.291026e-03
9.509756e-03
9.715445e-03
9.907615e-03
1.008578e-02
1.024944e-02
1.039812e-02
1.053136e-02
1.064874e-02
1.074990e-02
1.083454e-02
1.090245e-02
1.095350e-02
1.098771e-02
1.100521e-02
1.100631e-02
1.099153e-02
1.096164e-02
1.091775e-02
1.086135e-02
1.079445e-02
1.071966e-02
1.064044e-02
1.056121e-02
1.048766e-02
1.042679e-02
1.038651e-02
1.037352e-02
1.037012e-02
-5.944823e-03
-5.942895e-03
-5.897985e-03
-5.837571e-03
-5.777397e-03
-5.736649e-03
-5.734310e-03
-5.782367e-03
-5.880771e-03
-6.015885e-03
-6.163027e-03
-6.292383e-03
-6.376502e-03
-6.397164e-03
-6.349665e-03
-6.243365e-03
-6.098536e-03
-5.940541e-03
-5.793096e-03
-5.672472e-03
-5.584083e-03
-5.522161e-03
-5.472274e-03
-5.415762e-03
-5.334708e-03
-5.216145e-03
-5.054495e-03
-4.851894e-03
-4.616607e-03
-4.360210e-03
-4.094439e-03
-3.828537e-03
-3.567659e-03
-3.312562e-03
-3.060420e-03
-2.806347e-03
-2.545134e-03
-2.272696e-03
-1.986937e-03
-1.687923e-03
-1.377450e-03
-1.058264e-03
-7.331911e-04
-4.044497e-04
-7.328196e-05
2.600583e-04
5.960322e-04
9.353916e-04
1.278754e-03
1.626294e-03
1.977612e-03
2.331780e-03
2.687519e-03
3.043419e-03
3.398194e-03
3.750813e-03
4.100558e-03
4.446984e-03
4.789832e-03
5.128906e-03
5.463967e-03
5.794662e-03
6.120484e-03
6.440795e-03
6.754854e-03
7.061879e-03
7.361093e-03
7.651768e-03
7.933241e-03
8.204915e-03
8.466255e-03
8.716761e-03
8.955953e-03
9.183352e-03
9.398475e-03
9.600827e-03
9.789915e-03
9.965250e-03
1.012636e-02
1.027281e-02
1.040420e-02
1.052019e-02
1.062050e-02
1.070492e-02
1.077334e-02
1.082572e-02
1.086217e-02
1.088293e-02
1.088838e-02
1.087915e-02
1.085607e-02
1.082032e-02
1.077340e-02
1.071728e-02
1.065446e-02
1.058807e-02
1.052197e-02
1.046084e-02
1.041009e-02
1.037551e-02
1.036275e-02
1.035939e-02
-5.875905e-03
-5.844980e-03
-5.776031e-03
-5.707289e-03
-5.663124e-03
-5.661521e-03
-5.712037e-03
-5.811637e-03
-5.944200e-03
-6.083971e-03
-6.201948e-03
-6.273309e-03
-6.283639e-03
-6.232182e-03
-6.131278e-03
-6.002318e-03
-5.869521e-03
-5.753403e-03
-5.665733e-03
-5.607222e-03
-5.568325e-03
-5.532641e-03
-5.481724e-03
-5.399897e-03
-5.277781e-03
-5.113786e-03
-4.913452e-03
-4.687090e-03
-4.446608e-03
-4.202444e-03
-3.961384e-03
-3.725685e-03
-3.493493e-03
-3.260234e-03
-3.020426e-03
-2.769372e-03
-2.504296e-03
-2.224750e-03
-1.932298e-03
-1.629738e-03
-1.320145e-03
-1.006045e-03
-6.889273e-04
-3.691575e-04
-4.623272e-05
2.807573e-04
6.126409e-04
9.497888e-04
1.291937e-03
1.638217e-03
1.987343e-03
2.337877e-03
2.688476e-03
3.038037e-03
3.385836e-03
3.731463e-03
4.074712e-03
4.415446e-03
4.753474e-03
5.088467e-03
5.419924e-03
5.747183e-03
6.069478e-03
6.385993e-03
6.695930e-03
6.998546e-03
7.293177e-03
7.579236e-03
7.856200e-03
8.123578e-03
8.380896e-03
8.627670e-03
8.863404e-03
9.087585e-03
9.299692e-03
9.499209e-03
9.685637e-03
9.858505e-03
1.001739e-02
1.016189e-02
1.029170e-02
1.040654e-02
1.050620e-02
1.059056e-02
1.065955e-02
1.071324e-02
1.075178e-02
1.077546e-02
1.078474e-02
1.078027e-02
1.076291e-02
1.073383e-02
1.069447e-02
1.064668e-02
1.059271e-02
1.053529e-02
1.047766e-02
1.042356e-02
1.037711e-02
1.034260e-02
1.032434e-02
1.032103e-02
-5.742663e-03
-5.691086e-03
-5.624838e-03
-5.579862e-03
-5.580817e-03
-5.636721e-03
-5.742569e-03
-5.879627e-03
-6.019880e-03
-6.133341e-03
-6.196002e-03
-6.196018e-03
-6.136344e-03
-6.033150e-03
-5.910652e-03
-5.794027e-03
-5.702514e-03
-5.644641e-03
-5.616716e-03
-5.604763e-03
-5.589033e-03
-5.549623e-03
-5.471566e-03
-5.348059e-03
-5.181185e-03
-4.980253e-03
-4.758488e-03
-4.529207e-03
-4.302541e-03
-4.083511e-03
-3.871750e-03
-3.662675e-03
-3.449552e-03
-3.225758e-03
-2.986585e-03
-2.730185e-03
-2.457559e-03
-2.171767e-03
-1.876741e-03
-1.576086e-03
-1.272239e-03
-9.661208e-04
-6.573101e-04
-3.445676e-04
-2.649811e-05
2.978681e-04
6.287251e-04
9.654264e-04
1.306666e-03
1.650805e-03
1.996230e-03
2.341624e-03
2.686111e-03
3.029199e-03
3.370773e-03
3.710861e-03
4.049455e-03
4.386380e-03
4.721223e-03
5.053347e-03
5.381944e-03
5.706122e-03
6.024994e-03
6.337742e-03
6.643652e-03
6.942123e-03
7.232640e-03
7.514739e-03
7.787975e-03
8.051889e-03
8.305992e-03
8.549763e-03
8.782658e-03
9.004124e-03
9.213619e-03
9.410630e-03
9.594684e-03
9.765353e-03
9.922263e-03
1.006509e-02
1.019357e-02
1.030750e-02
1.040671e-02
1.049113e-02
1.056075e-02
1.061567e-02
1.065609e-02
1.068232e-02
1.069484e-02
1.069432e-02
1.068159e-02
1.065775e-02
1.062416e-02
1.058245e-02
1.053461e-02
1.048293e-02
1.043005e-02
1.037885e-02
1.033238e-02
1.029366e-02
1.026547e-02
1.026224e-02
-5.565935e-03
-5.507874e-03
-5.473163e-03
-5.479828e-03
-5.543645e-03
-5.659372e-03
-5.806606e-03
-5.954977e-03
-6.072438e-03
-6.134103e-03
-6.128951e-03
-6.062399e-03
-5.954095e-03
-5.831757e-03
-5.723033e-03
-5.647830e-03
-5.613274e-03
-5.612563e-03
-5.627722e-03
-5.635202e-03
-5.612493e-03
-5.543846e-03
-5.423606e-03
-5.256506e-03
-5.055196e-03
-4.836004e-03
-4.614320e-03
-4.400889e-03
-4.199886e-03
-4.009032e-03
-3.821391e-03
-3.628105e-03
-3.421148e-03
-3.195364e-03
-2.949347e-03
-2.685124e-03
-2.406971e-03
-2.119839e-03
-1.827915e-03
-1.533704e-03
-1.237779e-03
-9.391483e-04
-6.359981e-04
-3.265339e-04
-9.646509e-06
3.147471e-04
6.457214e-04
9.816420e-04
1.320605e-03
1.660865e-03
2.001132e-03
2.340692e-03
2.679333e-03
3.017102e-03
3.354211e-03
3.690753e-03
4.026558e-03
4.361150e-03
4.693784e-03
5.023537e-03
5.349423e-03
5.670502e-03
5.985946e-03
6.295069e-03
6.597318e-03
6.892230e-03
7.179388e-03
7.458372e-03
7.728731e-03
7.989960e-03
8.241516e-03
8.482823e-03
8.713302e-03
8.932390e-03
9.139560e-03
9.334335e-03
9.516288e-03
9.685048e-03
9.840293e-03
9.981750e-03
1.010920e-02
1.022246e-02
1.032142e-02
1.040602e-02
1.047629e-02
1.053235e-02
1.057440e-02
1.060278e-02
1.061797e-02
1.062059e-02
1.061144e-02
1.059153e-02
1.056207e-02
1.052451e-02
1.048050e-02
1.043195e-02
1.038092e-02
1.032958e-02
1.028008e-02
1.023437e-02
1.019397e-02
1.019086e-02
-5.375773e-03
-5.327601e-03
-5.348587e-03
-5.423301e-03
-5.551626e-03
-5.712999e-03
-5.875499e-03
-6.004872e-03
-6.074319e-03
-6.072041e-03
-6.004264e-03
-5.892920e-03
-5.768865e-03
-5.662802e-03
-5.596675e-03
-5.577996e-03
-5.598567e-03
-5.637649e-03
-5.668363e-03
-5.665254e-03
-5.610799e-03
-5.499161e-03
-5.336409e-03
-5.137549e-03
-4.921542e-03
-4.705939e-03
-4.502636e-03
-4.315770e-03
-4.142002e-03
-3.972756e-03
-3.797479e-03
-3.606856e-03
-3.395105e-03
-3.160871e-03
-2.906738e-03
-2.637750e-03
-2.359555e-03
-2.076769e-03
-1.791989e-03
-1.505606e-03
-1.216299e-03
-9.219306e-04
-6.204991e-04
-3.108521e-04
6.989260e-06
3.319125e-04
6.620930e-04
9.955008e-04
1.330364e-03
1.665467e-03
2.000240e-03
2.334648e-03
2.668957e-03
3.003388e-03
3.338071e-03
3.672818e-03
4.007092e-03
4.340069e-03
4.670759e-03
4.998129e-03
5.321223e-03
5.639224e-03
5.951476e-03
6.257460e-03
6.556746e-03
6.848935e-03
7.133612e-03
7.410313e-03
7.678513e-03
7.937644e-03
8.187106e-03
8.426301e-03
8.654655e-03
8.871635e-03
9.076761e-03
9.269607e-03
9.449800e-03
9.617011e-03
9.770956e-03
9.911393e-03
1.003812e-02
1.015098e-02
1.024987e-02
1.033476e-02
1.040567e-02
1.046274e-02
1.050617e-02
1.053630e-02
1.055356e-02
1.055856e-02
1.055202e-02
1.053485e-02
1.050811e-02
1.047304e-02
1.043101e-02
1.038353e-02
1.033220e-02
1.027857e-02
1.022409e-02
1.016990e-02
1.011659e-02
1.011363e-02
-5.205107e-03
-5.180932e-03
-5.270779e-03
-5.413960e-03
-5.591934e-03
-5.772464e-03
-5.919687e-03
-6.004642e-03
-6.013730e-03
-5.952488e-03
-5.843632e-03
-5.720096e-03
-5.615338e-03
-5.553882e-03
-5.544867e-03
-5.580293e-03
-5.638186e-03
-5.689430e-03
-5.706046e-03
-5.668455e-03
-5.569770e-03
-5.416231e-03
-5.224040e-03
-5.013905e-03
-4.805090e-03
-4.610690e-03
-4.435256e-03
-4.275102e-03
-4.120786e-03
-3.960721e-03
-3.784727e-03
-3.586519e-03
-3.364647e-03
-3.121894e-03
-2.863625e-03
-2.595758e-03
-2.323029e-03
-2.047995e-03
-1.770902e-03
-1.490279e-03
-1.203912e-03
-9.098289e-04
-6.070054e-04
-2.956341e-04
2.302262e-05
3.470636e-04
6.744785e-04
1.003602e-03
1.333379e-03
1.663405e-03
1.993780e-03
2.324854e-03
2.656940e-03
2.990019e-03
3.323835e-03
3.657778e-03
3.990970e-03
4.322392e-03
4.651019e-03
4.975920e-03
5.296322e-03
5.611605e-03
5.921280e-03
6.224926e-03
6.522138e-03
6.812476e-03
7.095448e-03
7.370500e-03
7.637036e-03
7.894441e-03
8.142108e-03
8.379461e-03
8.605972e-03
8.821163e-03
9.024608e-03
9.215929e-03
9.394787e-03
9.560878e-03
9.713933e-03
9.853718e-03
9.980035e-03
1.009273e-02
1.019172e-02
1.027695e-02
1.034847e-02
1.040639e-02
1.045093e-02
1.048239e-02
1.050118e-02
1.050784e-02
1.050304e-02
1.048758e-02
1.046236e-02
1.042842e-02
1.038689e-02
1.033895e-02
1.028577e-02
1.022845e-02
1.016788e-02
1.010461e-02
1.003864e-02
1.003588e-02
-5.082178e-03
-5.089909e-03
-5.246914e-03
-5.442702e-03
-5.643123e-03
-5.811645e-03
-5.917513e-03
-5.944967e-03
-5.897870e-03
-5.798383e-03
-5.680229e-03
-5.578753e-03
-5.520862e-03
-5.517836e-03
-5.562958e-03
-5.634371e-03
-5.702003e-03
-5.736244e-03
-5.715788e-03
-5.632452e-03
-5.491910e-03
-5.310581e-03
-5.109947e-03
-4.910245e-03
-4.725391e-03
-4.560383e-03
-4.411569e-03
-4.269243e-03
-4.121453e-03
-3.957718e-03
-3.771619e-03
-3.561712e-03
-3.330844e-03
-3.084383e-03
-2.828129e-03
-2.566578e-03
-2.301998e-03
-2.034401e-03
-1.762224e-03
-1.483342e-03
-1.196027e-03
-8.995691e-04
-5.944506e-04
-2.821097e-04
3.553281e-05
3.565953e-04
6.796397e-04
1.003866e-03
1.329083e-03
1.655520e-03
1.983551e-03
2.313444e-03
2.645157e-03
2.978190e-03
3.311836e-03
3.645169e-03
3.977172e-03
4.306866e-03
4.633390e-03
4.956039e-03
5.274250e-03
5.587556e-03
5.895533e-03
6.197747e-03
6.493714e-03
6.782897e-03
7.064701e-03
7.338506e-03
7.603684e-03
7.859631e-03
8.105781e-03
8.341614e-03
8.566662e-03
8.780501e-03
8.982742e-03
9.173032e-03
9.351041e-03
9.516470e-03
9.669045e-03
9.808527e-03
9.934716e-03
1.004746e-02
1.014665e-02
1.023225e-02
1.030430e-02
1.036291e-02
1.040826e-02
1.044064e-02
1.046044e-02
1.046813e-02
1.046432e-02
1.044968e-02
1.042501e-02
1.039114e-02
1.034900e-02
1.029947e-02
1.024342e-02
1.018155e-02
1.011438e-02
1.004203e-02
9.964184e-03
9.961646e-03
-5.023799e-03
-5.062949e-03
-5.270580e-03
-5.491001e-03
-5.681882e-03
-5.811338e-03
-5.861604e-03
-5.834442e-03
-5.750561e-03
-5.643351e-03
-5.549017e-03
-5.496195e-03
-5.498201e-03
-5.550056e-03
-5.630908e-03
-5.710796e-03
-5.759476e-03
-5.754593e-03
-5.686906e-03
-5.561325e-03
-5.393903e-03
-5.206134e-03
-5.018468e-03
-4.845052e-03
-4.691034e-03
-4.552812e-03
-4.420714e-03
-4.282894e-03
-4.129101e-03
-3.953231e-03
-3.754138e-03
-3.534809e-03
-3.300506e-03
-3.056659e-03
-2.807226e-03
-2.553919e-03
-2.296341e-03
-2.032782e-03
-1.761261e-03
-1.480417e-03
-1.190004e-03
-8.909105e-04
-5.848160e-04
-2.736621e-04
4.084797e-05
3.575786e-04
6.760574e-04
9.963581e-04
1.318851e-03
1.643919e-03
1.971728e-03
2.302095e-03
2.634452e-03
2.967841e-03
3.301282e-03
3.633775e-03
3.964410e-03
4.292423e-03
4.617200e-03
4.938240e-03
5.255107e-03
5.567362e-03
5.874530e-03
6.176073e-03
6.471394e-03
6.759859e-03
7.040818e-03
7.313641e-03
7.577729e-03
7.832533e-03
8.077550e-03
8.312321e-03
8.536423e-03
8.749459e-03
8.951052e-03
9.140845e-03
9.318501e-03
9.483707e-03
9.636176e-03
9.775659e-03
9.901948e-03
1.001488e-02
1.011435e-02
1.020030e-02
1.027278e-02
1.033187e-02
1.037775e-02
1.041069e-02
1.043103e-02
1.043920e-02
1.043574e-02
1.042123e-02
1.039634e-02
1.036175e-02
1.031818e-02
1.026631e-02
1.020673e-02
1.013989e-02
1.006599e-02
9.984954e-03
9.896231e-03
9.893952e-03
-5.031534e-03
-5.093401e-03
-5.324407e-03
-5.536834e-03
-5.690122e-03
-5.764923e-03
-5.760906e-03
-5.696905e-03
-5.605240e-03
-5.522113e-03
-5.477136e-03
-5.485201e-03
-5.543016e-03
-5.631080e-03
-5.720187e-03
-5.780230e-03
-5.788521e-03
-5.735256e-03
-5.624762e-03
-5.472616e-03
-5.299918e-03
-5.126787e-03
-4.967048e-03
-4.825548e-03
-4.698487e-03
-4.576206e-03
-4.447157e-03
-4.301653e-03
-4.134292e-03
-3.944562e-03
-3.735816e-03
-3.513285e-03
-3.281969e-03
-3.045125e-03
-2.803710e-03
-2.556736e-03
-2.302229e-03
-2.038305e-03
-1.763991e-03
-1.479566e-03
-1.186401e-03
-8.864778e-04
-5.817925e-04
-2.738746e-04
3.646097e-05
3.490980e-04
6.643997e-04
9.828944e-04
1.304975e-03
1.630697e-03
1.959699e-03
2.291259e-03
2.624390e-03
2.957912e-03
3.290846e-03
3.622358e-03
3.951787e-03
4.278616e-03
4.602415e-03
4.922771e-03
5.239233e-03
5.551278e-03
5.858312e-03
6.159680e-03
6.454705e-03
6.742719e-03
7.023086e-03
7.295222e-03
7.558596e-03
7.812723e-03
8.057152e-03
8.291458e-03
8.515231e-03
8.728069e-03
8.929583e-03
9.119397e-03
9.297153e-03
9.462519e-03
9.615196e-03
9.754922e-03
9.881478e-03
9.994694e-03
1.009446e-02
1.018071e-02
1.025349e-02
1.031287e-02
1.035903e-02
1.039220e-02
1.041270e-02
1.042093e-02
1.041733e-02
1.040242e-02
1.037675e-02
1.034086e-02
1.029531e-02
1.024060e-02
1.017713e-02
1.010515e-02
1.002469e-02
9.935515e-03
9.837009e-03
9.835015e-03
-5.092011e-03
-5.162123e-03
-5.385557e-03
-5.561313e-03
-5.660243e-03
-5.680156e-03
-5.637956e-03
-5.564555e-03
-5.495626e-03
-5.461171e-03
-5.477152e-03
-5.541646e-03
-5.636441e-03
-5.733282e-03
-5.802584e-03
-5.821819e-03
-5.781102e-03
-5.684552e-03
-5.547453e-03
-5.390513e-03
-5.233302e-03
-5.088980e-03
-4.961697e-03
-4.847104e-03
-4.735317e-03
-4.615008e-03
-4.477133e-03
-4.317193e-03
-4.135577e-03
-3.936259e-03
-3.724630e-03
-3.505357e-03
-3.280996e-03
-3.051674e-03
-2.815701e-03
-2.570713e-03
-2.314829e-03
-2.047399e-03
-1.769200e-03
-1.482088e-03
-1.188370e-03
-8.901273e-04
-5.887494e-04
-2.847584e-04
2.206485e-05
3.323613e-04
6.468138e-04
9.658298e-04
1.289362e-03
1.616888e-03
1.947516e-03
2.280164e-03
2.613708e-03
2.947041e-03
3.279402e-03
3.610223e-03
3.939078e-03
4.265595e-03
4.589381e-03
4.909969e-03
5.226794e-03
5.539206e-03
5.846506e-03
6.147983e-03
6.442955e-03
6.730790e-03
7.010919e-03
7.282828e-03
7.546045e-03
7.800125e-03
8.044635e-03
8.279146e-03
8.503228e-03
8.716457e-03
8.918416e-03
9.108703e-03
9.286940e-03
9.452779e-03
9.605906e-03
9.746048e-03
9.872978e-03
9.986523e-03
1.008657e-02
1.017306e-02
1.024602e-02
1.030554e-02
1.035178e-02
1.038495e-02
1.040535e-02
1.041331e-02
1.040923e-02
1.039354e-02
1.036668e-02
1.032909e-02
1.028118e-02
1.022334e-02
1.015582e-02
1.007873e-02
9.992012e-03
9.895349e-03
9.788127e-03
9.786443e-03
-5.181255e-03
-5.243280e-03
-5.432408e-03
-5.554034e-03
-5.597129e-03
-5.576784e-03
-5.522464e-03
-5.469129e-03
-5.446879e-03
-5.472415e-03
-5.544864e-03
-5.647058e-03
-5.751565e-03
-5.829337e-03
-5.858162e-03
-5.828344e-03
-5.744124e-03
-5.620811e-03
-5.478962e-03
-5.337723e-03
-5.209530e-03
-5.097644e-03
-4.996879e-03
-4.896818e-03
-4.786093e-03
-4.656159e-03
-4.503404e-03
-4.329220e-03
-4.138389e-03
-3.936671e-03
-3.728585e-03
-3.516119e-03
-3.298625e-03
-3.073698e-03
-2.838526e-03
-2.591128e-03
-2.331081e-03
-2.059563e-03
-1.778853e-03
-1.491544e-03
-1.199808e-03
-9.049217e-04
-6.071654e-04
-3.060395e-04
-6.735149e-07
3.097390e-04
6.256104e-04
9.468044e-04
1.272662e-03
1.602157e-03
1.934115e-03
2.267413e-03
2.601078e-03
2.934262e-03
3.266475e-03
3.597357e-03
3.926577e-03
4.253749e-03
4.578384e-03
4.899879e-03
5.217544e-03
5.530646e-03
5.838458e-03
6.140296e-03
6.435538e-03
6.723632e-03
7.004077e-03
7.276409e-03
7.540178e-03
7.794937e-03
8.040231e-03
8.275601e-03
8.500581e-03
8.714715e-03
8.917559e-03
9.108688e-03
9.287707e-03
9.454254e-03
9.608004e-03
9.748680e-03
9.876055e-03
9.989956e-03
1.009027e-02
1.017696e-02
1.025005e-02
1.030963e-02
1.035584e-02
1.038888e-02
1.040900e-02
1.041650e-02
1.041170e-02
1.039495e-02
1.036662e-02
1.032705e-02
1.027656e-02
1.021543e-02
1.014382e-02
1.006176e-02
9.969158e-03
9.865669e-03
9.750724e-03
9.749372e-03
-5.271666e-03
-5.311623e-03
-5.450476e-03
-5.515730e-03
-5.516521e-03
-5.480946e-03
-5.443292e-03
-5.433758e-03
-5.469717e-03
-5.551211e-03
-5.661908e-03
-5.774954e-03
-5.861615e-03
-5.899839e-03
-5.880098e-03
-5.806885e-03
-5.695801e-03
-5.567578e-03
-5.441256e-03
-5.328778e-03
-5.232569e-03
-5.146492e-03
-5.059358e-03
-4.959456e-03
-4.838451e-03
-4.693424e-03
-4.526696e-03
-4.343905e-03
-4.151326e-03
-3.953526e-03
-3.752117e-03
-3.545829e-03
-3.331634e-03
-3.106284e-03
-2.867657e-03
-2.615458e-03
-2.351155e-03
-2.077334e-03
-1.796799e-03
-1.511766e-03
-1.223408e-03
-9.318033e-04
-6.362396e-04
-3.356861e-04
-2.926749e-05
2.834054e-04
6.021091e-04
9.260746e-04
1.254184e-03
1.585213e-03
1.918038e-03
2.251765e-03
2.585718e-03
2.919312e-03
3.252225e-03
3.584142e-03
3.914663e-03
4.243270e-03
4.569327e-03
4.892116e-03
5.210888e-03
5.524918e-03
5.833534e-03
6.136135e-03
6.432184e-03
6.721191e-03
7.002689e-03
7.276217e-03
7.541301e-03
7.797457e-03
8.044186e-03
8.280986e-03
8.507358e-03
8.722816e-03
8.926893e-03
9.119149e-03
9.299176e-03
9.466605e-03
9.621110e-03
9.762417e-03
9.890307e-03
1.000462e-02
1.010526e-02
1.019218e-02
1.026542e-02
1.032506e-02
1.037123e-02
1.040408e-02
1.042384e-02
1.043074e-02
1.042505e-02
1.040706e-02
1.037705e-02
1.033531e-02
1.028209e-02
1.021760e-02
1.014194e-02
1.005514e-02
9.957042e-03
9.847358e-03
9.725578e-03
9.724580e-03
-5.339552e-03
-5.349184e-03
-5.436018e-03
-5.457695e-03
-5.440515e-03
-5.418195e-03
-5.421196e-03
-5.467736e-03
-5.558881e-03
-5.679119e-03
-5.802005e-03
-5.898820e-03
-5.947345e-03
-5.937944e-03
-5.875242e-03
-5.775212e-03
-5.659030e-03
-5.546004e-03
-5.447967e-03
-5.366797e-03
-5.295507e-03
-5.222041e-03
-5.134113e-03
-5.023285e-03
-4.887031e-03
-4.728388e-03
-4.553762e-03
-4.369984e-03
-4.181802e-03
-3.990636e-03
-3.794792e-03
-3.590767e-03
-3.374971e-03
-3.145156e-03
-2.901104e-03
-2.644477e-03
-2.378055e-03
-2.104740e-03
-1.826723e-03
-1.545042e-03
-1.259597e-03
-9.695142e-04
-6.736731e-04
-3.711937e-04
-6.175238e-05
2.543278e-04
5.761846e-04
9.026444e-04
1.232476e-03
1.564595e-03
1.898171e-03
2.232635e-03
2.567560e-03
2.902482e-03
3.237072e-03
3.570899e-03
3.903404e-03
4.233918e-03
4.561707e-03
4.886025e-03
5.206165e-03
5.521484e-03
5.831407e-03
6.135414e-03
6.433022e-03
6.723753e-03
7.007123e-03
7.282625e-03
7.549737e-03
7.807917e-03
8.056624e-03
8.295317e-03
8.523470e-03
8.740577e-03
8.946157e-03
9.139760e-03
9.320977e-03
9.489440e-03
9.644836e-03
9.786901e-03
9.915435e-03
1.003029e-02
1.013138e-02
1.021867e-02
1.029217e-02
1.035196e-02
1.039813e-02
1.043080e-02
1.045014e-02
1.045634e-02
1.044963e-02
1.043023e-02
1.039839e-02
1.035435e-02
1.029831e-02
1.023046e-02
1.015086e-02
1.005953e-02
9.956346e-03
9.841045e-03
9.713202e-03
9.712574e-03
-5.371143e-03
-5.349606e-03
-5.396531e-03
-5.398425e-03
-5.391677e-03
-5.407174e-03
-5.464270e-03
-5.565365e-03
-5.695976e-03
-5.830083e-03
-5.938788e-03
-5.999339e-03
-6.001583e-03
-5.949949e-03
-5.860648e-03
-5.755404e-03
-5.654103e-03
-5.568883e-03
-5.501489e-03
-5.444369e-03
-5.384689e-03
-5.309475e-03
-5.209943e-03
-5.083653e-03
-4.934083e-03
-4.768219e-03
-4.593376e-03
-4.414532e-03
-4.233050e-03
-4.046976e-03
-3.852505e-03
-3.645832e-03
-3.424654e-03
-3.188835e-03
-2.940177e-03
-2.681561e-03
-2.415892e-03
-2.145250e-03
-1.870488e-03
-1.591319e-03
-1.306737e-03
-1.015583e-03
-7.170288e-04
-4.108614e-04
-9.752553e-05
2.220269e-04
5.465900e-04
8.749612e-04
1.206128e-03
1.539347e-03
1.874123e-03
2.210116e-03
2.546979e-03
2.884182e-03
3.221244e-03
3.557559e-03
3.892424e-03
4.225097e-03
4.554851e-03
4.881010e-03
5.202970e-03
5.520188e-03
5.832167e-03
6.138419e-03
6.438453e-03
6.731750e-03
7.017765e-03
7.295929e-03
7.565659e-03
7.826369e-03
8.077480e-03
8.318426e-03
8.548665e-03
8.767680e-03
8.974986e-03
9.170137e-03
9.352731e-03
9.522418e-03
9.678900e-03
9.821936e-03
9.951338e-03
1.006697e-02
1.016874e-02
1.025659e-02
1.033053e-02
1.039058e-02
1.043680e-02
1.046929e-02
1.048816e-02
1.049357e-02
1.048571e-02
1.046478e-02
1.043100e-02
1.038457e-02
1.032568e-02
1.025450e-02
1.017110e-02
1.007549e-02
9.967582e-03
9.847172e-03
9.713918e-03
9.713669e-03
-5.365571e-03
-5.319163e-03
-5.348298e-03
-5.358642e-03
-5.387497e-03
-5.455599e-03
-5.567071e-03
-5.708839e-03
-5.855537e-03
-5.978070e-03
-6.052889e-03
-6.068904e-03
-6.029911e-03
-5.952049e-03
-5.857512e-03
-5.766927e-03
-5.693096e-03
-5.638051e-03
-5.594064e-03
-5.547754e-03
-5.485493e-03
-5.398017e-03
-5.282734e-03
-5.143293e-03
-4.987038e-03
-4.821635e-03
-4.652256e-03
-4.480260e-03
-4.303550e-03
-4.118152e-03
-3.920176e-03
-3.707355e-03
-3.479682e-03
-3.239092e-03
-2.988524e-03
-2.730818e-03
-2.467872e-03
-2.200303e-03
-1.927609e-03
-1.648655e-03
-1.362268e-03
-1.067707e-03
-7.649042e-04
-4.544470e-04
-1.373824e-04
1.850620e-04
5.117321e-04
8.417093e-04
1.174355e-03
1.509257e-03
1.846115e-03
2.184624e-03
2.524329e-03
2.864517e-03
3.204526e-03
3.543625e-03
3.881070e-03
4.216160e-03
4.548261e-03
4.876816e-03
5.201317e-03
5.521283e-03
5.836224e-03
6.145623e-03
6.448924e-03
6.745537e-03
7.034844e-03
7.316216e-03
7.589026e-03
7.852655e-03
8.106503e-03
8.349994e-03
8.582579e-03
8.803743e-03
9.013010e-03
9.209949e-03
9.394178e-03
9.565369e-03
9.723244e-03
9.867572e-03
9.998168e-03
1.011488e-02
1.021760e-02
1.030625e-02
1.038078e-02
1.044119e-02
1.048750e-02
1.051978e-02
1.053811e-02
1.054264e-02
1.053353e-02
1.051097e-02
1.047517e-02
1.042631e-02
1.036459e-02
1.029016e-02
1.020310e-02
1.010344e-02
9.991141e-03
9.866051e-03
9.727920e-03
9.728049e-03
-5.334334e-03
-5.274488e-03
-5.311890e-03
-5.356158e-03
-5.436605e-03
-5.559400e-03
-5.713318e-03
-5.874019e-03
-6.012380e-03
-6.103958e-03
-6.136396e-03
-6.112412e-03
-6.047672e-03
-5.964605e-03
-5.884594e-03
-5.821334e-03
-5.777513e-03
-5.745605e-03
-5.711992e-03
-5.662544e-03
-5.587493e-03
-5.483951e-03
-5.355541e-03
-5.209764e-03
-5.054488e-03
-4.895003e-03
-4.732654e-03
-4.565244e-03
-4.388710e-03
-4.199165e-03
-3.994461e-03
-3.774775e-03
-3.542210e-03
-3.299764e-03
-3.050185e-03
-2.795157e-03
-2.535021e-03
-2.269031e-03
-1.995910e-03
-1.714470e-03
-1.424071e-03
-1.124800e-03
-8.173997e-04
-5.030181e-04
-1.829021e-04
1.418494e-04
4.704198e-04
8.022819e-04
1.137108e-03
1.474639e-03
1.814560e-03
2.156423e-03
2.499578e-03
2.843130e-03
3.186323e-03
3.528419e-03
3.868749e-03
4.206728e-03
4.541842e-03
4.873620e-03
5.201591e-03
5.525258e-03
5.844072e-03
6.157438e-03
6.464716e-03
6.765239e-03
7.058335e-03
7.343334e-03
7.619582e-03
7.886447e-03
8.143322e-03
8.389634e-03
8.624840e-03
8.848440e-03
9.059978e-03
9.259048e-03
9.445289e-03
9.618388e-03
9.778071e-03
9.924102e-03
1.005627e-02
1.017440e-02
1.027834e-02
1.036796e-02
1.044320e-02
1.050402e-02
1.055041e-02
1.058243e-02
1.060016e-02
1.060372e-02
1.059330e-02
1.056906e-02
1.053120e-02
1.047993e-02
1.041541e-02
1.033781e-02
1.024724e-02
1.014375e-02
1.002733e-02
9.897908e-03
9.755319e-03
9.755816e-03
-5.297692e-03
-5.237894e-03
-5.306984e-03
-5.401923e-03
-5.537576e-03
-5.704941e-03
-5.881128e-03
-6.037286e-03
-6.148139e-03
-6.199864e-03
-6.193731e-03
-6.144514e-03
-6.074562e-03
-6.005895e-03
-5.953199e-03
-5.920084e-03
-5.899557e-03
-5.878053e-03
-5.841145e-03
-5.778626e-03
-5.687261e-03
-5.570527e-03
-5.435953e-03
-5.291492e-03
-5.142474e-03
-4.990188e-03
-4.832333e-03
-4.664771e-03
-4.483652e-03
-4.286986e-03
-4.075185e-03
-3.850559e-03
-3.616197e-03
-3.374776e-03
-3.127764e-03
-2.875222e-03
-2.616142e-03
-2.349089e-03
-2.072847e-03
-1.786863e-03
-1.491374e-03
-1.187275e-03
-8.758091e-04
-5.582424e-04
-2.356200e-04
9.134055e-05
4.222179e-04
7.567646e-04
1.094756e-03
1.435867e-03
1.779608e-03
2.125334e-03
2.472239e-03
2.819356e-03
3.165964e-03
3.511430e-03
3.855218e-03
4.196858e-03
4.535905e-03
4.871895e-03
5.204313e-03
5.532578e-03
5.856048e-03
6.174036e-03
6.485829e-03
6.790711e-03
7.087977e-03
7.376939e-03
7.656937e-03
7.927342e-03
8.187554e-03
8.437013e-03
8.675197e-03
8.901631e-03
9.115882e-03
9.317560e-03
9.506314e-03
9.681825e-03
9.843798e-03
9.991962e-03
1.012607e-02
1.024589e-02
1.035124e-02
1.044197e-02
1.051797e-02
1.057919e-02
1.062564e-02
1.065736e-02
1.067444e-02
1.067701e-02
1.066524e-02
1.063931e-02
1.059941e-02
1.054575e-02
1.047849e-02
1.039783e-02
1.030386e-02
1.019670e-02
1.007639e-02
9.942905e-03
9.796171e-03
9.797023e-03
-5.279223e-03
-5.231697e-03
-5.347852e-03
-5.498139e-03
-5.680351e-03
-5.873434e-03
-6.049156e-03
-6.181581e-03
-6.255353e-03
-6.270016e-03
-6.239077e-03
-6.184470e-03
-6.128649e-03
-6.087286e-03
-6.065068e-03
-6.055782e-03
-6.046164e-03
-6.021660e-03
-5.971733e-03
-5.892809e-03
-5.788170e-03
-5.665315e-03
-5.532230e-03
-5.394243e-03
-5.252557e-03
-5.104732e-03
-4.946530e-03
-4.774112e-03
-4.585644e-03
-4.381781e-03
-4.165071e-03
-3.938736e-03
-3.705426e-03
-3.466432e-03
-3.221555e-03
-2.969536e-03
-2.708774e-03
-2.438008e-03
-2.156749e-03
-1.865364e-03
-1.564875e-03
-1.256609e-03
-9.418462e-04
-6.215787e-04
-2.964345e-04
3.325795e-05
3.673177e-04
7.055456e-04
1.047602e-03
1.392961e-03
1.740937e-03
2.090759e-03
2.441599e-03
2.792553e-03
3.143033e-03
3.492549e-03
3.840668e-03
4.186966e-03
4.530974e-03
4.872151e-03
5.209879e-03
5.543469e-03
5.872188e-03
6.195280e-03
6.511992e-03
6.821586e-03
7.123349e-03
7.416599e-03
7.700684e-03
7.974988e-03
8.238935e-03
8.491986e-03
8.733647e-03
8.963459e-03
9.181002e-03
9.385881e-03
9.577725e-03
9.756178e-03
9.920902e-03
1.007157e-02
1.020790e-02
1.032961e-02
1.043649e-02
1.052837e-02
1.060515e-02
1.066679e-02
1.071329e-02
1.074471e-02
1.076115e-02
1.076274e-02
1.074965e-02
1.072206e-02
1.068016e-02
1.062414e-02
1.055420e-02
1.047053e-02
1.037328e-02
1.026258e-02
1.013852e-02
1.000117e-02
9.850504e-03
9.851693e-03
-5.300057e-03
-5.273041e-03
-5.440585e-03
-5.638687e-03
-5.849651e-03
-6.046208e-03
-6.201987e-03
-6.300123e-03
-6.338250e-03
-6.328295e-03
-6.291448e-03
-6.250374e-03
-6.221653e-03
-6.211120e-03
-6.213504e-03
-6.216017e-03
-6.204119e-03
-6.166999e-03
-6.100780e-03
-6.008547e-03
-5.897756e-03
-5.776440e-03
-5.649940e-03
-5.519376e-03
-5.382152e-03
-5.233881e-03
-5.070677e-03
-4.890807e-03
-4.695139e-03
-4.486465e-03
-4.268171e-03
-4.042933e-03
-3.811921e-03
-3.574723e-03
-3.329861e-03
-3.075577e-03