# vtk DataFile Version 3.0
Scalar Field
ASCII
DATASET RECTILINEAR_GRID
DIMENSIONS 102 102 1
X_COORDINATES 102 double
0.000000 0.100000 0.200000 0.300000 0.400000 0.500000 0.600000 0.700000 0.800000 0.900000 1.000000 1.100000 1.200000 1.300000 1.400000 1.500000 1.600000 1.700000 1.800000 1.900000 2.000000 2.100000 2.200000 2.300000 2.400000 2.500000 2.600000 2.700000 2.800000 2.900000 3.000000 3.100000 3.200000 3.300000 3.400000 3.500000 3.600000 3.700000 3.800000 3.900000 4.000000 4.100000 4.200000 4.300000 4.400000 4.500000 4.600000 4.700000 4.800000 4.900000 5.000000 5.100000 5.200000 5.300000 5.400000 5.500000 5.600000 5.700000 5.800000 5.900000 6.000000 6.100000 6.200000 6.300000 6.400000 6.500000 6.600000 6.700000 6.800000 6.900000 7.000000 7.100000 7.200000 7.300000 7.400000 7.500000 7.600000 7.700000 7.800000 7.900000 8.000000 8.100000 8.200000 8.300000 8.400000 8.500000 8.600000 8.700000 8.800000 8.900000 9.000000 9.100000 9.200000 9.300000 9.400000 9.500000 9.600000 9.700000 9.800000 9.900000 10.000000 10.100000 
Y_COORDINATES 102 double
0.000000 0.100000 0.200000 0.300000 0.400000 0.500000 0.600000 0.700000 0.800000 0.900000 1.000000 1.100000 1.200000 1.300000 1.400000 1.500000 1.600000 1.700000 1.800000 1.900000 2.000000 2.100000 2.200000 2.300000 2.400000 2.500000 2.600000 2.700000 2.800000 2.900000 3.000000 3.100000 3.200000 3.300000 3.400000 3.500000 3.600000 3.700000 3.800000 3.900000 4.000000 4.100000 4.200000 4.300000 4.400000 4.500000 4.600000 4.700000 4.800000 4.900000 5.000000 5.100000 5.200000 5.300000 5.400000 5.500000 5.600000 5.700000 5.800000 5.900000 6.000000 6.100000 6.200000 6.300000 6.400000 6.500000 6.600000 6.700000 6.800000 6.900000 7.000000 7.100000 7.200000 7.300000 7.400000 7.500000 7.600000 7.700000 7.800000 7.900000 8.000000 8.100000 8.200000 8.300000 8.400000 8.500000 8.600000 8.700000 8.800000 8.900000 9.000000 9.100000 9.200000 9.300000 9.400000 9.500000 9.600000 9.700000 9.800000 9.900000 10.000000 10.100000 
Z_COORDINATES 1 double
0.0
POINT_DATA 10404
SCALARS Pressure double 1
LOOKUP_TABLE default
0.000000e+00
1.575510e-02
1.567775e-02
1.541598e-02
1.512299e-02
1.488308e-02
1.471818e-02
1.460819e-02
1.452109e-02
1.443294e-02
1.433245e-02
1.421602e-02
1.408238e-02
1.393201e-02
1.377007e-02
1.360878e-02
1.346567e-02
1.335773e-02
1.329473e-02
1.327550e-02
1.328938e-02
1.332175e-02
1.336072e-02
1.340165e-02
1.344772e-02
1.350689e-02
1.358744e-02
1.369427e-02
1.382758e-02
1.398390e-02
1.415848e-02
1.434758e-02
1.454968e-02
1.476528e-02
1.499591e-02
1.524284e-02
1.550633e-02
1.578548e-02
1.607869e-02
1.638416e-02
1.670043e-02
1.702638e-02
1.736118e-02
1.770393e-02
1.805346e-02
1.840825e-02
1.876651e-02
1.912632e-02
1.948579e-02
1.984317e-02
2.019691e-02
2.054550e-02
2.088743e-02
2.122103e-02
2.154455e-02
2.185615e-02
2.215398e-02
2.243633e-02
2.270161e-02
2.294848e-02
2.317574e-02
2.338239e-02
2.356752e-02
2.373036e-02
2.387023e-02
2.398654e-02
2.407883e-02
2.414679e-02
2.419028e-02
2.420932e-02
2.420413e-02
2.417514e-02
2.412291e-02
2.404819e-02
2.395190e-02
2.383509e-02
2.369901e-02
2.354502e-02
2.337468e-02
2.318965e-02
2.299179e-02
2.278305e-02
2.256553e-02
2.234146e-02
2.211314e-02
2.188301e-02
2.165361e-02
2.142756e-02
2.120760e-02
2.099655e-02
2.079734e-02
2.061295e-02
2.044639e-02
2.030069e-02
2.017874e-02
2.008318e-02
2.001605e-02
1.997825e-02
1.996844e-02
1.998094e-02
2.000221e-02
0.000000e+00
1.575510e-02
1.581287e-02
1.560654e-02
1.529495e-02
1.502211e-02
1.483736e-02
1.472912e-02
1.465903e-02
1.459169e-02
1.450692e-02
1.439742e-02
1.426193e-02
1.410191e-02
1.392318e-02
1.373864e-02
1.356759e-02
1.343029e-02
1.334034e-02
1.329948e-02
1.329759e-02
1.331814e-02
1.334591e-02
1.337311e-02
1.340135e-02
1.343901e-02
1.349628e-02
1.358031e-02
1.369291e-02
1.383103e-02
1.398931e-02
1.416294e-02
1.434945e-02
1.454897e-02
1.476320e-02
1.499394e-02
1.524201e-02
1.550689e-02
1.578705e-02
1.608061e-02
1.638595e-02
1.670189e-02
1.702764e-02
1.736245e-02
1.770534e-02
1.805495e-02
1.840960e-02
1.876746e-02
1.912673e-02
1.948568e-02
1.984275e-02
2.019649e-02
2.054538e-02
2.088780e-02
2.122194e-02
2.154587e-02
2.185767e-02
2.215547e-02
2.243760e-02
2.270258e-02
2.294913e-02
2.317615e-02
2.338266e-02
2.356778e-02
2.373068e-02
2.387066e-02
2.398709e-02
2.407949e-02
2.414751e-02
2.419103e-02
2.421007e-02
2.420487e-02
2.417585e-02
2.412359e-02
2.404884e-02
2.395250e-02
2.383565e-02
2.369951e-02
2.354548e-02
2.337510e-02
2.319005e-02
2.299219e-02
2.278348e-02
2.256601e-02
2.234198e-02
2.211371e-02
2.188362e-02
2.165424e-02
2.142819e-02
2.120821e-02
2.099714e-02
2.079790e-02
2.061348e-02
2.044691e-02
2.030119e-02
2.017924e-02
2.008368e-02
2.001656e-02
1.997877e-02
1.996897e-02
1.998148e-02
2.000276e-02
2.000221e-02
1.568659e-02
1.561224e-02
1.537641e-02
1.517070e-02
1.504752e-02
1.498355e-02
1.493953e-02
1.488506e-02
1.480599e-02
1.469918e-02
1.456530e-02
1.440653e-02
1.422916e-02
1.404644e-02
1.387736e-02
1.374078e-02
1.364816e-02
1.359914e-02
1.358275e-02
1.358337e-02
1.358815e-02
1.359214e-02
1.359900e-02
1.361776e-02
1.365770e-02
1.372432e-02
1.381783e-02
1.393443e-02
1.406895e-02
1.421748e-02
1.437862e-02
1.455320e-02
1.474312e-02
1.494989e-02
1.517388e-02
1.541424e-02
1.566941e-02
1.593774e-02
1.621795e-02
1.650920e-02
1.681090e-02
1.712234e-02
1.744256e-02
1.777021e-02
1.810373e-02
1.844154e-02
1.878212e-02
1.912409e-02
1.946608e-02
1.980665e-02
2.014430e-02
2.047738e-02
2.080402e-02
2.112233e-02
2.143041e-02
2.172649e-02
2.200897e-02
2.227647e-02
2.252774e-02
2.276166e-02
2.297720e-02
2.317338e-02
2.334930e-02
2.350411e-02
2.363709e-02
2.374763e-02
2.383528e-02
2.389978e-02
2.394104e-02
2.395915e-02
2.395435e-02
2.392707e-02
2.387788e-02
2.380751e-02
2.371685e-02
2.360693e-02
2.347896e-02
2.333427e-02
2.317437e-02
2.300086e-02
2.281552e-02
2.262021e-02
2.241689e-02
2.220767e-02
2.199472e-02
2.178032e-02
2.156687e-02
2.135683e-02
2.115276e-02
2.095729e-02
2.077308e-02
2.060284e-02
2.044922e-02
2.031483e-02
2.020204e-02
2.011291e-02
2.004889e-02
2.001039e-02
1.999622e-02
2.000287e-02
2.002425e-02
2.002370e-02
1.551050e-02
1.538106e-02
1.524340e-02
1.518925e-02
1.518835e-02
1.518757e-02
1.515537e-02
1.508387e-02
1.497736e-02
1.484146e-02
1.468064e-02
1.450220e-02
1.432030e-02
1.415450e-02
1.402304e-02
1.393498e-02
1.388649e-02
1.386355e-02
1.384951e-02
1.383311e-02
1.381291e-02
1.379639e-02
1.379499e-02
1.381824e-02
1.387001e-02
1.394812e-02
1.404684e-02
1.416038e-02
1.428548e-02
1.442207e-02
1.457229e-02
1.473869e-02
1.492276e-02
1.512435e-02
1.534203e-02
1.557393e-02
1.581849e-02
1.607479e-02
1.634240e-02
1.662100e-02
1.691004e-02
1.720849e-02
1.751501e-02
1.782810e-02
1.814637e-02
1.846861e-02
1.879377e-02
1.912079e-02
1.944831e-02
1.977470e-02
2.009822e-02
2.041696e-02
2.072897e-02
2.103241e-02
2.132562e-02
2.160713e-02
2.187567e-02
2.213006e-02
2.236920e-02
2.259201e-02
2.279741e-02
2.298438e-02
2.315195e-02
2.329929e-02
2.342569e-02
2.353060e-02
2.361366e-02
2.367466e-02
2.371357e-02
2.373050e-02
2.372571e-02
2.369963e-02
2.365282e-02
2.358599e-02
2.350001e-02
2.339590e-02
2.327483e-02
2.313809e-02
2.298712e-02
2.282347e-02
2.264881e-02
2.246490e-02
2.227362e-02
2.207695e-02
2.187696e-02
2.167582e-02
2.147580e-02
2.127922e-02
2.108846e-02
2.090596e-02
2.073415e-02
2.057546e-02
2.043225e-02
2.030680e-02
2.020113e-02
2.011700e-02
2.005564e-02
2.001760e-02
2.000258e-02
2.000943e-02
2.003695e-02
2.003641e-02
1.537529e-02
1.526261e-02
1.525706e-02
1.531781e-02
1.537235e-02
1.537786e-02
1.532600e-02
1.522654e-02
1.509123e-02
1.492859e-02
1.474812e-02
1.456538e-02
1.440116e-02
1.427412e-02
1.419212e-02
1.414845e-02
1.412553e-02
1.410420e-02
1.407299e-02
1.403269e-02
1.399433e-02
1.397257e-02
1.397849e-02
1.401549e-02
1.407953e-02
1.416283e-02
1.425835e-02
1.436277e-02
1.447695e-02
1.460425e-02
1.474814e-02
1.491039e-02
1.509060e-02
1.528688e-02
1.549699e-02
1.571931e-02
1.595310e-02
1.619827e-02
1.645480e-02
1.672225e-02
1.699968e-02
1.728574e-02
1.757901e-02
1.787828e-02
1.818261e-02
1.849125e-02
1.880336e-02
1.911784e-02
1.943300e-02
1.974682e-02
2.005733e-02
2.036257e-02
2.066073e-02
2.095026e-02
2.122986e-02
2.149835e-02
2.175465e-02
2.199768e-02
2.222630e-02
2.243936e-02
2.263572e-02
2.281431e-02
2.297417e-02
2.311450e-02
2.323469e-02
2.333425e-02
2.341291e-02
2.347050e-02
2.350702e-02
2.352259e-02
2.351747e-02
2.349210e-02
2.344703e-02
2.338296e-02
2.330074e-02
2.320138e-02
2.308601e-02
2.295588e-02
2.281235e-02
2.265690e-02
2.249113e-02
2.231671e-02
2.213544e-02
2.194921e-02
2.176000e-02
2.156990e-02
2.138103e-02
2.119560e-02
2.101581e-02
2.084391e-02
2.068212e-02
2.053265e-02
2.039761e-02
2.027903e-02
2.017874e-02
2.009832e-02
2.003905e-02
2.000179e-02
1.998706e-02
1.999531e-02
2.002768e-02
2.002714e-02
1.535597e-02
1.529986e-02
1.539066e-02
1.549941e-02
1.555211e-02
1.553160e-02
1.544794e-02
1.531774e-02
1.515463e-02
1.497166e-02
1.478663e-02
1.462189e-02
1.449713e-02
1.442003e-02
1.438206e-02
1.436267e-02
1.433972e-02
1.430022e-02
1.424560e-02
1.418926e-02
1.414882e-02
1.413752e-02
1.415939e-02
1.420955e-02
1.427870e-02
1.435846e-02
1.444497e-02
1.453939e-02
1.464588e-02
1.476874e-02
1.491019e-02
1.506990e-02
1.524575e-02
1.543526e-02
1.563668e-02
1.584935e-02
1.607335e-02
1.630885e-02
1.655557e-02
1.681263e-02
1.707880e-02
1.735278e-02
1.763356e-02
1.792045e-02
1.821291e-02
1.851030e-02
1.881161e-02
1.911536e-02
1.941941e-02
1.972146e-02
2.001955e-02
2.031196e-02
2.059727e-02
2.087429e-02
2.114198e-02
2.139931e-02
2.164520e-02
2.187850e-02
2.209796e-02
2.230234e-02
2.249048e-02
2.266134e-02
2.281402e-02
2.294783e-02
2.306222e-02
2.315681e-02
2.323133e-02
2.328566e-02
2.331979e-02
2.333385e-02
2.332811e-02
2.330299e-02
2.325907e-02
2.319703e-02
2.311773e-02
2.302212e-02
2.291131e-02
2.278647e-02
2.264893e-02
2.250011e-02
2.234151e-02
2.217478e-02
2.200165e-02
2.182393e-02
2.164354e-02
2.146244e-02
2.128267e-02
2.110626e-02
2.093529e-02
2.077181e-02
2.061788e-02
2.047548e-02
2.034658e-02
2.023301e-02
2.013647e-02
2.005850e-02
2.000043e-02
1.996342e-02
1.994853e-02
1.995704e-02
1.999093e-02
1.999040e-02
1.546610e-02
1.547263e-02
1.559657e-02
1.569324e-02
1.570971e-02
1.564933e-02
1.552940e-02
1.536773e-02
1.518177e-02
1.499260e-02
1.482480e-02
1.469936e-02
1.462437e-02
1.459037e-02
1.457474e-02
1.455280e-02
1.450964e-02
1.444614e-02
1.437673e-02
1.432095e-02
1.429397e-02
1.430093e-02
1.433705e-02
1.439231e-02
1.445750e-02
1.452815e-02
1.460533e-02
1.469347e-02
1.479728e-02
1.491937e-02
1.505959e-02
1.521586e-02
1.538568e-02
1.556730e-02
1.576007e-02
1.596413e-02
1.617969e-02
1.640655e-02
1.664395e-02
1.689076e-02
1.714593e-02
1.740869e-02
1.767856e-02
1.795522e-02
1.823811e-02
1.852625e-02
1.881819e-02
1.911206e-02
1.940547e-02
1.969615e-02
1.998248e-02
2.026318e-02
2.053719e-02
2.080356e-02
2.106131e-02
2.130934e-02
2.154644e-02
2.177131e-02
2.198262e-02
2.217914e-02
2.235974e-02
2.252348e-02
2.266959e-02
2.279745e-02
2.290658e-02
2.299662e-02
2.306732e-02
2.311856e-02
2.315032e-02
2.316274e-02
2.315610e-02
2.313084e-02
2.308753e-02
2.302687e-02
2.294967e-02
2.285685e-02
2.274948e-02
2.262869e-02
2.249576e-02
2.235207e-02
2.219909e-02
2.203842e-02
2.187173e-02
2.170079e-02
2.152742e-02
2.135348e-02
2.118088e-02
2.101154e-02
2.084736e-02
2.069028e-02
2.054217e-02
2.040489e-02
2.028024e-02
2.016994e-02
2.007561e-02
1.999873e-02
1.994071e-02
1.990287e-02
1.988656e-02
1.989336e-02
1.992536e-02
1.992485e-02
1.567581e-02
1.573022e-02
1.583137e-02
1.587890e-02
1.584359e-02
1.573761e-02
1.557943e-02
1.539004e-02
1.519442e-02
1.502024e-02
1.489046e-02
1.481387e-02
1.478058e-02
1.476656e-02
1.474528e-02
1.470017e-02
1.463122e-02
1.455296e-02
1.448574e-02
1.444581e-02
1.443918e-02
1.446152e-02
1.450286e-02
1.455377e-02
1.460964e-02
1.467138e-02
1.474337e-02
1.483031e-02
1.493484e-02
1.505690e-02
1.519457e-02
1.534554e-02
1.550821e-02
1.568206e-02
1.586723e-02
1.606390e-02
1.627182e-02
1.649029e-02
1.671835e-02
1.695519e-02
1.720033e-02
1.745358e-02
1.771474e-02
1.798332e-02
1.825833e-02
1.853826e-02
1.882126e-02
1.910541e-02
1.938848e-02
1.966850e-02
1.994433e-02
2.021505e-02
2.047977e-02
2.073753e-02
2.098719e-02
2.122747e-02
2.145699e-02
2.167437e-02
2.187832e-02
2.206768e-02
2.224146e-02
2.239882e-02
2.253908e-02
2.266167e-02
2.276612e-02
2.285208e-02
2.291928e-02
2.296760e-02
2.299703e-02
2.300772e-02
2.299994e-02
2.297420e-02
2.293103e-02
2.287111e-02
2.279523e-02
2.270430e-02
2.259931e-02
2.248141e-02
2.235183e-02
2.221193e-02
2.206317e-02
2.190710e-02
2.174534e-02
2.157960e-02
2.141159e-02
2.124308e-02
2.107585e-02
2.091171e-02
2.075244e-02
2.059983e-02
2.045567e-02
2.032167e-02
2.019954e-02
2.009088e-02
1.999724e-02
1.992007e-02
1.986079e-02
1.982077e-02
1.980145e-02
1.980444e-02
1.983165e-02
1.983115e-02
1.594012e-02
1.602144e-02
1.606585e-02
1.604771e-02
1.595458e-02
1.580079e-02
1.560772e-02
1.540342e-02
1.521914e-02
1.508065e-02
1.499808e-02
1.496145e-02
1.494565e-02
1.492268e-02
1.487475e-02
1.480118e-02
1.471631e-02
1.464067e-02
1.459072e-02
1.457265e-02
1.458231e-02
1.461002e-02
1.464672e-02
1.468809e-02
1.473529e-02
1.479265e-02
1.486459e-02
1.495343e-02
1.505892e-02
1.517921e-02
1.531224e-02
1.545674e-02
1.561245e-02
1.577957e-02
1.595824e-02
1.614810e-02
1.634841e-02
1.655836e-02
1.677740e-02
1.700536e-02
1.724231e-02
1.748823e-02
1.774264e-02
1.800449e-02
1.827222e-02
1.854398e-02
1.881797e-02
1.909262e-02
1.936616e-02
1.963695e-02
1.990420e-02
2.016707e-02
2.042457e-02
2.067550e-02
2.091849e-02
2.115209e-02
2.137489e-02
2.158555e-02
2.178290e-02
2.196592e-02
2.213373e-02
2.228559e-02
2.242082e-02
2.253886e-02
2.263923e-02
2.272155e-02
2.278557e-02
2.283116e-02
2.285834e-02
2.286724e-02
2.285817e-02
2.283164e-02
2.278816e-02
2.272841e-02
2.265313e-02
2.256322e-02
2.245967e-02
2.234361e-02
2.221627e-02
2.207900e-02
2.193322e-02
2.178045e-02
2.162224e-02
2.146021e-02
2.129599e-02
2.113125e-02
2.096769e-02
2.080698e-02
2.065084e-02
2.050095e-02
2.035898e-02
2.022658e-02
2.010534e-02
1.999677e-02
1.990237e-02
1.982351e-02
1.976158e-02
1.971795e-02
1.969402e-02
1.969128e-02
1.971137e-02
1.971089e-02
1.622009e-02
1.630933e-02
1.628243e-02
1.619347e-02
1.604127e-02
1.584361e-02
1.562885e-02
1.543106e-02
1.527928e-02
1.518589e-02
1.514143e-02
1.511991e-02
1.509199e-02
1.503879e-02
1.495924e-02
1.486773e-02
1.478486e-02
1.472688e-02
1.469952e-02
1.469821e-02
1.471326e-02
1.473606e-02
1.476303e-02
1.479590e-02
1.483932e-02
1.489748e-02
1.497218e-02
1.506271e-02
1.516701e-02
1.528320e-02
1.541039e-02
1.554865e-02
1.569841e-02
1.585978e-02
1.603233e-02
1.621523e-02
1.640774e-02
1.660953e-02
1.682076e-02
1.704174e-02
1.727261e-02
1.751291e-02
1.776153e-02
1.801684e-02
1.827700e-02
1.854033e-02
1.880551e-02
1.907160e-02
1.933725e-02
1.960090e-02
1.986177e-02
2.011881e-02
2.037074e-02
2.061608e-02
2.085334e-02
2.108104e-02
2.129786e-02
2.150262e-02
2.169429e-02
2.187196e-02
2.203482e-02
2.218211e-02
2.231316e-02
2.242736e-02
2.252422e-02
2.260337e-02
2.266454e-02
2.270764e-02
2.273267e-02
2.273981e-02
2.272933e-02
2.270173e-02
2.265755e-02
2.259742e-02
2.252210e-02
2.243248e-02
2.232955e-02
2.221445e-02
2.208841e-02
2.195274e-02
2.180884e-02
2.165815e-02
2.150217e-02
2.134244e-02
2.118051e-02
2.101798e-02
2.085645e-02
2.069754e-02
2.054289e-02
2.039409e-02
2.025273e-02
2.012036e-02
1.999849e-02
1.988856e-02
1.979196e-02
1.971004e-02
1.964409e-02
1.959543e-02
1.956538e-02
1.955526e-02
1.956645e-02
1.956600e-02
1.648973e-02
1.657131e-02
1.646909e-02
1.631005e-02
1.610426e-02
1.587702e-02
1.566295e-02
1.549380e-02
1.538476e-02
1.532774e-02
1.529636e-02
1.525993e-02
1.519839e-02
1.511028e-02
1.501030e-02
1.491941e-02
1.485376e-02
1.481835e-02
1.480768e-02
1.481146e-02
1.482119e-02
1.483405e-02
1.485271e-02
1.488231e-02
1.492719e-02
1.498870e-02
1.506553e-02
1.515521e-02
1.525579e-02
1.536665e-02
1.548823e-02
1.562123e-02
1.576589e-02
1.592172e-02
1.608784e-02
1.626355e-02
1.644868e-02
1.664364e-02
1.684898e-02
1.706496e-02
1.729116e-02
1.752641e-02
1.776903e-02
1.801723e-02
1.826946e-02
1.852464e-02
1.878211e-02
1.904142e-02
1.930138e-02
1.956011e-02
1.981649e-02
2.006916e-02
2.031655e-02
2.055710e-02
2.078932e-02
2.101188e-02
2.122362e-02
2.142351e-02
2.161062e-02
2.178407e-02
2.194303e-02
2.208671e-02
2.221438e-02
2.232544e-02
2.241938e-02
2.249582e-02
2.255454e-02
2.259543e-02
2.261852e-02
2.262394e-02
2.261196e-02
2.258308e-02
2.253785e-02
2.247690e-02
2.240101e-02
2.231107e-02
2.220810e-02
2.209322e-02
2.196765e-02
2.183265e-02
2.168959e-02
2.153983e-02
2.138483e-02
2.122604e-02
2.106498e-02
2.090319e-02
2.074221e-02
2.058361e-02
2.042894e-02
2.027974e-02
2.013751e-02
2.000373e-02
1.987981e-02
1.976711e-02
1.966695e-02
1.958062e-02
1.950934e-02
1.945433e-02
1.941680e-02
1.939793e-02
1.939885e-02
1.939841e-02
1.673276e-02
1.679333e-02
1.661713e-02
1.639562e-02
1.615212e-02
1.591904e-02
1.572916e-02
1.560021e-02
1.552605e-02
1.548061e-02
1.543208e-02
1.535905e-02
1.525940e-02
1.514818e-02
1.504704e-02
1.497241e-02
1.492877e-02
1.490948e-02
1.490319e-02
1.490100e-02
1.490047e-02
1.490513e-02
1.492098e-02
1.495262e-02
1.500130e-02
1.506518e-02
1.514127e-02
1.522738e-02
1.532296e-02
1.542873e-02
1.554568e-02
1.567417e-02
1.581378e-02
1.596363e-02
1.612306e-02
1.629206e-02
1.647119e-02
1.666122e-02
1.686249e-02
1.707458e-02
1.729630e-02
1.752595e-02
1.776179e-02
1.800247e-02
1.824715e-02
1.849543e-02
1.874710e-02
1.900185e-02
1.925826e-02
1.951377e-02
1.976691e-02
2.001604e-02
2.025954e-02
2.049592e-02
2.072388e-02
2.094228e-02
2.115009e-02
2.134636e-02
2.153015e-02
2.170054e-02
2.185664e-02
2.199761e-02
2.212271e-02
2.223132e-02
2.232295e-02
2.239723e-02
2.245395e-02
2.249297e-02
2.251432e-02
2.251811e-02
2.250460e-02
2.247428e-02
2.242775e-02
2.236567e-02
2.228882e-02
2.219812e-02
2.209457e-02
2.197928e-02
2.185342e-02
2.171823e-02
2.157500e-02
2.142508e-02
2.126985e-02
2.111075e-02
2.094926e-02
2.078687e-02
2.062510e-02
2.046544e-02
2.030939e-02
2.015842e-02
2.001395e-02
1.987738e-02
1.975004e-02
1.963324e-02
1.952822e-02
1.943619e-02
1.935833e-02
1.929574e-02
1.924955e-02
1.922078e-02
1.921039e-02
1.920998e-02
1.693740e-02
1.696637e-02
1.672386e-02
1.645743e-02
1.620152e-02
1.598780e-02
1.583540e-02
1.574012e-02
1.567670e-02
1.561262e-02
1.552504e-02
1.541094e-02
1.528547e-02
1.517113e-02
1.508506e-02
1.503162e-02
1.500325e-02
1.498736e-02
1.497417e-02
1.496113e-02
1.495235e-02
1.495461e-02
1.497304e-02
1.500887e-02
1.506003e-02
1.512310e-02
1.519558e-02
1.527684e-02
1.536771e-02
1.546935e-02
1.558230e-02
1.570618e-02
1.584019e-02
1.598377e-02
1.613704e-02
1.630075e-02
1.647577e-02
1.666250e-02
1.686050e-02
1.706853e-02
1.728491e-02
1.750801e-02
1.773668e-02
1.797033e-02
1.820885e-02
1.845224e-02
1.870030e-02
1.895241e-02
1.920676e-02
1.946004e-02
1.971055e-02
1.995664e-02
2.019686e-02
2.042991e-02
2.065470e-02
2.087021e-02
2.107546e-02
2.126945e-02
2.145115e-02
2.161959e-02
2.177381e-02
2.191295e-02
2.203628e-02
2.214318e-02
2.223317e-02
2.230589e-02
2.236109e-02
2.239862e-02
2.241849e-02
2.242079e-02
2.240580e-02
2.237400e-02
2.232607e-02
2.226269e-02
2.218464e-02
2.209283e-02
2.198825e-02
2.187196e-02
2.174510e-02
2.160888e-02
2.146455e-02
2.131343e-02
2.115690e-02
2.099636e-02
2.083328e-02
2.066911e-02
2.050532e-02
2.034336e-02
2.018466e-02
2.003062e-02
1.988260e-02
1.974193e-02
1.960989e-02
1.948771e-02
1.937658e-02
1.927765e-02
1.919204e-02
1.912077e-02
1.906487e-02
1.902525e-02
1.900274e-02
1.900235e-02
1.709526e-02
1.708795e-02
1.679610e-02
1.651144e-02
1.627010e-02
1.609109e-02
1.597147e-02
1.588678e-02
1.580407e-02
1.569919e-02
1.556797e-02
1.542542e-02
1.529483e-02
1.519431e-02
1.512861e-02
1.508962e-02
1.506360e-02
1.503967e-02
1.501479e-02
1.499320e-02
1.498225e-02
1.498755e-02
1.501053e-02
1.504893e-02
1.509914e-02
1.515842e-02
1.522602e-02
1.530278e-02
1.538991e-02
1.548797e-02
1.559667e-02
1.571528e-02
1.584337e-02
1.598125e-02
1.612983e-02
1.629008e-02
1.646241e-02
1.664633e-02
1.684055e-02
1.704340e-02
1.725338e-02
1.746957e-02
1.769167e-02
1.791982e-02
1.815422e-02
1.839479e-02
1.864094e-02
1.889158e-02
1.914458e-02
1.939605e-02
1.964433e-02
1.988801e-02
2.012585e-02
2.035679e-02
2.057981e-02
2.079390e-02
2.099798e-02
2.119095e-02
2.137172e-02
2.153922e-02
2.169250e-02
2.183071e-02
2.195311e-02
2.205911e-02
2.214820e-02
2.222000e-02
2.227422e-02
2.231069e-02
2.232940e-02
2.233047e-02
2.231417e-02
2.228101e-02
2.223171e-02
2.216697e-02
2.208757e-02
2.199437e-02
2.188834e-02
2.177051e-02
2.164200e-02
2.150398e-02
2.135770e-02
2.120449e-02
2.104571e-02
2.088276e-02
2.071706e-02
2.055003e-02
2.038311e-02
2.021768e-02
2.005513e-02
1.989679e-02
1.974397e-02
1.959796e-02
1.945997e-02
1.933120e-02
1.921279e-02
1.910584e-02
1.901139e-02
1.893043e-02
1.886389e-02
1.881261e-02
1.877731e-02
1.877696e-02
1.720438e-02
1.716538e-02
1.684995e-02
1.657555e-02
1.636626e-02
1.621942e-02
1.611091e-02
1.600719e-02
1.588274e-02
1.573212e-02
1.556999e-02
1.542033e-02
1.530238e-02
1.522161e-02
1.516977e-02
1.513222e-02
1.509702e-02
1.506039e-02
1.502641e-02
1.500264e-02
1.499505e-02
1.500525e-02
1.503090e-02
1.506819e-02
1.511437e-02
1.516864e-02
1.523182e-02
1.530508e-02
1.538893e-02
1.548304e-02
1.558672e-02
1.569968e-02
1.582245e-02
1.595613e-02
1.610178e-02
1.625982e-02
1.642967e-02
1.660996e-02
1.679904e-02
1.699554e-02
1.719879e-02
1.740878e-02
1.762592e-02
1.785060e-02
1.808282e-02
1.832202e-02
1.856711e-02
1.881663e-02
1.906854e-02
1.931853e-02
1.956525e-02
1.980752e-02
2.004432e-02
2.027464e-02
2.049741e-02
2.071149e-02
2.091568e-02
2.110878e-02
2.128964e-02
2.145720e-02
2.161052e-02
2.174875e-02
2.187118e-02
2.197715e-02
2.206613e-02
2.213770e-02
2.219153e-02
2.222746e-02
2.224547e-02
2.224568e-02
2.222841e-02
2.219411e-02
2.214360e-02
2.207753e-02
2.199666e-02
2.190184e-02
2.179399e-02
2.167414e-02
2.154339e-02
2.140293e-02
2.125401e-02
2.109796e-02
2.093612e-02
2.076988e-02
2.060064e-02
2.042977e-02
2.025866e-02
2.008866e-02
1.992111e-02
1.975730e-02
1.959851e-02
1.944597e-02
1.930088e-02
1.916438e-02
1.903758e-02
1.892153e-02
1.881724e-02
1.872565e-02
1.864764e-02
1.858398e-02
1.853535e-02
1.853502e-02
1.727242e-02
1.721607e-02
1.690488e-02
1.666010e-02
1.648255e-02
1.634782e-02
1.622127e-02
1.607562e-02
1.590384e-02
1.572003e-02
1.554880e-02
1.541066e-02
1.531205e-02
1.524490e-02
1.519394e-02
1.514627e-02
1.509733e-02
1.505086e-02
1.501446e-02
1.499421e-02
1.499177e-02
1.500473e-02
1.502914e-02
1.506216e-02
1.510316e-02
1.515301e-02
1.521283e-02
1.528302e-02
1.536311e-02
1.545237e-02
1.555062e-02
1.565855e-02
1.577750e-02
1.590867e-02
1.605246e-02
1.620821e-02
1.637446e-02
1.654955e-02
1.673225e-02
1.692211e-02
1.711944e-02
1.732490e-02
1.753907e-02
1.776203e-02
1.799324e-02
1.823161e-02
1.847573e-02
1.872415e-02
1.897526e-02
1.922448e-02
1.947074e-02
1.971303e-02
1.995035e-02
2.018157e-02
2.040547e-02
2.062076e-02
2.082616e-02
2.102042e-02
2.120241e-02
2.137110e-02
2.152554e-02
2.166487e-02
2.178833e-02
2.189521e-02
2.198494e-02
2.205704e-02
2.211119e-02
2.214721e-02
2.216510e-02
2.216500e-02
2.214720e-02
2.211212e-02
2.206060e-02
2.199328e-02
2.191089e-02
2.181426e-02
2.170431e-02
2.158206e-02
2.144863e-02
2.130523e-02
2.115311e-02
2.099359e-02
2.082800e-02
2.065770e-02
2.048406e-02
2.030842e-02
2.013213e-02
1.995652e-02
1.978289e-02
1.961251e-02
1.944664e-02
1.928647e-02
1.913316e-02
1.898785e-02
1.885161e-02
1.872545e-02
1.861037e-02
1.850727e-02
1.841699e-02
1.834030e-02
1.827784e-02
1.827755e-02
1.731589e-02
1.726218e-02
1.697485e-02
1.676138e-02
1.659709e-02
1.644572e-02
1.627750e-02
1.608319e-02
1.587594e-02
1.568091e-02
1.551999e-02
1.540091e-02
1.531601e-02
1.524959e-02
1.518786e-02
1.512549e-02
1.506587e-02
1.501654e-02
1.498361e-02
1.496865e-02
1.496903e-02
1.498066e-02
1.500058e-02
1.502825e-02
1.506479e-02
1.511137e-02
1.516827e-02
1.523482e-02
1.531015e-02
1.539409e-02
1.548751e-02
1.559192e-02
1.570869e-02
1.583824e-02
1.597983e-02
1.613190e-02
1.629278e-02
1.646135e-02
1.663740e-02
1.682152e-02
1.701464e-02
1.721749e-02
1.743024e-02
1.765237e-02
1.788281e-02
1.812022e-02
1.836325e-02
1.861075e-02
1.886174e-02
1.911139e-02
1.935868e-02
1.960256e-02
1.984185e-02
2.007526e-02
2.030143e-02
2.051898e-02
2.072662e-02
2.092313e-02
2.110741e-02
2.127842e-02
2.143517e-02
2.157675e-02
2.170231e-02
2.181110e-02
2.190249e-02
2.197599e-02
2.203128e-02
2.206819e-02
2.208669e-02
2.208693e-02
2.206915e-02
2.203373e-02
2.198146e-02
2.191302e-02
2.182913e-02
2.173061e-02
2.161839e-02
2.149353e-02
2.135714e-02
2.121044e-02
2.105468e-02
2.089116e-02
2.072121e-02
2.054614e-02
2.036730e-02
2.018603e-02
2.000364e-02
1.982144e-02
1.964073e-02
1.946276e-02
1.928875e-02
1.911990e-02
1.895735e-02
1.880219e-02
1.865549e-02
1.851826e-02
1.839146e-02
1.827600e-02
1.817272e-02
1.808237e-02
1.800560e-02
1.800535e-02
1.735416e-02
1.732148e-02
1.706119e-02
1.686195e-02
1.668239e-02
1.648963e-02
1.627130e-02
1.603890e-02
1.581783e-02
1.563151e-02
1.548925e-02
1.538413e-02
1.530011e-02
1.522253e-02
1.514525e-02
1.507131e-02
1.500821e-02
1.496213e-02
1.493447e-02
1.492232e-02
1.492124e-02
1.492818e-02
1.494259e-02
1.496578e-02
1.499916e-02
1.504294e-02
1.509626e-02
1.515806e-02
1.522809e-02
1.530730e-02
1.539739e-02
1.549985e-02
1.561516e-02
1.574251e-02
1.588026e-02
1.602670e-02
1.618083e-02
1.634266e-02
1.651305e-02
1.669315e-02
1.688388e-02
1.708546e-02
1.729740e-02
1.751866e-02
1.774798e-02
1.798417e-02
1.822629e-02
1.847360e-02
1.872548e-02
1.897708e-02
1.922690e-02
1.947371e-02
1.971614e-02
1.995277e-02
2.018218e-02
2.040303e-02
2.061406e-02
2.081407e-02
2.100195e-02
2.117658e-02
2.133691e-02
2.148192e-02
2.161070e-02
2.172245e-02
2.181653e-02
2.189244e-02
2.194985e-02
2.198858e-02
2.200856e-02
2.200989e-02
2.199275e-02
2.195749e-02
2.190480e-02
2.183548e-02
2.175023e-02
2.164989e-02
2.153541e-02
2.140786e-02
2.126837e-02
2.111813e-02
2.095840e-02
2.079044e-02
2.061556e-02
2.043508e-02
2.025032e-02
2.006262e-02
1.987328e-02
1.968361e-02
1.949489e-02
1.930836e-02
1.912525e-02
1.894671e-02
1.877390e-02
1.860790e-02
1.844978e-02
1.830053e-02
1.816113e-02
1.803249e-02
1.791547e-02
1.781083e-02
1.771927e-02
1.771904e-02
1.740094e-02
1.739909e-02
1.715107e-02
1.693765e-02
1.671670e-02
1.647190e-02
1.621212e-02
1.596242e-02
1.574771e-02
1.557919e-02
1.545102e-02
1.534701e-02
1.525157e-02
1.515764e-02
1.506778e-02
1.498955e-02
1.492926e-02
1.488827e-02
1.486330e-02
1.484949e-02
1.484349e-02
1.484475e-02
1.485466e-02
1.487479e-02
1.490550e-02
1.494575e-02
1.499427e-02
1.505068e-02
1.511597e-02
1.519193e-02
1.528020e-02
1.538129e-02
1.549433e-02
1.561761e-02
1.574939e-02
1.588879e-02
1.603600e-02
1.619215e-02
1.635861e-02
1.653642e-02
1.672588e-02
1.692651e-02
1.713732e-02
1.735715e-02
1.758499e-02
1.782010e-02
1.806198e-02
1.831019e-02
1.856421e-02
1.881913e-02
1.907266e-02
1.932339e-02
1.956987e-02
1.981065e-02
2.004437e-02
2.026972e-02
2.048547e-02
2.069039e-02
2.088324e-02
2.106283e-02
2.122798e-02
2.137762e-02
2.151079e-02
2.162668e-02
2.172463e-02
2.180413e-02
2.186481e-02
2.190642e-02
2.192884e-02
2.193209e-02
2.191630e-02
2.188178e-02
2.182914e-02
2.175932e-02
2.167303e-02
2.157112e-02
2.145456e-02
2.132440e-02
2.118177e-02
2.102784e-02
2.086386e-02
2.069108e-02
2.051081e-02
2.032435e-02
2.013304e-02
1.993821e-02
1.974116e-02
1.954320e-02
1.934561e-02
1.914963e-02
1.895648e-02
1.876731e-02
1.858328e-02
1.840547e-02
1.823497e-02
1.807278e-02
1.791990e-02
1.777726e-02
1.764576e-02
1.752620e-02
1.741930e-02
1.741912e-02
1.745758e-02
1.748440e-02
1.722244e-02
1.696739e-02
1.669197e-02
1.640145e-02
1.611978e-02
1.587302e-02
1.567448e-02
1.551978e-02
1.539285e-02
1.527715e-02
1.516446e-02
1.505673e-02
1.496153e-02
1.488543e-02
1.482987e-02
1.479131e-02
1.476437e-02
1.474529e-02
1.473338e-02
1.473009e-02
1.473702e-02
1.475460e-02
1.478180e-02
1.481715e-02
1.486012e-02
1.491165e-02
1.497366e-02
1.504783e-02
1.513473e-02
1.523343e-02
1.534212e-02
1.545907e-02
1.558346e-02
1.571569e-02
1.585712e-02
1.600932e-02
1.617345e-02
1.634985e-02
1.653806e-02
1.673716e-02
1.694609e-02
1.716405e-02
1.739051e-02
1.762519e-02
1.786783e-02
1.811805e-02
1.837520e-02
1.863441e-02
1.889247e-02
1.914792e-02
1.939933e-02
1.964533e-02
1.988461e-02
2.011587e-02
2.033778e-02
2.054900e-02
2.074818e-02
2.093401e-02
2.110525e-02
2.126079e-02
2.139967e-02
2.152104e-02
2.162423e-02
2.170866e-02
2.177387e-02
2.181953e-02
2.184543e-02
2.185153e-02
2.183793e-02
2.180490e-02
2.175297e-02
2.168322e-02
2.159639e-02
2.149333e-02
2.137499e-02
2.124241e-02
2.109670e-02
2.093902e-02
2.077062e-02
2.059274e-02
2.040669e-02
2.021380e-02
2.001540e-02
1.981283e-02
1.960739e-02
1.940041e-02
1.919316e-02
1.898688e-02
1.878279e-02
1.858208e-02
1.838589e-02
1.819534e-02
1.801152e-02
1.783548e-02
1.766824e-02
1.751078e-02
1.736402e-02
1.722885e-02
1.710605e-02
1.710590e-02
1.751186e-02
1.755500e-02
1.725279e-02
1.694076e-02
1.661477e-02
1.629678e-02
1.601350e-02
1.578040e-02
1.559491e-02
1.544138e-02
1.530238e-02
1.516837e-02
1.504042e-02
1.492596e-02
1.483192e-02
1.475999e-02
1.470648e-02
1.466553e-02
1.463288e-02
1.460752e-02
1.459087e-02
1.458463e-02
1.458908e-02
1.460316e-02
1.462530e-02
1.465484e-02
1.469268e-02
1.474078e-02
1.480093e-02
1.487367e-02
1.495803e-02
1.505208e-02
1.515405e-02
1.526320e-02
1.538011e-02
1.550636e-02
1.564370e-02
1.579341e-02
1.595584e-02
1.613057e-02
1.631672e-02
1.651337e-02
1.671992e-02
1.693606e-02
1.716173e-02
1.739685e-02
1.764116e-02
1.789412e-02
1.815495e-02
1.841909e-02
1.868237e-02
1.894338e-02
1.920080e-02
1.945331e-02
1.969954e-02
1.993811e-02
2.016756e-02
2.038640e-02
2.059319e-02
2.078656e-02
2.096525e-02
2.112814e-02
2.127423e-02
2.140264e-02
2.151258e-02
2.160339e-02
2.167450e-02
2.172547e-02
2.175602e-02
2.176605e-02
2.175564e-02
2.172504e-02
2.167471e-02
2.160581e-02
2.151910e-02
2.141544e-02
2.129575e-02
2.116105e-02
2.101243e-02
2.085105e-02
2.067816e-02
2.049502e-02
2.030294e-02
2.010326e-02
1.989734e-02
1.968651e-02
1.947210e-02
1.925542e-02
1.903776e-02
1.882038e-02
1.860452e-02
1.839138e-02
1.818212e-02
1.797791e-02
1.777985e-02
1.758904e-02
1.740655e-02
1.723341e-02
1.707061e-02
1.691909e-02
1.677973e-02
1.677962e-02
1.754269e-02
1.758547e-02
1.722736e-02
1.686005e-02
1.650050e-02
1.617558e-02