# vtk DataFile Version 3.0
Scalar Field
ASCII
DATASET RECTILINEAR_GRID
DIMENSIONS 102 102 1
X_COORDINATES 102 double
0.000000 0.100000 0.200000 0.300000 0.400000 0.500000 0.600000 0.700000 0.800000 0.900000 1.000000 1.100000 1.200000 1.300000 1.400000 1.500000 1.600000 1.700000 1.800000 1.900000 2.000000 2.100000 2.200000 2.300000 2.400000 2.500000 2.600000 2.700000 2.800000 2.900000 3.000000 3.100000 3.200000 3.300000 3.400000 3.500000 3.600000 3.700000 3.800000 3.900000 4.000000 4.100000 4.200000 4.300000 4.400000 4.500000 4.600000 4.700000 4.800000 4.900000 5.000000 5.100000 5.200000 5.300000 5.400000 5.500000 5.600000 5.700000 5.800000 5.900000 6.000000 6.100000 6.200000 6.300000 6.400000 6.500000 6.600000 6.700000 6.800000 6.900000 7.000000 7.100000 7.200000 7.300000 7.400000 7.500000 7.600000 7.700000 7.800000 7.900000 8.000000 8.100000 8.200000 8.300000 8.400000 8.500000 8.600000 8.700000 8.800000 8.900000 9.000000 9.100000 9.200000 9.300000 9.400000 9.500000 9.600000 9.700000 9.800000 9.900000 10.000000 10.100000 
Y_COORDINATES 102 double
0.000000 0.100000 0.200000 0.300000 0.400000 0.500000 0.600000 0.700000 0.800000 0.900000 1.000000 1.100000 1.200000 1.300000 1.400000 1.500000 1.600000 1.700000 1.800000 1.900000 2.000000 2.100000 2.200000 2.300000 2.400000 2.500000 2.600000 2.700000 2.800000 2.900000 3.000000 3.100000 3.200000 3.300000 3.400000 3.500000 3.600000 3.700000 3.800000 3.900000 4.000000 4.100000 4.200000 4.300000 4.400000 4.500000 4.600000 4.700000 4.800000 4.900000 5.000000 5.100000 5.200000 5.300000 5.400000 5.500000 5.600000 5.700000 5.800000 5.900000 6.000000 6.100000 6.200000 6.300000 6.400000 6.500000 6.600000 6.700000 6.800000 6.900000 7.000000 7.100000 7.200000 7.300000 7.400000 7.500000 7.600000 7.700000 7.800000 7.900000 8.000000 8.100000 8.200000 8.300000 8.400000 8.500000 8.600000 8.700000 8.800000 8.900000 9.000000 9.100000 9.200000 9.300000 9.400000 9.500000 9.600000 9.700000 9.800000 9.900000 10.000000 10.100000 
Z_COORDINATES 1 double
0.0
POINT_DATA 10404
SCALARS Pressure double 1
LOOKUP_TABLE default
0.000000e+00
1.662157e-02
1.663419e-02
1.659837e-02
1.649471e-02
1.631471e-02
1.607816e-02
1.582983e-02
1.561893e-02
1.547378e-02
1.538764e-02
1.532397e-02
1.523777e-02
1.510012e-02
1.491283e-02
1.470600e-02
1.452165e-02
1.439311e-02
1.433118e-02
1.432299e-02
1.434225e-02
1.436411e-02
1.437670e-02
1.438426e-02
1.440196e-02
1.444652e-02
1.452791e-02
1.464595e-02
1.479233e-02
1.495600e-02
1.512858e-02
1.530729e-02
1.549467e-02
1.569593e-02
1.591589e-02
1.615692e-02
1.641851e-02
1.669819e-02
1.699293e-02
1.730020e-02
1.761830e-02
1.794611e-02
1.828261e-02
1.862656e-02
1.897637e-02
1.933034e-02
1.968687e-02
2.004457e-02
2.040220e-02
2.075856e-02
2.111234e-02
2.146190e-02
2.180524e-02
2.214010e-02
2.246408e-02
2.277485e-02
2.307033e-02
2.334875e-02
2.360872e-02
2.384915e-02
2.406914e-02
2.426791e-02
2.444467e-02
2.459862e-02
2.472898e-02
2.483502e-02
2.491615e-02
2.497201e-02
2.500244e-02
2.500756e-02
2.498767e-02
2.494326e-02
2.487495e-02
2.478353e-02
2.466994e-02
2.453529e-02
2.438090e-02
2.420831e-02
2.401923e-02
2.381554e-02
2.359925e-02
2.337248e-02
2.313742e-02
2.289638e-02
2.265173e-02
2.240598e-02
2.216174e-02
2.192173e-02
2.168883e-02
2.146597e-02
2.125622e-02
2.106268e-02
2.088851e-02
2.073679e-02
2.061051e-02
2.051232e-02
2.044421e-02
2.040694e-02
2.039879e-02
2.041347e-02
2.043635e-02
0.000000e+00
1.662157e-02
1.664478e-02
1.664993e-02
1.659286e-02
1.646107e-02
1.626216e-02
1.603009e-02
1.581178e-02
1.564393e-02
1.553432e-02
1.545895e-02
1.537663e-02
1.525222e-02
1.507542e-02
1.486543e-02
1.466014e-02
1.449712e-02
1.439675e-02
1.435584e-02
1.435328e-02
1.436325e-02
1.436831e-02
1.436608e-02
1.436751e-02
1.438899e-02
1.444357e-02
1.453535e-02
1.465933e-02
1.480542e-02
1.496395e-02
1.512973e-02
1.530308e-02
1.548825e-02
1.569040e-02
1.591310e-02
1.615718e-02
1.642106e-02
1.670193e-02
1.699700e-02
1.730415e-02
1.762195e-02
1.794937e-02
1.828530e-02
1.862841e-02
1.897720e-02
1.933019e-02
1.968605e-02
2.004361e-02
2.040166e-02
2.075891e-02
2.111379e-02
2.146436e-02
2.180841e-02
2.214350e-02
2.246726e-02
2.277746e-02
2.307220e-02
2.334992e-02
2.360939e-02
2.384958e-02
2.406960e-02
2.426858e-02
2.444565e-02
2.459990e-02
2.473049e-02
2.483665e-02
2.491783e-02
2.497369e-02
2.500410e-02
2.500919e-02
2.498926e-02
2.494477e-02
2.487634e-02
2.478476e-02
2.467100e-02
2.453619e-02
2.438171e-02
2.420910e-02
2.402009e-02
2.381653e-02
2.360042e-02
2.337382e-02
2.313891e-02
2.289797e-02
2.265337e-02
2.240761e-02
2.216331e-02
2.192324e-02
2.169025e-02
2.146731e-02
2.125749e-02
2.106389e-02
2.088967e-02
2.073793e-02
2.061163e-02
2.051343e-02
2.044533e-02
2.040806e-02
2.039992e-02
2.041460e-02
2.043749e-02
2.043635e-02
1.663663e-02
1.665301e-02
1.664021e-02
1.655749e-02
1.641087e-02
1.622986e-02
1.605651e-02
1.592290e-02
1.583408e-02
1.576666e-02
1.568351e-02
1.555548e-02
1.537764e-02
1.517162e-02
1.497394e-02
1.481795e-02
1.471921e-02
1.467139e-02
1.465334e-02
1.464200e-02
1.462397e-02
1.460030e-02
1.458328e-02
1.458850e-02
1.462677e-02
1.470000e-02
1.480205e-02
1.492320e-02
1.505520e-02
1.519450e-02
1.534252e-02
1.550367e-02
1.568251e-02
1.588169e-02
1.610134e-02
1.633965e-02
1.659407e-02
1.686233e-02
1.714282e-02
1.743447e-02
1.773638e-02
1.804749e-02
1.836652e-02
1.869213e-02
1.902310e-02
1.935837e-02
1.969703e-02
2.003809e-02
2.038019e-02
2.072165e-02
2.106048e-02
2.139445e-02
2.172124e-02
2.203861e-02
2.234455e-02
2.263734e-02
2.291554e-02
2.317794e-02
2.342350e-02
2.365120e-02
2.386004e-02
2.404898e-02
2.421700e-02
2.436315e-02
2.448660e-02
2.458669e-02
2.466300e-02
2.471530e-02
2.474354e-02
2.474785e-02
2.472854e-02
2.468603e-02
2.462095e-02
2.453409e-02
2.442643e-02
2.429914e-02
2.415357e-02
2.399121e-02
2.381368e-02
2.362271e-02
2.342014e-02
2.320788e-02
2.298797e-02
2.276258e-02
2.253397e-02
2.230455e-02
2.207681e-02
2.185335e-02
2.163685e-02
2.143007e-02
2.123578e-02
2.105679e-02
2.089585e-02
2.075562e-02
2.063853e-02
2.054663e-02
2.048129e-02
2.044279e-02
2.042964e-02
2.043791e-02
2.046095e-02
2.045981e-02
1.669001e-02
1.668657e-02
1.664152e-02
1.653212e-02
1.638969e-02
1.625584e-02
1.615980e-02
1.610158e-02
1.605295e-02
1.597516e-02
1.584219e-02
1.565592e-02
1.544515e-02
1.525042e-02
1.510390e-02
1.501569e-02
1.497271e-02
1.494918e-02
1.492172e-02
1.488060e-02
1.483240e-02
1.479396e-02
1.478252e-02
1.480742e-02
1.486731e-02
1.495299e-02
1.505331e-02
1.516069e-02
1.527359e-02
1.539560e-02
1.553244e-02
1.568874e-02
1.586629e-02
1.606406e-02
1.627943e-02
1.650968e-02
1.675289e-02
1.700803e-02
1.727457e-02
1.755188e-02
1.783901e-02
1.813472e-02
1.843780e-02
1.874728e-02
1.906241e-02
1.938258e-02
1.970693e-02
2.003424e-02
2.036259e-02
2.068977e-02
2.101348e-02
2.133144e-02
2.164158e-02
2.194213e-02
2.223159e-02
2.250874e-02
2.277247e-02
2.302170e-02
2.325534e-02
2.347222e-02
2.367113e-02
2.385090e-02
2.401046e-02
2.414889e-02
2.426548e-02
2.435973e-02
2.443132e-02
2.448009e-02
2.450602e-02
2.450925e-02
2.449007e-02
2.444892e-02
2.438645e-02
2.430350e-02
2.420105e-02
2.408027e-02
2.394243e-02
2.378892e-02
2.362123e-02
2.344096e-02
2.324981e-02
2.304960e-02
2.284230e-02
2.262998e-02
2.241485e-02
2.219920e-02
2.198541e-02
2.177594e-02
2.157328e-02
2.137996e-02
2.119850e-02
2.103143e-02
2.088118e-02
2.075007e-02
2.064017e-02
2.055320e-02
2.049036e-02
2.045208e-02
2.043788e-02
2.044637e-02
2.047614e-02
2.047499e-02
1.676511e-02
1.673427e-02
1.665216e-02
1.653538e-02
1.642867e-02
1.636216e-02
1.633341e-02
1.630903e-02
1.624527e-02
1.611458e-02
1.592219e-02
1.570358e-02
1.550572e-02
1.536350e-02
1.528470e-02
1.525037e-02
1.522855e-02
1.519261e-02
1.513392e-02
1.506343e-02
1.500322e-02
1.497391e-02
1.498517e-02
1.503335e-02
1.510598e-02
1.518953e-02
1.527588e-02
1.536475e-02
1.546180e-02
1.557454e-02
1.570836e-02
1.586477e-02
1.604185e-02
1.623606e-02
1.644419e-02
1.666436e-02
1.689590e-02
1.713871e-02
1.739251e-02
1.765651e-02
1.792963e-02
1.821083e-02
1.849937e-02
1.879483e-02
1.909682e-02
1.940468e-02
1.971718e-02
2.003251e-02
2.034812e-02
2.066150e-02
2.097038e-02
2.127284e-02
2.156733e-02
2.185262e-02
2.212767e-02
2.239149e-02
2.264304e-02
2.288113e-02
2.310446e-02
2.331168e-02
2.350144e-02
2.367257e-02
2.382406e-02
2.395514e-02
2.406524e-02
2.415396e-02
2.422106e-02
2.426638e-02
2.428992e-02
2.429181e-02
2.427237e-02
2.423212e-02
2.417172e-02
2.409202e-02
2.399399e-02
2.387869e-02
2.374731e-02
2.360112e-02
2.344151e-02
2.326996e-02
2.308814e-02
2.289782e-02
2.270091e-02
2.249944e-02
2.229554e-02
2.209140e-02
2.188926e-02
2.169142e-02
2.150020e-02
2.131792e-02
2.114687e-02
2.098934e-02
2.084752e-02
2.072346e-02
2.061901e-02
2.053578e-02
2.047497e-02
2.043739e-02
2.042349e-02
2.043361e-02
2.046890e-02
2.046773e-02
1.683905e-02
1.678745e-02
1.668671e-02
1.659450e-02
1.654558e-02
1.653856e-02
1.653725e-02
1.649244e-02
1.637178e-02
1.617940e-02
1.595431e-02
1.574954e-02
1.560515e-02
1.553026e-02
1.550293e-02
1.548585e-02
1.544773e-02
1.537838e-02
1.529075e-02
1.521102e-02
1.516371e-02
1.516033e-02
1.519650e-02
1.525741e-02
1.532704e-02
1.539595e-02
1.546405e-02
1.553838e-02
1.562809e-02
1.573973e-02
1.587515e-02
1.603203e-02
1.620621e-02
1.639389e-02
1.659291e-02
1.680266e-02
1.702326e-02
1.725469e-02
1.749644e-02
1.774767e-02
1.800759e-02
1.827574e-02
1.855198e-02
1.883616e-02
1.912771e-02
1.942542e-02
1.972739e-02
2.003131e-02
2.033432e-02
2.063401e-02
2.092856e-02
2.121664e-02
2.149723e-02
2.176949e-02
2.203253e-02
2.228534e-02
2.252669e-02
2.275517e-02
2.296928e-02
2.316757e-02
2.334874e-02
2.351170e-02
2.365562e-02
2.377987e-02
2.388396e-02
2.396756e-02
2.403042e-02
2.407240e-02
2.409351e-02
2.409393e-02
2.407403e-02
2.403436e-02
2.397558e-02
2.389849e-02
2.380398e-02
2.369302e-02
2.356669e-02
2.342620e-02
2.327289e-02
2.310822e-02
2.293384e-02
2.275150e-02
2.256307e-02
2.237051e-02
2.217586e-02
2.198119e-02
2.178861e-02
2.160025e-02
2.141826e-02
2.124479e-02
2.108195e-02
2.093180e-02
2.079633e-02
2.067743e-02
2.057682e-02
2.049604e-02
2.043642e-02
2.039909e-02
2.038510e-02
2.039576e-02
2.043311e-02
2.043194e-02
1.690948e-02
1.685774e-02
1.677031e-02
1.672669e-02
1.673043e-02
1.674537e-02
1.671860e-02
1.661216e-02
1.642604e-02
1.619894e-02
1.598747e-02
1.583677e-02
1.575957e-02
1.573412e-02
1.572021e-02
1.568248e-02
1.560788e-02
1.550912e-02
1.541442e-02
1.535125e-02
1.533328e-02
1.535670e-02
1.540567e-02
1.546247e-02
1.551634e-02
1.556678e-02
1.562133e-02
1.569013e-02
1.578075e-02
1.589564e-02
1.603265e-02
1.618736e-02
1.635563e-02
1.653497e-02
1.672457e-02
1.692449e-02
1.713483e-02
1.735529e-02
1.758536e-02
1.782458e-02
1.807286e-02
1.833034e-02
1.859705e-02
1.887248e-02
1.915539e-02
1.944382e-02
1.973540e-02
2.002772e-02
2.031813e-02
2.060465e-02
2.088614e-02
2.116176e-02
2.143082e-02
2.169252e-02
2.194586e-02
2.218957e-02
2.242215e-02
2.264200e-02
2.284759e-02
2.303753e-02
2.321066e-02
2.336609e-02
2.350311e-02
2.362117e-02
2.371984e-02
2.379875e-02
2.385768e-02
2.389651e-02
2.391529e-02
2.391424e-02
2.389374e-02
2.385435e-02
2.379668e-02
2.372143e-02
2.362941e-02
2.352152e-02
2.339883e-02
2.326251e-02
2.311392e-02
2.295454e-02
2.278600e-02
2.261002e-02
2.242842e-02
2.224306e-02
2.205586e-02
2.186878e-02
2.168379e-02
2.150290e-02
2.132809e-02
2.116135e-02
2.100463e-02
2.085984e-02
2.072880e-02
2.061328e-02
2.051491e-02
2.043522e-02
2.037562e-02
2.033745e-02
2.032210e-02
2.033122e-02
2.036704e-02
2.036588e-02
1.699842e-02
1.697165e-02
1.692219e-02
1.692498e-02
1.694632e-02
1.693155e-02
1.683815e-02
1.666102e-02
1.643603e-02
1.622042e-02
1.606264e-02
1.597914e-02
1.595023e-02
1.593524e-02
1.589658e-02
1.581879e-02
1.571330e-02
1.560858e-02
1.553339e-02
1.550279e-02
1.551371e-02
1.555025e-02
1.559413e-02
1.563389e-02
1.566873e-02
1.570620e-02
1.575675e-02
1.582840e-02
1.592403e-02
1.604180e-02
1.617749e-02
1.632695e-02
1.648753e-02
1.665818e-02
1.683875e-02
1.702925e-02
1.722950e-02
1.743923e-02
1.765842e-02
1.788736e-02
1.812650e-02
1.837605e-02
1.863552e-02
1.890362e-02
1.917830e-02
1.945718e-02
1.973791e-02
2.001853e-02
2.029694e-02
2.057173e-02
2.084224e-02
2.110789e-02
2.136793e-02
2.162133e-02
2.186676e-02
2.210266e-02
2.232736e-02
2.253925e-02
2.273692e-02
2.291916e-02
2.308502e-02
2.323373e-02
2.336467e-02
2.347729e-02
2.357114e-02
2.364586e-02
2.370124e-02
2.373720e-02
2.375382e-02
2.375132e-02
2.373007e-02
2.369056e-02
2.363334e-02
2.355904e-02
2.346843e-02
2.336243e-02
2.324211e-02
2.310869e-02
2.296354e-02
2.280816e-02
2.264413e-02
2.247311e-02
2.229683e-02
2.211707e-02
2.193563e-02
2.175437e-02
2.157513e-02
2.139978e-02
2.123020e-02
2.106823e-02
2.091567e-02
2.077432e-02
2.064590e-02
2.053204e-02
2.043434e-02
2.035429e-02
2.029335e-02
2.025295e-02
2.023459e-02
2.023998e-02
2.027116e-02
2.027003e-02
1.713826e-02
1.715292e-02
1.714079e-02
1.715747e-02
1.714560e-02
1.705922e-02
1.688870e-02
1.666632e-02
1.644822e-02
1.628416e-02
1.619307e-02
1.615733e-02
1.613700e-02
1.609398e-02
1.601173e-02
1.590077e-02
1.578922e-02
1.570581e-02
1.566574e-02
1.566595e-02
1.569054e-02
1.572131e-02
1.574701e-02
1.576704e-02
1.578917e-02
1.582384e-02
1.587893e-02
1.595728e-02
1.605715e-02
1.617459e-02
1.630573e-02
1.644806e-02
1.660049e-02
1.676267e-02
1.693442e-02
1.711551e-02
1.730584e-02
1.750574e-02
1.771592e-02
1.793716e-02
1.816983e-02
1.841349e-02
1.866674e-02
1.892748e-02
1.919328e-02
1.946192e-02
1.973163e-02
2.000125e-02
2.026926e-02
2.053459e-02
2.079671e-02
2.105491e-02
2.130808e-02
2.155482e-02
2.179348e-02
2.202234e-02
2.223977e-02
2.244433e-02
2.263482e-02
2.281027e-02
2.296984e-02
2.311282e-02
2.323857e-02
2.334652e-02
2.343620e-02
2.350728e-02
2.355955e-02
2.359296e-02
2.360759e-02
2.360360e-02
2.358130e-02
2.354115e-02
2.348366e-02
2.340945e-02
2.331932e-02
2.321425e-02
2.309533e-02
2.296384e-02
2.282113e-02
2.266866e-02
2.250795e-02
2.234059e-02
2.216823e-02
2.199254e-02
2.181524e-02
2.163809e-02
2.146282e-02
2.129120e-02
2.112499e-02
2.096591e-02
2.081567e-02
2.067596e-02
2.054841e-02
2.043460e-02
2.033604e-02
2.025419e-02
2.019049e-02
2.014638e-02
2.012333e-02
2.012294e-02
2.014698e-02
2.014587e-02
1.735007e-02
1.740451e-02
1.739959e-02
1.738013e-02
1.729183e-02
1.712107e-02
1.689699e-02
1.667437e-02
1.650340e-02
1.640422e-02
1.636024e-02
1.633193e-02
1.628115e-02
1.619136e-02
1.607324e-02
1.595507e-02
1.586538e-02
1.581862e-02
1.581071e-02
1.582503e-02
1.584333e-02
1.585499e-02
1.586033e-02
1.586779e-02
1.588803e-02
1.592862e-02
1.599185e-02
1.607568e-02
1.617616e-02
1.628974e-02
1.641429e-02
1.654893e-02
1.669329e-02
1.684706e-02
1.700990e-02
1.718177e-02
1.736323e-02
1.755531e-02
1.775911e-02
1.797519e-02
1.820314e-02
1.844150e-02
1.868808e-02
1.894046e-02
1.919653e-02
1.945476e-02
1.971427e-02
1.997464e-02
2.023469e-02
2.049321e-02
2.074944e-02
2.100219e-02
2.124994e-02
2.149096e-02
2.172348e-02
2.194587e-02
2.215670e-02
2.235479e-02
2.253916e-02
2.270894e-02
2.286335e-02
2.300164e-02
2.312312e-02
2.322720e-02
2.331340e-02
2.338140e-02
2.343101e-02
2.346215e-02
2.347484e-02
2.346921e-02
2.344550e-02
2.340419e-02
2.334581e-02
2.327103e-02
2.318073e-02
2.307591e-02
2.295771e-02
2.282738e-02
2.268624e-02
2.253569e-02
2.237719e-02
2.221224e-02
2.204243e-02
2.186934e-02
2.169463e-02
2.151994e-02
2.134694e-02
2.117731e-02
2.101270e-02
2.085476e-02
2.070512e-02
2.056539e-02
2.043713e-02
2.032183e-02
2.022095e-02
2.013590e-02
2.006804e-02
2.001874e-02
1.998941e-02
1.998147e-02
1.999641e-02
1.999533e-02
1.762722e-02
1.770135e-02
1.765621e-02
1.755607e-02
1.737587e-02
1.714198e-02
1.690852e-02
1.672647e-02
1.661696e-02
1.656353e-02
1.652592e-02
1.646519e-02
1.636473e-02
1.623616e-02
1.610892e-02
1.601211e-02
1.595951e-02
1.594546e-02
1.595166e-02
1.595903e-02
1.595733e-02
1.594806e-02
1.594094e-02
1.594725e-02
1.597450e-02
1.602435e-02
1.609401e-02
1.617918e-02
1.627639e-02
1.638387e-02
1.650113e-02
1.662804e-02
1.676432e-02
1.690957e-02
1.706378e-02
1.722761e-02
1.740230e-02
1.758919e-02
1.778900e-02
1.800136e-02
1.822477e-02
1.845698e-02
1.869561e-02
1.893865e-02
1.918483e-02
1.943359e-02
1.968483e-02
1.993851e-02
2.019332e-02
2.044743e-02
2.069958e-02
2.094811e-02
2.119117e-02
2.142697e-02
2.165387e-02
2.187049e-02
2.207569e-02
2.226850e-02
2.244803e-02
2.261344e-02
2.276386e-02
2.289849e-02
2.301660e-02
2.311759e-02
2.320099e-02
2.326646e-02
2.331379e-02
2.334285e-02
2.335360e-02
2.334615e-02
2.332073e-02
2.327790e-02
2.321826e-02
2.314255e-02
2.305168e-02
2.294667e-02
2.282865e-02
2.269881e-02
2.255844e-02
2.240886e-02
2.225147e-02
2.208772e-02
2.191913e-02
2.174723e-02
2.157360e-02
2.139981e-02
2.122747e-02
2.105818e-02
2.089355e-02
2.073515e-02
2.058456e-02
2.044330e-02
2.031285e-02
2.019465e-02
2.009007e-02
2.000044e-02
1.992705e-02
1.987119e-02
1.983413e-02
1.981714e-02
1.982147e-02
1.982040e-02
1.793383e-02
1.799805e-02
1.787001e-02
1.767114e-02
1.741799e-02
1.716456e-02
1.696374e-02
1.683856e-02
1.677276e-02
1.672445e-02
1.665249e-02
1.653917e-02
1.639676e-02
1.625661e-02
1.614949e-02
1.608943e-02
1.606938e-02
1.606886e-02
1.606704e-02
1.605327e-02
1.602994e-02
1.600823e-02
1.600059e-02
1.601480e-02
1.605216e-02
1.610905e-02
1.618048e-02
1.626272e-02
1.635416e-02
1.645469e-02
1.656456e-02
1.668370e-02
1.681183e-02
1.694897e-02
1.709584e-02
1.725381e-02
1.742434e-02
1.760824e-02
1.780515e-02
1.801357e-02
1.823122e-02
1.845575e-02
1.868531e-02
1.891891e-02
1.915630e-02
1.939771e-02
1.964332e-02
1.989298e-02
2.014481e-02
2.039613e-02
2.064515e-02
2.088995e-02
2.112868e-02
2.135973e-02
2.158178e-02
2.179374e-02
2.199465e-02
2.218361e-02
2.235971e-02
2.252200e-02
2.266956e-02
2.280151e-02
2.291713e-02
2.301581e-02
2.309705e-02
2.316050e-02
2.320586e-02
2.323299e-02
2.324182e-02
2.323249e-02
2.320529e-02
2.316084e-02
2.309984e-02
2.302306e-02
2.293140e-02
2.282587e-02
2.270754e-02
2.257756e-02
2.243715e-02
2.228760e-02
2.213027e-02
2.196655e-02
2.179792e-02
2.162585e-02
2.145187e-02
2.127753e-02
2.110437e-02
2.093396e-02
2.076785e-02
2.060756e-02
2.045460e-02
2.031043e-02
2.017645e-02
2.005400e-02
1.994439e-02
1.984887e-02
1.976865e-02
1.970491e-02
1.965883e-02
1.963154e-02
1.962408e-02
1.962301e-02
1.821852e-02
1.824753e-02
1.801907e-02
1.773830e-02
1.745558e-02
1.722664e-02
1.707789e-02
1.699437e-02
1.693258e-02
1.684809e-02
1.672052e-02
1.656171e-02
1.640482e-02
1.628309e-02
1.621200e-02
1.618397e-02
1.617649e-02
1.616646e-02
1.614192e-02
1.610545e-02
1.606943e-02
1.604768e-02
1.604873e-02
1.607371e-02
1.611847e-02
1.617724e-02
1.624577e-02
1.632235e-02
1.640707e-02
1.650052e-02
1.660296e-02
1.671434e-02
1.683481e-02
1.696521e-02
1.710698e-02
1.726162e-02
1.742996e-02
1.761162e-02
1.780505e-02
1.800797e-02
1.821808e-02
1.843374e-02
1.865422e-02
1.887963e-02
1.911050e-02
1.934726e-02
1.958985e-02
1.983751e-02
2.008769e-02
2.033687e-02
2.058304e-02
2.082434e-02
2.105921e-02
2.128637e-02
2.150479e-02
2.171356e-02
2.191173e-02
2.209834e-02
2.227234e-02
2.243270e-02
2.257843e-02
2.270867e-02
2.282266e-02
2.291977e-02
2.299947e-02
2.306134e-02
2.310507e-02
2.313050e-02
2.313761e-02
2.312659e-02
2.309778e-02
2.305187e-02
2.298959e-02
2.291172e-02
2.281912e-02
2.271275e-02
2.259363e-02
2.246287e-02
2.232165e-02
2.217124e-02
2.201295e-02
2.184816e-02
2.167830e-02
2.150482e-02
2.132922e-02
2.115302e-02
2.097774e-02
2.080491e-02
2.063603e-02
2.047257e-02
2.031596e-02
2.016759e-02
2.002877e-02
1.990079e-02
1.978486e-02
1.968217e-02
1.959386e-02
1.952105e-02
1.946480e-02
1.942614e-02
1.940596e-02
1.940490e-02
1.843659e-02
1.842103e-02
1.810823e-02
1.778880e-02
1.752310e-02
1.734216e-02
1.723396e-02
1.715427e-02
1.705510e-02
1.691210e-02
1.673526e-02
1.655865e-02
1.641821e-02
1.633176e-02
1.629232e-02
1.627598e-02
1.625735e-02
1.622263e-02
1.617383e-02
1.612401e-02
1.608817e-02
1.607578e-02
1.608820e-02
1.612084e-02
1.616738e-02
1.622302e-02
1.628575e-02
1.635566e-02
1.643354e-02
1.651990e-02
1.661496e-02
1.671912e-02
1.683336e-02
1.695925e-02
1.709832e-02
1.725138e-02
1.741797e-02
1.759645e-02
1.778452e-02
1.797995e-02
1.818129e-02
1.838814e-02
1.860096e-02
1.882058e-02
1.904767e-02
1.928226e-02
1.952358e-02
1.977018e-02
2.001907e-02
2.026615e-02
2.050959e-02
2.074787e-02
2.097983e-02
2.120446e-02
2.142086e-02
2.162808e-02
2.182505e-02
2.201067e-02
2.218379e-02
2.234331e-02
2.248824e-02
2.261770e-02
2.273090e-02
2.282717e-02
2.290594e-02
2.296676e-02
2.300931e-02
2.303348e-02
2.303930e-02
2.302702e-02
2.299701e-02
2.294993e-02
2.288655e-02
2.280761e-02
2.271391e-02
2.260638e-02
2.248599e-02
2.235385e-02
2.221110e-02
2.205900e-02
2.189884e-02
2.173198e-02
2.155983e-02
2.138386e-02
2.120554e-02
2.102637e-02
2.084785e-02
2.067146e-02
2.049865e-02
2.033082e-02
2.016934e-02
2.001551e-02
1.987059e-02
1.973579e-02
1.961229e-02
1.950121e-02
1.940365e-02
1.932065e-02
1.925322e-02
1.920228e-02
1.916863e-02
1.916759e-02
1.856907e-02
1.851943e-02
1.816422e-02
1.785515e-02
1.763446e-02
1.749442e-02
1.739149e-02
1.727453e-02
1.711461e-02
1.691855e-02
1.672025e-02
1.655793e-02
1.645220e-02
1.639753e-02
1.636942e-02
1.634057e-02
1.629520e-02
1.623429e-02
1.617104e-02
1.612128e-02
1.609533e-02
1.609492e-02
1.611526e-02
1.614952e-02
1.619256e-02
1.624207e-02
1.629802e-02
1.636121e-02
1.643227e-02
1.651161e-02
1.659984e-02
1.669818e-02
1.680837e-02
1.693204e-02
1.706996e-02
1.722159e-02
1.738516e-02
1.755828e-02
1.773881e-02
1.792548e-02
1.811820e-02
1.831780e-02
1.852546e-02
1.874205e-02
1.896767e-02
1.920154e-02
1.944214e-02
1.968761e-02
1.993503e-02
2.018006e-02
2.042130e-02
2.065764e-02
2.088817e-02
2.111197e-02
2.132804e-02
2.153525e-02
2.173240e-02
2.191824e-02
2.209160e-02
2.225136e-02
2.239651e-02
2.252613e-02
2.263941e-02
2.273561e-02
2.281415e-02
2.287458e-02
2.291662e-02
2.294021e-02
2.294542e-02
2.293249e-02
2.290179e-02
2.285388e-02
2.278959e-02
2.270958e-02
2.261464e-02
2.250565e-02
2.238359e-02
2.224953e-02
2.210463e-02
2.195012e-02
2.178730e-02
2.161753e-02
2.144224e-02
2.126288e-02
2.108093e-02
2.089784e-02
2.071509e-02
2.053409e-02
2.035624e-02
2.018289e-02
2.001532e-02
1.985480e-02
1.970252e-02
1.955968e-02
1.942740e-02
1.930677e-02
1.919887e-02
1.910468e-02
1.902515e-02
1.896114e-02
1.891338e-02
1.891237e-02
1.862933e-02
1.857049e-02
1.822093e-02
1.795437e-02
1.777610e-02
1.764444e-02
1.750595e-02
1.732701e-02
1.711046e-02
1.688904e-02
1.670262e-02
1.657461e-02
1.650140e-02
1.645853e-02
1.641723e-02
1.635986e-02
1.628625e-02
1.620944e-02
1.614580e-02
1.610628e-02
1.609291e-02
1.610077e-02
1.612265e-02
1.615304e-02
1.618956e-02
1.623206e-02
1.628128e-02
1.633783e-02
1.640213e-02
1.647493e-02
1.655766e-02
1.665228e-02
1.676059e-02
1.688340e-02
1.702009e-02
1.716873e-02
1.732683e-02
1.749226e-02
1.766393e-02
1.784206e-02
1.802785e-02
1.822282e-02
1.842804e-02
1.864367e-02
1.886892e-02
1.910222e-02
1.934169e-02
1.958555e-02
1.983151e-02
2.007508e-02
2.031531e-02
2.055131e-02
2.078216e-02
2.100681e-02
2.122406e-02
2.143260e-02
2.163112e-02
2.181834e-02
2.199305e-02
2.215414e-02
2.230056e-02
2.243134e-02
2.254561e-02
2.264263e-02
2.272181e-02
2.278274e-02
2.282519e-02
2.284908e-02
2.285449e-02
2.284162e-02
2.281077e-02
2.276240e-02
2.269738e-02
2.261634e-02
2.252006e-02
2.240940e-02
2.228534e-02
2.214895e-02
2.200140e-02
2.184392e-02
2.167785e-02
2.150454e-02
2.132544e-02
2.114197e-02
2.095559e-02
2.076774e-02
2.057981e-02
2.039319e-02
2.020922e-02
2.002918e-02
1.985433e-02
1.968590e-02
1.952508e-02
1.937302e-02
1.923083e-02
1.909959e-02
1.898032e-02
1.887401e-02
1.878153e-02
1.870373e-02
1.864130e-02
1.864032e-02
1.865448e-02
1.861366e-02
1.830204e-02
1.807954e-02
1.791369e-02
1.774945e-02
1.754868e-02
1.730977e-02
1.706360e-02
1.685116e-02
1.669853e-02
1.660419e-02
1.654407e-02
1.648814e-02
1.641706e-02
1.632949e-02
1.623832e-02
1.616040e-02
1.610717e-02
1.608079e-02
1.607613e-02
1.608559e-02
1.610330e-02
1.612678e-02
1.615602e-02
1.619172e-02
1.623438e-02
1.628432e-02
1.634225e-02
1.640974e-02
1.648896e-02
1.658194e-02
1.668959e-02
1.681127e-02
1.694491e-02
1.708790e-02
1.723805e-02
1.739442e-02
1.755753e-02
1.772895e-02
1.791049e-02
1.810345e-02
1.830806e-02
1.852347e-02
1.874808e-02
1.898006e-02
1.921773e-02
1.945984e-02
1.970499e-02
1.994841e-02
2.018930e-02
2.042671e-02
2.065953e-02
2.088647e-02
2.110616e-02
2.131719e-02
2.151823e-02
2.170797e-02
2.188521e-02
2.204877e-02
2.219755e-02
2.233055e-02
2.244687e-02
2.254577e-02
2.262670e-02
2.268925e-02
2.273319e-02
2.275840e-02
2.276490e-02
2.275280e-02
2.272234e-02
2.267391e-02
2.260839e-02
2.252644e-02
2.242882e-02
2.231640e-02
2.219016e-02
2.205120e-02
2.190070e-02
2.173991e-02
2.157018e-02
2.139288e-02
2.120942e-02
2.102123e-02
2.082972e-02
2.063627e-02
2.044225e-02
2.024900e-02
2.005781e-02
1.986996e-02
1.968669e-02
1.950922e-02
1.933873e-02
1.917636e-02
1.902321e-02
1.888034e-02
1.874876e-02
1.862943e-02
1.852322e-02
1.843094e-02
1.835331e-02
1.835235e-02
1.868596e-02
1.868020e-02
1.840942e-02
1.820332e-02
1.800839e-02
1.778204e-02
1.751787e-02
1.724437e-02
1.700337e-02
1.682356e-02
1.670573e-02
1.662626e-02
1.655387e-02
1.646739e-02
1.636431e-02
1.625741e-02
1.616416e-02
1.609661e-02
1.605703e-02
1.603984e-02
1.603691e-02
1.604201e-02
1.605246e-02
1.606842e-02
1.609076e-02
1.611992e-02
1.615601e-02
1.619961e-02
1.625226e-02
1.631633e-02
1.639405e-02
1.648652e-02
1.659310e-02
1.671164e-02
1.683938e-02
1.697407e-02
1.711487e-02
1.726256e-02
1.741904e-02
1.758644e-02
1.776626e-02
1.795877e-02
1.816310e-02
1.837762e-02
1.860054e-02
1.883036e-02
1.906607e-02
1.930706e-02
1.955273e-02
1.979770e-02
2.004097e-02
2.028134e-02
2.051744e-02
2.074784e-02
2.097107e-02
2.118573e-02
2.139047e-02
2.158396e-02
2.176493e-02
2.193216e-02
2.208450e-02
2.222091e-02
2.234052e-02
2.244260e-02
2.252658e-02
2.259204e-02
2.263865e-02
2.266624e-02
2.267471e-02
2.266413e-02
2.263468e-02
2.258668e-02
2.252099e-02
2.243836e-02
2.233957e-02
2.222547e-02
2.209709e-02
2.195552e-02
2.180197e-02
2.163771e-02
2.146407e-02
2.128244e-02
2.109418e-02
2.090069e-02
2.070334e-02
2.050349e-02
2.030246e-02
2.010159e-02
1.990216e-02
1.970545e-02
1.951271e-02
1.932515e-02
1.914396e-02
1.897026e-02
1.880516e-02
1.864970e-02
1.850488e-02
1.837167e-02
1.825094e-02
1.814352e-02
1.805012e-02
1.804919e-02
1.874914e-02
1.877833e-02
1.852264e-02
1.829093e-02
1.803411e-02
1.774053e-02
1.743580e-02
1.716233e-02
1.695168e-02
1.680726e-02
1.670608e-02
1.661545e-02
1.651200e-02
1.639174e-02
1.626733e-02
1.615709e-02
1.607396e-02
1.602043e-02
1.599047e-02
1.597516e-02
1.596767e-02
1.596521e-02
1.596789e-02
1.597685e-02
1.599264e-02
1.601519e-02
1.604483e-02
1.608304e-02
1.613223e-02
1.619486e-02
1.627218e-02
1.636364e-02
1.646699e-02
1.657935e-02
1.669839e-02
1.682335e-02
1.695522e-02
1.709622e-02
1.724879e-02
1.741457e-02
1.759392e-02
1.778591e-02
1.798891e-02
1.820120e-02
1.842147e-02
1.864900e-02
1.888346e-02
1.912468e-02
1.937229e-02
1.962048e-02
1.986753e-02
2.011201e-02
2.035244e-02
2.058732e-02
2.081521e-02
2.103470e-02
2.124438e-02
2.144288e-02
2.162886e-02
2.180104e-02
2.195825e-02
2.209949e-02
2.222384e-02
2.233058e-02
2.241905e-02
2.248876e-02
2.253928e-02
2.257032e-02
2.258173e-02
2.257350e-02
2.254576e-02
2.249882e-02
2.243348e-02
2.235062e-02
2.225101e-02
2.213554e-02
2.200524e-02
2.186123e-02
2.170471e-02
2.153695e-02
2.135927e-02
2.117302e-02
2.097954e-02
2.078019e-02
2.057632e-02
2.036928e-02
2.016040e-02
1.995101e-02
1.974241e-02
1.953591e-02
1.933275e-02
1.913415e-02
1.894129e-02
1.875530e-02
1.857728e-02
1.840828e-02
1.824931e-02
1.810135e-02
1.796531e-02
1.784205e-02
1.773233e-02
1.773142e-02
1.884166e-02
1.888987e-02
1.860886e-02
1.831569e-02
1.798753e-02
1.764642e-02
1.733512e-02
1.708835e-02
1.691273e-02
1.678639e-02
1.667514e-02
1.655295e-02
1.641375e-02
1.626980e-02
1.614038e-02
1.603966e-02
1.597073e-02
1.592718e-02
1.589916e-02
1.587902e-02
1.586360e-02
1.585308e-02
1.584864e-02
1.585101e-02
1.586009e-02
1.587598e-02
1.589999e-02
1.593456e-02
1.598228e-02
1.604458e-02
1.612096e-02
1.620911e-02
1.630600e-02
1.640921e-02
1.651804e-02
1.663371e-02
1.675871e-02
1.689575e-02
1.704665e-02
1.721178e-02
1.739020e-02
1.758026e-02
1.778034e-02
1.798935e-02
1.820685e-02
1.843284e-02
1.866737e-02
1.891028e-02
1.916102e-02
1.941362e-02
1.966541e-02
1.991490e-02
2.016060e-02
2.040105e-02
2.063479e-02
2.086034e-02
2.107625e-02
2.128106e-02
2.147339e-02
2.165194e-02
2.181556e-02
2.196320e-02
2.209392e-02
2.220689e-02
2.230137e-02
2.237672e-02
2.243242e-02
2.246808e-02
2.248349e-02
2.247857e-02
2.245345e-02
2.240841e-02
2.234414e-02
2.226171e-02
2.216188e-02
2.204556e-02
2.191378e-02
2.176765e-02
2.160836e-02
2.143717e-02
2.125536e-02
2.106424e-02
2.086514e-02
2.065942e-02
2.044842e-02
2.023351e-02
2.001604e-02
1.979737e-02
1.957881e-02
1.936169e-02
1.914724e-02
1.893670e-02
1.873125e-02
1.853202e-02
1.834012e-02
1.815663e-02
1.798259e-02
1.781901e-02
1.766685e-02
1.752702e-02
1.740035e-02
1.739947e-02
1.893539e-02
1.897945e-02
1.863773e-02
1.826955e-02
1.788646e-02
1.753111e-02
1.724159e-02
1.702861e-02
1.687214e-02
1.673677e-02
1.659338e-02
1.643317e-02
1.626742e-02
1.611624e-02
1.599535e-02
1.590881e-02
1.585010e-02
1.580847e-02
1.577523e-02
1.574660e-02
1.572270e-02
1.570488e-02
1.569375e-02
1.568927e-02
1.569142e-02
1.570131e-02
1.572138e-02
1.575434e-02
1.580177e-02
1.586318e-02
1.593619e-02
1.601758e-02
1.610485e-02
1.619731e-02
1.629637e-02
1.640484e-02
1.652569e-02
1.666086e-02
1.681076e-02
1.697441e-02
1.715016e-02
1.733649e-02
1.753255e-02
1.773820e-02
1.795373e-02
1.817944e-02
1.841532e-02
1.866092e-02
1.891547e-02
1.917320e-02
1.943046e-02
1.968581e-02
1.993780e-02
2.018496e-02
2.042575e-02
2.065864e-02
2.088206e-02
2.109455e-02
2.129470e-02
2.148123e-02
2.165294e-02
2.180871e-02
2.194750e-02
2.206835e-02
2.217038e-02
2.225283e-02
2.231508e-02
2.235667e-02
2.237731e-02
2.237690e-02
2.235553e-02
2.231347e-02
2.225126e-02
2.217014e-02
2.207090e-02
2.195444e-02
2.182176e-02
2.167396e-02
2.151220e-02
2.133769e-02
2.115171e-02
2.095554e-02
2.075052e-02
2.053802e-02
2.031942e-02
2.009611e-02
1.986948e-02
1.964089e-02
1.941169e-02
1.918318e-02
1.895664e-02
1.873328e-02
1.851432e-02
1.830089e-02
1.809416e-02
1.789522e-02
1.770517e-02
1.752507e-02
1.735596e-02
1.719880e-02
1.705450e-02
1.705365e-02
1.899018e-02
1.901080e-02
1.859388e-02
1.816387e-02
1.775850e-02
1.741931e-02