# vtk DataFile Version 3.0
Scalar Field
ASCII
DATASET RECTILINEAR_GRID
DIMENSIONS 102 102 1
X_COORDINATES 102 double
0.000000 0.100000 0.200000 0.300000 0.400000 0.500000 0.600000 0.700000 0.800000 0.900000 1.000000 1.100000 1.200000 1.300000 1.400000 1.500000 1.600000 1.700000 1.800000 1.900000 2.000000 2.100000 2.200000 2.300000 2.400000 2.500000 2.600000 2.700000 2.800000 2.900000 3.000000 3.100000 3.200000 3.300000 3.400000 3.500000 3.600000 3.700000 3.800000 3.900000 4.000000 4.100000 4.200000 4.300000 4.400000 4.500000 4.600000 4.700000 4.800000 4.900000 5.000000 5.100000 5.200000 5.300000 5.400000 5.500000 5.600000 5.700000 5.800000 5.900000 6.000000 6.100000 6.200000 6.300000 6.400000 6.500000 6.600000 6.700000 6.800000 6.900000 7.000000 7.100000 7.200000 7.300000 7.400000 7.500000 7.600000 7.700000 7.800000 7.900000 8.000000 8.100000 8.200000 8.300000 8.400000 8.500000 8.600000 8.700000 8.800000 8.900000 9.000000 9.100000 9.200000 9.300000 9.400000 9.500000 9.600000 9.700000 9.800000 9.900000 10.000000 10.100000 
Y_COORDINATES 102 double
0.000000 0.100000 0.200000 0.300000 0.400000 0.500000 0.600000 0.700000 0.800000 0.900000 1.000000 1.100000 1.200000 1.300000 1.400000 1.500000 1.600000 1.700000 1.800000 1.900000 2.000000 2.100000 2.200000 2.300000 2.400000 2.500000 2.600000 2.700000 2.800000 2.900000 3.000000 3.100000 3.200000 3.300000 3.400000 3.500000 3.600000 3.700000 3.800000 3.900000 4.000000 4.100000 4.200000 4.300000 4.400000 4.500000 4.600000 4.700000 4.800000 4.900000 5.000000 5.100000 5.200000 5.300000 5.400000 5.500000 5.600000 5.700000 5.800000 5.900000 6.000000 6.100000 6.200000 6.300000 6.400000 6.500000 6.600000 6.700000 6.800000 6.900000 7.000000 7.100000 7.200000 7.300000 7.400000 7.500000 7.600000 7.700000 7.800000 7.900000 8.000000 8.100000 8.200000 8.300000 8.400000 8.500000 8.600000 8.700000 8.800000 8.900000 9.000000 9.100000 9.200000 9.300000 9.400000 9.500000 9.600000 9.700000 9.800000 9.900000 10.000000 10.100000 
Z_COORDINATES 1 double
0.0
POINT_DATA 10404
SCALARS Pressure double 1
LOOKUP_TABLE default
0.000000e+00
1.676139e-02
1.677965e-02
1.687425e-02
1.698391e-02
1.703259e-02
1.696393e-02
1.676501e-02
1.646941e-02
1.613992e-02
1.584099e-02
1.561439e-02
1.546802e-02
1.538043e-02
1.531616e-02
1.524350e-02
1.514681e-02
1.502956e-02
1.490912e-02
1.480719e-02
1.474090e-02
1.471773e-02
1.473524e-02
1.478430e-02
1.485383e-02
1.493490e-02
1.502309e-02
1.511883e-02
1.522619e-02
1.535080e-02
1.549772e-02
1.566991e-02
1.586749e-02
1.608799e-02
1.632741e-02
1.658147e-02
1.684687e-02
1.712199e-02
1.740685e-02
1.770259e-02
1.801058e-02
1.833153e-02
1.866506e-02
1.900960e-02
1.936268e-02
1.972148e-02
2.008325e-02
2.044562e-02
2.080663e-02
2.116471e-02
2.151849e-02
2.186658e-02
2.220745e-02
2.253937e-02
2.286047e-02
2.316885e-02
2.346260e-02
2.373995e-02
2.399928e-02
2.423914e-02
2.445826e-02
2.465554e-02
2.483001e-02
2.498086e-02
2.510738e-02
2.520900e-02
2.528529e-02
2.533596e-02
2.536091e-02
2.536022e-02
2.533418e-02
2.528327e-02
2.520817e-02
2.510975e-02
2.498903e-02
2.484724e-02
2.468575e-02
2.450608e-02
2.430991e-02
2.409909e-02
2.387557e-02
2.364146e-02
2.339900e-02
2.315056e-02
2.289863e-02
2.264580e-02
2.239481e-02
2.214848e-02
2.190975e-02
2.168164e-02
2.146726e-02
2.126976e-02
2.109232e-02
2.093806e-02
2.080998e-02
2.071071e-02
2.064224e-02
2.060525e-02
2.059789e-02
2.061360e-02
2.063736e-02
0.000000e+00
1.676139e-02
1.673832e-02
1.683129e-02
1.696510e-02
1.706673e-02
1.706957e-02
1.694141e-02
1.669598e-02
1.638426e-02
1.607121e-02
1.580977e-02
1.562363e-02
1.550476e-02
1.542396e-02
1.534773e-02
1.525316e-02
1.513530e-02
1.500560e-02
1.488424e-02
1.479086e-02
1.473753e-02
1.472631e-02
1.475088e-02
1.480076e-02
1.486583e-02
1.493959e-02
1.502048e-02
1.511125e-02
1.521717e-02
1.534378e-02
1.549498e-02
1.567202e-02
1.587334e-02
1.609544e-02
1.633407e-02
1.658558e-02
1.684777e-02
1.712016e-02
1.740357e-02
1.769937e-02
1.800859e-02
1.833134e-02
1.866653e-02
1.901209e-02
1.936541e-02
1.972378e-02
2.008476e-02
2.044630e-02
2.080670e-02
2.116450e-02
2.151830e-02
2.186662e-02
2.220779e-02
2.253998e-02
2.286127e-02
2.316970e-02
2.346342e-02
2.374067e-02
2.399987e-02
2.423963e-02
2.445868e-02
2.465594e-02
2.483044e-02
2.498133e-02
2.510791e-02
2.520957e-02
2.528588e-02
2.533654e-02
2.536146e-02
2.536073e-02
2.533465e-02
2.528370e-02
2.520858e-02
2.511014e-02
2.498942e-02
2.484764e-02
2.468616e-02
2.450651e-02
2.431037e-02
2.409956e-02
2.387606e-02
2.364195e-02
2.339949e-02
2.315103e-02
2.289907e-02
2.264621e-02
2.239519e-02
2.214884e-02
2.191009e-02
2.168198e-02
2.146760e-02
2.127010e-02
2.109267e-02
2.093842e-02
2.081034e-02
2.071108e-02
2.064261e-02
2.060562e-02
2.059826e-02
2.061398e-02
2.063774e-02
2.063736e-02
1.677721e-02
1.683022e-02
1.699028e-02
1.712313e-02
1.715798e-02
1.706597e-02
1.686249e-02
1.659690e-02
1.632938e-02
1.610675e-02
1.594769e-02
1.584211e-02
1.576226e-02
1.567872e-02
1.557354e-02
1.544573e-02
1.530860e-02
1.518190e-02
1.508324e-02
1.502227e-02
1.499924e-02
1.500725e-02
1.503643e-02
1.507811e-02
1.512747e-02
1.518429e-02
1.525206e-02
1.533606e-02
1.544128e-02
1.557082e-02
1.572507e-02
1.590198e-02
1.609793e-02
1.630904e-02
1.653233e-02
1.676635e-02
1.701124e-02
1.726813e-02
1.753838e-02
1.782278e-02
1.812110e-02
1.843204e-02
1.875350e-02
1.908309e-02
1.941846e-02
1.975764e-02
2.009901e-02
2.044123e-02
2.078292e-02
2.112270e-02
2.145905e-02
2.179027e-02
2.211453e-02
2.242994e-02
2.273461e-02
2.302676e-02
2.330469e-02
2.356686e-02
2.381187e-02
2.403845e-02
2.424543e-02
2.443178e-02
2.459656e-02
2.473895e-02
2.485823e-02
2.495386e-02
2.502541e-02
2.507266e-02
2.509554e-02
2.509420e-02
2.506894e-02
2.502028e-02
2.494888e-02
2.485559e-02
2.474141e-02
2.460749e-02
2.445515e-02
2.428586e-02
2.410122e-02
2.390297e-02
2.369300e-02
2.347331e-02
2.324605e-02
2.301346e-02
2.277791e-02
2.254187e-02
2.230792e-02
2.207870e-02
2.185693e-02
2.164539e-02
2.144691e-02
2.126430e-02
2.110034e-02
2.095771e-02
2.083885e-02
2.074581e-02
2.067995e-02
2.064147e-02
2.062881e-02
2.063784e-02
2.066167e-02
2.066130e-02
1.695743e-02
1.705314e-02
1.720707e-02
1.726236e-02
1.718452e-02
1.699715e-02
1.675611e-02
1.652321e-02
1.634121e-02
1.622099e-02
1.614446e-02
1.607907e-02
1.599549e-02
1.588011e-02
1.573827e-02
1.558882e-02
1.545433e-02
1.535198e-02
1.528865e-02
1.526108e-02
1.525965e-02
1.527351e-02
1.529475e-02
1.532051e-02
1.535287e-02
1.539716e-02
1.545959e-02
1.554502e-02
1.565562e-02
1.579052e-02
1.594647e-02
1.611920e-02
1.630486e-02
1.650112e-02
1.670756e-02
1.692534e-02
1.715630e-02
1.740202e-02
1.766307e-02
1.793874e-02
1.822725e-02
1.852622e-02
1.883330e-02
1.914647e-02
1.946425e-02
1.978554e-02
2.010944e-02
2.043494e-02
2.076059e-02
2.108477e-02
2.140572e-02
2.172156e-02
2.203039e-02
2.233039e-02
2.261982e-02
2.289707e-02
2.316067e-02
2.340924e-02
2.364149e-02
2.385623e-02
2.405234e-02
2.422881e-02
2.438472e-02
2.451925e-02
2.463173e-02
2.472163e-02
2.478861e-02
2.483247e-02
2.485320e-02
2.485097e-02
2.482612e-02
2.477915e-02
2.471072e-02
2.462164e-02
2.451287e-02
2.438553e-02
2.424088e-02
2.408034e-02
2.390543e-02
2.371785e-02
2.351939e-02
2.331198e-02
2.309767e-02
2.287860e-02
2.265703e-02
2.243529e-02
2.221579e-02
2.200102e-02
2.179348e-02
2.159573e-02
2.141034e-02
2.123983e-02
2.108667e-02
2.095320e-02
2.084151e-02
2.075333e-02
2.068985e-02
2.065146e-02
2.063761e-02
2.064684e-02
2.067762e-02
2.067725e-02
1.724857e-02
1.733995e-02
1.740634e-02
1.733718e-02
1.715165e-02
1.691513e-02
1.669670e-02
1.654074e-02
1.645362e-02
1.640903e-02
1.636645e-02
1.629222e-02
1.617340e-02
1.602000e-02
1.585699e-02
1.571176e-02
1.560337e-02
1.553753e-02
1.550785e-02
1.550133e-02
1.550489e-02
1.551019e-02
1.551560e-02
1.552535e-02
1.554700e-02
1.558828e-02
1.565453e-02
1.574739e-02
1.586478e-02
1.600212e-02
1.615414e-02
1.631671e-02
1.648792e-02
1.666829e-02
1.686007e-02
1.706598e-02
1.728801e-02
1.752664e-02
1.778073e-02
1.804797e-02
1.832566e-02
1.861133e-02
1.890321e-02
1.920026e-02
1.950189e-02
1.980761e-02
2.011674e-02
2.042817e-02
2.074008e-02
2.105053e-02
2.135759e-02
2.165934e-02
2.195400e-02
2.223989e-02
2.251548e-02
2.277933e-02
2.303012e-02
2.326656e-02
2.348743e-02
2.369158e-02
2.387792e-02
2.404542e-02
2.419319e-02
2.432045e-02
2.442658e-02
2.451110e-02
2.457370e-02
2.461425e-02
2.463277e-02
2.462943e-02
2.460459e-02
2.455875e-02
2.449254e-02
2.440676e-02
2.430233e-02
2.418033e-02
2.404199e-02
2.388866e-02
2.372183e-02
2.354312e-02
2.335428e-02
2.315716e-02
2.295371e-02
2.274599e-02
2.253614e-02
2.232636e-02
2.211891e-02
2.191611e-02
2.172028e-02
2.153378e-02
2.135893e-02
2.119804e-02
2.105334e-02
2.092691e-02
2.082065e-02
2.073614e-02
2.067462e-02
2.063688e-02
2.062332e-02
2.063428e-02
2.067084e-02
2.067048e-02
1.756335e-02
1.760958e-02
1.754385e-02
1.735425e-02
1.710800e-02
1.688419e-02
1.673420e-02
1.666524e-02
1.664587e-02
1.662741e-02
1.656889e-02
1.645405e-02
1.629422e-02
1.611899e-02
1.596112e-02
1.584337e-02
1.577230e-02
1.573982e-02
1.572993e-02
1.572674e-02
1.572039e-02
1.570941e-02
1.569952e-02
1.570031e-02
1.572132e-02
1.576887e-02
1.584454e-02
1.594538e-02
1.606560e-02
1.619886e-02
1.634050e-02
1.648879e-02
1.664499e-02
1.681233e-02
1.699438e-02
1.719362e-02
1.741056e-02
1.764378e-02
1.789053e-02
1.814777e-02
1.841293e-02
1.868439e-02
1.896145e-02
1.924395e-02
1.953180e-02
1.982461e-02
2.012146e-02
2.042091e-02
2.072073e-02
2.101876e-02
2.131310e-02
2.160196e-02
2.188372e-02
2.215691e-02
2.242015e-02
2.267213e-02
2.291160e-02
2.313733e-02
2.334812e-02
2.354282e-02
2.372035e-02
2.387973e-02
2.402008e-02
2.414067e-02
2.424093e-02
2.432043e-02
2.437890e-02
2.441625e-02
2.443250e-02
2.442785e-02
2.440265e-02
2.435740e-02
2.429271e-02
2.420936e-02
2.410825e-02
2.399043e-02
2.385709e-02
2.370955e-02
2.354925e-02
2.337778e-02
2.319681e-02
2.300814e-02
2.281363e-02
2.261525e-02
2.241503e-02
2.221503e-02
2.201738e-02
2.182424e-02
2.163778e-02
2.146017e-02
2.129356e-02
2.114007e-02
2.100173e-02
2.088045e-02
2.077800e-02
2.069594e-02
2.063559e-02
2.059809e-02
2.058450e-02
2.059608e-02
2.063494e-02
2.063459e-02
1.782291e-02
1.780527e-02
1.761384e-02
1.735186e-02
1.710932e-02
1.694707e-02
1.687799e-02
1.687021e-02
1.686945e-02
1.682723e-02
1.672126e-02
1.656076e-02
1.637708e-02
1.620712e-02
1.607780e-02
1.599816e-02
1.596016e-02
1.594600e-02
1.593729e-02
1.592219e-02
1.589845e-02
1.587236e-02
1.585495e-02
1.585734e-02
1.588704e-02
1.594596e-02
1.603071e-02
1.613456e-02
1.625027e-02
1.637262e-02
1.649991e-02
1.663393e-02
1.677865e-02
1.693836e-02
1.711595e-02
1.731203e-02
1.752495e-02
1.775171e-02
1.798901e-02
1.823426e-02
1.848597e-02
1.874372e-02
1.900768e-02
1.927808e-02
1.955475e-02
1.983693e-02
2.012332e-02
2.041219e-02
2.070105e-02
2.098773e-02
2.127046e-02
2.154768e-02
2.181795e-02
2.207993e-02
2.233235e-02
2.257396e-02
2.280354e-02
2.301988e-02
2.322177e-02
2.340808e-02
2.357775e-02
2.372982e-02
2.386346e-02
2.397800e-02
2.407290e-02
2.414778e-02
2.420240e-02
2.423667e-02
2.425063e-02
2.424449e-02
2.421858e-02
2.417341e-02
2.410959e-02
2.402787e-02
2.392914e-02
2.381443e-02
2.368490e-02
2.354185e-02
2.338668e-02
2.322094e-02
2.304626e-02
2.286434e-02
2.267699e-02
2.248607e-02
2.229350e-02
2.210124e-02
2.191129e-02
2.172567e-02
2.154641e-02
2.137554e-02
2.121506e-02
2.106693e-02
2.093303e-02
2.081515e-02
2.071496e-02
2.063400e-02
2.057369e-02
2.053538e-02
2.052046e-02
2.053060e-02
2.056807e-02
2.056772e-02
1.798681e-02
1.791402e-02
1.764593e-02
1.737903e-02
1.719293e-02
1.710831e-02
1.709687e-02
1.710257e-02
1.707135e-02
1.697463e-02
1.681724e-02
1.662952e-02
1.645021e-02
1.630949e-02
1.621923e-02
1.617278e-02
1.615197e-02
1.613689e-02
1.611398e-02
1.607984e-02
1.604060e-02
1.600793e-02
1.599405e-02
1.600739e-02
1.605037e-02
1.611945e-02
1.620733e-02
1.630612e-02
1.641022e-02
1.651796e-02
1.663153e-02
1.675546e-02
1.689452e-02
1.705187e-02
1.722810e-02
1.742139e-02
1.762856e-02
1.784625e-02
1.807193e-02
1.830433e-02
1.854329e-02
1.878923e-02
1.904260e-02
1.930338e-02
1.957093e-02
1.984404e-02
2.012110e-02
2.040032e-02
2.067916e-02
2.095553e-02
2.122789e-02
2.149484e-02
2.175509e-02
2.200738e-02
2.225049e-02
2.248317e-02
2.270422e-02
2.291239e-02
2.310651e-02
2.328544e-02
2.344815e-02
2.359374e-02
2.372141e-02
2.383053e-02
2.392061e-02
2.399129e-02
2.404235e-02
2.407369e-02
2.408538e-02
2.407758e-02
2.405066e-02
2.400513e-02
2.394159e-02
2.386079e-02
2.376359e-02
2.365103e-02
2.352425e-02
2.338452e-02
2.323322e-02
2.307185e-02
2.290197e-02
2.272524e-02
2.254338e-02
2.235816e-02
2.217140e-02
2.198496e-02
2.180074e-02
2.162065e-02
2.144660e-02
2.128049e-02
2.112420e-02
2.097955e-02
2.084831e-02
2.073216e-02
2.063268e-02
2.055141e-02
2.048979e-02
2.044926e-02
2.043135e-02
2.043777e-02
2.047065e-02
2.047032e-02
1.806344e-02
1.796528e-02
1.768743e-02
1.747251e-02
1.736298e-02
1.733578e-02
1.733610e-02
1.730719e-02
1.721560e-02
1.706152e-02
1.687257e-02
1.668722e-02
1.653717e-02
1.643642e-02
1.637997e-02
1.635026e-02
1.632697e-02
1.629560e-02
1.625185e-02
1.620137e-02
1.615595e-02
1.612829e-02
1.612734e-02
1.615574e-02
1.620994e-02
1.628230e-02
1.636459e-02
1.645106e-02
1.654022e-02
1.663466e-02
1.673938e-02
1.685944e-02
1.699804e-02
1.715560e-02
1.733011e-02
1.751822e-02
1.771660e-02
1.792293e-02
1.813627e-02
1.835675e-02
1.858505e-02
1.882173e-02
1.906687e-02
1.931987e-02
1.957957e-02
1.984447e-02
2.011292e-02
2.038327e-02
2.065306e-02
2.092029e-02
2.118362e-02
2.144176e-02
2.169350e-02
2.193761e-02
2.217286e-02
2.239799e-02
2.261177e-02
2.281295e-02
2.300036e-02
2.317289e-02
2.332956e-02
2.346949e-02
2.359195e-02
2.369633e-02
2.378216e-02
2.384909e-02
2.389690e-02
2.392550e-02
2.393495e-02
2.392541e-02
2.389723e-02
2.385096e-02
2.378720e-02
2.370668e-02
2.361030e-02
2.349905e-02
2.337408e-02
2.323663e-02
2.308806e-02
2.292980e-02
2.276337e-02
2.259035e-02
2.241240e-02
2.223121e-02
2.204854e-02
2.186615e-02
2.168585e-02
2.150946e-02
2.133879e-02
2.117563e-02
2.102173e-02
2.087882e-02
2.074855e-02
2.063252e-02
2.053224e-02
2.044919e-02
2.038480e-02
2.034053e-02
2.031788e-02
2.031849e-02
2.034419e-02
2.034386e-02
1.809933e-02
1.801238e-02
1.778050e-02
1.764170e-02
1.759145e-02
1.757725e-02
1.754168e-02
1.744844e-02
1.729417e-02
1.710369e-02
1.691409e-02
1.675708e-02
1.664752e-02
1.658140e-02
1.654187e-02
1.650886e-02
1.646772e-02
1.641387e-02
1.635275e-02
1.629609e-02
1.625667e-02
1.624351e-02
1.625918e-02
1.629978e-02
1.635747e-02
1.642381e-02
1.649317e-02
1.656441e-02
1.664066e-02
1.672737e-02
1.682981e-02
1.695106e-02
1.709123e-02
1.724794e-02
1.741768e-02
1.759717e-02
1.778442e-02
1.797887e-02
1.818105e-02
1.839190e-02
1.861212e-02
1.884178e-02
1.908028e-02
1.932648e-02
1.957893e-02
1.983612e-02
2.009657e-02
2.035891e-02
2.062077e-02
2.088018e-02
2.113591e-02
2.138674e-02
2.163148e-02
2.186886e-02
2.209763e-02
2.231650e-02
2.252421e-02
2.271950e-02
2.290124e-02
2.306836e-02
2.321991e-02
2.335505e-02
2.347309e-02
2.357344e-02
2.365562e-02
2.371928e-02
2.376420e-02
2.379029e-02
2.379757e-02
2.378624e-02
2.375663e-02
2.370933e-02
2.364495e-02
2.356422e-02
2.346804e-02
2.335740e-02
2.323342e-02
2.309732e-02
2.295042e-02
2.279410e-02
2.262984e-02
2.245915e-02
2.228365e-02
2.210497e-02
2.192479e-02
2.174482e-02
2.156679e-02
2.139243e-02
2.122345e-02
2.106155e-02
2.090838e-02
2.076557e-02
2.063468e-02
2.051721e-02
2.041462e-02
2.032832e-02
2.025971e-02
2.021017e-02
2.018114e-02
2.017410e-02
2.019059e-02
2.019028e-02
1.815420e-02
1.810667e-02
1.794427e-02
1.786693e-02
1.783237e-02
1.778296e-02
1.768075e-02
1.752031e-02
1.732461e-02
1.712956e-02
1.696627e-02
1.684942e-02
1.677497e-02
1.672613e-02
1.668298e-02
1.663109e-02
1.656617e-02
1.649396e-02
1.642640e-02
1.637634e-02
1.635258e-02
1.635726e-02
1.638595e-02
1.643023e-02
1.648156e-02
1.653449e-02
1.658843e-02
1.664719e-02
1.671676e-02
1.680263e-02
1.690770e-02
1.703164e-02
1.717161e-02
1.732380e-02
1.748501e-02
1.765356e-02
1.782935e-02
1.801338e-02
1.820689e-02
1.841072e-02
1.862495e-02
1.884892e-02
1.908148e-02
1.932120e-02
1.956669e-02
1.981663e-02
2.006982e-02
2.032516e-02
2.058038e-02
2.083338e-02
2.108300e-02
2.132803e-02
2.156721e-02
2.179925e-02
2.202283e-02
2.223664e-02
2.243939e-02
2.262988e-02
2.280698e-02
2.296969e-02
2.311708e-02
2.324836e-02
2.336282e-02
2.345987e-02
2.353904e-02
2.359995e-02
2.364238e-02
2.366621e-02
2.367150e-02
2.365841e-02
2.362729e-02
2.357877e-02
2.351348e-02
2.343216e-02
2.333568e-02
2.322504e-02
2.310133e-02
2.296573e-02
2.281953e-02
2.266407e-02
2.250079e-02
2.233117e-02
2.215678e-02
2.197920e-02
2.180007e-02
2.162104e-02
2.144376e-02
2.126988e-02
2.110103e-02
2.093883e-02
2.078483e-02
2.064057e-02
2.050753e-02
2.038714e-02
2.028078e-02
2.018981e-02
2.011555e-02
2.005931e-02
2.002240e-02
2.000616e-02
2.001187e-02
2.001158e-02
1.827397e-02
1.827583e-02
1.816878e-02
1.810980e-02
1.804130e-02
1.792369e-02
1.775014e-02
1.754294e-02
1.733785e-02
1.716589e-02
1.704128e-02
1.695921e-02
1.690204e-02
1.684927e-02
1.678640e-02
1.670962e-02
1.662538e-02
1.654632e-02
1.648562e-02
1.645197e-02
1.644691e-02
1.646520e-02
1.649763e-02
1.653520e-02
1.657269e-02
1.661011e-02
1.665203e-02
1.670514e-02
1.677523e-02
1.686501e-02
1.697369e-02
1.709786e-02
1.723339e-02
1.737705e-02
1.752743e-02
1.768493e-02
1.785101e-02
1.802727e-02
1.821471e-02
1.841345e-02
1.862278e-02
1.884149e-02
1.906817e-02
1.930150e-02
1.954032e-02
1.978362e-02
2.003049e-02
2.028002e-02
2.052999e-02
2.077807e-02
2.102307e-02
2.126373e-02
2.149872e-02
2.172667e-02
2.194625e-02
2.215611e-02
2.235501e-02
2.254177e-02
2.271533e-02
2.287468e-02
2.301895e-02
2.314732e-02
2.325908e-02
2.335362e-02
2.343045e-02
2.348917e-02
2.352954e-02
2.355146e-02
2.355497e-02
2.354026e-02
2.350767e-02
2.345787e-02
2.339149e-02
2.330929e-02
2.321212e-02
2.310095e-02
2.297685e-02
2.284099e-02
2.269460e-02
2.253902e-02
2.237566e-02
2.220598e-02
2.203149e-02
2.185377e-02
2.167439e-02
2.149493e-02
2.131700e-02
2.114218e-02
2.097201e-02
2.080802e-02
2.065171e-02
2.050454e-02
2.036790e-02
2.024316e-02
2.013165e-02
2.003464e-02
1.995339e-02
1.988911e-02
1.984301e-02
1.981627e-02
1.980997e-02
1.980968e-02
1.847295e-02
1.851466e-02
1.842141e-02
1.832953e-02
1.819116e-02
1.799780e-02
1.777161e-02
1.754929e-02
1.736291e-02
1.722694e-02
1.713574e-02
1.707017e-02
1.700823e-02
1.693462e-02
1.684560e-02
1.674839e-02
1.665668e-02
1.658443e-02
1.654054e-02
1.652609e-02
1.653490e-02
1.655680e-02
1.658207e-02
1.660533e-02
1.662718e-02
1.665303e-02
1.669031e-02
1.674520e-02
1.682035e-02
1.691450e-02
1.702368e-02
1.714335e-02
1.727021e-02
1.740307e-02
1.754277e-02
1.769122e-02
1.785038e-02
1.802145e-02
1.820459e-02
1.839907e-02
1.860364e-02
1.881691e-02
1.903759e-02
1.926468e-02
1.949733e-02
1.973484e-02
1.997652e-02
2.022156e-02
2.046775e-02
2.071237e-02
2.095415e-02
2.119174e-02
2.142374e-02
2.164876e-02
2.186543e-02
2.207246e-02
2.226863e-02
2.245282e-02
2.262397e-02
2.278111e-02
2.292332e-02
2.304979e-02
2.315976e-02
2.325261e-02
2.332780e-02
2.338494e-02
2.342377e-02
2.344421e-02
2.344628e-02
2.343019e-02
2.339629e-02
2.334522e-02
2.327768e-02
2.319440e-02
2.309622e-02
2.298408e-02
2.285903e-02
2.272222e-02
2.257488e-02
2.241833e-02
2.225395e-02
2.208321e-02
2.190758e-02
2.172858e-02
2.154775e-02
2.136664e-02
2.118676e-02
2.100964e-02
2.083678e-02
2.066962e-02
2.050961e-02
2.035813e-02
2.021653e-02
2.008610e-02
1.996811e-02
1.986377e-02
1.977426e-02
1.970073e-02
1.964427e-02
1.960592e-02
1.958664e-02
1.958638e-02
1.873113e-02
1.879010e-02
1.866128e-02
1.849763e-02
1.827866e-02
1.802608e-02
1.777816e-02
1.756922e-02
1.741520e-02
1.731038e-02
1.723407e-02
1.716218e-02
1.707770e-02
1.697614e-02
1.686514e-02
1.675944e-02
1.667413e-02
1.661875e-02
1.659425e-02
1.659366e-02
1.660572e-02
1.661980e-02
1.663011e-02
1.663747e-02
1.664809e-02
1.667018e-02
1.671040e-02
1.677140e-02
1.685154e-02
1.694634e-02
1.705083e-02
1.716157e-02
1.727757e-02
1.740003e-02
1.753126e-02
1.767357e-02
1.782833e-02
1.799579e-02
1.817520e-02
1.836529e-02
1.856469e-02
1.877219e-02
1.898689e-02
1.920813e-02
1.943539e-02
1.966818e-02
1.990592e-02
2.014783e-02
2.039165e-02
2.063414e-02
2.087394e-02
2.110960e-02
2.133971e-02
2.156287e-02
2.177775e-02
2.198310e-02
2.217775e-02
2.236058e-02
2.253055e-02
2.268665e-02
2.282792e-02
2.295352e-02
2.306265e-02
2.315465e-02
2.322897e-02
2.328522e-02
2.332313e-02
2.334261e-02
2.334370e-02
2.332659e-02
2.329163e-02
2.323944e-02
2.317075e-02
2.308627e-02
2.298683e-02
2.287336e-02
2.274690e-02
2.260859e-02
2.245966e-02
2.230142e-02
2.213525e-02
2.196257e-02
2.178485e-02
2.160356e-02
2.142020e-02
2.123627e-02
2.105324e-02
2.087258e-02
2.069573e-02
2.052410e-02
2.035908e-02
2.020198e-02
2.005412e-02
1.991672e-02
1.979100e-02
1.967811e-02
1.957918e-02
1.949527e-02
1.942740e-02
1.937652e-02
1.934346e-02
1.934321e-02
1.900538e-02
1.905648e-02
1.885463e-02
1.860543e-02
1.832027e-02
1.803882e-02
1.779840e-02
1.761774e-02
1.749220e-02
1.740025e-02
1.731561e-02
1.721887e-02
1.710400e-02
1.697829e-02
1.685721e-02
1.675705e-02
1.668831e-02
1.665226e-02
1.664142e-02
1.664352e-02
1.664691e-02
1.664518e-02
1.663908e-02
1.663530e-02
1.664284e-02
1.666885e-02
1.671609e-02
1.678261e-02
1.686347e-02
1.695329e-02
1.704850e-02
1.714823e-02
1.725399e-02
1.736846e-02
1.749422e-02
1.763282e-02
1.778455e-02
1.794868e-02
1.812395e-02
1.830900e-02
1.850273e-02
1.870434e-02
1.891336e-02
1.912946e-02
1.935235e-02
1.958163e-02
1.981669e-02
2.005672e-02
2.029943e-02
2.054093e-02
2.077978e-02
2.101454e-02
2.124378e-02
2.146618e-02
2.168044e-02
2.188536e-02
2.207978e-02
2.226256e-02
2.243261e-02
2.258886e-02
2.273034e-02
2.285612e-02
2.296539e-02
2.305746e-02
2.313177e-02
2.318792e-02
2.322564e-02
2.324481e-02
2.324548e-02
2.322783e-02
2.319216e-02
2.313905e-02
2.306930e-02
2.298360e-02
2.288277e-02
2.276773e-02
2.263953e-02
2.249931e-02
2.234830e-02
2.218780e-02
2.201916e-02
2.184380e-02
2.166314e-02
2.147864e-02
2.129174e-02
2.110392e-02
2.091661e-02
2.073124e-02
2.054921e-02
2.037190e-02
2.020063e-02
2.003669e-02
1.988133e-02
1.973575e-02
1.960112e-02
1.947853e-02
1.936908e-02
1.927375e-02
1.919353e-02
1.912928e-02
1.908178e-02
1.908155e-02
1.924794e-02
1.927319e-02
1.898497e-02
1.866270e-02
1.834143e-02
1.806156e-02
1.784547e-02
1.769093e-02
1.757655e-02
1.747436e-02
1.736240e-02
1.723242e-02
1.709062e-02
1.695264e-02
1.683574e-02
1.675152e-02
1.670187e-02
1.667919e-02
1.667043e-02
1.666291e-02
1.664945e-02
1.663055e-02
1.661310e-02
1.660661e-02
1.661883e-02
1.665262e-02
1.670581e-02
1.677303e-02
1.684857e-02
1.692867e-02
1.701260e-02
1.710214e-02
1.720027e-02
1.730980e-02
1.743241e-02
1.756844e-02
1.771715e-02
1.787726e-02
1.804750e-02
1.822684e-02
1.841464e-02
1.861060e-02
1.881459e-02
1.902652e-02
1.924618e-02
1.947311e-02
1.970663e-02
1.994579e-02
2.018838e-02
2.042981e-02
2.066864e-02
2.090347e-02
2.113293e-02
2.135575e-02
2.157068e-02
2.177652e-02
2.197205e-02
2.215609e-02
2.232749e-02
2.248513e-02
2.262796e-02
2.275503e-02
2.286549e-02
2.295865e-02
2.303392e-02
2.309087e-02
2.312924e-02
2.314889e-02
2.314982e-02
2.313218e-02
2.309626e-02
2.304255e-02
2.297194e-02
2.288511e-02
2.278287e-02
2.266618e-02
2.253606e-02
2.239366e-02
2.224020e-02
2.207696e-02
2.190530e-02
2.172660e-02
2.154225e-02
2.135369e-02
2.116235e-02
2.096966e-02
2.077704e-02
2.058589e-02
2.039758e-02
2.021343e-02
2.003476e-02
1.986281e-02
1.969880e-02
1.954389e-02
1.939921e-02
1.926584e-02
1.914481e-02
1.903712e-02
1.894366e-02
1.886529e-02
1.880274e-02
1.880254e-02
1.942372e-02
1.941770e-02
1.905504e-02
1.868963e-02
1.836429e-02
1.810534e-02
1.791385e-02
1.776971e-02
1.764401e-02
1.751253e-02
1.736453e-02
1.720459e-02
1.704789e-02
1.691227e-02
1.681038e-02
1.674491e-02
1.670842e-02
1.668732e-02
1.666804e-02
1.664255e-02
1.661094e-02
1.658018e-02
1.656009e-02
1.655876e-02
1.657933e-02
1.661940e-02
1.667324e-02
1.673476e-02
1.680009e-02
1.686857e-02
1.694223e-02
1.702435e-02
1.711793e-02
1.722475e-02
1.734513e-02
1.747830e-02
1.762300e-02
1.777798e-02
1.794233e-02
1.811558e-02
1.829761e-02
1.848852e-02
1.868842e-02
1.889725e-02
1.911474e-02
1.934030e-02
1.957311e-02
1.981210e-02
2.005534e-02
2.029751e-02
2.053723e-02
2.077317e-02
2.100404e-02
2.122858e-02
2.144554e-02
2.165366e-02
2.185167e-02
2.203830e-02
2.221233e-02
2.237259e-02
2.251797e-02
2.264750e-02
2.276032e-02
2.285568e-02
2.293300e-02
2.299181e-02
2.303181e-02
2.305281e-02
2.305478e-02
2.303782e-02
2.300220e-02
2.294833e-02
2.287719e-02
2.278946e-02
2.268598e-02
2.256768e-02
2.243560e-02
2.229087e-02
2.213472e-02
2.196840e-02
2.179326e-02
2.161064e-02
2.142195e-02
2.122860e-02
2.103200e-02
2.083357e-02
2.063470e-02
2.043678e-02
2.024114e-02
2.004911e-02
1.986194e-02
1.968088e-02
1.950710e-02
1.934176e-02
1.918596e-02
1.904076e-02
1.890717e-02
1.878617e-02
1.867866e-02
1.858546e-02
1.850731e-02
1.850713e-02
1.951999e-02
1.948960e-02
1.908135e-02
1.870640e-02
1.839909e-02
1.816417e-02
1.798361e-02
1.782839e-02
1.767247e-02
1.750277e-02
1.732192e-02
1.714426e-02
1.698782e-02
1.686608e-02
1.678257e-02
1.673020e-02
1.669505e-02
1.666277e-02
1.662449e-02
1.657979e-02
1.653559e-02
1.650199e-02
1.648727e-02
1.649469e-02
1.652178e-02
1.656242e-02
1.661015e-02
1.666095e-02
1.671424e-02
1.677228e-02
1.683862e-02
1.691646e-02
1.700761e-02
1.711238e-02
1.722995e-02
1.735901e-02
1.749834e-02
1.764715e-02
1.780513e-02
1.797239e-02
1.814923e-02
1.833598e-02
1.853276e-02
1.873945e-02
1.895557e-02
1.918039e-02
1.941298e-02
1.965228e-02
1.989680e-02
2.014052e-02
2.038212e-02
2.062034e-02
2.085389e-02
2.108152e-02
2.130189e-02
2.151366e-02
2.171548e-02
2.190602e-02
2.208397e-02
2.224811e-02
2.239733e-02
2.253061e-02
2.264705e-02
2.274589e-02
2.282648e-02
2.288832e-02
2.293103e-02
2.295438e-02
2.295827e-02
2.294279e-02
2.290816e-02
2.285477e-02
2.278356e-02
2.269533e-02
2.259090e-02
2.247120e-02
2.233725e-02
2.219019e-02
2.203120e-02
2.186155e-02
2.168256e-02
2.149558e-02
2.130200e-02
2.110322e-02
2.090065e-02
2.069569e-02
2.048973e-02
2.028413e-02
2.008022e-02
1.987930e-02
1.968261e-02
1.949139e-02
1.930679e-02
1.912997e-02
1.896200e-02
1.880396e-02
1.865686e-02
1.852166e-02
1.839928e-02
1.829056e-02
1.819624e-02
1.819608e-02
1.954607e-02
1.950592e-02
1.908470e-02
1.872492e-02
1.844160e-02
1.821919e-02
1.802910e-02
1.784399e-02
1.764861e-02
1.744364e-02
1.724232e-02
1.706268e-02
1.691885e-02
1.681515e-02
1.674490e-02
1.669399e-02
1.664735e-02
1.659528e-02
1.653678e-02
1.647864e-02
1.643117e-02
1.640297e-02
1.639722e-02
1.641135e-02
1.643892e-02
1.647308e-02
1.650958e-02
1.654788e-02
1.659049e-02
1.664120e-02
1.670339e-02
1.677895e-02
1.686814e-02
1.697003e-02
1.708326e-02
1.720661e-02
1.733938e-02
1.748144e-02
1.763309e-02
1.779489e-02
1.796738e-02
1.815086e-02
1.834535e-02
1.855050e-02
1.876566e-02
1.899002e-02
1.922267e-02
1.946265e-02
1.970900e-02
1.995521e-02
2.019982e-02
2.044156e-02
2.067913e-02
2.091118e-02
2.113630e-02
2.135305e-02
2.156000e-02
2.175575e-02
2.193895e-02
2.210835e-02
2.226280e-02
2.240123e-02
2.252272e-02
2.262642e-02
2.271164e-02
2.277778e-02
2.282441e-02
2.285122e-02
2.285808e-02
2.284502e-02
2.281224e-02
2.276011e-02
2.268949e-02
2.260133e-02
2.249641e-02
2.237564e-02
2.224006e-02
2.209075e-02
2.192892e-02
2.175581e-02
2.157273e-02
2.138105e-02
2.118214e-02
2.097741e-02
2.076826e-02
2.055609e-02
2.034228e-02
2.012817e-02
1.991511e-02
1.970436e-02
1.949719e-02
1.929480e-02
1.909838e-02
1.890905e-02
1.872792e-02
1.855606e-02
1.839450e-02
1.824423e-02
1.810618e-02
1.798122e-02
1.787014e-02
1.787002e-02
1.952509e-02
1.949094e-02
1.908108e-02
1.874506e-02
1.847622e-02
1.824669e-02
1.802805e-02
1.780308e-02
1.757052e-02
1.734250e-02
1.713689e-02
1.696845e-02
1.684230e-02
1.675220e-02
1.668388e-02
1.662157e-02
1.655467e-02
1.648150e-02
1.640865e-02
1.634667e-02
1.630447e-02
1.628540e-02
1.628652e-02
1.630108e-02
1.632185e-02
1.634428e-02
1.636781e-02
1.639513e-02
1.643030e-02
1.647691e-02
1.653690e-02
1.661047e-02
1.669660e-02
1.679383e-02
1.690091e-02
1.701720e-02
1.714273e-02
1.727802e-02
1.742385e-02
1.758098e-02
1.774993e-02
1.793082e-02
1.812342e-02
1.832720e-02
1.854144e-02
1.876539e-02
1.899829e-02
1.923943e-02
1.948809e-02
1.973790e-02
1.998671e-02
2.023324e-02
2.047611e-02
2.071386e-02
2.094500e-02
2.116800e-02
2.138138e-02
2.158369e-02
2.177356e-02
2.194969e-02
2.211088e-02
2.225602e-02
2.238409e-02
2.249418e-02
2.258549e-02
2.265734e-02
2.270922e-02
2.274077e-02
2.275179e-02
2.274228e-02
2.271241e-02
2.266251e-02
2.259332e-02
2.250595e-02
2.240115e-02
2.227981e-02
2.214295e-02
2.199164e-02
2.182708e-02
2.165051e-02
2.146325e-02
2.126666e-02
2.106211e-02
2.085102e-02
2.063479e-02
2.041481e-02
2.019247e-02
1.996911e-02
1.974607e-02
1.952463e-02
1.930605e-02
1.909155e-02
1.888232e-02
1.867951e-02
1.848423e-02
1.829759e-02
1.812065e-02
1.795442e-02
1.779988e-02
1.765796e-02
1.752949e-02
1.752939e-02
1.948235e-02
1.946545e-02
1.907592e-02
1.875600e-02
1.848258e-02
1.822628e-02
1.796786e-02
1.770409e-02
1.744592e-02
1.721110e-02
1.701505e-02
1.686379e-02
1.675164e-02
1.666419e-02
1.658490e-02
1.650214e-02
1.641340e-02
1.632498e-02
1.624761e-02
1.619063e-02
1.615767e-02
1.614568e-02
1.614723e-02
1.615474e-02
1.616334e-02
1.617232e-02
1.618452e-02
1.620424e-02
1.623527e-02
1.627966e-02
1.633757e-02
1.640784e-02
1.648890e-02
1.657946e-02
1.667890e-02
1.678737e-02
1.690560e-02
1.703460e-02
1.717534e-02
1.732853e-02
1.749444e-02
1.767294e-02
1.786358e-02
1.806577e-02
1.827892e-02
1.850245e-02
1.873586e-02
1.897868e-02
1.923033e-02
1.948481e-02
1.973899e-02
1.999148e-02
2.024081e-02
2.048544e-02
2.072379e-02
2.095431e-02
2.117545e-02
2.138575e-02
2.158380e-02
2.176826e-02
2.193784e-02
2.209135e-02
2.222767e-02
2.234578e-02
2.244477e-02
2.252388e-02
2.258251e-02
2.262023e-02
2.263681e-02
2.263218e-02
2.260646e-02
2.255996e-02
2.249324e-02
2.240755e-02
2.230364e-02
2.218238e-02
2.204475e-02
2.189184e-02
2.172483e-02
2.154496e-02
2.135356e-02
2.115198e-02
2.094161e-02
2.072387e-02
2.050015e-02
2.027187e-02
2.004041e-02
1.980713e-02
1.957336e-02
1.934042e-02
1.910957e-02
1.888205e-02
1.865908e-02
1.844182e-02
1.823144e-02
1.802906e-02
1.783580e-02
1.765271e-02
1.748084e-02
1.732118e-02
1.717464e-02
1.717457e-02
1.943515e-02
1.943916e-02
1.906328e-02
1.874095e-02
1.844246e-02
1.814647e-02