# vtk DataFile Version 3.0
Scalar Field
ASCII
DATASET RECTILINEAR_GRID
DIMENSIONS 102 102 1
X_COORDINATES 102 double
0.000000 0.100000 0.200000 0.300000 0.400000 0.500000 0.600000 0.700000 0.800000 0.900000 1.000000 1.100000 1.200000 1.300000 1.400000 1.500000 1.600000 1.700000 1.800000 1.900000 2.000000 2.100000 2.200000 2.300000 2.400000 2.500000 2.600000 2.700000 2.800000 2.900000 3.000000 3.100000 3.200000 3.300000 3.400000 3.500000 3.600000 3.700000 3.800000 3.900000 4.000000 4.100000 4.200000 4.300000 4.400000 4.500000 4.600000 4.700000 4.800000 4.900000 5.000000 5.100000 5.200000 5.300000 5.400000 5.500000 5.600000 5.700000 5.800000 5.900000 6.000000 6.100000 6.200000 6.300000 6.400000 6.500000 6.600000 6.700000 6.800000 6.900000 7.000000 7.100000 7.200000 7.300000 7.400000 7.500000 7.600000 7.700000 7.800000 7.900000 8.000000 8.100000 8.200000 8.300000 8.400000 8.500000 8.600000 8.700000 8.800000 8.900000 9.000000 9.100000 9.200000 9.300000 9.400000 9.500000 9.600000 9.700000 9.800000 9.900000 10.000000 10.100000 
Y_COORDINATES 102 double
0.000000 0.100000 0.200000 0.300000 0.400000 0.500000 0.600000 0.700000 0.800000 0.900000 1.000000 1.100000 1.200000 1.300000 1.400000 1.500000 1.600000 1.700000 1.800000 1.900000 2.000000 2.100000 2.200000 2.300000 2.400000 2.500000 2.600000 2.700000 2.800000 2.900000 3.000000 3.100000 3.200000 3.300000 3.400000 3.500000 3.600000 3.700000 3.800000 3.900000 4.000000 4.100000 4.200000 4.300000 4.400000 4.500000 4.600000 4.700000 4.800000 4.900000 5.000000 5.100000 5.200000 5.300000 5.400000 5.500000 5.600000 5.700000 5.800000 5.900000 6.000000 6.100000 6.200000 6.300000 6.400000 6.500000 6.600000 6.700000 6.800000 6.900000 7.000000 7.100000 7.200000 7.300000 7.400000 7.500000 7.600000 7.700000 7.800000 7.900000 8.000000 8.100000 8.200000 8.300000 8.400000 8.500000 8.600000 8.700000 8.800000 8.900000 9.000000 9.100000 9.200000 9.300000 9.400000 9.500000 9.600000 9.700000 9.800000 9.900000 10.000000 10.100000 
Z_COORDINATES 1 double
0.0
POINT_DATA 10404
SCALARS Pressure double 1
LOOKUP_TABLE default
0.000000e+00
5.470628e-03
5.507693e-03
5.532657e-03
5.517515e-03
5.445778e-03
5.320187e-03
5.161774e-03
5.001953e-03
4.870590e-03
4.784830e-03
4.743216e-03
4.727510e-03
4.711427e-03
4.672546e-03
4.602358e-03
4.510226e-03
4.419773e-03
4.359429e-03
4.351260e-03
4.402726e-03
4.504508e-03
4.634903e-03
4.768597e-03
4.886104e-03
4.980261e-03
5.057618e-03
5.134795e-03
5.231690e-03
5.364354e-03
5.540103e-03
5.756211e-03
6.002107e-03
6.263762e-03
6.528453e-03
6.788292e-03
7.041626e-03
7.292278e-03
7.547280e-03
7.814102e-03
8.098278e-03
8.402034e-03
8.724100e-03
9.060492e-03
9.405850e-03
9.754872e-03
1.010344e-02
1.044921e-02
1.079168e-02
1.113170e-02
1.147082e-02
1.181050e-02
1.215157e-02
1.249390e-02
1.283633e-02
1.317683e-02
1.351293e-02
1.384204e-02
1.416184e-02
1.447050e-02
1.476673e-02
1.504975e-02
1.531913e-02
1.557465e-02
1.581610e-02
1.604320e-02
1.625550e-02
1.645243e-02
1.663333e-02
1.679750e-02
1.694431e-02
1.707324e-02
1.718393e-02
1.727622e-02
1.735010e-02
1.740575e-02
1.744349e-02
1.746373e-02
1.746702e-02
1.745397e-02
1.742529e-02
1.738181e-02
1.732443e-02
1.725420e-02
1.717228e-02
1.707995e-02
1.697865e-02
1.686995e-02
1.675557e-02
1.663740e-02
1.651748e-02
1.639807e-02
1.628162e-02
1.617081e-02
1.606859e-02
1.597814e-02
1.590281e-02
1.584597e-02
1.581042e-02
1.579714e-02
1.580232e-02
0.000000e+00
5.470628e-03
5.494842e-03
5.535905e-03
5.549643e-03
5.514713e-03
5.424569e-03
5.290908e-03
5.139011e-03
4.998078e-03
4.890238e-03
4.822665e-03
4.785968e-03
4.759455e-03
4.720958e-03
4.657018e-03
4.569159e-03
4.473692e-03
4.395347e-03
4.357552e-03
4.373504e-03
4.441566e-03
4.546608e-03
4.666373e-03
4.780050e-03
4.875633e-03
4.953420e-03
5.024771e-03
5.107086e-03
5.217250e-03
5.366045e-03
5.555337e-03
5.778586e-03
6.024008e-03
6.278901e-03
6.533562e-03
6.783578e-03
7.030105e-03
7.278401e-03
7.535408e-03
7.807295e-03
8.097668e-03
8.406853e-03
8.732199e-03
9.069138e-03
9.412534e-03
9.757914e-03
1.010229e-02
1.044440e-02
1.078454e-02
1.112391e-02
1.146396e-02
1.180568e-02
1.214928e-02
1.249400e-02
1.283818e-02
1.317956e-02
1.351564e-02
1.384403e-02
1.416270e-02
1.447016e-02
1.476537e-02
1.504774e-02
1.531689e-02
1.557256e-02
1.581443e-02
1.604209e-02
1.625496e-02
1.645237e-02
1.663360e-02
1.679794e-02
1.694477e-02
1.707363e-02
1.718421e-02
1.727637e-02
1.735015e-02
1.740574e-02
1.744344e-02
1.746369e-02
1.746699e-02
1.745396e-02
1.742531e-02
1.738184e-02
1.732448e-02
1.725426e-02
1.717234e-02
1.708003e-02
1.697874e-02
1.687006e-02
1.675571e-02
1.663756e-02
1.651768e-02
1.639829e-02
1.628187e-02
1.617109e-02
1.606889e-02
1.597845e-02
1.590314e-02
1.584632e-02
1.581079e-02
1.579752e-02
1.580270e-02
1.580232e-02
5.518142e-03
5.546355e-03
5.581026e-03
5.571964e-03
5.509734e-03
5.404909e-03
5.280661e-03
5.163361e-03
5.072474e-03
5.013694e-03
4.977987e-03
4.946810e-03
4.901219e-03
4.830919e-03
4.739405e-03
4.643097e-03
4.564986e-03
4.525640e-03
4.535414e-03
4.590986e-03
4.677381e-03
4.774335e-03
4.864175e-03
4.938084e-03
4.998514e-03
5.057275e-03
5.130464e-03
5.232481e-03
5.371364e-03
5.546907e-03
5.751795e-03
5.974898e-03
6.205262e-03
6.435365e-03
6.662724e-03
6.889634e-03
7.121495e-03
7.364510e-03
7.623574e-03
7.900944e-03
8.195908e-03
8.505347e-03
8.824842e-03
9.149912e-03
9.477012e-03
9.804095e-03
1.013065e-02
1.045736e-02
1.078546e-02
1.111613e-02
1.144994e-02
1.178655e-02
1.212480e-02
1.246283e-02
1.279838e-02
1.312916e-02
1.345309e-02
1.376853e-02
1.407425e-02
1.436945e-02
1.465362e-02
1.492635e-02
1.518727e-02
1.543588e-02
1.567159e-02
1.589369e-02
1.610139e-02
1.629390e-02
1.647049e-02
1.663053e-02
1.677356e-02
1.689924e-02
1.700743e-02
1.709809e-02
1.717133e-02
1.722737e-02
1.726651e-02
1.728914e-02
1.729575e-02
1.728691e-02
1.726331e-02
1.722574e-02
1.717509e-02
1.711239e-02
1.703878e-02
1.695552e-02
1.686400e-02
1.676573e-02
1.666235e-02
1.655567e-02
1.644760e-02
1.634024e-02
1.623584e-02
1.613685e-02
1.604584e-02
1.596553e-02
1.589868e-02
1.584787e-02
1.581520e-02
1.580176e-02
1.580719e-02
1.580679e-02
5.610577e-03
5.627725e-03
5.632391e-03
5.586076e-03
5.498230e-03
5.393115e-03
5.296334e-03
5.224944e-03
5.181464e-03
5.154203e-03
5.123637e-03
5.072057e-03
4.992278e-03
4.891643e-03
4.789638e-03
4.710282e-03
4.672671e-03
4.683752e-03
4.736251e-03
4.812345e-03
4.891224e-03
4.957268e-03
5.005544e-03
5.042773e-03
5.083840e-03
5.145685e-03
5.241146e-03
5.375020e-03
5.543448e-03
5.736350e-03
5.941586e-03
6.149113e-03
6.353751e-03
6.555881e-03
6.760237e-03
6.973548e-03
7.202002e-03
7.449349e-03
7.716089e-03
7.999760e-03
8.296015e-03
8.600010e-03
8.907652e-03
9.216395e-03
9.525445e-03
9.835464e-03
1.014792e-02
1.046437e-02
1.078580e-02
1.111227e-02
1.144282e-02
1.177554e-02
1.210813e-02
1.243821e-02
1.276359e-02
1.308258e-02
1.339395e-02
1.369694e-02
1.399107e-02
1.427600e-02
1.455135e-02
1.481662e-02
1.507113e-02
1.531405e-02
1.554447e-02
1.576145e-02
1.596410e-02
1.615167e-02
1.632352e-02
1.647920e-02
1.661842e-02
1.674100e-02
1.684690e-02
1.693614e-02
1.700884e-02
1.706522e-02
1.710553e-02
1.713014e-02
1.713951e-02
1.713419e-02
1.711484e-02
1.708224e-02
1.703729e-02
1.698098e-02
1.691443e-02
1.683886e-02
1.675561e-02
1.666611e-02
1.657194e-02
1.647477e-02
1.637642e-02
1.627881e-02
1.618401e-02
1.609420e-02
1.601165e-02
1.593871e-02
1.587770e-02
1.583079e-02
1.579992e-02
1.578665e-02
1.579255e-02
1.579212e-02
5.715216e-03
5.712929e-03
5.673656e-03
5.594069e-03
5.498710e-03
5.414456e-03
5.357709e-03
5.328625e-03
5.312362e-03
5.286780e-03
5.233273e-03
5.146000e-03
5.035454e-03
4.924820e-03
4.840779e-03
4.802862e-03
4.815957e-03
4.869071e-03
4.940571e-03
5.007391e-03
5.054193e-03
5.078799e-03
5.092076e-03
5.112846e-03
5.160313e-03
5.247175e-03
5.375900e-03
5.539128e-03
5.723464e-03
5.914781e-03
6.102944e-03
6.284411e-03
6.462200e-03
6.643712e-03
6.837538e-03
7.050461e-03
7.285573e-03
7.541860e-03
7.815091e-03
8.099471e-03
8.389417e-03
8.680938e-03
8.972284e-03
9.263854e-03
9.557522e-03
9.855681e-03
1.016032e-02
1.047237e-02
1.079143e-02
1.111588e-02
1.144325e-02
1.177060e-02
1.209533e-02
1.241537e-02
1.272933e-02
1.303642e-02
1.333631e-02
1.362888e-02
1.391398e-02
1.419128e-02
1.446015e-02
1.471975e-02
1.496902e-02
1.520684e-02
1.543211e-02
1.564387e-02
1.584131e-02
1.602382e-02
1.619097e-02
1.634247e-02
1.647816e-02
1.659796e-02
1.670184e-02
1.678983e-02
1.686204e-02
1.691862e-02
1.695982e-02
1.698598e-02
1.699754e-02
1.699504e-02
1.697916e-02
1.695067e-02
1.691044e-02
1.685946e-02
1.679879e-02
1.672961e-02
1.665320e-02
1.657094e-02
1.648429e-02
1.639483e-02
1.630424e-02
1.621431e-02
1.612691e-02
1.604399e-02
1.596756e-02
1.589967e-02
1.584230e-02
1.579739e-02
1.576672e-02
1.575207e-02
1.575545e-02
1.575500e-02
5.804167e-03
5.783856e-03
5.706403e-03
5.612452e-03
5.531610e-03
5.481460e-03
5.461543e-03
5.454754e-03
5.435976e-03
5.384225e-03
5.292995e-03
5.174214e-03
5.054023e-03
4.962280e-03
4.920433e-03
4.933113e-03
4.986938e-03
5.056797e-03
5.116586e-03
5.149719e-03
5.155119e-03
5.146649e-03
5.146802e-03
5.177686e-03
5.253083e-03
5.374449e-03
5.531869e-03
5.708927e-03
5.889163e-03
6.061553e-03
6.223275e-03
6.379249e-03
6.539193e-03
6.713620e-03
6.910292e-03
7.132168e-03
7.377214e-03
7.639755e-03
7.912648e-03
8.189484e-03
8.466146e-03
8.741417e-03
9.016656e-03
9.294797e-03
9.579098e-03
9.872020e-03
1.017451e-02
1.048583e-02
1.080378e-02
1.112535e-02
1.144734e-02
1.176673e-02
1.208151e-02
1.239055e-02
1.269344e-02
1.299024e-02
1.328113e-02
1.356612e-02
1.384490e-02
1.411679e-02
1.438075e-02
1.463555e-02
1.487990e-02
1.511258e-02
1.533253e-02
1.553894e-02
1.573119e-02
1.590886e-02
1.607168e-02
1.621947e-02
1.635211e-02
1.646953e-02
1.657168e-02
1.665856e-02
1.673021e-02
1.678679e-02
1.682853e-02
1.685577e-02
1.686896e-02
1.686865e-02
1.685552e-02
1.683031e-02
1.679389e-02
1.674721e-02
1.669129e-02
1.662727e-02
1.655635e-02
1.647985e-02
1.639914e-02
1.631570e-02
1.623111e-02
1.614698e-02
1.606503e-02
1.598700e-02
1.591466e-02
1.584981e-02
1.579418e-02
1.574944e-02
1.571724e-02
1.569920e-02
1.569711e-02
1.569663e-02
5.867851e-03
5.839611e-03
5.743889e-03
5.658686e-03
5.606719e-03
5.588498e-03
5.586242e-03
5.572678e-03
5.524115e-03
5.432037e-03
5.307984e-03
5.179514e-03
5.078996e-03
5.030265e-03
5.039029e-03
5.091143e-03
5.159228e-03
5.214470e-03
5.238371e-03
5.229601e-03
5.203528e-03
5.185235e-03
5.199421e-03
5.261443e-03
5.372800e-03
5.522226e-03
5.691203e-03
5.861302e-03
6.020380e-03
6.165658e-03
6.303113e-03
6.444046e-03
6.600478e-03
6.781117e-03
6.989092e-03
7.221833e-03
7.472715e-03
7.733632e-03
7.997520e-03
8.260108e-03
8.520525e-03
8.780814e-03
9.044694e-03
9.316073e-03
9.597767e-03
9.890738e-03
1.019397e-02
1.050486e-02
1.081999e-02
1.113588e-02
1.144969e-02
1.175917e-02
1.206343e-02
1.236238e-02
1.265634e-02
1.294570e-02
1.323057e-02
1.351063e-02
1.378510e-02
1.405283e-02
1.431244e-02
1.456254e-02
1.480181e-02
1.502917e-02
1.524378e-02
1.544502e-02
1.563248e-02
1.580588e-02
1.596502e-02
1.610971e-02
1.623982e-02
1.635523e-02
1.645583e-02
1.654159e-02
1.661255e-02
1.666887e-02
1.671079e-02
1.673868e-02
1.675299e-02
1.675428e-02
1.674320e-02
1.672051e-02
1.668703e-02
1.664367e-02
1.659143e-02
1.653137e-02
1.646466e-02
1.639254e-02
1.631631e-02
1.623736e-02
1.615714e-02
1.607715e-02
1.599891e-02
1.592401e-02
1.585401e-02
1.579047e-02
1.573488e-02
1.568871e-02
1.565334e-02
1.563013e-02
1.562043e-02
1.561990e-02
5.915681e-03
5.893700e-03
5.802800e-03
5.741952e-03
5.717932e-03
5.713621e-03
5.700916e-03
5.654078e-03
5.562242e-03
5.435371e-03
5.300885e-03
5.192390e-03
5.135599e-03
5.137740e-03
5.185055e-03
5.249262e-03
5.299843e-03
5.316649e-03
5.297527e-03
5.258200e-03
5.225067e-03
5.224481e-03
5.273081e-03
5.372808e-03
5.511932e-03
5.670890e-03
5.830105e-03
5.976674e-03
6.107689e-03
6.229600e-03
6.354528e-03
6.495323e-03
6.661234e-03
6.855503e-03
7.075283e-03
7.313455e-03
7.561428e-03
7.811862e-03
8.060520e-03
8.306855e-03
8.553403e-03
8.804383e-03
9.064057e-03
9.335363e-03
9.619159e-03
9.914160e-03
1.021747e-02
1.052543e-02
1.083449e-02
1.114185e-02
1.144583e-02
1.174537e-02
1.204062e-02
1.233209e-02
1.262023e-02
1.290516e-02
1.318649e-02
1.346331e-02
1.373437e-02
1.399821e-02
1.425337e-02
1.449854e-02
1.473262e-02
1.495478e-02
1.516443e-02
1.536113e-02
1.554458e-02
1.571449e-02
1.587065e-02
1.601283e-02
1.614081e-02
1.625441e-02
1.635352e-02
1.643809e-02
1.650819e-02
1.656400e-02
1.660579e-02
1.663393e-02
1.664889e-02
1.665123e-02
1.664158e-02
1.662066e-02
1.658928e-02
1.654830e-02
1.649869e-02
1.644149e-02
1.637779e-02
1.630878e-02
1.623570e-02
1.615984e-02
1.608255e-02
1.600518e-02
1.592915e-02
1.585585e-02
1.578665e-02
1.572293e-02
1.566595e-02
1.561695e-02
1.557705e-02
1.554731e-02
1.552865e-02
1.552808e-02
5.968623e-03
5.965020e-03
5.893978e-03
5.857790e-03
5.844836e-03
5.827259e-03
5.778301e-03
5.685214e-03
5.556064e-03
5.417160e-03
5.302129e-03
5.237594e-03
5.231943e-03
5.272174e-03
5.330004e-03
5.374262e-03
5.383914e-03
5.356176e-03
5.306673e-03
5.262216e-03
5.249797e-03
5.286582e-03
5.374705e-03
5.502268e-03
5.649378e-03
5.796174e-03
5.929677e-03
6.047156e-03
6.155399e-03
6.266864e-03
6.394583e-03
6.547767e-03
6.729424e-03
6.936385e-03
7.161268e-03
7.395397e-03
7.631584e-03
7.865953e-03
8.098432e-03
8.332009e-03
8.571207e-03
8.820366e-03
9.082275e-03
9.357486e-03
9.644376e-03
9.939786e-03
1.023996e-02
1.054143e-02
1.084167e-02
1.113931e-02
1.143406e-02
1.172576e-02
1.201503e-02
1.230230e-02
1.258756e-02
1.287025e-02
1.314934e-02
1.342346e-02
1.369109e-02
1.395078e-02
1.420127e-02
1.444151e-02
1.467072e-02
1.488831e-02
1.509384e-02
1.528693e-02
1.546724e-02
1.563446e-02
1.578825e-02
1.592832e-02
1.605440e-02
1.616630e-02
1.626390e-02
1.634721e-02
1.641629e-02
1.647138e-02
1.651277e-02
1.654083e-02
1.655602e-02
1.655888e-02
1.655002e-02
1.653016e-02
1.650006e-02
1.646057e-02
1.641263e-02
1.635724e-02
1.629546e-02
1.622841e-02
1.615727e-02
1.608325e-02
1.600759e-02
1.593154e-02
1.585637e-02
1.578333e-02
1.571362e-02
1.564844e-02
1.558885e-02
1.553588e-02
1.549042e-02
1.545322e-02
1.542486e-02
1.542423e-02
6.047689e-03
6.067242e-03
6.016008e-03
5.988629e-03
5.960317e-03
5.904096e-03
5.806082e-03
5.672777e-03
5.529149e-03
5.408162e-03
5.336487e-03
5.322974e-03
5.355090e-03
5.404772e-03
5.440795e-03
5.441972e-03
5.405457e-03
5.346954e-03
5.293397e-03
5.271778e-03
5.299038e-03
5.376906e-03
5.493096e-03
5.627544e-03
5.760634e-03
5.879966e-03
5.983525e-03
6.078696e-03
6.178188e-03
6.294847e-03
6.437344e-03
6.607994e-03
6.803032e-03
7.014781e-03
7.234668e-03
7.455979e-03
7.675537e-03
7.893993e-03
8.114889e-03
8.342989e-03
8.582530e-03
8.835922e-03
9.103204e-03
9.382277e-03
9.669696e-03
9.961674e-03
1.025498e-02
1.054749e-02
1.083828e-02
1.112746e-02
1.141564e-02
1.170290e-02
1.198953e-02
1.227534e-02
1.255954e-02
1.284088e-02
1.311789e-02
1.338903e-02
1.365288e-02
1.390828e-02
1.415427e-02
1.439015e-02
1.461534e-02
1.482939e-02
1.503185e-02
1.522230e-02
1.540030e-02
1.556541e-02
1.571724e-02
1.585545e-02
1.597977e-02
1.609002e-02
1.618613e-02
1.626811e-02
1.633610e-02
1.639031e-02
1.643106e-02
1.645871e-02
1.647370e-02
1.647657e-02
1.646791e-02
1.644840e-02
1.641882e-02
1.638000e-02
1.633284e-02
1.627833e-02
1.621748e-02
1.615136e-02
1.608108e-02
1.600778e-02
1.593260e-02
1.585670e-02
1.578121e-02
1.570725e-02
1.563590e-02
1.556817e-02
1.550497e-02
1.544714e-02
1.539535e-02
1.535013e-02
1.531177e-02
1.531108e-02
6.163195e-03
6.201063e-03
6.154217e-03
6.109882e-03
6.041018e-03
5.933165e-03
5.791806e-03
5.640874e-03
5.512612e-03
5.433368e-03
5.411898e-03
5.435610e-03
5.476339e-03
5.502811e-03
5.493998e-03
5.447473e-03
5.379473e-03
5.317291e-03
5.287830e-03
5.307410e-03
5.376810e-03
5.482857e-03
5.605074e-03
5.724096e-03
5.828450e-03
5.917311e-03
5.999087e-03
6.086972e-03
6.193612e-03
6.326896e-03
6.488089e-03
6.672482e-03
6.871888e-03
7.077796e-03
7.284089e-03
7.488516e-03
7.692688e-03
7.900867e-03
8.118116e-03
8.348517e-03
8.593965e-03
8.853828e-03
9.125407e-03
9.404900e-03
9.688505e-03
9.973288e-03
1.025762e-02
1.054115e-02
1.082442e-02
1.110833e-02
1.139360e-02
1.167971e-02
1.196618e-02
1.225194e-02
1.253552e-02
1.281532e-02
1.308978e-02
1.335757e-02
1.361762e-02
1.386911e-02
1.411141e-02
1.434399e-02
1.456637e-02
1.477802e-02
1.497843e-02
1.516703e-02
1.534329e-02
1.550670e-02
1.565684e-02
1.579337e-02
1.591605e-02
1.602474e-02
1.611941e-02
1.620010e-02
1.626692e-02
1.632012e-02
1.636000e-02
1.638692e-02
1.640130e-02
1.640367e-02
1.639462e-02
1.637484e-02
1.634509e-02
1.630619e-02
1.625903e-02
1.620455e-02
1.614375e-02
1.607763e-02
1.600724e-02
1.593365e-02
1.585792e-02
1.578112e-02
1.570427e-02
1.562838e-02
1.555440e-02
1.548321e-02
1.541559e-02
1.535220e-02
1.529357e-02
1.524003e-02
1.519169e-02
1.519093e-02
6.308923e-03
6.352299e-03
6.285386e-03
6.199075e-03
6.076309e-03
5.921947e-03
5.759351e-03
5.620433e-03
5.531383e-03
5.500758e-03
5.515542e-03
5.546978e-03
5.563308e-03
5.543453e-03
5.485498e-03
5.406569e-03
5.334763e-03
5.297233e-03
5.309765e-03
5.371968e-03
5.469355e-03
5.580570e-03
5.686201e-03
5.775562e-03
5.849235e-03
5.916991e-03
5.992873e-03
6.089571e-03
6.214251e-03
6.366998e-03
6.541922e-03
6.730056e-03
6.922767e-03
7.114465e-03
7.303872e-03
7.493691e-03
7.689049e-03
7.895421e-03
8.116776e-03
8.354473e-03
8.607145e-03
8.871412e-03
9.143063e-03
9.418256e-03
9.694366e-03
9.970303e-03
1.024631e-02
1.052342e-02
1.080281e-02
1.108524e-02
1.137077e-02
1.165785e-02
1.194511e-02
1.223084e-02
1.251331e-02
1.279098e-02
1.306257e-02
1.332715e-02
1.358403e-02
1.383265e-02
1.407252e-02
1.430313e-02
1.452388e-02
1.473415e-02
1.493326e-02
1.512057e-02
1.529547e-02
1.545747e-02
1.560614e-02
1.574120e-02
1.586243e-02
1.596973e-02
1.606307e-02
1.614250e-02
1.620812e-02
1.626016e-02
1.629894e-02
1.632479e-02
1.633816e-02
1.633958e-02
1.632964e-02
1.630902e-02
1.627850e-02
1.623887e-02
1.619100e-02
1.613581e-02
1.607425e-02
1.600728e-02
1.593590e-02
1.586111e-02
1.578390e-02
1.570525e-02
1.562610e-02
1.554738e-02
1.546993e-02
1.539453e-02
1.532182e-02
1.525237e-02
1.518657e-02
1.512462e-02
1.506649e-02
1.506566e-02
6.463291e-03
6.496390e-03
6.386173e-03
6.244254e-03
6.072079e-03
5.892773e-03
5.738428e-03
5.635615e-03
5.593054e-03
5.597354e-03
5.618853e-03
5.624756e-03
5.593365e-03
5.522930e-03
5.431473e-03
5.348240e-03
5.301141e-03
5.305864e-03
5.361035e-03
5.450712e-03
5.552264e-03
5.645756e-03
5.720946e-03
5.779581e-03
5.832941e-03
5.896192e-03
5.982404e-03
6.098286e-03
6.242862e-03
6.409007e-03
6.586813e-03
6.767302e-03
6.945227e-03
7.120177e-03
7.295923e-03
7.478516e-03
7.673930e-03
7.886107e-03
8.115931e-03
8.361325e-03
8.618230e-03
8.882012e-03
9.148772e-03
9.416180e-03
9.683667e-03
9.952058e-03
1.022287e-02
1.049754e-02
1.077688e-02
1.106078e-02
1.134826e-02
1.163682e-02
1.192451e-02
1.220949e-02
1.249023e-02
1.276554e-02
1.303461e-02
1.329686e-02
1.355180e-02
1.379897e-02
1.403780e-02
1.426763e-02
1.448773e-02
1.469732e-02
1.489566e-02
1.508206e-02
1.525594e-02
1.541682e-02
1.556433e-02
1.569820e-02
1.581825e-02
1.592436e-02
1.601649e-02
1.609468e-02
1.615904e-02
1.620978e-02
1.624721e-02
1.627172e-02
1.628374e-02
1.628380e-02
1.627253e-02
1.625061e-02
1.621878e-02
1.617784e-02
1.612864e-02
1.607205e-02
1.600900e-02
1.594041e-02
1.586722e-02
1.579038e-02
1.571082e-02
1.562947e-02
1.554721e-02
1.546486e-02
1.538321e-02
1.530295e-02
1.522465e-02
1.514876e-02
1.507560e-02
1.500527e-02
1.493768e-02
1.493678e-02
6.596965e-03
6.607374e-03
6.441802e-03
6.248240e-03
6.047767e-03
5.873026e-03
5.751599e-03
5.693051e-03
5.684079e-03
5.694173e-03
5.689127e-03
5.645975e-03
5.562497e-03
5.457248e-03
5.360677e-03
5.301863e-03
5.296962e-03
5.344091e-03
5.426041e-03
5.518755e-03
5.601365e-03
5.663586e-03
5.707980e-03
5.747067e-03
5.797267e-03
5.872286e-03
5.978697e-03
6.114734e-03
6.272185e-03
6.440182e-03
6.609273e-03
6.774352e-03
6.935681e-03
7.097966e-03
7.268114e-03
7.452616e-03
7.655449e-03
7.877111e-03
8.114904e-03
8.364163e-03
8.619872e-03
8.878092e-03
9.136774e-03
9.395840e-03
9.656645e-03
9.921126e-03
1.019096e-02
1.046695e-02
1.074886e-02
1.103547e-02
1.132495e-02
1.161429e-02
1.190153e-02
1.218516e-02
1.246411e-02
1.273766e-02
1.300532e-02
1.326665e-02
1.352119e-02
1.376830e-02
1.400725e-02
1.423721e-02
1.445731e-02
1.466673e-02
1.486471e-02
1.505059e-02
1.522383e-02
1.538399e-02
1.553072e-02
1.566375e-02
1.578289e-02
1.588800e-02
1.597904e-02
1.605601e-02
1.611903e-02
1.616833e-02
1.620424e-02
1.622717e-02
1.623756e-02
1.623597e-02
1.622302e-02
1.619937e-02
1.616577e-02
1.612300e-02
1.607188e-02
1.601326e-02
1.594802e-02
1.587707e-02
1.580130e-02
1.572163e-02
1.563894e-02
1.555412e-02
1.546798e-02
1.538133e-02
1.529486e-02
1.520921e-02
1.512489e-02
1.504229e-02
1.496167e-02
1.488309e-02
1.480641e-02
1.480545e-02
6.683822e-03
6.667656e-03
6.451455e-03
6.226946e-03
6.027856e-03
5.883246e-03
5.804269e-03
5.778445e-03
5.774846e-03
5.757800e-03
5.702586e-03
5.605820e-03
5.486003e-03
5.374537e-03
5.301845e-03
5.285043e-03
5.322303e-03
5.395563e-03
5.479450e-03
5.551957e-03
5.602334e-03
5.633505e-03
5.658933e-03
5.696056e-03
5.759361e-03
5.855536e-03
5.982326e-03
6.130675e-03
6.288891e-03
6.447033e-03
6.600014e-03
6.748578e-03
6.898173e-03
7.056421e-03
7.230251e-03
7.423682e-03
7.636892e-03
7.866664e-03
8.107834e-03
8.355102e-03
8.604540e-03
8.854397e-03
9.105050e-03
9.358324e-03
9.616505e-03
9.881421e-03
1.015386e-02
1.043340e-02
1.071862e-02
1.100754e-02
1.129804e-02
1.158721e-02
1.187350e-02
1.215594e-02
1.243393e-02
1.270705e-02
1.297487e-02
1.323687e-02
1.349236e-02
1.374051e-02
1.398041e-02
1.421111e-02
1.443171e-02
1.464140e-02
1.483947e-02
1.502531e-02
1.519840e-02
1.535832e-02
1.550471e-02
1.563726e-02
1.575576e-02
1.586005e-02
1.595006e-02
1.602584e-02
1.608749e-02
1.613527e-02
1.616956e-02
1.619075e-02
1.619933e-02
1.619584e-02
1.618089e-02
1.615516e-02
1.611936e-02
1.607425e-02
1.602064e-02
1.595937e-02
1.589128e-02
1.581727e-02
1.573821e-02
1.565498e-02
1.556844e-02
1.547945e-02
1.538878e-02
1.529720e-02
1.520537e-02
1.511388e-02
1.502321e-02
1.493372e-02
1.484561e-02
1.475894e-02
1.467357e-02
1.467254e-02
6.710892e-03
6.674621e-03
6.428179e-03
6.202473e-03
6.031343e-03
5.928089e-03
5.881828e-03
5.861863e-03
5.831318e-03
5.763502e-03
5.653305e-03
5.518537e-03
5.391129e-03
5.302793e-03
5.271901e-03
5.297181e-03
5.360198e-03
5.434542e-03
5.497059e-03
5.536286e-03
5.555125e-03
5.567614e-03
5.592007e-03
5.643401e-03
5.728768e-03
5.845583e-03
5.984202e-03
6.132300e-03
6.279541e-03
6.420832e-03
6.557280e-03
6.694902e-03
6.841863e-03
7.005405e-03
7.189528e-03
7.394104e-03
7.615471e-03
7.848076e-03
8.086441e-03
8.326740e-03
8.567555e-03
8.809715e-03
9.055460e-03
9.307347e-03
9.567281e-03
9.835954e-03
1.011276e-02
1.039609e-02
1.068383e-02
1.097386e-02
1.126440e-02
1.155303e-02
1.183877e-02
1.212112e-02
1.239969e-02
1.267405e-02
1.294359e-02
1.320756e-02
1.346501e-02
1.371494e-02
1.395635e-02
1.418829e-02
1.440989e-02
1.462040e-02
1.481915e-02
1.500555e-02
1.517907e-02
1.533926e-02
1.548572e-02
1.561811e-02
1.573621e-02
1.583984e-02
1.592895e-02
1.600360e-02
1.606393e-02
1.611019e-02
1.614281e-02
1.616219e-02
1.616881e-02
1.616321e-02
1.614600e-02
1.611782e-02
1.607939e-02
1.603145e-02
1.597481e-02
1.591029e-02
1.583873e-02
1.576100e-02
1.567798e-02
1.559052e-02
1.549948e-02
1.540568e-02
1.530990e-02
1.521285e-02
1.511518e-02
1.501747e-02
1.492017e-02
1.482361e-02
1.472802e-02
1.463344e-02
1.453975e-02
1.453865e-02
6.683259e-03
6.641417e-03
6.393337e-03
6.193773e-03
6.063517e-03
5.993863e-03
5.955017e-03
5.909335e-03
5.828181e-03
5.704364e-03
5.554470e-03
5.410499e-03
5.305256e-03
5.258496e-03
5.269860e-03
5.320951e-03
5.384636e-03
5.436733e-03
5.464968e-03
5.471981e-03
5.472093e-03
5.484135e-03
5.523723e-03
5.597990e-03
5.704312e-03
5.832621e-03
5.970138e-03
6.106259e-03
6.235933e-03
6.360595e-03
6.486730e-03
6.622910e-03
6.776558e-03
6.951563e-03
7.147455e-03
7.360154e-03
7.583789e-03
7.812799e-03
8.043549e-03
8.275015e-03
8.508489e-03
8.746599e-03
8.992112e-03
9.246939e-03
9.511617e-03
9.785318e-03
1.006624e-02
1.035219e-02
1.064107e-02
1.093125e-02
1.122165e-02
1.151042e-02
1.179695e-02
1.208089e-02
1.236177e-02
1.263889e-02
1.291137e-02
1.317820e-02
1.343827e-02
1.369052e-02
1.393397e-02
1.416773e-02
1.439097e-02
1.460299e-02
1.480311e-02
1.499071e-02
1.516524e-02
1.532618e-02
1.547309e-02
1.560565e-02
1.572359e-02
1.582678e-02
1.591518e-02
1.598885e-02
1.604798e-02
1.609280e-02
1.612378e-02
1.614130e-02
1.614584e-02
1.613793e-02
1.611815e-02
1.608717e-02
1.604569e-02
1.599445e-02
1.593424e-02
1.586590e-02
1.579027e-02
1.570822e-02
1.562062e-02
1.552833e-02
1.543220e-02
1.533302e-02
1.523158e-02
1.512857e-02
1.502465e-02
1.492036e-02
1.481617e-02
1.471241e-02
1.460933e-02
1.450700e-02
1.440534e-02
1.440417e-02
6.621917e-03
6.591581e-03
6.367827e-03
6.208676e-03
6.113370e-03
6.053518e-03
5.991145e-03
5.895817e-03
5.758072e-03
5.592876e-03
5.431906e-03
5.308848e-03
5.244871e-03
5.240752e-03
5.278439e-03
5.330318e-03
5.371302e-03
5.388294e-03
5.383546e-03
5.371498e-03
5.371398e-03
5.399272e-03
5.462407e-03
5.557976e-03
5.675616e-03
5.802183e-03
5.926901e-03
6.044825e-03
6.157742e-03
6.272578e-03
6.398248e-03
6.542264e-03
6.708326e-03
6.895563e-03
7.099457e-03
7.313845e-03
7.533140e-03
7.753960e-03
7.975731e-03
8.200237e-03
8.430489e-03
8.669429e-03
8.918921e-03
9.179302e-03
9.449491e-03
9.727491e-03
1.001103e-02
1.029809e-02
1.058723e-02
1.087759e-02
1.116876e-02
1.145922e-02
1.174835e-02
1.203562e-02
1.232025e-02
1.260123e-02
1.287744e-02
1.314771e-02
1.341093e-02
1.366608e-02
1.391223e-02
1.414854e-02
1.437422e-02
1.458852e-02
1.479073e-02
1.498017e-02
1.515623e-02
1.531837e-02
1.546614e-02
1.559920e-02
1.571731e-02
1.582036e-02
1.590831e-02
1.598126e-02
1.603937e-02
1.608289e-02
1.611225e-02
1.612787e-02
1.613020e-02
1.611976e-02
1.609714e-02
1.606300e-02
1.601804e-02
1.596303e-02
1.589876e-02
1.582607e-02
1.574583e-02
1.565891e-02
1.556618e-02
1.546850e-02
1.536672e-02
1.526165e-02
1.515404e-02
1.504462e-02
1.493403e-02
1.482283e-02
1.471150e-02
1.460041e-02
1.448982e-02
1.437986e-02
1.427050e-02
1.426927e-02
6.555390e-03
6.549631e-03
6.363573e-03
6.240450e-03
6.157563e-03
6.076917e-03
5.966415e-03
5.814195e-03
5.633301e-03
5.454779e-03
5.313029e-03
5.230664e-03
5.209769e-03
5.232841e-03
5.271942e-03
5.301126e-03
5.306436e-03
5.289662e-03
5.265290e-03
5.252936e-03
5.269009e-03
5.320940e-03
5.405719e-03
5.512564e-03
5.628028e-03
5.741171e-03
5.847182e-03
5.948228e-03
6.051700e-03
6.166856e-03
6.301284e-03
6.458450e-03
6.637042e-03
6.832068e-03
7.037058e-03
7.246403e-03
7.457002e-03
7.668762e-03
7.883981e-03
8.106062e-03
8.338110e-03
8.581922e-03
8.837604e-03
9.103805e-03
9.378325e-03
9.658832e-03
9.943408e-03
1.023081e-02
1.052044e-02
1.081213e-02
1.110578e-02
1.139981e-02
1.169324e-02
1.198518e-02
1.227453e-02
1.256005e-02
1.284051e-02
1.311477e-02
1.338178e-02
1.364057e-02
1.389026e-02
1.413000e-02
1.435895e-02
1.457631e-02
1.478129e-02
1.497316e-02
1.515128e-02
1.531510e-02
1.546417e-02
1.559817e-02
1.571689e-02
1.582019e-02
1.590807e-02
1.598058e-02
1.603789e-02
1.608022e-02
1.610801e-02
1.612167e-02
1.612163e-02
1.610844e-02
1.608268e-02
1.604503e-02
1.599621e-02
1.593700e-02
1.586821e-02
1.579072e-02
1.570537e-02
1.561307e-02
1.551470e-02
1.541112e-02
1.530318e-02
1.519170e-02
1.507746e-02
1.496118e-02
1.484353e-02
1.472509e-02
1.460636e-02
1.448777e-02
1.436962e-02
1.425210e-02
1.413526e-02
1.413397e-02
6.508425e-03
6.531338e-03
6.378633e-03
6.270136e-03
6.169177e-03
6.042054e-03
5.874354e-03
5.676902e-03
5.479841e-03
5.318173e-03
5.216032e-03
5.177005e-03
5.184322e-03
5.209802e-03
5.226595e-03
5.219765e-03
5.190531e-03
5.153371e-03
5.128294e-03
5.132163e-03
5.172621e-03
5.246511e-03
5.342621e-03
5.447026e-03
5.548610e-03
5.642648e-03
5.731676e-03
5.823575e-03
5.927994e-03
6.052639e-03
6.200767e-03
6.370619e-03
6.556708e-03
6.752218e-03
6.951490e-03
7.151687e-03
7.353190e-03
7.558820e-03
7.772375e-03
7.997129e-03
8.234807e-03
8.485284e-03
8.746935e-03
9.017363e-03
9.294186e-03
9.575592e-03
9.860561e-03
1.014876e-02
1.044023e-02
1.073505e-02
1.103306e-02
1.133229e-02
1.163124e-02
1.192869e-02
1.222333e-02
1.251389e-02
1.279918e-02
1.307813e-02
1.334974e-02
1.361310e-02
1.386727e-02
1.411134e-02
1.434438e-02
1.456552e-02
1.477391e-02
1.496881e-02
1.514957e-02
1.531564e-02
1.546659e-02
1.560209e-02
1.572193e-02
1.582596e-02
1.591415e-02
1.598655e-02
1.604327e-02
1.608453e-02
1.611075e-02
1.612236e-02
1.611982e-02
1.610366e-02
1.607450e-02
1.603303e-02
1.598000e-02
1.591622e-02
1.584252e-02
1.575979e-02
1.566890e-02
1.557075e-02
1.546625e-02
1.535627e-02
1.524169e-02
1.512332e-02
1.500197e-02
1.487838e-02
1.475326e-02
1.462723e-02
1.450083e-02
1.437454e-02
1.424873e-02
1.412366e-02
1.399946e-02
1.399810e-02
6.492228e-03
6.537469e-03
6.397723e-03
6.273554e-03
6.127599e-03
5.942717e-03
5.727180e-03
5.509926e-03
5.326457e-03
5.202555e-03
5.143566e-03
5.133689e-03
5.144576e-03
5.148374e-03
5.128953e-03
5.086750e-03
5.036139e-03
4.997560e-03
4.988464e-03
5.016858e-03
5.079535e-03
5.164879e-03
5.258405e-03
5.348597e-03
5.430745e-03
5.507683e-03
5.587775e-03
5.681111e-03
5.795594e-03
5.934349e-03
6.095218e-03
6.272221e-03
6.458169e-03
6.647305e-03
6.837006e-03
7.028090e-03
7.223877e-03
7.428554e-03
7.645569e-03
7.876587e-03
8.121267e-03
8.377723e-03
8.643379e-03
8.915814e-03
9.193333e-03
9.475140e-03
9.761157e-03
1.005166e-02
1.034687e-02
1.064667e-02
1.095052e-02
1.125602e-02
1.156118e-02
1.186463e-02
1.216505e-02
1.246124e-02
1.275212e-02
1.303666e-02
1.331389e-02
1.358280e-02
1.384238e-02
1.409162e-02
1.432952e-02
1.455515e-02
1.476764e-02
1.496626e-02
1.515034e-02
1.531936e-02
1.547287e-02
1.561053e-02
1.573207e-02
1.583734e-02
1.592626e-02
1.599882e-02
1.605514e-02
1.609543e-02
1.612009e-02
1.612960e-02
1.612441e-02
1.610511e-02
1.607234e-02
1.602680e-02
1.596929e-02
1.590062e-02
1.582166e-02
1.573330e-02
1.563645e-02
1.553202e-02
1.542092e-02
1.530406e-02
1.518233e-02
1.505658e-02
1.492763e-02
1.479629e-02
1.466328e-02
1.452929e-02
1.439491e-02
1.426068e-02
1.412705e-02
1.399435e-02
1.386283e-02
1.386141e-02
6.500011e-03
6.553306e-03
6.397767e-03
6.230040e-03
6.025575e-03
5.789756e-03