# vtk DataFile Version 3.0
Scalar Field
ASCII
DATASET RECTILINEAR_GRID
DIMENSIONS 102 102 1
X_COORDINATES 102 double
0.000000 0.100000 0.200000 0.300000 0.400000 0.500000 0.600000 0.700000 0.800000 0.900000 1.000000 1.100000 1.200000 1.300000 1.400000 1.500000 1.600000 1.700000 1.800000 1.900000 2.000000 2.100000 2.200000 2.300000 2.400000 2.500000 2.600000 2.700000 2.800000 2.900000 3.000000 3.100000 3.200000 3.300000 3.400000 3.500000 3.600000 3.700000 3.800000 3.900000 4.000000 4.100000 4.200000 4.300000 4.400000 4.500000 4.600000 4.700000 4.800000 4.900000 5.000000 5.100000 5.200000 5.300000 5.400000 5.500000 5.600000 5.700000 5.800000 5.900000 6.000000 6.100000 6.200000 6.300000 6.400000 6.500000 6.600000 6.700000 6.800000 6.900000 7.000000 7.100000 7.200000 7.300000 7.400000 7.500000 7.600000 7.700000 7.800000 7.900000 8.000000 8.100000 8.200000 8.300000 8.400000 8.500000 8.600000 8.700000 8.800000 8.900000 9.000000 9.100000 9.200000 9.300000 9.400000 9.500000 9.600000 9.700000 9.800000 9.900000 10.000000 10.100000 
Y_COORDINATES 102 double
0.000000 0.100000 0.200000 0.300000 0.400000 0.500000 0.600000 0.700000 0.800000 0.900000 1.000000 1.100000 1.200000 1.300000 1.400000 1.500000 1.600000 1.700000 1.800000 1.900000 2.000000 2.100000 2.200000 2.300000 2.400000 2.500000 2.600000 2.700000 2.800000 2.900000 3.000000 3.100000 3.200000 3.300000 3.400000 3.500000 3.600000 3.700000 3.800000 3.900000 4.000000 4.100000 4.200000 4.300000 4.400000 4.500000 4.600000 4.700000 4.800000 4.900000 5.000000 5.100000 5.200000 5.300000 5.400000 5.500000 5.600000 5.700000 5.800000 5.900000 6.000000 6.100000 6.200000 6.300000 6.400000 6.500000 6.600000 6.700000 6.800000 6.900000 7.000000 7.100000 7.200000 7.300000 7.400000 7.500000 7.600000 7.700000 7.800000 7.900000 8.000000 8.100000 8.200000 8.300000 8.400000 8.500000 8.600000 8.700000 8.800000 8.900000 9.000000 9.100000 9.200000 9.300000 9.400000 9.500000 9.600000 9.700000 9.800000 9.900000 10.000000 10.100000 
Z_COORDINATES 1 double
0.0
POINT_DATA 10404
SCALARS Pressure double 1
LOOKUP_TABLE default
0.000000e+00
1.351514e-02
1.332702e-02
1.303616e-02
1.278512e-02
1.264527e-02
1.261157e-02
1.262426e-02
1.261077e-02
1.252305e-02
1.235452e-02
1.213435e-02
1.190796e-02
1.171602e-02
1.158099e-02
1.150441e-02
1.147258e-02
1.146581e-02
1.146682e-02
1.146574e-02
1.146120e-02
1.145846e-02
1.146608e-02
1.149249e-02
1.154356e-02
1.162168e-02
1.172626e-02
1.185504e-02
1.200538e-02
1.217503e-02
1.236213e-02
1.256484e-02
1.278105e-02
1.300861e-02
1.324597e-02
1.349289e-02
1.375070e-02
1.402186e-02
1.430880e-02
1.461279e-02
1.493308e-02
1.526696e-02
1.561046e-02
1.595953e-02
1.631107e-02
1.666344e-02
1.701633e-02
1.737017e-02
1.772531e-02
1.808135e-02
1.843701e-02
1.879011e-02
1.913797e-02
1.947784e-02
1.980729e-02
2.012440e-02
2.042780e-02
2.071649e-02
2.098968e-02
2.124655e-02
2.148621e-02
2.170763e-02
2.190974e-02
2.209153e-02
2.225209e-02
2.239070e-02
2.250683e-02
2.260010e-02
2.267029e-02
2.271731e-02
2.274124e-02
2.274233e-02
2.272105e-02
2.267804e-02
2.261418e-02
2.253046e-02
2.242803e-02
2.230815e-02
2.217214e-02
2.202146e-02
2.185765e-02
2.168239e-02
2.149750e-02
2.130496e-02
2.110687e-02
2.090546e-02
2.070306e-02
2.050211e-02
2.030512e-02
2.011473e-02
1.993362e-02
1.976459e-02
1.961048e-02
1.947417e-02
1.935847e-02
1.926604e-02
1.919908e-02
1.915888e-02
1.914481e-02
1.915246e-02
1.917025e-02
0.000000e+00
1.351514e-02
1.343816e-02
1.320370e-02
1.294272e-02
1.276906e-02
1.270907e-02
1.272105e-02
1.273175e-02
1.267889e-02
1.253814e-02
1.232659e-02
1.208723e-02
1.186663e-02
1.169698e-02
1.158865e-02
1.153287e-02
1.151044e-02
1.150137e-02
1.149180e-02
1.147682e-02
1.145966e-02
1.144853e-02
1.145289e-02
1.148040e-02
1.153526e-02
1.161819e-02
1.172744e-02
1.186021e-02
1.201372e-02
1.218553e-02
1.237340e-02
1.257505e-02
1.278827e-02
1.301147e-02
1.324428e-02
1.348795e-02
1.374496e-02
1.401804e-02
1.430890e-02
1.461735e-02
1.494109e-02
1.527631e-02
1.561885e-02
1.596527e-02
1.631362e-02
1.666341e-02
1.701508e-02
1.736922e-02
1.772578e-02
1.808370e-02
1.844099e-02
1.879502e-02
1.914295e-02
1.948219e-02
1.981063e-02
2.012673e-02
2.042938e-02
2.071772e-02
2.099092e-02
2.124805e-02
2.148808e-02
2.170984e-02
2.191223e-02
2.209419e-02
2.225486e-02
2.239352e-02
2.250965e-02
2.260285e-02
2.267290e-02
2.271972e-02
2.274340e-02
2.274424e-02
2.272273e-02
2.267958e-02
2.261566e-02
2.253197e-02
2.242961e-02
2.230982e-02
2.217388e-02
2.202322e-02
2.185940e-02
2.168412e-02
2.149920e-02
2.130663e-02
2.110853e-02
2.090712e-02
2.070473e-02
2.050379e-02
2.030681e-02
2.011641e-02
1.993529e-02
1.976624e-02
1.961211e-02
1.947578e-02
1.936007e-02
1.926763e-02
1.920068e-02
1.916048e-02
1.914641e-02
1.915405e-02
1.917185e-02
1.917025e-02
1.333314e-02
1.320776e-02
1.302154e-02
1.290962e-02
1.289850e-02
1.293933e-02
1.296178e-02
1.291221e-02
1.277536e-02
1.257358e-02
1.234986e-02
1.214670e-02
1.199080e-02
1.188828e-02
1.182888e-02
1.179471e-02
1.176881e-02
1.174066e-02
1.170784e-02
1.167464e-02
1.164910e-02
1.163968e-02
1.165287e-02
1.169202e-02
1.175747e-02
1.184758e-02
1.195990e-02
1.209194e-02
1.224142e-02
1.240612e-02
1.258380e-02
1.277248e-02
1.297102e-02
1.317968e-02
1.340023e-02
1.363532e-02
1.388737e-02
1.415746e-02
1.444464e-02
1.474612e-02
1.505809e-02
1.537690e-02
1.569999e-02
1.602631e-02
1.635602e-02
1.668979e-02
1.702807e-02
1.737045e-02
1.771547e-02
1.806081e-02
1.840382e-02
1.874191e-02
1.907284e-02
1.939491e-02
1.970682e-02
2.000759e-02
2.029633e-02
2.057207e-02
2.083371e-02
2.108008e-02
2.130992e-02
2.152207e-02
2.171548e-02
2.188924e-02
2.204261e-02
2.217500e-02
2.228591e-02
2.237502e-02
2.244211e-02
2.248717e-02
2.251037e-02
2.251205e-02
2.249278e-02
2.245322e-02
2.239419e-02
2.231659e-02
2.222144e-02
2.210984e-02
2.198305e-02
2.184245e-02
2.168955e-02
2.152602e-02
2.135365e-02
2.117433e-02
2.099009e-02
2.080299e-02
2.061524e-02
2.042909e-02
2.024689e-02
2.007106e-02
1.990409e-02
1.974851e-02
1.960685e-02
1.948162e-02
1.937518e-02
1.928963e-02
1.922660e-02
1.918684e-02
1.916974e-02
1.917265e-02
1.919061e-02
1.918901e-02
1.311848e-02
1.302195e-02
1.297871e-02
1.303137e-02
1.312267e-02
1.317189e-02
1.312767e-02
1.298558e-02
1.278027e-02
1.256240e-02
1.237496e-02
1.223938e-02
1.215439e-02
1.210390e-02
1.206773e-02
1.203032e-02
1.198472e-02
1.193252e-02
1.188101e-02
1.183961e-02
1.181667e-02
1.181765e-02
1.184456e-02
1.189665e-02
1.197168e-02
1.206704e-02
1.218033e-02
1.230944e-02
1.245224e-02
1.260665e-02
1.277105e-02
1.294496e-02
1.312955e-02
1.332740e-02
1.354160e-02
1.377436e-02
1.402593e-02
1.429426e-02
1.457561e-02
1.486584e-02
1.516170e-02
1.546163e-02
1.576579e-02
1.607533e-02
1.639140e-02
1.671432e-02
1.704320e-02
1.737597e-02
1.770990e-02
1.804205e-02
1.837002e-02
1.869202e-02
1.900681e-02
1.931350e-02
1.961131e-02
1.989934e-02
2.017648e-02
2.044143e-02
2.069282e-02
2.092930e-02
2.114961e-02
2.135271e-02
2.153769e-02
2.170379e-02
2.185036e-02
2.197684e-02
2.208279e-02
2.216791e-02
2.223206e-02
2.227531e-02
2.229790e-02
2.230022e-02
2.228281e-02
2.224628e-02
2.219135e-02
2.211882e-02
2.202963e-02
2.192486e-02
2.180573e-02
2.167360e-02
2.152999e-02
2.137650e-02
2.121486e-02
2.104686e-02
2.087440e-02
2.069943e-02
2.052401e-02
2.035026e-02
2.018039e-02
2.001665e-02
1.986132e-02
1.971670e-02
1.958505e-02
1.946858e-02
1.936931e-02
1.928904e-02
1.922915e-02
1.919044e-02
1.917298e-02
1.917611e-02
1.919910e-02
1.919752e-02
1.301380e-02
1.299714e-02
1.310075e-02
1.324796e-02
1.333945e-02
1.331555e-02
1.317534e-02
1.296426e-02
1.274410e-02
1.256389e-02
1.244434e-02
1.237856e-02
1.234364e-02
1.231455e-02
1.227428e-02
1.221759e-02
1.214940e-02
1.208051e-02
1.202280e-02
1.198572e-02
1.197458e-02
1.199047e-02
1.203153e-02
1.209450e-02
1.217612e-02
1.227366e-02
1.238488e-02
1.250774e-02
1.264036e-02
1.278161e-02
1.293180e-02
1.309306e-02
1.326891e-02
1.346294e-02
1.367727e-02
1.391139e-02
1.416216e-02
1.442484e-02
1.469480e-02
1.496905e-02
1.524691e-02
1.552968e-02
1.581953e-02
1.611814e-02
1.642584e-02
1.674126e-02
1.706179e-02
1.738427e-02
1.770570e-02
1.802359e-02
1.833653e-02
1.864375e-02
1.894472e-02
1.923887e-02
1.952530e-02
1.980282e-02
2.006996e-02
2.032517e-02
2.056700e-02
2.079414e-02
2.100552e-02
2.120022e-02
2.137747e-02
2.153656e-02
2.167686e-02
2.179783e-02
2.189909e-02
2.198040e-02
2.204175e-02
2.208326e-02
2.210519e-02
2.210795e-02
2.209196e-02
2.205778e-02
2.200604e-02
2.193749e-02
2.185306e-02
2.175381e-02
2.164099e-02
2.151593e-02
2.138010e-02
2.123504e-02
2.108238e-02
2.092382e-02
2.076114e-02
2.059621e-02
2.043098e-02
2.026745e-02
2.010769e-02
1.995379e-02
1.980785e-02
1.967196e-02
1.954817e-02
1.943842e-02
1.934453e-02
1.926813e-02
1.921057e-02
1.917285e-02
1.915570e-02
1.915975e-02
1.918625e-02
1.918469e-02
1.308493e-02
1.315353e-02
1.333279e-02
1.347055e-02
1.347930e-02
1.335232e-02
1.313958e-02
1.291298e-02
1.273083e-02
1.261808e-02
1.256630e-02
1.254729e-02
1.253030e-02
1.249457e-02
1.243403e-02
1.235526e-02
1.227192e-02
1.219876e-02
1.214724e-02
1.212353e-02
1.212861e-02
1.215980e-02
1.221277e-02
1.228325e-02
1.236774e-02
1.246357e-02
1.256858e-02
1.268116e-02
1.280077e-02
1.292860e-02
1.306779e-02
1.322274e-02
1.339751e-02
1.359411e-02
1.381139e-02
1.404524e-02
1.429007e-02
1.454085e-02
1.479480e-02
1.505195e-02
1.531457e-02
1.558563e-02
1.586729e-02
1.615985e-02
1.646164e-02
1.676960e-02
1.708029e-02
1.739069e-02
1.769866e-02
1.800271e-02
1.830242e-02
1.859754e-02
1.888764e-02
1.917186e-02
1.944892e-02
1.971727e-02
1.997526e-02
2.022136e-02
2.045423e-02
2.067277e-02
2.087604e-02
2.106319e-02
2.123347e-02
2.138617e-02
2.152067e-02
2.163650e-02
2.173338e-02
2.181119e-02
2.186995e-02
2.190983e-02
2.193105e-02
2.193393e-02
2.191884e-02
2.188626e-02
2.183680e-02
2.177123e-02
2.169048e-02
2.159564e-02
2.148791e-02
2.136860e-02
2.123911e-02
2.110090e-02
2.095551e-02
2.080459e-02
2.064983e-02
2.049303e-02
2.033603e-02
2.018074e-02
2.002908e-02
1.988299e-02
1.974441e-02
1.961524e-02
1.949732e-02
1.939246e-02
1.930232e-02
1.922844e-02
1.917218e-02
1.913474e-02
1.911725e-02
1.912099e-02
1.914784e-02
1.914630e-02
1.331768e-02
1.343695e-02
1.359117e-02
1.363389e-02
1.352815e-02
1.332064e-02
1.308818e-02
1.289774e-02
1.278148e-02
1.273368e-02
1.272435e-02
1.271832e-02
1.269031e-02
1.263144e-02
1.254775e-02
1.245422e-02
1.236789e-02
1.230250e-02
1.226586e-02
1.225963e-02
1.228096e-02
1.232477e-02
1.238568e-02
1.245917e-02
1.254179e-02
1.263106e-02
1.272550e-02
1.282520e-02
1.293229e-02
1.305096e-02
1.318642e-02
1.334310e-02
1.352280e-02
1.372371e-02
1.394094e-02
1.416827e-02
1.440050e-02
1.463514e-02
1.487290e-02
1.511675e-02
1.537024e-02
1.563573e-02
1.591345e-02
1.620144e-02
1.649643e-02
1.679483e-02
1.709374e-02
1.739135e-02
1.768675e-02
1.797920e-02
1.826860e-02
1.855456e-02
1.883620e-02
1.911220e-02
1.938098e-02
1.964087e-02
1.989034e-02
2.012805e-02
2.035286e-02
2.056377e-02
2.075987e-02
2.094029e-02
2.110425e-02
2.125108e-02
2.138023e-02
2.149137e-02
2.158431e-02
2.165900e-02
2.171546e-02
2.175379e-02
2.177413e-02
2.177675e-02
2.176197e-02
2.173027e-02
2.168229e-02
2.161882e-02
2.154082e-02
2.144934e-02
2.134556e-02
2.123072e-02
2.110616e-02
2.097328e-02
2.083359e-02
2.068866e-02
2.054014e-02
2.038974e-02
2.023922e-02
2.009036e-02
1.994495e-02
1.980478e-02
1.967165e-02
1.954731e-02
1.943349e-02
1.933182e-02
1.924389e-02
1.917116e-02
1.911501e-02
1.907672e-02
1.905761e-02
1.905917e-02
1.908329e-02
1.908177e-02
1.363731e-02
1.375582e-02
1.380455e-02
1.371864e-02
1.352019e-02
1.328464e-02
1.308361e-02
1.295605e-02
1.290148e-02
1.289165e-02
1.288978e-02
1.286720e-02
1.281155e-02
1.272667e-02
1.262705e-02
1.253065e-02
1.245297e-02
1.240358e-02
1.238544e-02
1.239620e-02
1.243052e-02
1.248225e-02
1.254583e-02
1.261682e-02
1.269217e-02
1.277035e-02
1.285196e-02
1.294006e-02
1.303986e-02
1.315735e-02
1.329723e-02
1.346097e-02
1.364610e-02
1.384697e-02
1.405696e-02
1.427094e-02
1.448691e-02
1.470627e-02
1.493262e-02
1.516979e-02
1.542009e-02
1.568347e-02
1.595772e-02
1.623940e-02
1.652501e-02
1.681195e-02
1.709876e-02
1.738497e-02
1.767041e-02
1.795430e-02
1.823619e-02
1.851509e-02
1.878966e-02
1.905830e-02
1.931943e-02
1.957157e-02
1.981341e-02
2.004377e-02
2.026160e-02
2.046586e-02
2.065560e-02
2.082994e-02
2.098814e-02
2.112964e-02
2.125403e-02
2.136108e-02
2.145065e-02
2.152265e-02
2.157703e-02
2.161380e-02
2.163302e-02
2.163494e-02
2.161991e-02
2.158847e-02
2.154127e-02
2.147914e-02
2.140302e-02
2.131392e-02
2.121297e-02
2.110138e-02
2.098044e-02
2.085153e-02
2.071611e-02
2.057571e-02
2.043192e-02
2.028636e-02
2.014067e-02
1.999653e-02
1.985562e-02
1.971960e-02
1.959016e-02
1.946893e-02
1.935752e-02
1.925749e-02
1.917030e-02
1.909737e-02
1.904003e-02
1.899959e-02
1.897738e-02
1.897485e-02
1.899369e-02
1.899219e-02
1.395142e-02
1.402685e-02
1.394071e-02
1.374786e-02
1.351004e-02
1.329854e-02
1.315601e-02
1.308687e-02
1.306652e-02
1.305939e-02
1.303559e-02
1.298025e-02
1.289452e-02
1.279108e-02
1.268736e-02
1.259947e-02
1.253827e-02
1.250805e-02
1.250740e-02
1.253129e-02
1.257325e-02
1.262697e-02
1.268710e-02
1.274980e-02
1.281334e-02
1.287860e-02
1.294944e-02
1.303200e-02
1.313301e-02
1.325734e-02
1.340611e-02
1.357610e-02
1.376100e-02
1.395387e-02
1.414982e-02
1.434753e-02
1.454921e-02
1.475899e-02
1.498086e-02
1.521690e-02
1.546659e-02
1.572734e-02
1.599559e-02
1.626809e-02
1.654263e-02
1.681824e-02
1.709480e-02
1.737247e-02
1.765101e-02
1.792890e-02
1.820502e-02
1.847795e-02
1.874612e-02
1.900805e-02
1.926235e-02
1.950777e-02
1.974313e-02
1.996728e-02
2.017908e-02
2.037747e-02
2.056149e-02
2.073034e-02
2.088343e-02
2.102034e-02
2.114076e-02
2.124447e-02
2.133126e-02
2.140094e-02
2.145335e-02
2.148842e-02
2.150622e-02
2.150703e-02
2.149129e-02
2.145957e-02
2.141257e-02
2.135108e-02
2.127602e-02
2.118838e-02
2.108924e-02
2.097981e-02
2.086134e-02
2.073519e-02
2.060278e-02
2.046559e-02
2.032511e-02
2.018289e-02
2.004047e-02
1.989944e-02
1.976137e-02
1.962786e-02
1.950048e-02
1.938078e-02
1.927027e-02
1.917040e-02
1.908256e-02
1.900809e-02
1.894825e-02
1.890431e-02
1.887753e-02
1.886924e-02
1.888082e-02
1.887935e-02
1.419185e-02
1.420718e-02
1.400967e-02
1.376516e-02
1.354257e-02
1.338437e-02
1.329734e-02
1.326004e-02
1.323937e-02
1.320638e-02
1.314540e-02
1.305576e-02
1.294805e-02
1.283824e-02
1.274189e-02
1.267021e-02
1.262838e-02
1.261593e-02
1.262846e-02
1.265965e-02
1.270283e-02
1.275203e-02
1.280274e-02
1.285277e-02
1.290317e-02
1.295832e-02
1.302517e-02
1.311103e-02
1.322095e-02
1.335567e-02
1.351123e-02
1.368065e-02
1.385676e-02
1.403501e-02
1.421485e-02
1.439934e-02
1.459320e-02
1.480050e-02
1.502296e-02
1.525951e-02
1.550709e-02
1.576202e-02
1.602127e-02
1.628314e-02
1.654720e-02
1.681375e-02
1.708310e-02
1.735517e-02
1.762905e-02
1.790234e-02
1.817351e-02
1.844105e-02
1.870352e-02
1.895967e-02
1.920830e-02
1.944822e-02
1.967820e-02
1.989702e-02
2.010351e-02
2.029665e-02
2.047562e-02
2.063978e-02
2.078871e-02
2.092202e-02
2.103940e-02
2.114050e-02
2.122498e-02
2.129251e-02
2.134289e-02
2.137608e-02
2.139219e-02
2.139158e-02
2.137478e-02
2.134236e-02
2.129503e-02
2.123356e-02
2.115884e-02
2.107184e-02
2.097364e-02
2.086542e-02
2.074842e-02
2.062395e-02
2.049339e-02
2.035814e-02
2.021961e-02
2.007929e-02
1.993866e-02
1.979922e-02
1.966249e-02
1.952998e-02
1.940318e-02
1.928356e-02
1.917253e-02
1.907144e-02
1.898161e-02
1.890428e-02
1.884066e-02
1.879194e-02
1.875926e-02
1.874379e-02
1.874667e-02
1.874522e-02
1.433665e-02
1.430164e-02
1.404774e-02
1.380965e-02
1.363507e-02
1.353000e-02
1.347385e-02
1.343525e-02
1.338690e-02
1.331394e-02
1.321533e-02
1.310041e-02
1.298361e-02
1.287933e-02
1.279826e-02
1.274571e-02
1.272172e-02
1.272250e-02
1.274209e-02
1.277389e-02
1.281162e-02
1.285035e-02
1.288752e-02
1.292408e-02
1.296484e-02
1.301727e-02
1.308918e-02
1.318570e-02
1.330717e-02
1.344896e-02
1.360348e-02
1.376335e-02
1.392439e-02
1.408683e-02
1.425459e-02
1.443298e-02
1.462615e-02
1.483544e-02
1.505920e-02
1.529389e-02
1.553566e-02
1.578171e-02
1.603083e-02
1.628312e-02
1.653929e-02
1.679988e-02
1.706477e-02
1.733311e-02
1.760343e-02
1.787273e-02
1.813951e-02
1.840242e-02
1.866025e-02
1.891186e-02
1.915601e-02
1.939143e-02
1.961682e-02
1.983095e-02
2.003278e-02
2.022146e-02
2.039637e-02
2.055703e-02
2.070298e-02
2.083379e-02
2.094895e-02
2.104794e-02
2.113031e-02
2.119572e-02
2.124398e-02
2.127515e-02
2.128943e-02
2.128723e-02
2.126913e-02
2.123570e-02
2.118762e-02
2.112565e-02
2.105067e-02
2.096364e-02
2.086563e-02
2.075779e-02
2.064133e-02
2.051752e-02
2.038767e-02
2.025312e-02
2.011526e-02
1.997550e-02
1.983528e-02
1.969606e-02
1.955929e-02
1.942641e-02
1.929884e-02
1.917793e-02
1.906503e-02
1.896140e-02
1.886829e-02
1.878685e-02
1.871824e-02
1.866354e-02
1.862380e-02
1.860002e-02
1.859312e-02
1.859173e-02
1.440686e-02
1.434800e-02
1.409472e-02
1.389992e-02
1.377664e-02
1.370247e-02
1.364552e-02
1.357921e-02
1.348986e-02
1.337726e-02
1.325081e-02
1.312424e-02
1.301091e-02
1.292058e-02
1.285803e-02
1.282319e-02
1.281247e-02
1.282024e-02
1.284011e-02
1.286582e-02
1.289226e-02
1.291672e-02
1.294009e-02
1.296731e-02
1.300633e-02
1.306527e-02
1.314925e-02
1.325820e-02
1.338687e-02
1.352709e-02
1.367134e-02
1.381578e-02
1.396141e-02
1.411295e-02
1.427627e-02
1.445558e-02
1.465188e-02
1.486300e-02
1.508492e-02
1.531366e-02
1.554661e-02
1.578299e-02
1.602341e-02
1.626894e-02
1.652032e-02
1.677743e-02
1.703940e-02
1.730481e-02
1.757205e-02
1.783795e-02
1.810119e-02
1.836061e-02
1.861503e-02
1.886318e-02
1.910372e-02
1.933530e-02
1.955670e-02
1.976687e-02
1.996501e-02
2.015048e-02
2.032275e-02
2.048127e-02
2.062544e-02
2.075458e-02
2.086802e-02
2.096514e-02
2.104547e-02
2.110875e-02
2.115492e-02
2.118411e-02
2.119660e-02
2.119278e-02
2.117327e-02
2.113861e-02
2.108947e-02
2.102659e-02
2.095085e-02
2.086321e-02
2.076472e-02
2.065648e-02
2.053967e-02
2.041552e-02
2.028529e-02
2.015030e-02
2.001191e-02
1.987149e-02
1.973046e-02
1.959021e-02
1.945213e-02
1.931760e-02
1.918795e-02
1.906446e-02
1.894839e-02
1.884097e-02
1.874334e-02
1.865664e-02
1.858191e-02
1.852018e-02
1.847238e-02
1.843937e-02
1.842192e-02
1.842059e-02
1.444620e-02
1.439255e-02
1.417627e-02
1.403148e-02
1.393949e-02
1.386556e-02
1.378167e-02
1.367428e-02
1.354423e-02
1.340200e-02
1.326178e-02
1.313672e-02
1.303589e-02
1.296324e-02
1.291809e-02
1.289650e-02
1.289281e-02
1.290073e-02
1.291417e-02
1.292806e-02
1.293970e-02
1.295005e-02
1.296427e-02
1.299051e-02
1.303718e-02
1.310930e-02
1.320640e-02
1.332257e-02
1.344913e-02
1.357843e-02
1.370696e-02
1.383644e-02
1.397233e-02
1.412098e-02
1.428666e-02
1.447006e-02
1.466852e-02
1.487765e-02
1.509339e-02
1.531330e-02
1.553700e-02
1.576550e-02
1.600019e-02
1.624194e-02
1.649071e-02
1.674559e-02
1.700521e-02
1.726808e-02
1.753285e-02
1.779629e-02
1.805718e-02
1.831426e-02
1.856618e-02
1.881155e-02
1.904901e-02
1.927737e-02
1.949564e-02
1.970307e-02
1.989903e-02
2.008292e-02
2.025405e-02
2.041164e-02
2.055483e-02
2.068277e-02
2.079471e-02
2.089007e-02
2.096850e-02
2.102985e-02
2.107418e-02
2.110165e-02
2.111254e-02
2.110721e-02
2.108627e-02
2.105025e-02
2.099981e-02
2.093571e-02
2.085879e-02
2.077000e-02
2.067037e-02
2.056097e-02
2.044295e-02
2.031752e-02
2.018592e-02
2.004946e-02
1.990948e-02
1.976732e-02
1.962435e-02
1.948191e-02
1.934133e-02
1.920391e-02
1.907092e-02
1.894360e-02
1.882315e-02
1.871074e-02
1.860747e-02
1.851441e-02
1.843256e-02
1.836286e-02
1.830614e-02
1.826317e-02
1.823458e-02
1.823332e-02
1.449699e-02
1.446900e-02
1.429710e-02
1.418413e-02
1.409316e-02
1.399269e-02
1.386743e-02
1.371833e-02
1.355707e-02
1.339920e-02
1.325870e-02
1.314470e-02
1.306061e-02
1.300488e-02
1.297280e-02
1.295819e-02
1.295458e-02
1.295589e-02
1.295717e-02
1.295587e-02
1.295314e-02
1.295444e-02
1.296822e-02
1.300297e-02
1.306371e-02
1.314949e-02
1.325377e-02
1.336734e-02
1.348238e-02
1.359572e-02
1.370973e-02
1.383056e-02
1.396497e-02
1.411727e-02
1.428783e-02
1.447358e-02
1.466985e-02
1.487250e-02
1.507934e-02
1.529034e-02
1.550686e-02
1.573053e-02
1.596232e-02
1.620221e-02
1.644933e-02
1.670237e-02
1.696000e-02
1.722099e-02
1.748423e-02
1.774636e-02
1.800588e-02
1.826133e-02
1.851125e-02
1.875429e-02
1.898935e-02
1.921555e-02
1.943219e-02
1.963865e-02
1.983422e-02
2.001806e-02
2.018921e-02
2.034660e-02
2.048921e-02
2.061616e-02
2.072680e-02
2.082069e-02
2.089763e-02
2.095755e-02
2.100053e-02
2.102670e-02
2.103629e-02
2.102961e-02
2.100727e-02
2.096982e-02
2.091790e-02
2.085227e-02
2.077378e-02
2.068334e-02
2.058195e-02
2.047069e-02
2.035069e-02
2.022315e-02
2.008932e-02
1.995049e-02
1.980796e-02
1.966305e-02
1.951707e-02
1.937132e-02
1.922707e-02
1.908558e-02
1.894807e-02
1.881576e-02
1.868979e-02
1.857130e-02
1.846135e-02
1.836096e-02
1.827106e-02
1.819253e-02
1.812614e-02
1.807259e-02
1.803242e-02
1.803122e-02
1.458359e-02
1.458837e-02
1.444410e-02
1.433257e-02
1.421455e-02
1.407135e-02
1.390244e-02
1.371995e-02
1.354093e-02
1.338094e-02
1.325009e-02
1.315183e-02
1.308401e-02
1.304092e-02
1.301551e-02
1.300072e-02
1.299022e-02
1.297903e-02
1.296475e-02
1.294880e-02
1.293700e-02
1.293821e-02
1.296113e-02
1.301064e-02
1.308546e-02
1.317837e-02
1.327959e-02
1.338108e-02
1.347994e-02
1.357913e-02
1.368545e-02
1.380604e-02
1.394522e-02
1.410306e-02
1.427610e-02
1.445941e-02
1.464888e-02
1.484256e-02
1.504076e-02
1.524516e-02
1.545758e-02
1.567906e-02
1.590958e-02
1.614831e-02
1.639404e-02
1.664560e-02
1.690192e-02
1.716198e-02
1.742465e-02
1.768626e-02
1.794488e-02
1.819900e-02
1.844733e-02
1.868886e-02
1.892284e-02
1.914865e-02
1.936563e-02
1.957298e-02
1.976967e-02
1.995452e-02
2.012628e-02
2.028379e-02
2.042606e-02
2.055236e-02
2.066221e-02
2.075531e-02
2.083149e-02
2.089070e-02
2.093293e-02
2.095827e-02
2.096688e-02
2.095905e-02
2.093536e-02
2.089643e-02
2.084289e-02
2.077549e-02
2.069506e-02
2.060251e-02
2.049883e-02
2.038511e-02
2.026248e-02
2.013213e-02
1.999531e-02
1.985328e-02
1.970732e-02
1.955870e-02
1.940868e-02
1.925854e-02
1.910952e-02
1.896285e-02
1.881974e-02
1.868135e-02
1.854883e-02
1.842325e-02
1.830566e-02
1.819700e-02
1.809819e-02
1.801005e-02
1.793332e-02
1.786864e-02
1.781651e-02
1.781538e-02
1.470754e-02
1.474006e-02
1.459457e-02
1.445483e-02
1.429153e-02
1.410139e-02
1.389577e-02
1.369265e-02
1.350931e-02
1.335743e-02
1.324126e-02
1.315847e-02
1.310259e-02
1.306550e-02
1.303926e-02
1.301698e-02
1.299342e-02
1.296615e-02
1.293679e-02
1.291156e-02
1.289978e-02
1.291055e-02
1.294876e-02
1.301268e-02
1.309457e-02
1.318400e-02
1.327261e-02
1.335765e-02
1.344262e-02
1.353492e-02
1.364206e-02
1.376837e-02
1.391364e-02
1.407402e-02
1.424435e-02
1.442056e-02
1.460094e-02
1.478618e-02
1.497825e-02
1.517914e-02
1.538993e-02
1.561061e-02
1.584035e-02
1.607807e-02
1.632274e-02
1.657348e-02
1.682936e-02
1.708926e-02
1.735181e-02
1.761311e-02
1.787099e-02
1.812423e-02
1.837198e-02
1.861359e-02
1.884852e-02
1.907605e-02
1.929524e-02
1.950487e-02
1.970355e-02
1.988985e-02
2.006251e-02
2.022046e-02
2.036292e-02
2.048933e-02
2.059932e-02
2.069261e-02
2.076897e-02
2.082823e-02
2.087033e-02
2.089527e-02
2.090321e-02
2.089443e-02
2.086950e-02
2.082909e-02
2.077384e-02
2.070448e-02
2.062183e-02
2.052682e-02
2.042045e-02
2.030379e-02
2.017798e-02
2.004422e-02
1.990372e-02
1.975772e-02
1.960746e-02
1.945419e-02
1.929917e-02
1.914365e-02
1.898885e-02
1.883600e-02
1.868628e-02
1.854085e-02
1.840080e-02
1.826720e-02
1.814103e-02
1.802323e-02
1.791468e-02
1.781618e-02
1.772845e-02
1.765212e-02
1.758771e-02
1.758664e-02
1.485234e-02
1.490004e-02
1.472475e-02
1.453654e-02
1.432200e-02
1.409070e-02
1.386068e-02
1.365047e-02
1.347342e-02
1.333505e-02
1.323343e-02
1.316166e-02
1.311073e-02
1.307173e-02
1.303697e-02
1.300071e-02
1.296025e-02
1.291724e-02
1.287815e-02
1.285280e-02
1.285077e-02
1.287720e-02
1.293008e-02
1.300102e-02
1.307902e-02
1.315529e-02
1.322711e-02
1.329838e-02
1.337705e-02
1.347103e-02
1.358469e-02
1.371753e-02
1.386535e-02
1.402275e-02
1.418565e-02
1.435264e-02
1.452472e-02
1.470418e-02
1.489319e-02
1.509287e-02
1.530319e-02
1.552336e-02
1.575239e-02
1.598941e-02
1.623365e-02
1.648429e-02
1.674022e-02
1.700007e-02
1.726240e-02
1.752345e-02
1.778114e-02
1.803475e-02
1.828378e-02
1.852771e-02
1.876574e-02
1.899676e-02
1.921935e-02
1.943191e-02
1.963290e-02
1.982096e-02
1.999498e-02
2.015414e-02
2.029783e-02
2.042555e-02
2.053688e-02
2.063142e-02
2.070885e-02
2.076888e-02
2.081140e-02
2.083639e-02
2.084402e-02
2.083456e-02
2.080857e-02
2.076678e-02
2.070981e-02
2.063840e-02
2.055338e-02
2.045568e-02
2.034630e-02
2.022632e-02
2.009688e-02
1.995914e-02
1.981430e-02
1.966359e-02
1.950823e-02
1.934948e-02
1.918858e-02
1.902678e-02
1.886531e-02
1.870537e-02
1.854814e-02
1.839473e-02
1.824624e-02
1.810367e-02
1.796802e-02
1.784020e-02
1.772109e-02
1.761150e-02
1.751215e-02
1.742369e-02
1.734664e-02
1.734564e-02
1.499258e-02
1.504079e-02
1.481593e-02
1.457187e-02
1.431114e-02
1.405102e-02
1.381060e-02
1.360456e-02
1.343974e-02
1.331495e-02
1.322330e-02
1.315521e-02
1.310094e-02
1.305201e-02
1.300200e-02
1.294772e-02
1.289057e-02
1.283707e-02
1.279744e-02
1.278180e-02
1.279564e-02
1.283697e-02
1.289685e-02
1.296353e-02
1.302782e-02
1.308685e-02
1.314481e-02
1.321016e-02
1.329118e-02
1.339232e-02
1.351285e-02
1.364820e-02
1.379274e-02
1.394237e-02
1.409588e-02
1.425462e-02
1.442119e-02
1.459793e-02
1.478602e-02
1.498544e-02
1.519543e-02
1.541509e-02
1.564366e-02
1.588047e-02
1.612477e-02
1.637548e-02
1.663125e-02
1.689072e-02
1.715276e-02
1.741427e-02
1.767328e-02
1.792939e-02
1.818206e-02
1.843042e-02
1.867313e-02
1.890856e-02
1.913497e-02
1.935071e-02
1.955437e-02
1.974484e-02
1.992127e-02
2.008295e-02
2.022928e-02
2.035966e-02
2.047351e-02
2.057030e-02
2.064958e-02
2.071106e-02
2.075457e-02
2.078014e-02
2.078792e-02
2.077819e-02
2.075143e-02
2.070846e-02
2.064989e-02
2.057646e-02
2.048902e-02
2.038850e-02
2.027589e-02
2.015229e-02
2.001879e-02
1.987656e-02
1.972680e-02
1.957072e-02
1.940956e-02
1.924459e-02
1.907705e-02
1.890819e-02
1.873923e-02
1.857136e-02
1.840573e-02
1.824344e-02
1.808556e-02
1.793311e-02
1.778707e-02
1.764837e-02
1.751790e-02
1.739649e-02
1.728490e-02
1.718380e-02
1.709376e-02
1.709284e-02
1.510301e-02
1.513942e-02
1.485773e-02
1.456258e-02
1.426845e-02
1.399441e-02
1.375586e-02
1.356068e-02
1.340849e-02
1.329265e-02
1.320336e-02
1.313038e-02
1.306458e-02
1.299892e-02
1.292957e-02
1.285743e-02
1.278880e-02
1.273408e-02
1.270387e-02
1.270416e-02
1.273310e-02
1.278148e-02
1.283681e-02
1.288922e-02
1.293570e-02
1.298060e-02
1.303279e-02
1.310094e-02
1.318960e-02
1.329788e-02
1.342084e-02
1.355259e-02
1.368898e-02
1.382897e-02
1.397422e-02
1.412762e-02
1.429168e-02
1.446769e-02
1.465564e-02
1.485482e-02
1.506438e-02
1.528368e-02
1.551211e-02
1.574896e-02
1.599316e-02
1.624341e-02
1.649849e-02
1.675751e-02
1.702004e-02
1.728379e-02
1.754645e-02
1.780744e-02
1.806574e-02
1.831982e-02
1.856784e-02
1.880792e-02
1.903835e-02
1.925773e-02
1.946496e-02
1.965915e-02
1.983952e-02
2.000531e-02
2.015573e-02
2.029001e-02
2.040742e-02
2.050732e-02
2.058926e-02
2.065292e-02
2.069817e-02
2.072500e-02
2.073354e-02
2.072406e-02
2.069695e-02
2.065311e-02
2.059316e-02
2.051787e-02
2.042806e-02
2.032467e-02
2.020869e-02
2.008120e-02
1.994330e-02
1.979617e-02
1.964098e-02
1.947900e-02
1.931146e-02
1.913963e-02
1.896478e-02
1.878814e-02
1.861091e-02
1.843428e-02
1.825937e-02
1.808728e-02
1.791909e-02
1.775584e-02
1.759852e-02
1.744809e-02
1.730546e-02
1.717152e-02
1.704705e-02
1.693278e-02
1.682934e-02
1.682851e-02
1.516499e-02
1.518245e-02
1.484871e-02
1.451597e-02
1.420454e-02
1.393008e-02
1.370104e-02
1.351764e-02
1.337353e-02
1.325890e-02
1.316329e-02
1.307726e-02
1.299331e-02
1.290701e-02
1.281856e-02
1.273381e-02
1.266305e-02
1.261723e-02
1.260288e-02
1.261846e-02
1.265460e-02
1.269826e-02
1.273880e-02
1.277277e-02
1.280465e-02
1.284368e-02
1.289892e-02
1.297506e-02
1.307107e-02
1.318168e-02
1.330069e-02
1.342387e-02
1.355030e-02
1.368192e-02
1.382189e-02
1.397291e-02
1.413634e-02
1.431225e-02
1.449994e-02
1.469866e-02
1.490782e-02
1.512689e-02
1.535514e-02
1.559152e-02
1.583481e-02
1.608394e-02
1.633831e-02
1.659784e-02
1.686273e-02
1.713119e-02
1.739983e-02
1.766746e-02
1.793234e-02
1.819246e-02
1.844583e-02
1.869073e-02
1.892581e-02
1.914997e-02
1.936232e-02
1.956195e-02
1.974795e-02
1.991933e-02
2.007511e-02
2.021436e-02
2.033628e-02
2.044025e-02
2.052579e-02
2.059259e-02
2.064048e-02
2.066940e-02
2.067946e-02
2.067086e-02
2.064397e-02
2.059967e-02
2.053869e-02
2.046176e-02
2.036973e-02
2.026351e-02
2.014411e-02
2.001257e-02
1.987004e-02
1.971768e-02
1.955671e-02
1.938839e-02
1.921399e-02
1.903477e-02
1.885199e-02
1.866686e-02
1.848059e-02
1.829434e-02
1.810926e-02
1.792648e-02
1.774707e-02
1.757211e-02
1.740264e-02
1.723965e-02
1.708409e-02
1.693689e-02
1.679889e-02
1.667087e-02
1.655353e-02
1.655280e-02
1.516963e-02
1.516723e-02
1.479484e-02
1.444186e-02
1.412792e-02
1.386173e-02
1.364375e-02
1.346778e-02
1.332402e-02
1.320198e-02
1.309216e-02
1.298687e-02
1.288122e-02
1.277473e-02
1.267254e-02
1.258460e-02
1.252204e-02
1.249187e-02
1.249299e-02
1.251603e-02
1.254745e-02
1.257591e-02
1.259732e-02
1.261606e-02
1.264177e-02
1.268390e-02
1.274737e-02
1.283100e-02
1.292925e-02
1.303555e-02
1.314553e-02
1.325837e-02
1.337624e-02
1.350253e-02
1.364015e-02
1.379056e-02
1.395385e-02
1.412939e-02
1.431649e-02
1.451462e-02
1.472329e-02
1.494178e-02
1.516903e-02
1.540391e-02
1.564554e-02
1.589362e-02
1.614843e-02
1.641049e-02
1.668010e-02
1.695544e-02
1.723148e-02
1.750632e-02
1.777778e-02
1.804382e-02
1.830277e-02
1.855330e-02
1.879438e-02
1.902506e-02
1.924435e-02
1.945113e-02
1.964422e-02
1.982244e-02
1.998469e-02
2.013000e-02
2.025757e-02
2.036676e-02
2.045708e-02
2.052815e-02
2.057974e-02
2.061172e-02
2.062413e-02
2.061716e-02
2.059117e-02
2.054697e-02
2.048541e-02
2.040722e-02
2.031321e-02
2.020432e-02
2.008153e-02
1.994593e-02
1.979865e-02
1.964089e-02
1.947389e-02
1.929891e-02
1.911723e-02
1.893010e-02
1.873876e-02
1.854444e-02
1.834835e-02
1.815167e-02
1.795557e-02
1.776121e-02
1.756972e-02
1.738221e-02
1.719974e-02
1.702336e-02
1.685408e-02
1.669285e-02
1.654060e-02
1.639819e-02
1.626640e-02
1.626575e-02
1.511794e-02
1.510021e-02
1.470619e-02
1.434895e-02
1.404219e-02
1.378645e-02