# vtk DataFile Version 3.0
Scalar Field
ASCII
DATASET RECTILINEAR_GRID
DIMENSIONS 102 102 1
X_COORDINATES 102 double
0.000000 0.100000 0.200000 0.300000 0.400000 0.500000 0.600000 0.700000 0.800000 0.900000 1.000000 1.100000 1.200000 1.300000 1.400000 1.500000 1.600000 1.700000 1.800000 1.900000 2.000000 2.100000 2.200000 2.300000 2.400000 2.500000 2.600000 2.700000 2.800000 2.900000 3.000000 3.100000 3.200000 3.300000 3.400000 3.500000 3.600000 3.700000 3.800000 3.900000 4.000000 4.100000 4.200000 4.300000 4.400000 4.500000 4.600000 4.700000 4.800000 4.900000 5.000000 5.100000 5.200000 5.300000 5.400000 5.500000 5.600000 5.700000 5.800000 5.900000 6.000000 6.100000 6.200000 6.300000 6.400000 6.500000 6.600000 6.700000 6.800000 6.900000 7.000000 7.100000 7.200000 7.300000 7.400000 7.500000 7.600000 7.700000 7.800000 7.900000 8.000000 8.100000 8.200000 8.300000 8.400000 8.500000 8.600000 8.700000 8.800000 8.900000 9.000000 9.100000 9.200000 9.300000 9.400000 9.500000 9.600000 9.700000 9.800000 9.900000 10.000000 10.100000 
Y_COORDINATES 102 double
0.000000 0.100000 0.200000 0.300000 0.400000 0.500000 0.600000 0.700000 0.800000 0.900000 1.000000 1.100000 1.200000 1.300000 1.400000 1.500000 1.600000 1.700000 1.800000 1.900000 2.000000 2.100000 2.200000 2.300000 2.400000 2.500000 2.600000 2.700000 2.800000 2.900000 3.000000 3.100000 3.200000 3.300000 3.400000 3.500000 3.600000 3.700000 3.800000 3.900000 4.000000 4.100000 4.200000 4.300000 4.400000 4.500000 4.600000 4.700000 4.800000 4.900000 5.000000 5.100000 5.200000 5.300000 5.400000 5.500000 5.600000 5.700000 5.800000 5.900000 6.000000 6.100000 6.200000 6.300000 6.400000 6.500000 6.600000 6.700000 6.800000 6.900000 7.000000 7.100000 7.200000 7.300000 7.400000 7.500000 7.600000 7.700000 7.800000 7.900000 8.000000 8.100000 8.200000 8.300000 8.400000 8.500000 8.600000 8.700000 8.800000 8.900000 9.000000 9.100000 9.200000 9.300000 9.400000 9.500000 9.600000 9.700000 9.800000 9.900000 10.000000 10.100000 
Z_COORDINATES 1 double
0.0
POINT_DATA 10404
SCALARS Pressure double 1
LOOKUP_TABLE default
0.000000e+00
1.624390e-02
1.632916e-02
1.621470e-02
1.597188e-02
1.568060e-02
1.540656e-02
1.518804e-02
1.503496e-02
1.493469e-02
1.486112e-02
1.478494e-02
1.468345e-02
1.454761e-02
1.438415e-02
1.421204e-02
1.405498e-02
1.393286e-02
1.385588e-02
1.382301e-02
1.382491e-02
1.384924e-02
1.388587e-02
1.392994e-02
1.398205e-02
1.404630e-02
1.412745e-02
1.422878e-02
1.435124e-02
1.449403e-02
1.465575e-02
1.483551e-02
1.503327e-02
1.524949e-02
1.548439e-02
1.573728e-02
1.600642e-02
1.628931e-02
1.658344e-02
1.688693e-02
1.719890e-02
1.751934e-02
1.784871e-02
1.818730e-02
1.853475e-02
1.888977e-02
1.925025e-02
1.961354e-02
1.997676e-02
2.033730e-02
2.069295e-02
2.104199e-02
2.138300e-02
2.171470e-02
2.203579e-02
2.234485e-02
2.264034e-02
2.292061e-02
2.318402e-02
2.342899e-02
2.365411e-02
2.385814e-02
2.404005e-02
2.419898e-02
2.433425e-02
2.444532e-02
2.453181e-02
2.459348e-02
2.463024e-02
2.464218e-02
2.462955e-02
2.459278e-02
2.453248e-02
2.444943e-02
2.434458e-02
2.421905e-02
2.407412e-02
2.391120e-02
2.373189e-02
2.353790e-02
2.333112e-02
2.311354e-02
2.288732e-02
2.265472e-02
2.241812e-02
2.218004e-02
2.194308e-02
2.170996e-02
2.148349e-02
2.126658e-02
2.106220e-02
2.087340e-02
2.070325e-02
2.055479e-02
2.043094e-02
2.033433e-02
2.026699e-02
2.022972e-02
2.022100e-02
2.023483e-02
2.025715e-02
0.000000e+00
1.624390e-02
1.640522e-02
1.635797e-02
1.614035e-02
1.584808e-02
1.556101e-02
1.532961e-02
1.517077e-02
1.507351e-02
1.500936e-02
1.494424e-02
1.485003e-02
1.471322e-02
1.453840e-02
1.434542e-02
1.416131e-02
1.401051e-02
1.390726e-02
1.385276e-02
1.383767e-02
1.384793e-02
1.387099e-02
1.389999e-02
1.393463e-02
1.397922e-02
1.403952e-02
1.411992e-02
1.422217e-02
1.434573e-02
1.448911e-02
1.465116e-02
1.483169e-02
1.503123e-02
1.525018e-02
1.548806e-02
1.574315e-02
1.601284e-02
1.629438e-02
1.658572e-02
1.688593e-02
1.719519e-02
1.751429e-02
1.784392e-02
1.818408e-02
1.853373e-02
1.889085e-02
1.925273e-02
1.961645e-02
1.997923e-02
2.033877e-02
2.069328e-02
2.104139e-02
2.138187e-02
2.171350e-02
2.203487e-02
2.234439e-02
2.264036e-02
2.292099e-02
2.318458e-02
2.342956e-02
2.365458e-02
2.385846e-02
2.404021e-02
2.419901e-02
2.433420e-02
2.444524e-02
2.453172e-02
2.459340e-02
2.463017e-02
2.464211e-02
2.462948e-02
2.459271e-02
2.453241e-02
2.444937e-02
2.434452e-02
2.421899e-02
2.407405e-02
2.391112e-02
2.373179e-02
2.353779e-02
2.333098e-02
2.311338e-02
2.288714e-02
2.265452e-02
2.241791e-02
2.217981e-02
2.194284e-02
2.170972e-02
2.148325e-02
2.126633e-02
2.106195e-02
2.087315e-02
2.070299e-02
2.055453e-02
2.043068e-02
2.033407e-02
2.026673e-02
2.022947e-02
2.022075e-02
2.023458e-02
2.025691e-02
2.025715e-02
1.634075e-02
1.636721e-02
1.620242e-02
1.596602e-02
1.574075e-02
1.556484e-02
1.544788e-02
1.537667e-02
1.532436e-02
1.526094e-02
1.516327e-02
1.502235e-02
1.484579e-02
1.465422e-02
1.447336e-02
1.432490e-02
1.422010e-02
1.415816e-02
1.412936e-02
1.412087e-02
1.412238e-02
1.412926e-02
1.414271e-02
1.416744e-02
1.420867e-02
1.426979e-02
1.435172e-02
1.445358e-02
1.457404e-02
1.471244e-02
1.486905e-02
1.504456e-02
1.523924e-02
1.545229e-02
1.568173e-02
1.592496e-02
1.617959e-02
1.644410e-02
1.671814e-02
1.700230e-02
1.729750e-02
1.760431e-02
1.792245e-02
1.825062e-02
1.858671e-02
1.892815e-02
1.927238e-02
1.961710e-02
1.996037e-02
2.030069e-02
2.063684e-02
2.096763e-02
2.129176e-02
2.160777e-02
2.191398e-02
2.220863e-02
2.248996e-02
2.275631e-02
2.300615e-02
2.323815e-02
2.345112e-02
2.364406e-02
2.381607e-02
2.396638e-02
2.409434e-02
2.419942e-02
2.428123e-02
2.433953e-02
2.437425e-02
2.438548e-02
2.437349e-02
2.433873e-02
2.428179e-02
2.420344e-02
2.410459e-02
2.398633e-02
2.384989e-02
2.369663e-02
2.352809e-02
2.334593e-02
2.315194e-02
2.294804e-02
2.273629e-02
2.251884e-02
2.229796e-02
2.207599e-02
2.185541e-02
2.163875e-02
2.142861e-02
2.122767e-02
2.103865e-02
2.086427e-02
2.070723e-02
2.057016e-02
2.045546e-02
2.036517e-02
2.030072e-02
2.026243e-02
2.024898e-02
2.025663e-02
2.027900e-02
2.027924e-02
1.632018e-02
1.623725e-02
1.604429e-02
1.586773e-02
1.574959e-02
1.568597e-02
1.565468e-02
1.562536e-02
1.556916e-02
1.546732e-02
1.531690e-02
1.513131e-02
1.493525e-02
1.475554e-02
1.461204e-02
1.451217e-02
1.445101e-02
1.441609e-02
1.439413e-02
1.437648e-02
1.436137e-02
1.435275e-02
1.435696e-02
1.437942e-02
1.442268e-02
1.448644e-02
1.456896e-02
1.466872e-02
1.478544e-02
1.491995e-02
1.507331e-02
1.524568e-02
1.543585e-02
1.564140e-02
1.585954e-02
1.608816e-02
1.632642e-02
1.657479e-02
1.683452e-02
1.710682e-02
1.739215e-02
1.768980e-02
1.799800e-02
1.831433e-02
1.863619e-02
1.896130e-02
1.928789e-02
1.961466e-02
1.994047e-02
2.026424e-02
2.058489e-02
2.090105e-02
2.121110e-02
2.151323e-02
2.180561e-02
2.208647e-02
2.235417e-02
2.260726e-02
2.284446e-02
2.306464e-02
2.326675e-02
2.344985e-02
2.361309e-02
2.375569e-02
2.387702e-02
2.397655e-02
2.405391e-02
2.410889e-02
2.414145e-02
2.415170e-02
2.413993e-02
2.410659e-02
2.405226e-02
2.397769e-02
2.388377e-02
2.377156e-02
2.364224e-02
2.349715e-02
2.333776e-02
2.316567e-02
2.298261e-02
2.279041e-02
2.259103e-02
2.238652e-02
2.217902e-02
2.197075e-02
2.176402e-02
2.156121e-02
2.136474e-02
2.117707e-02
2.100066e-02
2.083800e-02
2.069148e-02
2.056338e-02
2.045578e-02
2.037041e-02
2.030849e-02
2.027052e-02
2.025608e-02
2.026392e-02
2.029271e-02
2.029295e-02
1.624475e-02
1.610521e-02
1.595814e-02
1.588062e-02
1.586673e-02
1.588190e-02
1.588730e-02
1.585053e-02
1.575372e-02
1.559803e-02
1.540266e-02
1.519787e-02
1.501419e-02
1.487221e-02
1.477722e-02
1.472044e-02
1.468557e-02
1.465705e-02
1.462619e-02
1.459307e-02
1.456426e-02
1.454840e-02
1.455204e-02
1.457767e-02
1.462417e-02
1.468891e-02
1.476990e-02
1.486694e-02
1.498125e-02
1.511418e-02
1.526591e-02
1.543487e-02
1.561819e-02
1.581285e-02
1.601691e-02
1.623010e-02
1.645372e-02
1.668977e-02
1.693986e-02
1.720441e-02
1.748238e-02
1.777150e-02
1.806896e-02
1.837204e-02
1.867867e-02
1.898749e-02
1.929777e-02
1.960899e-02
1.992029e-02
2.023052e-02
2.053827e-02
2.084181e-02
2.113921e-02
2.142854e-02
2.170799e-02
2.197598e-02
2.223110e-02
2.247216e-02
2.269803e-02
2.290769e-02
2.310016e-02
2.327449e-02
2.342984e-02
2.356542e-02
2.368062e-02
2.377494e-02
2.384804e-02
2.389975e-02
2.393005e-02
2.393908e-02
2.392713e-02
2.389464e-02
2.384221e-02
2.377056e-02
2.368057e-02
2.357326e-02
2.344979e-02
2.331145e-02
2.315968e-02
2.299601e-02
2.282210e-02
2.263971e-02
2.245070e-02
2.225702e-02
2.206070e-02
2.186384e-02
2.166862e-02
2.147725e-02
2.129199e-02
2.111512e-02
2.094888e-02
2.079553e-02
2.065724e-02
2.053605e-02
2.043381e-02
2.035213e-02
2.029225e-02
2.025500e-02
2.024085e-02
2.025021e-02
2.028420e-02
2.028443e-02
1.617889e-02
1.603986e-02
1.597731e-02
1.599834e-02
1.605681e-02
1.610249e-02
1.609520e-02
1.601389e-02
1.586076e-02
1.565916e-02
1.544488e-02
1.525352e-02
1.510865e-02
1.501563e-02
1.496330e-02
1.493173e-02
1.490215e-02
1.486428e-02
1.481854e-02
1.477327e-02
1.473927e-02
1.472478e-02
1.473299e-02
1.476267e-02
1.481064e-02
1.487447e-02
1.495376e-02
1.504982e-02
1.516413e-02
1.529680e-02
1.544600e-02
1.560852e-02
1.578116e-02
1.596213e-02
1.615168e-02
1.635182e-02
1.656520e-02
1.679384e-02
1.703822e-02
1.729699e-02
1.756752e-02
1.784663e-02
1.813151e-02
1.842021e-02
1.871175e-02
1.900584e-02
1.930240e-02
1.960114e-02
1.990087e-02
2.019995e-02
2.049656e-02
2.078868e-02
2.107431e-02
2.135163e-02
2.161908e-02
2.187532e-02
2.211918e-02
2.234960e-02
2.256555e-02
2.276599e-02
2.294994e-02
2.311645e-02
2.326466e-02
2.339383e-02
2.350336e-02
2.359280e-02
2.366185e-02
2.371036e-02
2.373833e-02
2.374592e-02
2.373342e-02
2.370128e-02
2.365009e-02
2.358056e-02
2.349357e-02
2.339010e-02
2.327129e-02
2.313840e-02
2.299280e-02
2.283600e-02
2.266957e-02
2.249520e-02
2.231468e-02
2.212987e-02
2.194268e-02
2.175512e-02
2.156922e-02
2.138707e-02
2.121077e-02
2.104243e-02
2.088415e-02
2.073796e-02
2.060586e-02
2.048971e-02
2.039125e-02
2.031201e-02
2.025332e-02
2.021631e-02
2.020206e-02
2.021182e-02
2.024762e-02
2.024784e-02
1.617700e-02
1.608332e-02
1.610655e-02
1.619430e-02
1.627623e-02
1.630205e-02
1.624391e-02
1.610152e-02
1.589968e-02
1.567830e-02
1.547805e-02
1.532668e-02
1.523160e-02
1.518108e-02
1.515278e-02
1.512487e-02
1.508467e-02
1.503164e-02
1.497463e-02
1.492585e-02
1.489511e-02
1.488676e-02
1.490006e-02
1.493188e-02
1.497963e-02
1.504274e-02
1.512240e-02
1.521991e-02
1.533517e-02
1.546603e-02
1.560904e-02
1.576094e-02
1.592018e-02
1.608754e-02
1.626562e-02
1.645761e-02
1.666580e-02
1.689067e-02
1.713068e-02
1.738286e-02
1.764387e-02
1.791084e-02
1.818199e-02
1.845667e-02
1.873495e-02
1.901708e-02
1.930301e-02
1.959204e-02
1.988235e-02
2.017173e-02
2.045813e-02
2.073952e-02
2.101412e-02
2.128039e-02
2.153704e-02
2.178294e-02
2.201704e-02
2.223830e-02
2.244566e-02
2.263806e-02
2.281448e-02
2.297400e-02
2.311577e-02
2.323909e-02
2.334341e-02
2.342831e-02
2.349354e-02
2.353896e-02
2.356458e-02
2.357054e-02
2.355717e-02
2.352492e-02
2.347438e-02
2.340626e-02
2.332141e-02
2.322081e-02
2.310557e-02
2.297690e-02
2.283616e-02
2.268476e-02
2.252425e-02
2.235626e-02
2.218247e-02
2.200468e-02
2.182472e-02
2.164448e-02
2.146588e-02
2.129090e-02
2.112150e-02
2.095963e-02
2.080726e-02
2.066627e-02
2.053849e-02
2.042566e-02
2.032943e-02
2.025129e-02
2.019265e-02
2.015483e-02
2.013918e-02
2.014733e-02
2.018144e-02
2.018166e-02
1.627039e-02
1.624561e-02
1.632551e-02
1.642981e-02
1.648324e-02
1.644938e-02
1.632246e-02
1.612569e-02
1.590087e-02
1.569257e-02
1.553278e-02
1.543196e-02
1.537940e-02
1.535182e-02
1.532524e-02
1.528468e-02
1.522801e-02
1.516355e-02
1.510392e-02
1.505984e-02
1.503669e-02
1.503456e-02
1.505085e-02
1.508322e-02
1.513124e-02
1.519593e-02
1.527831e-02
1.537778e-02
1.549177e-02
1.561655e-02
1.574891e-02
1.588768e-02
1.603418e-02
1.619161e-02
1.636357e-02
1.655248e-02
1.675870e-02
1.698044e-02
1.721452e-02
1.745751e-02
1.770665e-02
1.796044e-02
1.821854e-02
1.848132e-02
1.874930e-02
1.902252e-02
1.930036e-02
1.958150e-02
1.986350e-02
2.014385e-02
2.042058e-02
2.069196e-02
2.095653e-02
2.121304e-02
2.146040e-02
2.169754e-02
2.192339e-02
2.213685e-02
2.233681e-02
2.252219e-02
2.269197e-02
2.284526e-02
2.298126e-02
2.309932e-02
2.319893e-02
2.327969e-02
2.334137e-02
2.338382e-02
2.340708e-02
2.341130e-02
2.339679e-02
2.336404e-02
2.331364e-02
2.324629e-02
2.316282e-02
2.306421e-02
2.295152e-02
2.282596e-02
2.268882e-02
2.254148e-02
2.238544e-02
2.222227e-02
2.205359e-02
2.188112e-02
2.170662e-02
2.153188e-02
2.135873e-02
2.118902e-02
2.102461e-02
2.086732e-02
2.071898e-02
2.058136e-02
2.045615e-02
2.034501e-02
2.024949e-02
2.017105e-02
2.011112e-02
2.007111e-02
2.005246e-02
2.005684e-02
2.008624e-02
2.008645e-02
1.646310e-02
1.650744e-02
1.659669e-02
1.666380e-02
1.664724e-02
1.653427e-02
1.634415e-02
1.611814e-02
1.590298e-02
1.573402e-02
1.562479e-02
1.556639e-02
1.553573e-02
1.550780e-02
1.546602e-02
1.540679e-02
1.533741e-02
1.527014e-02
1.521583e-02
1.518031e-02
1.516434e-02
1.516604e-02
1.518372e-02
1.521732e-02
1.526802e-02
1.533650e-02
1.542161e-02
1.552015e-02
1.562802e-02
1.574205e-02
1.586151e-02
1.598837e-02
1.612644e-02
1.627967e-02
1.645050e-02
1.663904e-02
1.684316e-02
1.705949e-02
1.728458e-02
1.751592e-02
1.775238e-02
1.799401e-02
1.824151e-02
1.849551e-02
1.875613e-02
1.902270e-02
1.929387e-02
1.956783e-02
1.984194e-02
2.011368e-02
2.038145e-02
2.064390e-02
2.089984e-02
2.114820e-02
2.138789e-02
2.161780e-02
2.183676e-02
2.204361e-02
2.223721e-02
2.241649e-02
2.258048e-02
2.272831e-02
2.285925e-02
2.297269e-02
2.306811e-02
2.314515e-02
2.320357e-02
2.324324e-02
2.326419e-02
2.326659e-02
2.325074e-02
2.321718e-02
2.316648e-02
2.309933e-02
2.301657e-02
2.291915e-02
2.280810e-02
2.268460e-02
2.254992e-02
2.240540e-02
2.225249e-02
2.209271e-02
2.192765e-02
2.175894e-02
2.158826e-02
2.141734e-02
2.124791e-02
2.108173e-02
2.092054e-02
2.076607e-02
2.062003e-02
2.048406e-02
2.035979e-02
2.024875e-02
2.015244e-02
2.007228e-02
2.000966e-02
1.996597e-02
1.994267e-02
1.994129e-02
1.996356e-02
1.996376e-02
1.673464e-02
1.682854e-02
1.687589e-02
1.686274e-02
1.675552e-02
1.656822e-02
1.633975e-02
1.611722e-02
1.593811e-02
1.581839e-02
1.575093e-02
1.571330e-02
1.568020e-02
1.563427e-02
1.557096e-02
1.549679e-02
1.542334e-02
1.536102e-02
1.531549e-02
1.528763e-02
1.527610e-02
1.527991e-02
1.529972e-02
1.533698e-02
1.539234e-02
1.546411e-02
1.554840e-02
1.564061e-02
1.573753e-02
1.583883e-02
1.594718e-02
1.606705e-02
1.620271e-02
1.635657e-02
1.652839e-02
1.671565e-02
1.691470e-02
1.712213e-02
1.733576e-02
1.755490e-02
1.778009e-02
1.801234e-02
1.825244e-02
1.850046e-02
1.875565e-02
1.901657e-02
1.928142e-02
1.954835e-02
1.981489e-02
2.007876e-02
2.033874e-02
2.059375e-02
2.084273e-02
2.108458e-02
2.131812e-02
2.154213e-02
2.175537e-02
2.195666e-02
2.214487e-02
2.231897e-02
2.247803e-02
2.262124e-02
2.274788e-02
2.285734e-02
2.294915e-02
2.302292e-02
2.307841e-02
2.311552e-02
2.313428e-02
2.313485e-02
2.311755e-02
2.308293e-02
2.303156e-02
2.296415e-02
2.288149e-02
2.278453e-02
2.267429e-02
2.255192e-02
2.241865e-02
2.227582e-02
2.212482e-02
2.196714e-02
2.180431e-02
2.163791e-02
2.146956e-02
2.130091e-02
2.113361e-02
2.096934e-02
2.080973e-02
2.065644e-02
2.051106e-02
2.037515e-02
2.025025e-02
2.013781e-02
2.003926e-02
1.995595e-02
1.988923e-02
1.984042e-02
1.981090e-02
1.980206e-02
1.981532e-02
1.981552e-02
1.704760e-02
1.715932e-02
1.712343e-02
1.700849e-02
1.681505e-02
1.657855e-02
1.634520e-02
1.615339e-02
1.602071e-02
1.594129e-02
1.589320e-02
1.585103e-02
1.579707e-02
1.572645e-02
1.564536e-02
1.556501e-02
1.549526e-02
1.544111e-02
1.540308e-02
1.537981e-02
1.537082e-02
1.537745e-02
1.540174e-02
1.544437e-02
1.550339e-02
1.557427e-02
1.565185e-02
1.573278e-02
1.581705e-02
1.590798e-02
1.601067e-02
1.612977e-02
1.626761e-02
1.642359e-02
1.659472e-02
1.677705e-02
1.696720e-02
1.716331e-02
1.736523e-02
1.757399e-02
1.779097e-02
1.801710e-02
1.825241e-02
1.849600e-02
1.874633e-02
1.900159e-02
1.926002e-02
1.952015e-02
1.977990e-02
2.003715e-02
2.029093e-02
2.054021e-02
2.078387e-02
2.102069e-02
2.124938e-02
2.146864e-02
2.167722e-02
2.187395e-02
2.205774e-02
2.222761e-02
2.238267e-02
2.252212e-02
2.264524e-02
2.275144e-02
2.284022e-02
2.291121e-02
2.296418e-02
2.299901e-02
2.301575e-02
2.301456e-02
2.299576e-02
2.295990e-02
2.290759e-02
2.283950e-02
2.275643e-02
2.265930e-02
2.254913e-02
2.242705e-02
2.229427e-02
2.215210e-02
2.200191e-02
2.184515e-02
2.168329e-02
2.151788e-02
2.135047e-02
2.118265e-02
2.101601e-02
2.085213e-02
2.069259e-02
2.053893e-02
2.039270e-02
2.025535e-02
2.012834e-02
2.001306e-02
1.991086e-02
1.982303e-02
1.975085e-02
1.969556e-02
1.965843e-02
1.964067e-02
1.964349e-02
1.964368e-02
1.735796e-02
1.745375e-02
1.731374e-02
1.710158e-02
1.684791e-02
1.659721e-02
1.638800e-02
1.623875e-02
1.614424e-02
1.608256e-02
1.602787e-02
1.596206e-02
1.588019e-02
1.578868e-02
1.569888e-02
1.562037e-02
1.555755e-02
1.551013e-02
1.547630e-02
1.545557e-02
1.544976e-02
1.546146e-02
1.549166e-02
1.553817e-02
1.559609e-02
1.565975e-02
1.572559e-02
1.579383e-02
1.586835e-02
1.595482e-02
1.605822e-02
1.618086e-02
1.632173e-02
1.647737e-02
1.664354e-02
1.681684e-02
1.699576e-02
1.718064e-02
1.737305e-02
1.757473e-02
1.778675e-02
1.800911e-02
1.824079e-02
1.848011e-02
1.872525e-02
1.897455e-02
1.922674e-02
1.948085e-02
1.973514e-02
1.998741e-02
2.023669e-02
2.048186e-02
2.072163e-02
2.095467e-02
2.117962e-02
2.139518e-02
2.160012e-02
2.179332e-02
2.197374e-02
2.214040e-02
2.229243e-02
2.242902e-02
2.254944e-02
2.265310e-02
2.273949e-02
2.280825e-02
2.285914e-02
2.289205e-02
2.290701e-02
2.290421e-02
2.288394e-02
2.284675e-02
2.279328e-02
2.272419e-02
2.264027e-02
2.254244e-02
2.243171e-02
2.230920e-02
2.217609e-02
2.203368e-02
2.188331e-02
2.172638e-02
2.156435e-02
2.139872e-02
2.123097e-02
2.106266e-02
2.089529e-02
2.073040e-02
2.056950e-02
2.041405e-02
2.026552e-02
2.012532e-02
1.999481e-02
1.987532e-02
1.976813e-02
1.967448e-02
1.959555e-02
1.953253e-02
1.948654e-02
1.945867e-02
1.944993e-02
1.945011e-02
1.762646e-02
1.768048e-02
1.744054e-02
1.715842e-02
1.688162e-02
1.664836e-02
1.647756e-02
1.636422e-02
1.628593e-02
1.621583e-02
1.613498e-02
1.603823e-02
1.593245e-02
1.582960e-02
1.573960e-02
1.566650e-02
1.560924e-02
1.556519e-02
1.553344e-02
1.551585e-02
1.551539e-02
1.553336e-02
1.556755e-02
1.561267e-02
1.566280e-02
1.571417e-02
1.576717e-02
1.582611e-02
1.589720e-02
1.598568e-02
1.609378e-02
1.622015e-02
1.636086e-02
1.651136e-02
1.666826e-02
1.683034e-02
1.699847e-02
1.717468e-02
1.736106e-02
1.755883e-02
1.776796e-02
1.798730e-02
1.821509e-02
1.844951e-02
1.868902e-02
1.893251e-02
1.917926e-02
1.942868e-02
1.967919e-02
1.992818e-02
2.017451e-02
2.041690e-02
2.065396e-02
2.088428e-02
2.110653e-02
2.131945e-02
2.152184e-02
2.171263e-02
2.189076e-02
2.205528e-02
2.220527e-02
2.233993e-02
2.245851e-02
2.256040e-02
2.264510e-02
2.271224e-02
2.276157e-02
2.279298e-02
2.280650e-02
2.280230e-02
2.278065e-02
2.274212e-02
2.268736e-02
2.261704e-02
2.253195e-02
2.243300e-02
2.232118e-02
2.219761e-02
2.206346e-02
2.192001e-02
2.176856e-02
2.161051e-02
2.144727e-02
2.128029e-02
2.111104e-02
2.094100e-02
2.077164e-02
2.060443e-02
2.044083e-02
2.028225e-02
2.013009e-02
1.998568e-02
1.985035e-02
1.972536e-02
1.961192e-02
1.951120e-02
1.942435e-02
1.935243e-02
1.929649e-02
1.925751e-02
1.923634e-02
1.923651e-02
1.782803e-02
1.782954e-02
1.751586e-02
1.720321e-02
1.693799e-02
1.673956e-02
1.660297e-02
1.650491e-02
1.641698e-02
1.631870e-02
1.620426e-02
1.608083e-02
1.596130e-02
1.585639e-02
1.577033e-02
1.570159e-02
1.564666e-02
1.560393e-02
1.557491e-02
1.556263e-02
1.556858e-02
1.559056e-02
1.562308e-02
1.565984e-02
1.569707e-02
1.573533e-02
1.577934e-02
1.583571e-02
1.590992e-02
1.600408e-02
1.611645e-02
1.624268e-02
1.637792e-02
1.651882e-02
1.666444e-02
1.681611e-02
1.697632e-02
1.714746e-02
1.733086e-02
1.752646e-02
1.773301e-02
1.794870e-02
1.817173e-02
1.840070e-02
1.863470e-02
1.887324e-02
1.911591e-02
1.936224e-02
1.961060e-02
1.985776e-02
2.010239e-02
2.034309e-02
2.057844e-02
2.080708e-02
2.102770e-02
2.123910e-02
2.144012e-02
2.162964e-02
2.180663e-02
2.197009e-02
2.211908e-02
2.225277e-02
2.237041e-02
2.247137e-02
2.255514e-02
2.262134e-02
2.266971e-02
2.270013e-02
2.271261e-02
2.270729e-02
2.268447e-02
2.264467e-02
2.258860e-02
2.251692e-02
2.243043e-02
2.233003e-02
2.221671e-02
2.209157e-02
2.195578e-02
2.181058e-02
2.165728e-02
2.149723e-02
2.133183e-02
2.116250e-02
2.099066e-02
2.081775e-02
2.064522e-02
2.047448e-02
2.030694e-02
2.014397e-02
1.998691e-02
1.983704e-02
1.969564e-02
1.956391e-02
1.944302e-02
1.933409e-02
1.923818e-02
1.915632e-02
1.908947e-02
1.903850e-02
1.900419e-02
1.900436e-02
1.795697e-02
1.791228e-02
1.756324e-02
1.725777e-02
1.702489e-02
1.685993e-02
1.673865e-02
1.663061e-02
1.651318e-02
1.637918e-02
1.623568e-02
1.609643e-02
1.597331e-02
1.587125e-02
1.578862e-02
1.572127e-02
1.566678e-02
1.562612e-02
1.560211e-02
1.559619e-02
1.560610e-02
1.562615e-02
1.564977e-02
1.567306e-02
1.569688e-02
1.572634e-02
1.576845e-02
1.582887e-02
1.590956e-02
1.600837e-02
1.612052e-02
1.624088e-02
1.636611e-02
1.649560e-02
1.663110e-02
1.677551e-02
1.693150e-02
1.710046e-02
1.728225e-02
1.747556e-02
1.767855e-02
1.788948e-02
1.810711e-02
1.833078e-02
1.856018e-02
1.879513e-02
1.903526e-02
1.927995e-02
1.952748e-02
1.977391e-02
2.001782e-02
2.025779e-02
2.049245e-02
2.072049e-02
2.094066e-02
2.115175e-02
2.135259e-02
2.154206e-02
2.171905e-02
2.188256e-02
2.203161e-02
2.216534e-02
2.228301e-02
2.238394e-02
2.246763e-02
2.253366e-02
2.258175e-02
2.261175e-02
2.262368e-02
2.261765e-02
2.259394e-02
2.255304e-02
2.249574e-02
2.242269e-02
2.233469e-02
2.223262e-02
2.211749e-02
2.199037e-02
2.185242e-02
2.170489e-02
2.154905e-02
2.138624e-02
2.121783e-02
2.104521e-02
2.086980e-02
2.069299e-02
2.051620e-02
2.034080e-02
2.016817e-02
1.999963e-02
1.983647e-02
1.967996e-02
1.953130e-02
1.939168e-02
1.926220e-02
1.914394e-02
1.903794e-02
1.894516e-02
1.886651e-02
1.880281e-02
1.875476e-02
1.875493e-02
1.802585e-02
1.795472e-02
1.760760e-02
1.733313e-02
1.713402e-02
1.698542e-02
1.685474e-02
1.671664e-02
1.656184e-02
1.639670e-02
1.623558e-02
1.609159e-02
1.597066e-02
1.587152e-02
1.578966e-02
1.572197e-02
1.566884e-02
1.563272e-02
1.561485e-02
1.561279e-02
1.562054e-02
1.563127e-02
1.564091e-02
1.565045e-02
1.566556e-02
1.569366e-02
1.574059e-02
1.580815e-02
1.589378e-02
1.599221e-02
1.609803e-02
1.620791e-02
1.632154e-02
1.644111e-02
1.656992e-02
1.671083e-02
1.686528e-02
1.703304e-02
1.721270e-02
1.740241e-02
1.760052e-02
1.780600e-02
1.801842e-02
1.823772e-02
1.846388e-02
1.869669e-02
1.893558e-02
1.917969e-02
1.942735e-02
1.967392e-02
1.991800e-02
2.015822e-02
2.039327e-02
2.062189e-02
2.084283e-02
2.105485e-02
2.125676e-02
2.144737e-02
2.162555e-02
2.179025e-02
2.194048e-02
2.207535e-02
2.219408e-02
2.229598e-02
2.238050e-02
2.244720e-02
2.249578e-02
2.252605e-02
2.253801e-02
2.253176e-02
2.250757e-02
2.246587e-02
2.240753e-02
2.233320e-02
2.224368e-02
2.213985e-02
2.202270e-02
2.189330e-02
2.175280e-02
2.160243e-02
2.144345e-02
2.127721e-02
2.110504e-02
2.092832e-02
2.074844e-02
2.056679e-02
2.038473e-02
2.020363e-02
2.002483e-02
1.984961e-02
1.967924e-02
1.951495e-02
1.935792e-02
1.920929e-02
1.907014e-02
1.894152e-02
1.882444e-02
1.871983e-02
1.862856e-02
1.855142e-02
1.848911e-02
1.848927e-02
1.805879e-02
1.798659e-02
1.766578e-02
1.742609e-02
1.724512e-02
1.708842e-02
1.692765e-02
1.675079e-02
1.656282e-02
1.637828e-02
1.621136e-02
1.606920e-02
1.595110e-02
1.585246e-02
1.576971e-02
1.570270e-02
1.565355e-02
1.562325e-02
1.560910e-02
1.560470e-02
1.560280e-02
1.559911e-02
1.559469e-02
1.559555e-02
1.560971e-02
1.564326e-02
1.569789e-02
1.577061e-02
1.585564e-02
1.594726e-02
1.604210e-02
1.614014e-02
1.624399e-02
1.635733e-02
1.648321e-02
1.662308e-02
1.677661e-02
1.694225e-02
1.711814e-02
1.730275e-02
1.749527e-02
1.769553e-02
1.790371e-02
1.811998e-02
1.834424e-02
1.857603e-02
1.881454e-02
1.905876e-02
1.930726e-02
1.955477e-02
1.979994e-02
2.004148e-02
2.027810e-02
2.050854e-02
2.073150e-02
2.094571e-02
2.114991e-02
2.134289e-02
2.152348e-02
2.169058e-02
2.184317e-02
2.198034e-02
2.210126e-02
2.220520e-02
2.229157e-02
2.235988e-02
2.240980e-02
2.244113e-02
2.245382e-02
2.244796e-02
2.242381e-02
2.238176e-02
2.232268e-02
2.224729e-02
2.215636e-02
2.205077e-02
2.193150e-02
2.179962e-02
2.165628e-02
2.150268e-02
2.134009e-02
2.116984e-02
2.099326e-02
2.081171e-02
2.062657e-02
2.043920e-02
2.025097e-02
2.006321e-02
1.987722e-02
1.969429e-02
1.951566e-02
1.934252e-02
1.917604e-02
1.901734e-02
1.886749e-02
1.872751e-02
1.859840e-02
1.848108e-02
1.837641e-02
1.828519e-02
1.820808e-02
1.820824e-02
1.808148e-02
1.803033e-02
1.774106e-02
1.752154e-02
1.733409e-02
1.714744e-02
1.694644e-02
1.673407e-02
1.652452e-02
1.633285e-02
1.616735e-02
1.602805e-02
1.591043e-02
1.581054e-02
1.572785e-02
1.566421e-02
1.562050e-02
1.559375e-02
1.557710e-02
1.556276e-02
1.554606e-02
1.552799e-02
1.551481e-02
1.551503e-02
1.553518e-02
1.557692e-02
1.563688e-02
1.570880e-02
1.578653e-02
1.586665e-02
1.594937e-02
1.603769e-02
1.613566e-02
1.624653e-02
1.637174e-02
1.651083e-02
1.666212e-02
1.682371e-02
1.699419e-02
1.717298e-02
1.736017e-02
1.755619e-02
1.776141e-02
1.797586e-02
1.819916e-02
1.843059e-02
1.866922e-02
1.891403e-02
1.916393e-02
1.941328e-02
1.966060e-02
1.990460e-02
2.014400e-02
2.037748e-02
2.060371e-02
2.082135e-02
2.102911e-02
2.122571e-02
2.140998e-02
2.158075e-02
2.173698e-02
2.187769e-02
2.200200e-02
2.210914e-02
2.219846e-02
2.226944e-02
2.232169e-02
2.235498e-02
2.236923e-02
2.236451e-02
2.234105e-02
2.229922e-02
2.223984e-02
2.216371e-02
2.207161e-02
2.196439e-02
2.184303e-02
2.170859e-02
2.156221e-02
2.140511e-02
2.123854e-02
2.106382e-02
2.088227e-02
2.069527e-02
2.050416e-02
2.031031e-02
2.011506e-02
1.991974e-02
1.972565e-02
1.953403e-02
1.934613e-02
1.916313e-02
1.898617e-02
1.881638e-02
1.865482e-02
1.850252e-02
1.836046e-02
1.822958e-02
1.811075e-02
1.800479e-02
1.791238e-02
1.791253e-02
1.811176e-02
1.809379e-02
1.782326e-02
1.759883e-02
1.738146e-02
1.715277e-02
1.691328e-02
1.667636e-02
1.645763e-02
1.626648e-02
1.610370e-02
1.596484e-02
1.584562e-02
1.574514e-02
1.566512e-02
1.560644e-02
1.556604e-02
1.553664e-02
1.550981e-02
1.548026e-02
1.544877e-02
1.542179e-02
1.540812e-02
1.541475e-02
1.544351e-02
1.549078e-02
1.554975e-02
1.561388e-02
1.567960e-02
1.574727e-02
1.582025e-02
1.590294e-02
1.599880e-02
1.610925e-02
1.623369e-02
1.637031e-02
1.651717e-02
1.667295e-02
1.683729e-02
1.701054e-02
1.719339e-02
1.738640e-02
1.758973e-02
1.780310e-02
1.802587e-02
1.825723e-02
1.849630e-02
1.874218e-02
1.899402e-02
1.924622e-02
1.949678e-02
1.974441e-02
1.998778e-02
2.022551e-02
2.045623e-02
2.067855e-02
2.089114e-02
2.109270e-02
2.128197e-02
2.145777e-02
2.161898e-02
2.176456e-02
2.189356e-02
2.200516e-02
2.209865e-02
2.217345e-02
2.222914e-02
2.226544e-02
2.228223e-02
2.227955e-02
2.225758e-02
2.221667e-02
2.215756e-02
2.208117e-02
2.198825e-02
2.187966e-02
2.175636e-02
2.161941e-02
2.146994e-02
2.130917e-02
2.113836e-02
2.095881e-02
2.077186e-02
2.057887e-02
2.038118e-02
2.018016e-02
1.997715e-02
1.977345e-02
1.957037e-02
1.936916e-02
1.917104e-02
1.897719e-02
1.878878e-02
1.860691e-02
1.843267e-02
1.826709e-02
1.811119e-02
1.796590e-02
1.783215e-02
1.771078e-02
1.760251e-02
1.760266e-02
1.815405e-02
1.816902e-02
1.789364e-02
1.763917e-02
1.737757e-02
1.710669e-02
1.683872e-02
1.658959e-02
1.636971e-02
1.618061e-02
1.601793e-02
1.587693e-02
1.575628e-02
1.565758e-02
1.558188e-02
1.552618e-02
1.548296e-02
1.544312e-02
1.540062e-02
1.535577e-02
1.531500e-02
1.528750e-02
1.528051e-02
1.529613e-02
1.533062e-02
1.537674e-02
1.542749e-02
1.547909e-02
1.553196e-02
1.558979e-02
1.565729e-02
1.573812e-02
1.583370e-02
1.594330e-02
1.606497e-02
1.619669e-02
1.633725e-02
1.648647e-02
1.664497e-02
1.681368e-02
1.699333e-02
1.718424e-02
1.738620e-02
1.759869e-02
1.782101e-02
1.805243e-02
1.829223e-02
1.853973e-02
1.879418e-02
1.905024e-02
1.930512e-02
1.955748e-02
1.980595e-02
2.004911e-02
2.028553e-02
2.051381e-02
2.073256e-02
2.094044e-02
2.113613e-02
2.131837e-02
2.148598e-02
2.163784e-02
2.177294e-02
2.189037e-02
2.198938e-02
2.206931e-02
2.212969e-02
2.217020e-02
2.219065e-02
2.219104e-02
2.217152e-02
2.213240e-02
2.207428e-02
2.199825e-02
2.190503e-02
2.179547e-02
2.167052e-02
2.153123e-02
2.137875e-02
2.121428e-02
2.103909e-02
2.085448e-02
2.066180e-02
2.046238e-02
2.025760e-02
2.004881e-02
1.983735e-02
1.962453e-02
1.941165e-02
1.919997e-02
1.899073e-02
1.878512e-02
1.858429e-02
1.838940e-02
1.820152e-02
1.802174e-02
1.785108e-02
1.769055e-02
1.754109e-02
1.740359e-02
1.727887e-02
1.727901e-02
1.819919e-02
1.823670e-02
1.793201e-02
1.763101e-02
1.732308e-02
1.701898e-02
1.673482e-02
1.648200e-02
1.626285e-02
1.607308e-02
1.590741e-02
1.576385e-02
1.564381e-02
1.554855e-02
1.547536e-02
1.541663e-02
1.536269e-02
1.530667e-02
1.524817e-02
1.519342e-02
1.515185e-02
1.513113e-02
1.513340e-02
1.515495e-02
1.518822e-02
1.522573e-02
1.526341e-02
1.530171e-02
1.534454e-02
1.539693e-02
1.546271e-02
1.554331e-02
1.563788e-02
1.574433e-02
1.586056e-02
1.598542e-02
1.611892e-02
1.626191e-02
1.641555e-02
1.658075e-02
1.675794e-02
1.694704e-02
1.714762e-02
1.735911e-02
1.758093e-02
1.781255e-02
1.805348e-02
1.830314e-02
1.856089e-02
1.882175e-02
1.908193e-02
1.934006e-02
1.959471e-02
1.984444e-02
2.008780e-02
2.032334e-02
2.054963e-02
2.076526e-02
2.096882e-02
2.115900e-02
2.133450e-02
2.149415e-02
2.163685e-02
2.176162e-02
2.186762e-02
2.195415e-02
2.202064e-02
2.206671e-02
2.209211e-02
2.209679e-02
2.208084e-02
2.204454e-02
2.198833e-02
2.191344e-02
2.182058e-02
2.171060e-02
2.158444e-02
2.144316e-02
2.128789e-02
2.111983e-02
2.094025e-02
2.075047e-02
2.055182e-02
2.034566e-02
2.013336e-02
1.991628e-02
1.969576e-02
1.947314e-02
1.924972e-02
1.902678e-02
1.880556e-02
1.858728e-02
1.837312e-02
1.816426e-02
1.796181e-02
1.776689e-02
1.758058e-02
1.740392e-02
1.723793e-02
1.708357e-02
1.694172e-02
1.694186e-02
1.822901e-02
1.827383e-02
1.792306e-02
1.757164e-02
1.722540e-02
1.690051e-02