# vtk DataFile Version 3.0
Scalar Field
ASCII
DATASET RECTILINEAR_GRID
DIMENSIONS 102 102 1
X_COORDINATES 102 double
0.000000 0.100000 0.200000 0.300000 0.400000 0.500000 0.600000 0.700000 0.800000 0.900000 1.000000 1.100000 1.200000 1.300000 1.400000 1.500000 1.600000 1.700000 1.800000 1.900000 2.000000 2.100000 2.200000 2.300000 2.400000 2.500000 2.600000 2.700000 2.800000 2.900000 3.000000 3.100000 3.200000 3.300000 3.400000 3.500000 3.600000 3.700000 3.800000 3.900000 4.000000 4.100000 4.200000 4.300000 4.400000 4.500000 4.600000 4.700000 4.800000 4.900000 5.000000 5.100000 5.200000 5.300000 5.400000 5.500000 5.600000 5.700000 5.800000 5.900000 6.000000 6.100000 6.200000 6.300000 6.400000 6.500000 6.600000 6.700000 6.800000 6.900000 7.000000 7.100000 7.200000 7.300000 7.400000 7.500000 7.600000 7.700000 7.800000 7.900000 8.000000 8.100000 8.200000 8.300000 8.400000 8.500000 8.600000 8.700000 8.800000 8.900000 9.000000 9.100000 9.200000 9.300000 9.400000 9.500000 9.600000 9.700000 9.800000 9.900000 10.000000 10.100000 
Y_COORDINATES 102 double
0.000000 0.100000 0.200000 0.300000 0.400000 0.500000 0.600000 0.700000 0.800000 0.900000 1.000000 1.100000 1.200000 1.300000 1.400000 1.500000 1.600000 1.700000 1.800000 1.900000 2.000000 2.100000 2.200000 2.300000 2.400000 2.500000 2.600000 2.700000 2.800000 2.900000 3.000000 3.100000 3.200000 3.300000 3.400000 3.500000 3.600000 3.700000 3.800000 3.900000 4.000000 4.100000 4.200000 4.300000 4.400000 4.500000 4.600000 4.700000 4.800000 4.900000 5.000000 5.100000 5.200000 5.300000 5.400000 5.500000 5.600000 5.700000 5.800000 5.900000 6.000000 6.100000 6.200000 6.300000 6.400000 6.500000 6.600000 6.700000 6.800000 6.900000 7.000000 7.100000 7.200000 7.300000 7.400000 7.500000 7.600000 7.700000 7.800000 7.900000 8.000000 8.100000 8.200000 8.300000 8.400000 8.500000 8.600000 8.700000 8.800000 8.900000 9.000000 9.100000 9.200000 9.300000 9.400000 9.500000 9.600000 9.700000 9.800000 9.900000 10.000000 10.100000 
Z_COORDINATES 1 double
0.0
POINT_DATA 10404
SCALARS Pressure double 1
LOOKUP_TABLE default
0.000000e+00
-7.278726e-03
-7.240216e-03
-7.318698e-03
-7.483687e-03
-7.692336e-03
-7.898508e-03
-8.063118e-03
-8.161312e-03
-8.185773e-03
-8.146120e-03
-8.064832e-03
-7.970610e-03
-7.890524e-03
-7.842802e-03
-7.832134e-03
-7.848874e-03
-7.872411e-03
-7.877641e-03
-7.842443e-03
-7.753772e-03
-7.610535e-03
-7.422634e-03
-7.206847e-03
-6.981225e-03
-6.759944e-03
-6.550116e-03
-6.351215e-03
-6.156804e-03
-5.957614e-03
-5.744743e-03
-5.512035e-03
-5.257108e-03
-4.981089e-03
-4.687456e-03
-4.380573e-03
-4.064422e-03
-3.741827e-03
-3.414241e-03
-3.081972e-03
-2.744643e-03
-2.401691e-03
-2.052742e-03
-1.697812e-03
-1.337321e-03
-9.719828e-04
-6.026232e-04
-2.299974e-04
1.453399e-04
5.230859e-04
9.031531e-04
1.285560e-03
1.670280e-03
2.057085e-03
2.445461e-03
2.834564e-03
3.223260e-03
3.610223e-03
3.994082e-03
4.373555e-03
4.747554e-03
5.115239e-03
5.476008e-03
5.829440e-03
6.175227e-03
6.513094e-03
6.842753e-03
7.163868e-03
7.476059e-03
7.778904e-03
8.071959e-03
8.354759e-03
8.626813e-03
8.887600e-03
9.136547e-03
9.373031e-03
9.596376e-03
9.805869e-03
1.000078e-02
1.018040e-02
1.034405e-02
1.049114e-02
1.062115e-02
1.073370e-02
1.082848e-02
1.090533e-02
1.096419e-02
1.100514e-02
1.102838e-02
1.103429e-02
1.102349e-02
1.099686e-02
1.095564e-02
1.090162e-02
1.083720e-02
1.076564e-02
1.069131e-02
1.061995e-02
1.055888e-02
1.051673e-02
1.050156e-02
0.000000e+00
-7.278726e-03
-7.189297e-03
-7.216841e-03
-7.355807e-03
-7.561776e-03
-7.784445e-03
-7.977572e-03
-8.108378e-03
-8.162627e-03
-8.145216e-03
-8.076700e-03
-7.986664e-03
-7.905369e-03
-7.855580e-03
-7.846609e-03
-7.872231e-03
-7.913108e-03
-7.942939e-03
-7.936386e-03
-7.876219e-03
-7.757499e-03
-7.587732e-03
-7.383306e-03
-7.163769e-03
-6.945978e-03
-6.739945e-03
-6.547380e-03
-6.362882e-03
-6.176945e-03
-5.979479e-03
-5.762726e-03
-5.522833e-03
-5.259953e-03
-4.977234e-03
-4.679267e-03
-4.370599e-03
-4.054704e-03
-3.733571e-03
-3.407822e-03
-3.077165e-03
-2.740946e-03
-2.398608e-03
-2.049975e-03
-1.695313e-03
-1.335244e-03
-9.705530e-04
-6.019927e-04
-2.301241e-04
1.447514e-04
5.225646e-04
9.033700e-04
1.287187e-03
1.673840e-03
2.062829e-03
2.453309e-03
2.844117e-03
3.233880e-03
3.621159e-03
4.004601e-03
4.383058e-03
4.755648e-03
5.121755e-03
5.480976e-03
5.833041e-03
6.177730e-03
6.514808e-03
6.843992e-03
7.164936e-03
7.477242e-03
7.780470e-03
8.074148e-03
8.357769e-03
8.630786e-03
8.892599e-03
9.142548e-03
9.379921e-03
9.603964e-03
9.813908e-03
1.000900e-02
1.018853e-02
1.035187e-02
1.049848e-02
1.062792e-02
1.073986e-02
1.083407e-02
1.091045e-02
1.096895e-02
1.100967e-02
1.103280e-02
1.103870e-02
1.102796e-02
1.100143e-02
1.096033e-02
1.090642e-02
1.084209e-02
1.077060e-02
1.069631e-02
1.062498e-02
1.056392e-02
1.052177e-02
1.050660e-02
1.050156e-02
-7.212014e-03
-7.187814e-03
-7.291422e-03
-7.462549e-03
-7.650088e-03
-7.814279e-03
-7.926804e-03
-7.975560e-03
-7.965205e-03
-7.913983e-03
-7.847692e-03
-7.792149e-03
-7.765906e-03
-7.775151e-03
-7.812267e-03
-7.858509e-03
-7.889939e-03
-7.884662e-03
-7.828971e-03
-7.720533e-03
-7.567817e-03
-7.386336e-03
-7.193276e-03
-7.002423e-03
-6.820929e-03
-6.648609e-03
-6.479528e-03
-6.304929e-03
-6.116345e-03
-5.907905e-03
-5.677343e-03
-5.425742e-03
-5.156410e-03
-4.873472e-03
-4.580650e-03
-4.280546e-03
-3.974458e-03
-3.662626e-03
-3.344691e-03
-3.020163e-03
-2.688769e-03
-2.350609e-03
-2.006143e-03
-1.656052e-03
-1.301057e-03
-9.417519e-04
-5.785091e-04
-2.114680e-04
1.593857e-04
5.340859e-04
9.125326e-04
1.294362e-03
1.678880e-03
2.065050e-03
2.451619e-03
2.837225e-03
3.220543e-03
3.600405e-03
3.975875e-03
4.346269e-03
4.711119e-03
5.070108e-03
5.422985e-03
5.769504e-03
6.109375e-03
6.442251e-03
6.767727e-03
7.085354e-03
7.394647e-03
7.695091e-03
7.986132e-03
8.267171e-03
8.537558e-03
8.796590e-03
9.043526e-03
9.277612e-03
9.498105e-03
9.704308e-03
9.895591e-03
1.007141e-02
1.023132e-02
1.037498e-02
1.050211e-02
1.061255e-02
1.070619e-02
1.078300e-02
1.084301e-02
1.088635e-02
1.091328e-02
1.092420e-02
1.091974e-02
1.090081e-02
1.086870e-02
1.082514e-02
1.077245e-02
1.071368e-02
1.065267e-02
1.059421e-02
1.054400e-02
1.050837e-02
1.049375e-02
1.048869e-02
-7.207220e-03
-7.242470e-03
-7.390548e-03
-7.554499e-03
-7.690534e-03
-7.777150e-03
-7.807878e-03
-7.790946e-03
-7.745684e-03
-7.696508e-03
-7.665801e-03
-7.667399e-03
-7.702525e-03
-7.759501e-03
-7.817441e-03
-7.852753e-03
-7.846256e-03
-7.788515e-03
-7.681714e-03
-7.537705e-03
-7.373260e-03
-7.204434e-03
-7.041979e-03
-6.889170e-03
-6.742312e-03
-6.593288e-03
-6.432912e-03
-6.253876e-03
-6.052439e-03
-5.828657e-03
-5.585435e-03
-5.327011e-03
-5.057500e-03
-4.779904e-03
-4.495771e-03
-4.205383e-03
-3.908256e-03
-3.603709e-03
-3.291296e-03
-2.971016e-03
-2.643320e-03
-2.308956e-03
-1.968742e-03
-1.623367e-03
-1.273257e-03
-9.185502e-04
-5.591737e-04
-1.949956e-04
1.739972e-04
5.475446e-04
9.250238e-04
1.305449e-03
1.687554e-03
2.069910e-03
2.451156e-03
2.830107e-03
3.205839e-03
3.577708e-03
3.945309e-03
4.308391e-03
4.666766e-03
5.020226e-03
5.368490e-03
5.711192e-03
6.047887e-03
6.378076e-03
6.701222e-03
7.016765e-03
7.324114e-03
7.622643e-03
7.911679e-03
8.190497e-03
8.458338e-03
8.714427e-03
8.958007e-03
9.188374e-03
9.404902e-03
9.607059e-03
9.794414e-03
9.966631e-03
1.012345e-02
1.026469e-02
1.039019e-02
1.049984e-02
1.059358e-02
1.067138e-02
1.073325e-02
1.077933e-02
1.080985e-02
1.082522e-02
1.082609e-02
1.081337e-02
1.078833e-02
1.075264e-02
1.070844e-02
1.065842e-02
1.060584e-02
1.055453e-02
1.050881e-02
1.047328e-02
1.045253e-02
1.044750e-02
-7.249371e-03
-7.325234e-03
-7.476823e-03
-7.598807e-03
-7.665912e-03
-7.677428e-03
-7.646701e-03
-7.596628e-03
-7.553103e-03
-7.537724e-03
-7.561517e-03
-7.621525e-03
-7.701536e-03
-7.776965e-03
-7.822397e-03
-7.819240e-03
-7.760868e-03
-7.653568e-03
-7.513258e-03
-7.359437e-03
-7.208752e-03
-7.070359e-03
-6.944410e-03
-6.823658e-03
-6.697097e-03
-6.554073e-03
-6.387413e-03
-6.194797e-03
-5.978321e-03
-5.742840e-03
-5.493925e-03
-5.236168e-03
-4.972278e-03
-4.703014e-03
-4.427721e-03
-4.145137e-03
-3.854118e-03
-3.554101e-03
-3.245237e-03
-2.928249e-03
-2.604139e-03
-2.273863e-03
-1.938092e-03
-1.597101e-03
-1.250807e-03
-8.989393e-04
-5.412596e-04
-1.777911e-04
1.910276e-04
5.642956e-04
9.407193e-04
1.318778e-03
1.696928e-03
2.073767e-03
2.448259e-03
2.819737e-03
3.187863e-03
3.552521e-03
3.913691e-03
4.271326e-03
4.625266e-03
4.975207e-03
5.320706e-03
5.661217e-03
5.996131e-03
6.324810e-03
6.646591e-03
6.960792e-03
7.266691e-03
7.563525e-03
7.850495e-03
8.126784e-03
8.391592e-03
8.644174e-03
8.883878e-03
9.110162e-03
9.322602e-03
9.520883e-03
9.704775e-03
9.874102e-03
1.002872e-02
1.016850e-02
1.029331e-02
1.040301e-02
1.049748e-02
1.057663e-02
1.064046e-02
1.068903e-02
1.072260e-02
1.074157e-02
1.074658e-02
1.073856e-02
1.071871e-02
1.068860e-02
1.065012e-02
1.060556e-02
1.055758e-02
1.050912e-02
1.046333e-02
1.042331e-02
1.039188e-02
1.038692e-02
-7.313796e-03
-7.404664e-03
-7.524948e-03
-7.584844e-03
-7.583083e-03
-7.537921e-03
-7.476949e-03
-7.429605e-03
-7.419213e-03
-7.456399e-03
-7.535833e-03
-7.637589e-03
-7.733063e-03
-7.793686e-03
-7.799532e-03
-7.744829e-03
-7.638571e-03
-7.500264e-03
-7.352656e-03
-7.214237e-03
-7.094118e-03
-6.990676e-03
-6.893887e-03
-6.789931e-03
-6.666137e-03
-6.514576e-03
-6.333412e-03
-6.126078e-03
-5.899047e-03
-5.659258e-03
-5.412097e-03
-5.160407e-03
-4.904560e-03
-4.643250e-03
-4.374548e-03
-4.096831e-03
-3.809310e-03
-3.512141e-03
-3.206182e-03
-2.892591e-03
-2.572404e-03
-2.246260e-03
-1.914296e-03
-1.576251e-03
-1.231700e-03
-8.803494e-04
-5.222987e-04
-1.581863e-04
2.108074e-04
5.831018e-04
9.569532e-04
1.330721e-03
1.703078e-03
2.073095e-03
2.440360e-03
2.804824e-03
3.166639e-03
3.525989e-03
3.882949e-03
4.237406e-03
4.589031e-03
4.937313e-03
5.281610e-03
5.621205e-03
5.955345e-03
6.283254e-03
6.604137e-03
6.917168e-03
7.221489e-03
7.516231e-03
7.800536e-03
8.073603e-03
8.334725e-03
8.583319e-03
8.818942e-03
9.041282e-03
9.250130e-03
9.445344e-03
9.626811e-03
9.794411e-03
9.947995e-03
1.008738e-02
1.021235e-02
1.032268e-02
1.041817e-02
1.049869e-02
1.056417e-02
1.061470e-02
1.065052e-02
1.067209e-02
1.068004e-02
1.067530e-02
1.065898e-02
1.063249e-02
1.059747e-02
1.055579e-02
1.050952e-02
1.046084e-02
1.041191e-02
1.036465e-02
1.032044e-02
1.031558e-02
-7.370924e-03
-7.451201e-03
-7.519398e-03
-7.515310e-03
-7.461327e-03
-7.389332e-03
-7.333147e-03
-7.319589e-03
-7.361117e-03
-7.452206e-03
-7.570867e-03
-7.685240e-03
-7.763337e-03
-7.782719e-03
-7.736755e-03
-7.635405e-03
-7.500504e-03
-7.357598e-03
-7.227461e-03
-7.120252e-03
-7.033953e-03
-6.956990e-03
-6.873465e-03
-6.768802e-03
-6.633870e-03
-6.466534e-03
-6.270719e-03
-6.053856e-03
-5.823915e-03
-5.587074e-03
-5.346574e-03
-5.102783e-03
-4.854114e-03
-4.598248e-03
-4.333206e-03
-4.057966e-03
-3.772589e-03
-3.477926e-03
-3.175151e-03
-2.865275e-03
-2.548843e-03
-2.225852e-03
-1.895893e-03
-1.558456e-03
-1.213265e-03
-8.605568e-04
-5.012066e-04
-1.366728e-04
2.312132e-04
6.005471e-04
9.696539e-04
1.337314e-03
1.702845e-03
2.066018e-03
2.427042e-03
2.786290e-03
3.144101e-03
3.500629e-03
3.855779e-03
4.209189e-03
4.560284e-03
4.908334e-03
5.252518e-03
5.591969e-03
5.925795e-03
6.253080e-03
6.572890e-03
6.884284e-03
7.186337e-03
7.478182e-03
7.759046e-03
8.028290e-03
8.285427e-03
8.530121e-03
8.762165e-03
8.981439e-03
9.187863e-03
9.381346e-03
9.561757e-03
9.728897e-03
9.882507e-03
1.002228e-02
1.014788e-02
1.025899e-02
1.035537e-02
1.043685e-02
1.050340e-02
1.055515e-02
1.059239e-02
1.061559e-02
1.062544e-02
1.062279e-02
1.060866e-02
1.058427e-02
1.055097e-02
1.051024e-02
1.046362e-02
1.041265e-02
1.035870e-02
1.030281e-02
1.024540e-02
1.024064e-02
-7.395088e-03
-7.444913e-03
-7.457732e-03
-7.405039e-03
-7.327576e-03
-7.263079e-03
-7.242529e-03
-7.281763e-03
-7.377041e-03
-7.506238e-03
-7.635669e-03
-7.730560e-03
-7.765683e-03
-7.732507e-03
-7.640473e-03
-7.512268e-03
-7.375181e-03
-7.251919e-03
-7.154080e-03
-7.080200e-03
-7.018334e-03
-6.951559e-03
-6.864040e-03
-6.745551e-03
-6.593285e-03
-6.410993e-03
-6.206331e-03
-5.987724e-03
-5.761838e-03
-5.532296e-03
-5.299684e-03
-5.062466e-03
-4.818262e-03
-4.564978e-03
-4.301475e-03
-4.027706e-03
-3.744424e-03
-3.452682e-03
-3.153336e-03
-2.846746e-03
-2.532725e-03
-2.210738e-03
-1.880244e-03
-1.541065e-03
-1.193651e-03
-8.391580e-04
-4.793271e-04
-1.162021e-04
2.482225e-04
6.123211e-04
9.750434e-04
1.335967e-03
1.695181e-03
2.053042e-03
2.410091e-03
2.766756e-03
3.123217e-03
3.479348e-03
3.834734e-03
4.188723e-03
4.540501e-03
4.889152e-03
5.233701e-03
5.573142e-03
5.906451e-03
6.232597e-03
6.550573e-03
6.859433e-03
7.158331e-03
7.446562e-03
7.723587e-03
7.989031e-03
8.242672e-03
8.484392e-03
8.714133e-03
8.931835e-03
9.137391e-03
9.330612e-03
9.511218e-03
9.678848e-03
9.833084e-03
9.973490e-03
1.009966e-02
1.021124e-02
1.030800e-02
1.038984e-02
1.045680e-02
1.050907e-02
1.054702e-02
1.057115e-02
1.058211e-02
1.058069e-02
1.056777e-02
1.054434e-02
1.051148e-02
1.047031e-02
1.042193e-02
1.036734e-02
1.030736e-02
1.024240e-02
1.017231e-02
1.016764e-02
-7.371011e-03
-7.380049e-03
-7.350747e-03
-7.277482e-03
-7.210390e-03
-7.184185e-03
-7.218670e-03
-7.313249e-03
-7.447372e-03
-7.587158e-03
-7.696208e-03
-7.746977e-03
-7.728749e-03
-7.649561e-03
-7.531747e-03
-7.403172e-03
-7.287652e-03
-7.197975e-03
-7.133567e-03
-7.082883e-03
-7.028933e-03
-6.955478e-03
-6.851720e-03
-6.714286e-03
-6.546459e-03
-6.355589e-03
-6.149955e-03
-5.936233e-03
-5.718172e-03
-5.496555e-03
-5.270071e-03
-5.036548e-03
-4.794051e-03
-4.541521e-03
-4.278900e-03
-4.006830e-03
-3.726157e-03
-3.437468e-03
-3.140833e-03
-2.835819e-03
-2.521751e-03
-2.198097e-03
-1.864842e-03
-1.522716e-03
-1.173205e-03
-8.183394e-04
-4.603422e-04
-1.012316e-04
2.574966e-04
6.150347e-04
9.712519e-04
1.326532e-03
1.681504e-03
2.036732e-03
2.392677e-03
2.749482e-03
3.106942e-03
3.464547e-03
3.821552e-03
4.177048e-03
4.530025e-03
4.879413e-03
5.224104e-03
5.562984e-03
5.894957e-03
6.218987e-03
6.534143e-03
6.839642e-03
7.134882e-03
7.419447e-03
7.693091e-03
7.955691e-03
8.207202e-03
8.447585e-03
8.676758e-03
8.894549e-03
9.100673e-03
9.294736e-03
9.476254e-03
9.644698e-03
9.799535e-03
9.940278e-03
1.006653e-02
1.017800e-02
1.027455e-02
1.035619e-02
1.042306e-02
1.047542e-02
1.051368e-02
1.053832e-02
1.054993e-02
1.054916e-02
1.053675e-02
1.051345e-02
1.048009e-02
1.043748e-02
1.038637e-02
1.032739e-02
1.026095e-02
1.018708e-02
1.010530e-02
1.010069e-02
-7.296962e-03
-7.265868e-03
-7.219826e-03
-7.159512e-03
-7.133609e-03
-7.165558e-03
-7.258457e-03
-7.394492e-03
-7.540991e-03
-7.661214e-03
-7.726175e-03
-7.723302e-03
-7.658991e-03
-7.554545e-03
-7.437505e-03
-7.331936e-03
-7.251210e-03
-7.195447e-03
-7.153752e-03
-7.109634e-03
-7.047172e-03
-6.955668e-03
-6.831611e-03
-6.677929e-03
-6.501472e-03
-6.309981e-03
-6.109683e-03
-5.904066e-03
-5.693891e-03
-5.478037e-03
-5.254663e-03
-5.022194e-03
-4.779867e-03
-4.527770e-03
-4.266508e-03
-3.996714e-03
-3.718643e-03
-3.431991e-03
-3.136013e-03
-2.829860e-03
-2.513020e-03
-2.185681e-03
-1.848905e-03
-1.504539e-03
-1.154910e-03
-8.023887e-04
-4.489613e-04
-9.592771e-05
2.562075e-04
6.076443e-04
9.590526e-04
1.311275e-03
1.665024e-03
2.020640e-03
2.378177e-03
2.737305e-03
3.097380e-03
3.457531e-03
3.816736e-03
4.173888e-03
4.527825e-03
4.877361e-03
5.221324e-03
5.558593e-03
5.888150e-03
6.209127e-03
6.520847e-03
6.822841e-03
7.114833e-03
7.396696e-03
7.668397e-03
7.929922e-03
8.181211e-03
8.422112e-03
8.652341e-03
8.871483e-03
9.079005e-03
9.274295e-03
9.456716e-03
9.625654e-03
9.780571e-03
9.921046e-03
1.004679e-02
1.015765e-02
1.025361e-02
1.033480e-02
1.040143e-02
1.045379e-02
1.049226e-02
1.051725e-02
1.052924e-02
1.052873e-02
1.051627e-02
1.049246e-02
1.045788e-02
1.041311e-02
1.035866e-02
1.029489e-02
1.022194e-02
1.013963e-02
1.004734e-02
1.004280e-02
-7.184627e-03
-7.124092e-03
-7.092030e-03
-7.075398e-03
-7.110918e-03
-7.205165e-03
-7.343555e-03
-7.495551e-03
-7.625134e-03
-7.702815e-03
-7.714792e-03
-7.666064e-03
-7.576770e-03
-7.473699e-03
-7.380570e-03
-7.310730e-03
-7.264535e-03
-7.231542e-03
-7.195885e-03
-7.142326e-03
-7.060787e-03
-6.948136e-03
-6.807325e-03
-6.644848e-03
-6.467818e-03
-6.281747e-03
-6.089522e-03
-5.891572e-03
-5.686769e-03
-5.473546e-03
-5.250760e-03
-5.018086e-03
-4.775915e-03
-4.524941e-03
-4.265650e-03
-3.997971e-03
-3.721194e-03
-3.434214e-03
-3.135981e-03
-2.825990e-03
-2.504645e-03
-2.173357e-03
-1.834350e-03
-1.490240e-03
-1.143515e-03
-7.960835e-04
-4.489994e-04
-1.024247e-04
2.441942e-04
5.918143e-04
9.414523e-04
1.293897e-03
1.649502e-03
2.008089e-03
2.369163e-03
2.731911e-03
3.095305e-03
3.458189e-03
3.819345e-03
4.177525e-03
4.531489e-03
4.880044e-03
5.222096e-03
5.556697e-03
5.883098e-03
6.200765e-03
6.509384e-03
6.808819e-03
7.099050e-03
7.380095e-03
7.651932e-03
7.914432e-03
8.167323e-03
8.410176e-03
8.642417e-03
8.863366e-03
9.072286e-03
9.268447e-03
9.451182e-03
9.619936e-03
9.774294e-03
9.913989e-03
1.003890e-02
1.014901e-02
1.024443e-02
1.032532e-02
1.039191e-02
1.044443e-02
1.048318e-02
1.050846e-02
1.052060e-02
1.051998e-02
1.050701e-02
1.048212e-02
1.044575e-02
1.039832e-02
1.034016e-02
1.027147e-02
1.019223e-02
1.010214e-02
1.000054e-02
9.996072e-03
-7.056101e-03
-6.983695e-03
-6.993887e-03
-7.041238e-03
-7.142849e-03
-7.287231e-03
-7.446352e-03
-7.585569e-03
-7.675602e-03
-7.702051e-03
-7.668973e-03
-7.595588e-03
-7.507949e-03
-7.429235e-03
-7.372421e-03
-7.337668e-03
-7.314588e-03
-7.287692e-03
-7.242423e-03
-7.169520e-03
-7.066605e-03
-6.937073e-03
-6.787415e-03
-6.624309e-03
-6.452544e-03
-6.274243e-03
-6.089247e-03
-5.896168e-03
-5.693528e-03
-5.480538e-03
-5.257334e-03
-5.024709e-03
-4.783558e-03
-4.534327e-03
-4.276679e-03
-4.009531e-03
-3.731418e-03
-3.441072e-03
-3.137985e-03
-2.822768e-03
-2.497175e-03
-2.163794e-03
-1.825501e-03
-1.484870e-03
-1.143690e-03
-8.027355e-04
-4.618057e-04
-1.199901e-04
2.239441e-04
5.711654e-04
9.224855e-04
1.278205e-03
1.638060e-03
2.001261e-03
2.366800e-03
2.733464e-03
3.099945e-03
3.464900e-03
3.827002e-03
4.184982e-03
4.537670e-03
4.884047e-03
5.223298e-03
5.554833e-03
5.878300e-03
6.193548e-03
6.500570e-03
6.799422e-03
7.090129e-03
7.372610e-03
7.646619e-03
7.911728e-03
8.167330e-03
8.412682e-03
8.646960e-03
8.869321e-03
9.078971e-03
9.275226e-03
9.457544e-03
9.625550e-03
9.779023e-03
9.917878e-03
1.004213e-02
1.015185e-02
1.024715e-02
1.032818e-02
1.039508e-02
1.044799e-02
1.048706e-02
1.051249e-02
1.052451e-02
1.052339e-02
1.050943e-02
1.048299e-02
1.044440e-02
1.039398e-02
1.033195e-02
1.025840e-02
1.017323e-02
1.007609e-02
9.966340e-03
9.961965e-03
-6.938663e-03
-6.874100e-03
-6.945231e-03
-7.061373e-03
-7.217351e-03
-7.387509e-03
-7.538761e-03
-7.642396e-03
-7.683827e-03
-7.666584e-03
-7.609344e-03
-7.537730e-03
-7.474556e-03
-7.432415e-03
-7.411072e-03
-7.399850e-03
-7.383245e-03
-7.347066e-03
-7.282770e-03
-7.188817e-03
-7.069330e-03
-6.931168e-03
-6.780914e-03
-6.622861e-03
-6.458419e-03
-6.286742e-03
-6.105985e-03
-5.914540e-03
-5.711799e-03
-5.498268e-03
-5.275132e-03
-5.043552e-03
-4.804019e-03
-4.556027e-03
-4.298187e-03
-4.028723e-03
-3.746170e-03
-3.450023e-03
-3.141085e-03
-2.821431e-03
-2.493972e-03
-2.161807e-03
-1.827547e-03
-1.492829e-03
-1.158123e-03
-8.228584e-04
-4.857819e-04
-1.454098e-04
1.995500e-04
5.499053e-04
9.058510e-04
1.266986e-03
1.632387e-03
2.000726e-03
2.370594e-03
2.740512e-03
3.109013e-03
3.474701e-03
3.836302e-03
4.192713e-03
4.543046e-03
4.886661e-03
5.223175e-03
5.552430e-03
5.874441e-03
6.189305e-03
6.497107e-03
6.797830e-03
7.091281e-03
7.377055e-03
7.654534e-03
7.922923e-03
8.181311e-03
8.428748e-03
8.664317e-03
8.887202e-03
9.096735e-03
9.292427e-03
9.473964e-03
9.641185e-03
9.794046e-03
9.932570e-03
1.005681e-02
1.016681e-02
1.026261e-02
1.034423e-02
1.041171e-02
1.046505e-02
1.050432e-02
1.052964e-02
1.054117e-02
1.053913e-02
1.052379e-02
1.049544e-02
1.045436e-02
1.040080e-02
1.033489e-02
1.025669e-02
1.016603e-02
1.006257e-02
9.945721e-03
9.941442e-03
-6.858347e-03
-6.818263e-03
-6.954698e-03
-7.128019e-03
-7.314078e-03
-7.481145e-03
-7.601034e-03
-7.659061e-03
-7.658425e-03
-7.617562e-03
-7.562048e-03
-7.514719e-03
-7.488076e-03
-7.481577e-03
-7.484113e-03
-7.479832e-03
-7.454498e-03
-7.399924e-03
-7.315260e-03
-7.205391e-03
-7.077782e-03
-6.939263e-03
-6.793958e-03
-6.642795e-03
-6.484322e-03
-6.316170e-03
-6.136443e-03
-5.944524e-03
-5.741130e-03
-5.527742e-03
-5.305765e-03
-5.075775e-03
-4.837172e-03
-4.588347e-03
-4.327288e-03
-4.052395e-03
-3.763185e-03
-3.460658e-03
-3.147176e-03
-2.825935e-03
-2.500200e-03
-2.172570e-03
-1.844488e-03
-1.516103e-03
-1.186483e-03
-8.540504e-04
-5.171052e-04
-1.742653e-04
1.752454e-04
5.314962e-04
8.939013e-04
1.261363e-03
1.632406e-03
2.005309e-03
2.378422e-03
2.750159e-03
3.119075e-03
3.483923e-03
3.843711e-03
4.197726e-03
4.545548e-03
4.887021e-03
5.222190e-03
5.551212e-03
5.874252e-03
6.191376e-03
6.502466e-03
6.807171e-03
7.104889e-03
7.394797e-03
7.675911e-03
7.947173e-03
8.207540e-03
8.456063e-03
8.691944e-03
8.914577e-03
9.123551e-03
9.318629e-03
9.499714e-03
9.666790e-03
9.819870e-03
9.958957e-03
1.008402e-02
1.019497e-02
1.029172e-02
1.037416e-02
1.044221e-02
1.049582e-02
1.053501e-02
1.055986e-02
1.057054e-02
1.056725e-02
1.055024e-02
1.051978e-02
1.047610e-02
1.041938e-02
1.034973e-02
1.026715e-02
1.017146e-02
1.006236e-02
9.939325e-03
9.935135e-03
-6.833745e-03
-6.827384e-03
-7.018261e-03
-7.224396e-03
-7.411155e-03
-7.550555e-03
-7.627564e-03
-7.644940e-03
-7.620966e-03
-7.581455e-03
-7.549694e-03
-7.538538e-03
-7.547474e-03
-7.565061e-03
-7.574940e-03
-7.562482e-03
-7.519437e-03
-7.445281e-03
-7.345507e-03
-7.228215e-03
-7.100693e-03
-6.967208e-03
-6.828504e-03
-6.682732e-03
-6.527081e-03
-6.359321e-03
-6.178695e-03
-5.985969e-03
-5.782782e-03
-5.570693e-03
-5.350340e-03
-5.121058e-03
-4.881084e-03
-4.628252e-03
-4.360891e-03
-4.078595e-03
-3.782574e-03
-3.475464e-03
-3.160700e-03
-2.841660e-03
-2.520881e-03
-2.199576e-03
-1.877560e-03
-1.553543e-03
-1.225655e-03
-8.920117e-04
-5.511752e-04
-2.024297e-04
1.541492e-04
5.177794e-04
8.871441e-04
1.260590e-03
1.636268e-03
2.012254e-03
2.386864e-03
2.758629e-03
3.126374e-03
3.489256e-03
3.846782e-03
4.198775e-03
4.545316e-03
4.886638e-03
5.223009e-03
5.554610e-03
5.881430e-03
6.203202e-03
6.519372e-03
6.829117e-03
7.131409e-03
7.425093e-03
7.708999e-03
7.982033e-03
8.243260e-03
8.491950e-03
8.727590e-03
8.949869e-03
9.158634e-03
9.353836e-03
9.535463e-03
9.703492e-03
9.857846e-03
9.998383e-03
1.012491e-02
1.023718e-02
1.033499e-02
1.041815e-02
1.048653e-02
1.054008e-02
1.057884e-02
1.060293e-02
1.061250e-02
1.060778e-02
1.058900e-02
1.055637e-02
1.051011e-02
1.045033e-02
1.037712e-02
1.029045e-02
1.019017e-02
1.007601e-02
9.947560e-03
9.943446e-03
-6.871686e-03
-6.898740e-03
-7.121321e-03
-7.330457e-03
-7.492170e-03
-7.590623e-03
-7.627739e-03
-7.621453e-03
-7.597886e-03
-7.581100e-03
-7.584775e-03
-7.608878e-03
-7.641935e-03
-7.667137e-03
-7.669261e-03
-7.639633e-03
-7.577660e-03
-7.489127e-03
-7.382639e-03
-7.265981e-03
-7.143752e-03
-7.016774e-03
-6.883053e-03
-6.739510e-03
-6.583650e-03
-6.414541e-03
-6.232895e-03
-6.040381e-03
-5.838601e-03
-5.628180e-03
-5.408368e-03
-5.177273e-03
-4.932623e-03
-4.672746e-03
-4.397364e-03
-4.107924e-03
-3.807338e-03
-3.499252e-03
-3.187115e-03
-2.873358e-03
-2.558935e-03
-2.243314e-03
-1.924863e-03
-1.601438e-03
-1.271003e-03
-9.320955e-04
-5.840850e-04
-2.272092e-04
1.375410e-04
5.086238e-04
8.841670e-04
1.262174e-03
1.640651e-03
2.017728e-03
2.391955e-03
2.762271e-03
3.128028e-03
3.488981e-03
3.845214e-03
4.197037e-03
4.544838e-03
4.888948e-03
5.229507e-03
5.566371e-03
5.899073e-03
6.226825e-03
6.548580e-03
6.863112e-03
7.169134e-03
7.465408e-03
7.750844e-03
8.024570e-03
8.285961e-03
8.534625e-03
8.770358e-03
8.993082e-03
9.202771e-03
9.399387e-03
9.582828e-03
9.752911e-03
9.909364e-03
1.005186e-02
1.018004e-02
1.029359e-02
1.039223e-02
1.047580e-02
1.054419e-02
1.059741e-02
1.063554e-02
1.065872e-02
1.066713e-02
1.066097e-02
1.064042e-02
1.060569e-02
1.055691e-02
1.049421e-02
1.041761e-02
1.032712e-02
1.022262e-02
1.010391e-02
9.970662e-03
9.966612e-03
-6.966126e-03
-7.017380e-03
-7.243763e-03
-7.429296e-03
-7.551015e-03
-7.609462e-03
-7.621777e-03
-7.614212e-03
-7.611728e-03
-7.629198e-03
-7.667540e-03
-7.715649e-03
-7.756474e-03
-7.774182e-03
-7.759450e-03
-7.711279e-03
-7.635405e-03
-7.540695e-03
-7.435341e-03
-7.324311e-03
-7.208662e-03
-7.086458e-03
-6.954545e-03
-6.810295e-03
-6.652658e-03
-6.482273e-03
-6.300769e-03
-6.109698e-03
-5.909593e-03
-5.699561e-03
-5.477558e-03
-5.241223e-03
-4.988913e-03
-4.720518e-03
-4.437752e-03
-4.143813e-03
-3.842549e-03
-3.537456e-03
-3.230831e-03
-2.923352e-03
-2.614140e-03
-2.301225e-03
-1.982216e-03
-1.654946e-03
-1.317953e-03
-9.707072e-04
-6.136240e-04
-2.479131e-04
1.246508e-04
5.019761e-04
8.818853e-04
1.262316e-03
1.641435e-03
2.017741e-03
2.390333e-03
2.758800e-03
3.123172e-03
3.483795e-03
3.841183e-03
4.195838e-03
4.548092e-03
4.897981e-03
5.245175e-03
5.588967e-03
5.928321e-03
6.261966e-03
6.588515e-03
6.906591e-03
7.214946e-03
7.512551e-03
7.798643e-03
8.072732e-03
8.334558e-03
8.584020e-03
8.821088e-03
9.045726e-03
9.257827e-03
9.457178e-03
9.643458e-03
9.816252e-03
9.975101e-03
1.011955e-02
1.024918e-02
1.036369e-02
1.046284e-02
1.054654e-02
1.061476e-02
1.066757e-02
1.070507e-02
1.072741e-02
1.073473e-02
1.072721e-02
1.070499e-02
1.066822e-02
1.061702e-02
1.055148e-02
1.047166e-02
1.037756e-02
1.026914e-02
1.014626e-02
1.000872e-02
1.000474e-02
-7.100642e-03
-7.161192e-03
-7.366304e-03
-7.512099e-03
-7.592995e-03
-7.624766e-03
-7.633401e-03
-7.644669e-03
-7.674838e-03
-7.726161e-03
-7.788316e-03
-7.844316e-03
-7.877830e-03
-7.878808e-03
-7.845627e-03
-7.783697e-03
-7.701888e-03
-7.608626e-03
-7.509191e-03
-7.404899e-03
-7.293979e-03
-7.173341e-03
-7.040360e-03
-6.893971e-03
-6.734792e-03
-6.564415e-03
-6.384308e-03
-6.194854e-03
-5.994962e-03
-5.782391e-03
-5.554664e-03
-5.310158e-03
-5.048938e-03
-4.773000e-03
-4.485837e-03
-4.191505e-03
-3.893539e-03
-3.594100e-03
-3.293587e-03
-2.990780e-03
-2.683388e-03
-2.368788e-03
-2.044701e-03
-1.709674e-03
-1.363291e-03
-1.006152e-03
-6.396943e-04
-2.659300e-04
1.128282e-04
4.942324e-04
8.761285e-04
1.256744e-03
1.634765e-03
2.009375e-03
2.380440e-03
2.748277e-03
3.113489e-03
3.476759e-03
3.838648e-03
4.199426e-03
4.558962e-03
4.916689e-03
5.271632e-03
5.622505e-03
5.967836e-03
6.306119e-03
6.635945e-03
6.956117e-03
7.265720e-03
7.564141e-03
7.851043e-03
8.126293e-03
8.389869e-03
8.641754e-03
8.881858e-03
9.109966e-03
9.325720e-03
9.528639e-03
9.718165e-03
9.893718e-03
1.005475e-02
1.020082e-02
1.033155e-02
1.044673e-02
1.054623e-02
1.063003e-02
1.069817e-02
1.075071e-02
1.078775e-02
1.080941e-02
1.081578e-02
1.080699e-02
1.078315e-02
1.074438e-02
1.069079e-02
1.062248e-02
1.053954e-02
1.044202e-02
1.032991e-02
1.020319e-02
1.006171e-02
1.005782e-02
-7.253812e-03
-7.307747e-03
-7.476104e-03
-7.580084e-03
-7.632104e-03
-7.657363e-03
-7.682169e-03
-7.724210e-03
-7.787330e-03
-7.862346e-03
-7.932656e-03
-7.981617e-03
-7.998487e-03
-7.980922e-03
-7.933833e-03
-7.865895e-03
-7.785593e-03
-7.698405e-03
-7.605859e-03
-7.506345e-03
-7.396891e-03
-7.274960e-03
-7.139564e-03
-6.991386e-03
-6.832043e-03
-6.662950e-03
-6.484339e-03
-6.294890e-03
-6.092125e-03
-5.873398e-03
-5.637064e-03
-5.383336e-03
-5.114473e-03
-4.834262e-03
-4.546969e-03
-4.256183e-03
-3.963943e-03
-3.670385e-03
-3.373968e-03
-3.072101e-03
-2.761943e-03
-2.441115e-03
-2.108176e-03
-1.762825e-03
-1.405848e-03
-1.038910e-03
-6.642665e-04
-2.844489e-04
9.803399e-05
4.809611e-04
8.626084e-04
1.241881e-03
1.618294e-03
1.991886e-03
2.363274e-03
2.733295e-03
3.102762e-03
3.472235e-03
3.841856e-03
4.211271e-03
4.579633e-03
4.945686e-03
5.307903e-03
5.664651e-03
6.014355e-03
6.355638e-03
6.687413e-03
7.008929e-03
7.319749e-03
7.619695e-03
7.908742e-03
8.186905e-03
8.454137e-03
8.710246e-03
8.954869e-03
9.187481e-03
9.407436e-03
9.614040e-03
9.806614e-03
9.984557e-03
1.014739e-02
1.029475e-02
1.042642e-02
1.054228e-02
1.064228e-02
1.072642e-02
1.079475e-02
1.084729e-02
1.088409e-02
1.090522e-02
1.091072e-02
1.090069e-02
1.087522e-02
1.083443e-02
1.077845e-02
1.070741e-02
1.062144e-02
1.052062e-02
1.040503e-02
1.027468e-02
1.012954e-02
1.012579e-02
-7.405733e-03
-7.440736e-03
-7.569876e-03
-7.643045e-03
-7.685767e-03
-7.724478e-03
-7.778160e-03
-7.852376e-03
-7.939345e-03
-8.023130e-03
-8.086987e-03
-8.119574e-03
-8.117816e-03
-8.086047e-03
-8.032646e-03
-7.966045e-03
-7.891807e-03
-7.811596e-03
-7.723909e-03
-7.625854e-03
-7.514990e-03
-7.390451e-03
-7.253058e-03
-7.104538e-03
-6.946333e-03
-6.778578e-03
-6.599748e-03
-6.407107e-03
-6.197795e-03
-5.970086e-03
-5.724272e-03
-5.462833e-03
-5.189821e-03
-4.909710e-03
-4.626160e-03
-4.341116e-03
-4.054486e-03
-3.764441e-03
-3.468116e-03
-3.162472e-03
-2.845031e-03
-2.514368e-03
-2.170285e-03
-1.813749e-03
-1.446650e-03
-1.071485e-03
-6.910011e-04
-3.078559e-04
7.568519e-05
4.579812e-04
8.381443e-04
1.216045e-03
1.592129e-03
1.967171e-03
2.342219e-03
2.718165e-03
3.095509e-03
3.474206e-03
3.853627e-03
4.232619e-03
4.609641e-03
4.982951e-03
5.350801e-03
5.711610e-03
6.064094e-03
6.407333e-03
6.740775e-03
7.064176e-03
7.377503e-03
7.680803e-03
7.974083e-03
8.257210e-03
8.529847e-03
8.791454e-03
9.041324e-03
9.278657e-03
9.502642e-03
9.712533e-03
9.907705e-03
1.008768e-02
1.025212e-02
1.040081e-02
1.053362e-02
1.065049e-02
1.075138e-02
1.083625e-02
1.090509e-02
1.095786e-02
1.099456e-02
1.101519e-02
1.101981e-02
1.100848e-02
1.098133e-02
1.093849e-02
1.088012e-02
1.080639e-02
1.071746e-02
1.061347e-02
1.049454e-02
1.036074e-02
1.021210e-02
1.020852e-02
-7.543597e-03
-7.554030e-03
-7.653750e-03
-7.715353e-03
-7.769121e-03
-7.835075e-03
-7.920496e-03
-8.019183e-03
-8.116086e-03
-8.194543e-03
-8.242714e-03
-8.256824e-03
-8.240625e-03
-8.202168e-03
-8.149803e-03
-8.089138e-03
-8.021902e-03
-7.946634e-03
-7.860452e-03
-7.760945e-03
-7.647349e-03
-7.520650e-03
-7.382758e-03
-7.235236e-03
-7.078222e-03
-6.910050e-03
-6.727750e-03
-6.528230e-03
-6.309615e-03
-6.072204e-03
-5.818620e-03