# vtk DataFile Version 3.0
Scalar Field
ASCII
DATASET RECTILINEAR_GRID
DIMENSIONS 102 102 1
X_COORDINATES 102 double
0.000000 0.100000 0.200000 0.300000 0.400000 0.500000 0.600000 0.700000 0.800000 0.900000 1.000000 1.100000 1.200000 1.300000 1.400000 1.500000 1.600000 1.700000 1.800000 1.900000 2.000000 2.100000 2.200000 2.300000 2.400000 2.500000 2.600000 2.700000 2.800000 2.900000 3.000000 3.100000 3.200000 3.300000 3.400000 3.500000 3.600000 3.700000 3.800000 3.900000 4.000000 4.100000 4.200000 4.300000 4.400000 4.500000 4.600000 4.700000 4.800000 4.900000 5.000000 5.100000 5.200000 5.300000 5.400000 5.500000 5.600000 5.700000 5.800000 5.900000 6.000000 6.100000 6.200000 6.300000 6.400000 6.500000 6.600000 6.700000 6.800000 6.900000 7.000000 7.100000 7.200000 7.300000 7.400000 7.500000 7.600000 7.700000 7.800000 7.900000 8.000000 8.100000 8.200000 8.300000 8.400000 8.500000 8.600000 8.700000 8.800000 8.900000 9.000000 9.100000 9.200000 9.300000 9.400000 9.500000 9.600000 9.700000 9.800000 9.900000 10.000000 10.100000 
Y_COORDINATES 102 double
0.000000 0.100000 0.200000 0.300000 0.400000 0.500000 0.600000 0.700000 0.800000 0.900000 1.000000 1.100000 1.200000 1.300000 1.400000 1.500000 1.600000 1.700000 1.800000 1.900000 2.000000 2.100000 2.200000 2.300000 2.400000 2.500000 2.600000 2.700000 2.800000 2.900000 3.000000 3.100000 3.200000 3.300000 3.400000 3.500000 3.600000 3.700000 3.800000 3.900000 4.000000 4.100000 4.200000 4.300000 4.400000 4.500000 4.600000 4.700000 4.800000 4.900000 5.000000 5.100000 5.200000 5.300000 5.400000 5.500000 5.600000 5.700000 5.800000 5.900000 6.000000 6.100000 6.200000 6.300000 6.400000 6.500000 6.600000 6.700000 6.800000 6.900000 7.000000 7.100000 7.200000 7.300000 7.400000 7.500000 7.600000 7.700000 7.800000 7.900000 8.000000 8.100000 8.200000 8.300000 8.400000 8.500000 8.600000 8.700000 8.800000 8.900000 9.000000 9.100000 9.200000 9.300000 9.400000 9.500000 9.600000 9.700000 9.800000 9.900000 10.000000 10.100000 
Z_COORDINATES 1 double
0.0
POINT_DATA 10404
SCALARS Pressure double 1
LOOKUP_TABLE default
0.000000e+00
6.523601e-04
7.965874e-04
8.884119e-04
8.733889e-04
7.613047e-04
5.960731e-04
4.297396e-04
2.991216e-04
2.145338e-04
1.630429e-04
1.216742e-04
7.236387e-05
1.129841e-05
-5.065282e-05
-9.493485e-05
-1.051355e-04
-7.465229e-05
-9.138012e-06
7.646724e-05
1.642026e-04
2.396594e-04
2.964349e-04
3.373962e-04
3.730443e-04
4.180858e-04
4.874805e-04
5.929648e-04
7.406593e-04
9.300572e-04
1.154470e-03
1.402810e-03
1.662321e-03
1.921618e-03
2.173233e-03
2.414965e-03
2.649674e-03
2.883666e-03
3.124303e-03
3.377646e-03
3.646905e-03
3.932064e-03
4.230605e-03
4.538890e-03
4.853602e-03
5.172718e-03
5.495772e-03
5.823442e-03
6.156726e-03
6.496072e-03
6.840769e-03
7.188804e-03
7.537162e-03
7.882492e-03
8.221890e-03
8.553523e-03
8.876962e-03
9.193120e-03
9.503811e-03
9.811077e-03
1.011645e-02
1.042037e-02
1.072189e-02
1.101877e-02
1.130790e-02
1.158596e-02
1.185001e-02
1.209800e-02
1.232901e-02
1.254318e-02
1.274138e-02
1.292480e-02
1.309448e-02
1.325105e-02
1.339457e-02
1.352454e-02
1.364007e-02
1.374017e-02
1.382393e-02
1.389070e-02
1.394021e-02
1.397254e-02
1.398812e-02
1.398761e-02
1.397184e-02
1.394174e-02
1.389832e-02
1.384267e-02
1.377598e-02
1.369960e-02
1.361512e-02
1.352436e-02
1.342949e-02
1.333308e-02
1.323811e-02
1.314813e-02
1.306722e-02
1.300003e-02
1.295143e-02
1.292567e-02
1.292350e-02
0.000000e+00
6.523601e-04
7.334398e-04
8.540674e-04
9.009188e-04
8.439423e-04
7.105228e-04
5.487644e-04
4.024943e-04
2.944736e-04
2.230936e-04
1.709974e-04
1.190226e-04
5.778957e-05
-8.081189e-06
-6.369823e-05
-9.235024e-05
-8.390585e-05
-3.932328e-05
3.011709e-05
1.077206e-04
1.778165e-04
2.310726e-04
2.670452e-04
2.936839e-04
3.245486e-04
3.749567e-04
4.582010e-04
5.826457e-04
7.501554e-04
9.560300e-04
1.190382e-03
1.440633e-03
1.694550e-03
1.943040e-03
2.181951e-03
2.412414e-03
2.639681e-03
2.870957e-03
3.112978e-03
3.370146e-03
3.643716e-03
3.932147e-03
4.232266e-03
4.540694e-03
4.854984e-03
5.174125e-03
5.498342e-03
5.828409e-03
6.164800e-03
6.507029e-03
6.853388e-03
7.201147e-03
7.547116e-03
7.888377e-03
8.222960e-03
8.550205e-03
8.870774e-03
9.186282e-03
9.498681e-03
9.809550e-03
1.011949e-02
1.042782e-02
1.073255e-02
1.103078e-02
1.131921e-02
1.159485e-02
1.185545e-02
1.209983e-02
1.232787e-02
1.254024e-02
1.273800e-02
1.292219e-02
1.309350e-02
1.325205e-02
1.339741e-02
1.352875e-02
1.364501e-02
1.374518e-02
1.382849e-02
1.389450e-02
1.394314e-02
1.397466e-02
1.398959e-02
1.398863e-02
1.397261e-02
1.394239e-02
1.389894e-02
1.384328e-02
1.377658e-02
1.370018e-02
1.361565e-02
1.352482e-02
1.342989e-02
1.333341e-02
1.323839e-02
1.314837e-02
1.306743e-02
1.300020e-02
1.295158e-02
1.292581e-02
1.292363e-02
1.292350e-02
8.102478e-04
8.677259e-04
9.191714e-04
8.825115e-04
7.767084e-04
6.460865e-04
5.284882e-04
4.415685e-04
3.815139e-04
3.321267e-04
2.777106e-04
2.127543e-04
1.443610e-04
8.762583e-05
5.746506e-05
6.138908e-05
9.642360e-05
1.509051e-04
2.096175e-04
2.596604e-04
2.947183e-04
3.165582e-04
3.338632e-04
3.593404e-04
4.062606e-04
4.853580e-04
6.026516e-04
7.584361e-04
9.475182e-04
1.160616e-03
1.386642e-03
1.615357e-03
1.839708e-03
2.057190e-03
2.269846e-03
2.482965e-03
2.702993e-03
2.935393e-03
3.183186e-03
3.446532e-03
3.723354e-03
4.010561e-03
4.305350e-03
4.606053e-03
4.912336e-03
5.224766e-03
5.544038e-03
5.870219e-03
6.202289e-03
6.538131e-03
6.874929e-03
7.209816e-03
7.540518e-03
7.865852e-03
8.185897e-03
8.501759e-03
8.815076e-03
9.127383e-03
9.439521e-03
9.751240e-03
1.006110e-02
1.036670e-02
1.066509e-02
1.095339e-02
1.122925e-02
1.149120e-02
1.173874e-02
1.197216e-02
1.219226e-02
1.239989e-02
1.259567e-02
1.277975e-02
1.295176e-02
1.311090e-02
1.325612e-02
1.338638e-02
1.350078e-02
1.359874e-02
1.368002e-02
1.374469e-02
1.379307e-02
1.382565e-02
1.384304e-02
1.384587e-02
1.383483e-02
1.381068e-02
1.377423e-02
1.372643e-02
1.366841e-02
1.360148e-02
1.352718e-02
1.344731e-02
1.336396e-02
1.327952e-02
1.319673e-02
1.311869e-02
1.304883e-02
1.299085e-02
1.294850e-02
1.292503e-02
1.292271e-02
1.292247e-02
9.673694e-04
9.802038e-04
9.407251e-04
8.408147e-04
7.254345e-04
6.301496e-04
5.663672e-04
5.238606e-04
4.829519e-04
4.285625e-04
3.588915e-04
2.854774e-04
2.261973e-04
1.958689e-04
1.993981e-04
2.302913e-04
2.743509e-04
3.160944e-04
3.447789e-04
3.577716e-04
3.606122e-04
3.645228e-04
3.827913e-04
4.273292e-04
5.061798e-04
6.222110e-04
7.729432e-04
9.513857e-04
1.147736e-03
1.351674e-03
1.554784e-03
1.752459e-03
1.944710e-03
2.135594e-03
2.331465e-03
2.538689e-03
2.761634e-03
3.001620e-03
3.257082e-03
3.524701e-03
3.800943e-03
4.083349e-03
4.371110e-03
4.664836e-03
4.965729e-03
5.274592e-03
5.591091e-03
5.913522e-03
6.239139e-03
6.564863e-03
6.888086e-03
7.207317e-03
7.522404e-03
7.834409e-03
8.145127e-03
8.456345e-03
8.769152e-03
9.083480e-03
9.397955e-03
9.710109e-03
1.001687e-02
1.031516e-02
1.060249e-02
1.087731e-02
1.113915e-02
1.138842e-02
1.162603e-02
1.185298e-02
1.206993e-02
1.227698e-02
1.247358e-02
1.265871e-02
1.283107e-02
1.298933e-02
1.313243e-02
1.325963e-02
1.337064e-02
1.346547e-02
1.354444e-02
1.360798e-02
1.365657e-02
1.369070e-02
1.371082e-02
1.371742e-02
1.371102e-02
1.369221e-02
1.366177e-02
1.362059e-02
1.356980e-02
1.351070e-02
1.344480e-02
1.337381e-02
1.329968e-02
1.322459e-02
1.315095e-02
1.308146e-02
1.301897e-02
1.296652e-02
1.292714e-02
1.290372e-02
1.289911e-02
1.289877e-02
1.063001e-03
1.034757e-03
9.307977e-04
8.141450e-04
7.268874e-04
6.776717e-04
6.505135e-04
6.203465e-04
5.696555e-04
4.977925e-04
4.197191e-04
3.567067e-04
3.249949e-04
3.283060e-04
3.571917e-04
3.944293e-04
4.230603e-04
4.331819e-04
4.249806e-04
4.076426e-04
3.955001e-04
4.034116e-04
4.429879e-04
5.204078e-04
6.358134e-04
7.839196e-04
9.555040e-04
1.139526e-03
1.325602e-03
1.506381e-03
1.679196e-03
1.846440e-03
2.014438e-03
2.191157e-03
2.383546e-03
2.595464e-03
2.826891e-03
3.074593e-03
3.333827e-03
3.600293e-03
3.871550e-03
4.147415e-03
4.429342e-03
4.719186e-03
5.017935e-03
5.324935e-03
5.637859e-03
5.953361e-03
6.268099e-03
6.579728e-03
6.887514e-03
7.192397e-03
7.496442e-03
7.802068e-03
8.111185e-03
8.424416e-03
8.740763e-03
9.057732e-03
9.371851e-03
9.679421e-03
9.977273e-03
1.026334e-02
1.053689e-02
1.079842e-02
1.104919e-02
1.129070e-02
1.152410e-02
1.174983e-02
1.196743e-02
1.217569e-02
1.237296e-02
1.255746e-02
1.272764e-02
1.288243e-02
1.302130e-02
1.314422e-02
1.325149e-02
1.334363e-02
1.342117e-02
1.348456e-02
1.353419e-02
1.357032e-02
1.359322e-02
1.360320e-02
1.360069e-02
1.358625e-02
1.356065e-02
1.352482e-02
1.347988e-02
1.342709e-02
1.336789e-02
1.330389e-02
1.323684e-02
1.316869e-02
1.310154e-02
1.303768e-02
1.297951e-02
1.292953e-02
1.289021e-02
1.286399e-02
1.285336e-02
1.285294e-02
1.096233e-03
1.047760e-03
9.250109e-04
8.303525e-04
7.829097e-04
7.638129e-04
7.429747e-04
6.985327e-04
6.280999e-04
5.476871e-04
4.810561e-04
4.465004e-04
4.480603e-04
4.747638e-04
5.069987e-04
5.259491e-04
5.214331e-04
4.951517e-04
4.589886e-04
4.301040e-04
4.253284e-04
4.568432e-04
5.299892e-04
6.430646e-04
7.885219e-04
9.550112e-04
1.129939e-03
1.302224e-03
1.464788e-03
1.616146e-03
1.760524e-03
1.906298e-03
2.063198e-03
2.239203e-03
2.438251e-03
2.659544e-03
2.898570e-03
3.149301e-03
3.406568e-03
3.667687e-03
3.932780e-03
4.203874e-03
4.483307e-03
4.772214e-03
5.069697e-03
5.372952e-03
5.678197e-03
5.981972e-03
6.282266e-03
6.579100e-03
6.874371e-03
7.171070e-03
7.472091e-03
7.779244e-03
8.092614e-03
8.410311e-03
8.728855e-03
9.043974e-03
9.351557e-03
9.648504e-03
9.933243e-03
1.020581e-02
1.046751e-02
1.072029e-02
1.096601e-02
1.120584e-02
1.143988e-02
1.166719e-02
1.188598e-02
1.209410e-02
1.228943e-02
1.247031e-02
1.263576e-02
1.278541e-02
1.291949e-02
1.303852e-02
1.314315e-02
1.323394e-02
1.331129e-02
1.337545e-02
1.342652e-02
1.346459e-02
1.348979e-02
1.350240e-02
1.350285e-02
1.349177e-02
1.346996e-02
1.343835e-02
1.339803e-02
1.335020e-02
1.329620e-02
1.323745e-02
1.317555e-02
1.311218e-02
1.304920e-02
1.298854e-02
1.293218e-02
1.288217e-02
1.284048e-02
1.280899e-02
1.278950e-02
1.278903e-02
1.099932e-03
1.055419e-03
9.510307e-04
8.918850e-04
8.698816e-04
8.523239e-04
8.131892e-04
7.465831e-04
6.670111e-04
5.986880e-04
5.612407e-04
5.596512e-04
5.827933e-04
6.099523e-04
6.210230e-04
6.051938e-04
5.646507e-04
5.127551e-04
4.685763e-04
4.506025e-04
4.719122e-04
5.378028e-04
6.457023e-04
7.866688e-04
9.477884e-04
1.115060e-03
1.276442e-03
1.424552e-03
1.558354e-03
1.683188e-03
1.808948e-03
1.946887e-03
2.106108e-03
2.291001e-03
2.500511e-03
2.729375e-03
2.970664e-03
3.218512e-03
3.469926e-03
3.725095e-03
3.986301e-03
4.256080e-03
4.535539e-03
4.823516e-03
5.116853e-03
5.411549e-03
5.704254e-03
5.993464e-03
6.279992e-03
6.566583e-03
6.856867e-03
7.154037e-03
7.459599e-03
7.772857e-03
8.091053e-03
8.409911e-03
8.724655e-03
9.031096e-03
9.326467e-03
9.609818e-03
9.881912e-03
1.014468e-02
1.040044e-02
1.065112e-02
1.089766e-02
1.113975e-02
1.137595e-02
1.160404e-02
1.182156e-02
1.202629e-02
1.221663e-02
1.239173e-02
1.255148e-02
1.269625e-02
1.282669e-02
1.294348e-02
1.304711e-02
1.313788e-02
1.321586e-02
1.328102e-02
1.333331e-02
1.337275e-02
1.339950e-02
1.341391e-02
1.341649e-02
1.340792e-02
1.338901e-02
1.336065e-02
1.332387e-02
1.327976e-02
1.322951e-02
1.317443e-02
1.311592e-02
1.305548e-02
1.299470e-02
1.293521e-02
1.287867e-02
1.282668e-02
1.278076e-02
1.274224e-02
1.271224e-02
1.271174e-02
1.115061e-03
1.089558e-03
1.015816e-03
9.795959e-04
9.559500e-04
9.167516e-04
8.527819e-04
7.756183e-04
7.078729e-04
6.688780e-04
6.639954e-04
6.824606e-04
7.035606e-04
7.069241e-04
6.815376e-04
6.297436e-04
5.654925e-04
5.087180e-04
4.787785e-04
4.893803e-04
5.460654e-04
6.460970e-04
7.799997e-04
9.340751e-04
1.093422e-03
1.245171e-03
1.381407e-03
1.501035e-03
1.609858e-03
1.718655e-03
1.839725e-03
1.983068e-03
2.153584e-03
2.350271e-03
2.567565e-03
2.798105e-03
3.035676e-03
3.277135e-03
3.522682e-03
3.774633e-03
4.035434e-03
4.305916e-03
4.584530e-03
4.867801e-03
5.151688e-03
5.433189e-03
5.711512e-03
5.988351e-03
6.267228e-03
6.552186e-03
6.846327e-03
7.150695e-03
7.463698e-03
7.781581e-03
8.099453e-03
8.412356e-03
8.716381e-03
9.009398e-03
9.291246e-03
9.563387e-03
9.828183e-03
1.008803e-02
1.034459e-02
1.059832e-02
1.084835e-02
1.109275e-02
1.132899e-02
1.155454e-02
1.176730e-02
1.196590e-02
1.214979e-02
1.231906e-02
1.247423e-02
1.261595e-02
1.274478e-02
1.286108e-02
1.296493e-02
1.305626e-02
1.313487e-02
1.320064e-02
1.325351e-02
1.329361e-02
1.332122e-02
1.333677e-02
1.334085e-02
1.333412e-02
1.331734e-02
1.329134e-02
1.325705e-02
1.321544e-02
1.316762e-02
1.311476e-02
1.305812e-02
1.299903e-02
1.293886e-02
1.287898e-02
1.282070e-02
1.276528e-02
1.271382e-02
1.266718e-02
1.262594e-02
1.262539e-02
1.167198e-03
1.161404e-03
1.105824e-03
1.066646e-03
1.019066e-03
9.523574e-04
8.755222e-04
8.086388e-04
7.692472e-04
7.618302e-04
7.754761e-04
7.897650e-04
7.848148e-04
7.501385e-04
6.885432e-04
6.143156e-04
5.475728e-04
5.077327e-04
5.085135e-04
5.554889e-04
6.459910e-04
7.705894e-04
9.154964e-04
1.065557e-03
1.207495e-03
1.332973e-03
1.440644e-03
1.536361e-03
1.631248e-03
1.738116e-03
1.867454e-03
2.024475e-03
2.208263e-03
2.413199e-03
2.631861e-03
2.858075e-03
3.088835e-03
3.324482e-03
3.567310e-03
3.819495e-03
4.081372e-03
4.350839e-03
4.624063e-03
4.897048e-03
5.167320e-03
5.434971e-03
5.702676e-03
5.974691e-03
6.255289e-03
6.547209e-03
6.850662e-03
7.163164e-03
7.480033e-03
7.795775e-03
8.105536e-03
8.406015e-03
8.695993e-03
8.976234e-03
9.248883e-03
9.516561e-03
9.781475e-03
1.004474e-02
1.030608e-02
1.056397e-02
1.081598e-02
1.105942e-02
1.129186e-02
1.151151e-02
1.171742e-02
1.190940e-02
1.208779e-02
1.225318e-02
1.240613e-02
1.254699e-02
1.267587e-02
1.279261e-02
1.289694e-02
1.298856e-02
1.306725e-02
1.313297e-02
1.318581e-02
1.322605e-02
1.325406e-02
1.327033e-02
1.327540e-02
1.326990e-02
1.325450e-02
1.322996e-02
1.319712e-02
1.315690e-02
1.311032e-02
1.305846e-02
1.300246e-02
1.294348e-02
1.288268e-02
1.282118e-02
1.276002e-02
1.270014e-02
1.264227e-02
1.258693e-02
1.253432e-02
1.253370e-02
1.256096e-03
1.259561e-03
1.197707e-03
1.133675e-03
1.056452e-03
9.741723e-04
9.049993e-04
8.642521e-04
8.545139e-04
8.637079e-04
8.711367e-04
8.574170e-04
8.130090e-04
7.416828e-04
6.583295e-04
5.831371e-04
5.351417e-04
5.274985e-04
5.653472e-04
6.458994e-04
7.599167e-04
8.939471e-04
1.033093e-03
1.164177e-03
1.278779e-03
1.375399e-03
1.459804e-03
1.543143e-03
1.638322e-03
1.755894e-03
1.901046e-03
2.072775e-03
2.265414e-03
2.471663e-03
2.685668e-03
2.904866e-03
3.129957e-03
3.363317e-03
3.606819e-03
3.860187e-03
4.120646e-03
4.383931e-03
4.646106e-03
4.905305e-03
5.162610e-03
5.421721e-03
5.687585e-03
5.964562e-03
6.254824e-03
6.557555e-03
6.869135e-03
7.184191e-03
7.496869e-03
7.802494e-03
8.098626e-03
8.385144e-03
8.663813e-03
8.937401e-03
9.208633e-03
9.479307e-03
9.749787e-03
1.001894e-02
1.028449e-02
1.054359e-02
1.079348e-02
1.103197e-02
1.125774e-02
1.147034e-02
1.167000e-02
1.185729e-02
1.203282e-02
1.219698e-02
1.234986e-02
1.249125e-02
1.262072e-02
1.273781e-02
1.284211e-02
1.293337e-02
1.301154e-02
1.307674e-02
1.312923e-02
1.316935e-02
1.319749e-02
1.321409e-02
1.321966e-02
1.321472e-02
1.319992e-02
1.317596e-02
1.314366e-02
1.310388e-02
1.305760e-02
1.300580e-02
1.294948e-02
1.288965e-02
1.282727e-02
1.276323e-02
1.269833e-02
1.263325e-02
1.256847e-02
1.250423e-02
1.244049e-02
1.243977e-02
1.360645e-03
1.360184e-03
1.272113e-03
1.177271e-03
1.082104e-03
1.004548e-03
9.585729e-04
9.448043e-04
9.492780e-04
9.500947e-04
9.276803e-04
8.732110e-04
7.916102e-04
6.987581e-04
6.152230e-04
5.597133e-04
5.445956e-04
5.741856e-04
6.452054e-04
7.484053e-04
8.707111e-04
9.977550e-04
1.116801e-03
1.219731e-03
1.305168e-03
1.378896e-03
1.452018e-03
1.537314e-03
1.645096e-03
1.780199e-03
1.941258e-03
2.122402e-03
2.316430e-03
2.517922e-03
2.724947e-03
2.938782e-03
3.162057e-03
3.396437e-03
3.641056e-03
3.892431e-03
4.145836e-03
4.397383e-03
4.645826e-03
4.893245e-03
5.144342e-03
5.404670e-03
5.678541e-03
5.967418e-03
6.269345e-03
6.579548e-03
6.891877e-03
7.200550e-03
7.501363e-03
7.792734e-03
8.075727e-03
8.353088e-03
8.628091e-03
8.903390e-03
9.180212e-03
9.458047e-03
9.734862e-03
1.000768e-02
1.027331e-02
1.052904e-02
1.077305e-02
1.100455e-02
1.122361e-02
1.143086e-02
1.162705e-02
1.181274e-02
1.198813e-02
1.215298e-02
1.230676e-02
1.244880e-02
1.257844e-02
1.269520e-02
1.279882e-02
1.288925e-02
1.296661e-02
1.303115e-02
1.308319e-02
1.312303e-02
1.315101e-02
1.316752e-02
1.317300e-02
1.316797e-02
1.315305e-02
1.312896e-02
1.309648e-02
1.305646e-02
1.300978e-02
1.295732e-02
1.289995e-02
1.283850e-02
1.277377e-02
1.270645e-02
1.263716e-02
1.256638e-02
1.249441e-02
1.242132e-02
1.234691e-02
1.234608e-02
1.453687e-03
1.441749e-03
1.322939e-03
1.208529e-03
1.115598e-03
1.058429e-03
1.036693e-03
1.034649e-03
1.028580e-03
9.977961e-04
9.334086e-04
8.411381e-04
7.379545e-04
6.451819e-04
5.815889e-04
5.589463e-04
5.806705e-04
6.427188e-04
7.355061e-04
8.460995e-04
9.606060e-04
1.066875e-03
1.157292e-03
1.230903e-03
1.293733e-03
1.356965e-03
1.433243e-03
1.532515e-03
1.659055e-03
1.810896e-03
1.981740e-03
2.164327e-03
2.353613e-03
2.548342e-03
2.750485e-03
2.963077e-03
3.187726e-03
3.423087e-03
3.665055e-03
3.908482e-03
4.149545e-03
4.387602e-03
4.625680e-03
4.869382e-03
5.124733e-03
5.395849e-03
5.683362e-03
5.984143e-03
6.292319e-03
6.601115e-03
6.904823e-03
7.200211e-03
7.486750e-03
7.766495e-03
8.043058e-03
8.320034e-03
8.599816e-03
8.882914e-03
9.167903e-03
9.451894e-03
9.731336e-03
1.000286e-02
1.026393e-02
1.051316e-02
1.075032e-02
1.097596e-02
1.119102e-02
1.139632e-02
1.159233e-02
1.177898e-02
1.195572e-02
1.212175e-02
1.227615e-02
1.241816e-02
1.254724e-02
1.266311e-02
1.276575e-02
1.285526e-02
1.293185e-02
1.299576e-02
1.304726e-02
1.308658e-02
1.311403e-02
1.312995e-02
1.313481e-02
1.312914e-02
1.311361e-02
1.308891e-02
1.305579e-02
1.301505e-02
1.296744e-02
1.291374e-02
1.285467e-02
1.279093e-02
1.272317e-02
1.265195e-02
1.257776e-02
1.250096e-02
1.242171e-02
1.234000e-02
1.225552e-02
1.225458e-02
1.517304e-03
1.495973e-03
1.358010e-03
1.244035e-03
1.169403e-03
1.134388e-03
1.122429e-03
1.108084e-03
1.068917e-03
9.950403e-04
8.921886e-04
7.780730e-04
6.748960e-04
6.019028e-04
5.707170e-04
5.841243e-04
6.373170e-04
7.201554e-04
8.195387e-04
9.217806e-04
1.015185e-03
1.092694e-03
1.153865e-03
1.205210e-03
1.258187e-03
1.325456e-03
1.416654e-03
1.535457e-03
1.679167e-03
1.840877e-03
2.013074e-03
2.190921e-03
2.373741e-03
2.564186e-03
2.765764e-03
2.980145e-03
3.205662e-03
3.437731e-03
3.670906e-03
3.901498e-03
4.129475e-03
4.358734e-03
4.595644e-03
4.846519e-03
5.115107e-03
5.401106e-03
5.700209e-03
6.005558e-03
6.309962e-03
6.608011e-03
6.897391e-03
7.179059e-03
7.456079e-03
7.732539e-03
8.012118e-03
8.296731e-03
8.586053e-03
8.877741e-03
9.168174e-03
9.453417e-03
9.730111e-03
9.996057e-03
1.025039e-02
1.049338e-02
1.072597e-02
1.094928e-02
1.116409e-02
1.137067e-02
1.156866e-02
1.175723e-02
1.193533e-02
1.210191e-02
1.225613e-02
1.239743e-02
1.252556e-02
1.264046e-02
1.274223e-02
1.283100e-02
1.290692e-02
1.297016e-02
1.302091e-02
1.305940e-02
1.308591e-02
1.310087e-02
1.310477e-02
1.309819e-02
1.308177e-02
1.305619e-02
1.302212e-02
1.298024e-02
1.293121e-02
1.287568e-02
1.281427e-02
1.274759e-02
1.267620e-02
1.260057e-02
1.252112e-02
1.243811e-02
1.235165e-02
1.226165e-02
1.216775e-02
1.216672e-02
1.550680e-03
1.529886e-03
1.392185e-03
1.295087e-03
1.241449e-03
1.215230e-03
1.190025e-03
1.141620e-03
1.058464e-03
9.454215e-04
8.202613e-04
7.058150e-04
6.219943e-04
5.807231e-04
5.846146e-04
6.283743e-04
7.013258e-04
7.900033e-04
8.806228e-04
9.616562e-04
1.026418e-03
1.074969e-03
1.114327e-03
1.156431e-03
1.214154e-03
1.296999e-03
1.408157e-03
1.544221e-03
1.697598e-03
1.860372e-03
2.027725e-03
2.199379e-03
2.378541e-03
2.569151e-03
2.772993e-03
2.988198e-03
3.209868e-03
3.432418e-03
3.652416e-03
3.870480e-03
4.091323e-03
4.321935e-03
4.568730e-03
4.834909e-03
5.119127e-03
5.415914e-03
5.717572e-03
6.016715e-03
6.308471e-03
6.591611e-03
6.868349e-03
7.143065e-03
7.420190e-03
7.703000e-03
7.992721e-03
8.288086e-03
8.585871e-03
8.881876e-03
9.172007e-03
9.453135e-03
9.723549e-03
9.982948e-03
1.023207e-02
1.047213e-02
1.070424e-02
1.092906e-02
1.114653e-02
1.135598e-02
1.155634e-02
1.174638e-02
1.192499e-02
1.209132e-02
1.224485e-02
1.238531e-02
1.251263e-02
1.262686e-02
1.272803e-02
1.281620e-02
1.289141e-02
1.295381e-02
1.300356e-02
1.304095e-02
1.306634e-02
1.308021e-02
1.308306e-02
1.307548e-02
1.305805e-02
1.303135e-02
1.299596e-02
1.295246e-02
1.290143e-02
1.284344e-02
1.277907e-02
1.270886e-02
1.263333e-02
1.255291e-02
1.246797e-02
1.237872e-02
1.228521e-02
1.218731e-02
1.208466e-02
1.208358e-02
1.567728e-03
1.559401e-03
1.437565e-03
1.360899e-03
1.315988e-03
1.276506e-03
1.216964e-03
1.123979e-03
1.000907e-03
8.648229e-04
7.386677e-04
6.428955e-04
5.899708e-04
5.827678e-04
6.159215e-04
6.784609e-04
7.565609e-04
8.361490e-04
9.055660e-04
9.582057e-04
9.944220e-04
1.021691e-03
1.052421e-03
1.099891e-03
1.173683e-03
1.276704e-03
1.404988e-03
1.550308e-03
1.704284e-03
1.861975e-03
2.023310e-03
2.191871e-03
2.371904e-03
2.565270e-03
2.769955e-03
2.980872e-03
3.192457e-03
3.401670e-03
3.609850e-03
3.822508e-03
4.047139e-03
4.290086e-03
4.553838e-03
4.835917e-03
5.129710e-03
5.426820e-03
5.719887e-03
6.004800e-03
6.281558e-03
6.553640e-03
6.826310e-03
7.104579e-03
7.391162e-03
7.686153e-03
7.987270e-03
8.290470e-03
8.591147e-03
8.885273e-03
9.170157e-03
9.444708e-03
9.709220e-03
9.964832e-03
1.021289e-02
1.045441e-02
1.068970e-02
1.091839e-02
1.113945e-02
1.135161e-02
1.155354e-02
1.174412e-02
1.192256e-02
1.208838e-02
1.224134e-02
1.238133e-02
1.250829e-02
1.262216e-02
1.272289e-02
1.281043e-02
1.288481e-02
1.294621e-02
1.299488e-02
1.303117e-02
1.305551e-02
1.306836e-02
1.307022e-02
1.306157e-02
1.304291e-02
1.301472e-02
1.297751e-02
1.293180e-02
1.287813e-02
1.281706e-02
1.274914e-02
1.267492e-02
1.259488e-02
1.250944e-02
1.241892e-02
1.232347e-02
1.222314e-02
1.211778e-02
1.200702e-02
1.200591e-02
1.587255e-03
1.598919e-03
1.496151e-03
1.428626e-03
1.371135e-03
1.297642e-03
1.193210e-03
1.059456e-03
9.122215e-04
7.739954e-04
6.654295e-04
5.995019e-04
5.795929e-04
6.006414e-04
6.517228e-04
7.188377e-04
7.876072e-04
8.460496e-04
8.873459e-04
9.118545e-04
9.272987e-04
9.465047e-04
9.831441e-04
1.047078e-03
1.141156e-03
1.261066e-03
1.398096e-03
1.543450e-03
1.691998e-03
1.843728e-03
2.002416e-03
2.172456e-03
2.355686e-03
2.549935e-03
2.749991e-03
2.950422e-03
3.148696e-03
3.346951e-03
3.551495e-03
3.770258e-03
4.009385e-03
4.270531e-03
4.550015e-03
4.840120e-03
5.131882e-03
5.418162e-03
5.695794e-03
5.966108e-03
6.233829e-03
6.504959e-03
6.784530e-03
7.074989e-03
7.375248e-03
7.681709e-03
7.989599e-03
8.294087e-03
8.591414e-03
8.879502e-03
9.157976e-03
9.427719e-03
9.690195e-03
9.946759e-03
1.019817e-02
1.044436e-02
1.068453e-02
1.091736e-02
1.114138e-02
1.135522e-02
1.155783e-02
1.174850e-02
1.192680e-02
1.209251e-02
1.224546e-02
1.238549e-02
1.251243e-02
1.262610e-02
1.272638e-02
1.281325e-02
1.288680e-02
1.294729e-02
1.299506e-02
1.303049e-02
1.305397e-02
1.306591e-02
1.306670e-02
1.305673e-02
1.303641e-02
1.300618e-02
1.296653e-02
1.291796e-02
1.286106e-02
1.279637e-02
1.272449e-02
1.264593e-02
1.256117e-02
1.247058e-02
1.237447e-02
1.227295e-02
1.216607e-02
1.205366e-02
1.193540e-02
1.193426e-02
1.621745e-03
1.652777e-03
1.558287e-03
1.479240e-03
1.388483e-03
1.269996e-03
1.123789e-03
9.642786e-04
8.131236e-04
6.908087e-04
6.106237e-04
5.764765e-04
5.838177e-04
6.220601e-04
6.772846e-04
7.349278e-04
7.826375e-04
8.131879e-04
8.266643e-04
8.307709e-04
8.385673e-04
8.640901e-04
9.174867e-04
1.001763e-03
1.112478e-03
1.240631e-03
1.377127e-03
1.516663e-03
1.659211e-03
1.808603e-03
1.969234e-03
2.142804e-03
2.326922e-03
2.516256e-03
2.705556e-03
2.892864e-03
3.081165e-03
3.277575e-03
3.490411e-03
3.725547e-03
3.983731e-03
4.260060e-03
4.545766e-03
4.831448e-03
5.110350e-03
5.380388e-03
5.644278e-03
5.907929e-03
6.177928e-03
6.459123e-03
6.753141e-03
7.058172e-03
7.369437e-03
7.681258e-03
7.988758e-03
8.288629e-03
8.579533e-03
8.861852e-03
9.137022e-03
9.406730e-03
9.672221e-03
9.933906e-03
1.019128e-02
1.044311e-02
1.068781e-02
1.092377e-02
1.114965e-02
1.136445e-02
1.156758e-02
1.175868e-02
1.193748e-02
1.210377e-02
1.225727e-02
1.239769e-02
1.252476e-02
1.263828e-02
1.273818e-02
1.282454e-02
1.289754e-02
1.295748e-02
1.300470e-02
1.303952e-02
1.306223e-02
1.307312e-02
1.307249e-02
1.306069e-02
1.303812e-02
1.300521e-02
1.296250e-02
1.291056e-02
1.284997e-02
1.278133e-02
1.270522e-02
1.262214e-02
1.253254e-02
1.243677e-02
1.233510e-02
1.222765e-02
1.211445e-02
1.199538e-02
1.187015e-02
1.186900e-02
1.670507e-03
1.712534e-03
1.606856e-03
1.495636e-03
1.359999e-03
1.198656e-03
1.024693e-03
8.588487e-04
7.212438e-04
6.252822e-04
5.752932e-04
5.672695e-04
5.911117e-04
6.331834e-04
6.789049e-04
7.156124e-04
7.355941e-04
7.384702e-04
7.316795e-04
7.282951e-04
7.425888e-04
7.850072e-04
8.587392e-04
9.594237e-04
1.077952e-03
1.205077e-03
1.335392e-03
1.468841e-03
1.609242e-03
1.760886e-03
1.925240e-03
2.099621e-03
2.278540e-03
2.456925e-03
2.633398e-03
2.811797e-03
3.000031e-03
3.206776e-03
3.437597e-03
3.692315e-03
3.964832e-03
4.245411e-03
4.524339e-03
4.795380e-03
5.057622e-03
5.315169e-03
5.575024e-03
5.844188e-03
6.127140e-03
6.424548e-03
6.733436e-03
7.048502e-03
7.363460e-03
7.673238e-03
7.975132e-03
8.268622e-03
8.554842e-03
8.835700e-03
9.112992e-03
9.387745e-03
9.659951e-03
9.928640e-03
1.019220e-02
1.044882e-02
1.069682e-02
1.093489e-02
1.116217e-02
1.137811e-02
1.158239e-02
1.177473e-02
1.195480e-02
1.212223e-02
1.227661e-02
1.241760e-02
1.254494e-02
1.265854e-02
1.275842e-02
1.284472e-02
1.291764e-02
1.297744e-02
1.302434e-02
1.305854e-02
1.308022e-02
1.308962e-02
1.308701e-02
1.307276e-02
1.304732e-02
1.301121e-02
1.296502e-02
1.290936e-02
1.284485e-02
1.277208e-02
1.269160e-02
1.260390e-02
1.250939e-02
1.240840e-02
1.230121e-02
1.218794e-02
1.206864e-02
1.194324e-02
1.181152e-02
1.181034e-02
1.719947e-03
1.760642e-03
1.624470e-03
1.468911e-03
1.289526e-03
1.098298e-03
9.151849e-04
7.599814e-04
6.461650e-04
5.784110e-04
5.532047e-04
5.609543e-04
5.883965e-04
6.210534e-04
6.460345e-04
6.551416e-04
6.474289e-04
6.298979e-04
6.154460e-04
6.184304e-04
6.495340e-04
7.121740e-04
8.020986e-04
9.102619e-04
1.027386e-03
1.148046e-03
1.272190e-03
1.403603e-03
1.546428e-03
1.701844e-03
1.866828e-03
2.035688e-03
2.203485e-03
2.369383e-03
2.538028e-03
2.718076e-03
2.918529e-03
3.144625e-03
3.395280e-03
3.663265e-03
3.937978e-03
4.209527e-03
4.472303e-03
4.726620e-03
4.977937e-03
5.234228e-03
5.502732e-03
5.787394e-03
6.087821e-03
6.399875e-03
6.717403e-03
7.034307e-03
7.345680e-03
7.649183e-03
7.945153e-03
8.235426e-03
8.522274e-03
8.807471e-03
9.091730e-03
9.374577e-03
9.654593e-03
9.929850e-03
1.019837e-02
1.045848e-02
1.070896e-02
1.094902e-02
1.117820e-02
1.139614e-02
1.160251e-02
1.179688e-02
1.197875e-02
1.214765e-02
1.230316e-02
1.244499e-02
1.257301e-02
1.268721e-02
1.278766e-02
1.287446e-02
1.294770e-02
1.300748e-02
1.305394e-02
1.308715e-02
1.310728e-02
1.311457e-02
1.310938e-02
1.309216e-02
1.306345e-02
1.302385e-02
1.297399e-02
1.291448e-02
1.284595e-02
1.276894e-02
1.268399e-02
1.259156e-02
1.249206e-02
1.238581e-02
1.227309e-02
1.215408e-02
1.202885e-02
1.189740e-02
1.175958e-02
1.175838e-02
1.749844e-03
1.777919e-03
1.599962e-03
1.400333e-03
1.189240e-03
9.860677e-04
8.104957e-04
6.762323e-04
5.883731e-04
5.439013e-04
5.337157e-04
5.449284e-04
5.631958e-04
5.754389e-04
5.729822e-04
5.542688e-04
5.257652e-04
5.000703e-04
4.915163e-04
5.109514e-04
5.620145e-04
6.406113e-04
7.377630e-04
8.442713e-04
9.547520e-04
1.069196e-03
1.191374e-03
1.325285e-03
1.471814e-03
1.627582e-03
1.786666e-03
1.944207e-03
2.099839e-03
2.258935e-03
2.430829e-03
2.624794e-03
2.845736e-03
3.091704e-03
3.354423e-03
3.622551e-03
3.886139e-03
4.140299e-03
4.386597e-03
4.631784e-03
4.884668e-03
5.152557e-03
5.438718e-03
5.741625e-03
6.056015e-03
6.375020e-03
6.692441e-03
7.004356e-03
7.309128e-03
7.607545e-03
7.902068e-03
8.195201e-03
8.488570e-03
8.782481e-03
9.075976e-03
9.367223e-03
9.654048e-03
9.934411e-03
1.020669e-02
1.046977e-02
1.072297e-02
1.096583e-02
1.119795e-02
1.141888e-02
1.162810e-02
1.182500e-02
1.200903e-02
1.217973e-02
1.233681e-02
1.248008e-02
1.260947e-02
1.272497e-02
1.282655e-02
1.291415e-02
1.298771e-02
1.304723e-02
1.309275e-02
1.312440e-02
1.314238e-02
1.314707e-02
1.313892e-02
1.311850e-02
1.308640e-02
1.304325e-02
1.298968e-02
1.292629e-02
1.285365e-02
1.277230e-02
1.268274e-02
1.258543e-02
1.248079e-02
1.236917e-02
1.225090e-02
1.212619e-02
1.199517e-02
1.185789e-02
1.171429e-02
1.171308e-02
1.741856e-03
1.750911e-03
1.531456e-03
1.298987e-03
1.073622e-03
8.751425e-04
7.177657e-04
6.072465e-04
5.412142e-04
5.111138e-04
5.044321e-04
5.069380e-04
5.053376e-04
4.904426e-04
4.600369e-04
4.199928e-04
3.825500e-04
3.619684e-04
3.692341e-04
4.081983e-04
4.749423e-04
5.605711e-04
6.559265e-04
7.557157e-04
8.599894e-04
9.725302e-04
1.097224e-03
1.234696e-03
1.381232e-03
1.530671e-03
1.678195e-03
1.823827e-03
1.973572e-03
2.137348e-03
2.324643e-03
2.540018e-03
2.780702e-03
3.037465e-03
3.298343e-03
3.553445e-03
3.798678e-03
4.036860e-03
4.275962e-03
4.525489e-03
4.792668e-03
5.079962e-03
5.384679e-03
5.700487e-03
6.019941e-03
6.336924e-03
6.648153e-03
6.953426e-03
7.254280e-03
7.553233e-03
7.852890e-03
8.154606e-03
8.458210e-03
8.762254e-03
9.064547e-03
9.362756e-03
9.654854e-03
9.939338e-03
1.021522e-02
1.048189e-02
1.073886e-02
1.098566e-02
1.122171e-02
1.144634e-02
1.165889e-02
1.185873e-02
1.204539e-02
1.221854e-02
1.237795e-02
1.252348e-02
1.265498e-02
1.277228e-02
1.287516e-02
1.296344e-02
1.303694e-02
1.309563e-02
1.313966e-02
1.316925e-02
1.318475e-02
1.318665e-02
1.317551e-02
1.315192e-02
1.311651e-02
1.306986e-02
1.301257e-02
1.294521e-02
1.286832e-02
1.278242e-02
1.268803e-02
1.258564e-02
1.247569e-02
1.235859e-02
1.223470e-02
1.210430e-02
1.196758e-02
1.182465e-02
1.167552e-02
1.167430e-02
1.686104e-03
1.675921e-03
1.425343e-03
1.176985e-03
9.540293e-04