# vtk DataFile Version 3.0
Scalar Field
ASCII
DATASET RECTILINEAR_GRID
DIMENSIONS 102 102 1
X_COORDINATES 102 double
0.000000 0.100000 0.200000 0.300000 0.400000 0.500000 0.600000 0.700000 0.800000 0.900000 1.000000 1.100000 1.200000 1.300000 1.400000 1.500000 1.600000 1.700000 1.800000 1.900000 2.000000 2.100000 2.200000 2.300000 2.400000 2.500000 2.600000 2.700000 2.800000 2.900000 3.000000 3.100000 3.200000 3.300000 3.400000 3.500000 3.600000 3.700000 3.800000 3.900000 4.000000 4.100000 4.200000 4.300000 4.400000 4.500000 4.600000 4.700000 4.800000 4.900000 5.000000 5.100000 5.200000 5.300000 5.400000 5.500000 5.600000 5.700000 5.800000 5.900000 6.000000 6.100000 6.200000 6.300000 6.400000 6.500000 6.600000 6.700000 6.800000 6.900000 7.000000 7.100000 7.200000 7.300000 7.400000 7.500000 7.600000 7.700000 7.800000 7.900000 8.000000 8.100000 8.200000 8.300000 8.400000 8.500000 8.600000 8.700000 8.800000 8.900000 9.000000 9.100000 9.200000 9.300000 9.400000 9.500000 9.600000 9.700000 9.800000 9.900000 10.000000 10.100000 
Y_COORDINATES 102 double
0.000000 0.100000 0.200000 0.300000 0.400000 0.500000 0.600000 0.700000 0.800000 0.900000 1.000000 1.100000 1.200000 1.300000 1.400000 1.500000 1.600000 1.700000 1.800000 1.900000 2.000000 2.100000 2.200000 2.300000 2.400000 2.500000 2.600000 2.700000 2.800000 2.900000 3.000000 3.100000 3.200000 3.300000 3.400000 3.500000 3.600000 3.700000 3.800000 3.900000 4.000000 4.100000 4.200000 4.300000 4.400000 4.500000 4.600000 4.700000 4.800000 4.900000 5.000000 5.100000 5.200000 5.300000 5.400000 5.500000 5.600000 5.700000 5.800000 5.900000 6.000000 6.100000 6.200000 6.300000 6.400000 6.500000 6.600000 6.700000 6.800000 6.900000 7.000000 7.100000 7.200000 7.300000 7.400000 7.500000 7.600000 7.700000 7.800000 7.900000 8.000000 8.100000 8.200000 8.300000 8.400000 8.500000 8.600000 8.700000 8.800000 8.900000 9.000000 9.100000 9.200000 9.300000 9.400000 9.500000 9.600000 9.700000 9.800000 9.900000 10.000000 10.100000 
Z_COORDINATES 1 double
0.0
POINT_DATA 10404
SCALARS Pressure double 1
LOOKUP_TABLE default
0.000000e+00
3.220861e-03
3.327081e-03
3.461704e-03
3.548513e-03
3.548684e-03
3.459473e-03
3.306474e-03
3.127634e-03
2.957482e-03
2.817772e-03
2.716086e-03
2.649938e-03
2.612357e-03
2.595773e-03
2.593323e-03
2.598570e-03
2.605407e-03
2.609164e-03
2.608664e-03
2.607947e-03
2.616261e-03
2.645785e-03
2.707706e-03
2.808213e-03
2.946076e-03
3.112828e-03
3.295506e-03
3.480885e-03
3.659638e-03
3.829021e-03
3.993256e-03
4.161682e-03
4.345441e-03
4.553863e-03
4.791702e-03
5.058001e-03
5.346778e-03
5.649150e-03
5.956093e-03
6.260947e-03
6.560909e-03
6.857198e-03
7.154008e-03
7.456721e-03
7.770031e-03
8.096529e-03
8.436093e-03
8.786104e-03
9.142290e-03
9.499840e-03
9.854445e-03
1.020304e-02
1.054414e-02
1.087771e-02
1.120475e-02
1.152669e-02
1.184483e-02
1.215985e-02
1.247155e-02
1.277872e-02
1.307938e-02
1.337104e-02
1.365110e-02
1.391725e-02
1.416775e-02
1.440157e-02
1.461836e-02
1.481832e-02
1.500192e-02
1.516967e-02
1.532193e-02
1.545878e-02
1.558000e-02
1.568519e-02
1.577383e-02
1.584548e-02
1.589986e-02
1.593694e-02
1.595696e-02
1.596041e-02
1.594798e-02
1.592053e-02
1.587901e-02
1.582444e-02
1.575792e-02
1.568062e-02
1.559384e-02
1.549901e-02
1.539776e-02
1.529194e-02
1.518365e-02
1.507526e-02
1.496945e-02
1.486925e-02
1.477803e-02
1.469951e-02
1.463764e-02
1.459615e-02
1.457746e-02
1.457967e-02
0.000000e+00
3.220861e-03
3.255605e-03
3.390209e-03
3.517750e-03
3.573700e-03
3.536676e-03
3.418696e-03
3.252638e-03
3.075997e-03
2.918087e-03
2.794456e-03
2.708089e-03
2.654168e-03
2.624863e-03
2.612137e-03
2.608588e-03
2.607581e-03
2.603949e-03
2.595548e-03
2.584912e-03
2.579744e-03
2.591431e-03
2.631742e-03
2.708864e-03
2.824376e-03
2.972441e-03
3.141578e-03
3.318380e-03
3.491798e-03
3.656478e-03
3.814080e-03
3.972255e-03
4.141806e-03
4.333059e-03
4.552674e-03
4.801846e-03
5.076324e-03
5.368071e-03
5.667893e-03
5.968118e-03
6.264507e-03
6.556911e-03
6.848618e-03
7.144776e-03
7.450487e-03
7.769184e-03
8.101714e-03
8.446279e-03
8.799088e-03
9.155424e-03
9.510760e-03
9.861609e-03
1.020599e-02
1.054347e-02
1.087480e-02
1.120137e-02
1.152456e-02
1.184526e-02
1.216348e-02
1.247826e-02
1.278776e-02
1.308957e-02
1.338106e-02
1.365979e-02
1.392384e-02
1.417197e-02
1.440361e-02
1.461881e-02
1.481792e-02
1.500142e-02
1.516966e-02
1.532274e-02
1.546046e-02
1.558240e-02
1.568800e-02
1.577671e-02
1.584814e-02
1.590211e-02
1.593872e-02
1.595829e-02
1.596140e-02
1.594876e-02
1.592121e-02
1.587967e-02
1.582511e-02
1.575859e-02
1.568125e-02
1.559438e-02
1.549943e-02
1.539803e-02
1.529205e-02
1.518361e-02
1.507508e-02
1.496917e-02
1.486889e-02
1.477762e-02
1.469907e-02
1.463716e-02
1.459565e-02
1.457694e-02
1.457915e-02
1.457967e-02
3.339294e-03
3.403151e-03
3.532278e-03
3.601201e-03
3.581511e-03
3.486819e-03
3.348417e-03
3.200188e-03
3.067367e-03
2.962375e-03
2.886754e-03
2.835922e-03
2.803437e-03
2.783146e-03
2.769510e-03
2.757484e-03
2.743121e-03
2.725088e-03
2.706216e-03
2.693908e-03
2.698642e-03
2.730849e-03
2.797326e-03
2.898670e-03
3.028846e-03
3.177120e-03
3.331605e-03
3.483131e-03
3.628033e-03
3.768979e-03
3.913679e-03
4.072046e-03
4.252872e-03
4.461108e-03
4.696571e-03
4.954356e-03
5.226667e-03
5.505338e-03
5.784193e-03
6.060520e-03
6.335296e-03
6.612266e-03
6.896302e-03
7.191644e-03
7.500585e-03
7.822909e-03
8.156123e-03
8.496275e-03
8.839020e-03
9.180596e-03
9.518468e-03
9.851525e-03
1.017990e-02
1.050459e-02
1.082684e-02
1.114763e-02
1.146724e-02
1.178511e-02
1.209983e-02
1.240930e-02
1.271114e-02
1.300295e-02
1.328273e-02
1.354900e-02
1.380093e-02
1.403826e-02
1.426109e-02
1.446972e-02
1.466438e-02
1.484511e-02
1.501169e-02
1.516365e-02
1.530037e-02
1.542122e-02
1.552566e-02
1.561332e-02
1.568409e-02
1.573811e-02
1.577570e-02
1.579738e-02
1.580375e-02
1.579549e-02
1.577334e-02
1.573810e-02
1.569065e-02
1.563197e-02
1.556315e-02
1.548546e-02
1.540034e-02
1.530940e-02
1.521447e-02
1.511755e-02
1.502089e-02
1.492694e-02
1.483839e-02
1.475814e-02
1.468926e-02
1.463482e-02
1.459764e-02
1.457974e-02
1.458181e-02
1.458228e-02
3.543264e-03
3.600445e-03
3.663193e-03
3.642642e-03
3.550123e-03
3.421976e-03
3.292280e-03
3.182680e-03
3.100411e-03
3.042476e-03
3.001782e-03
2.971625e-03
2.947199e-03
2.924983e-03
2.901902e-03
2.875633e-03
2.846096e-03
2.817063e-03
2.796462e-03
2.794686e-03
2.821312e-03
2.881593e-03
2.974297e-03
3.091878e-03
3.223008e-03
3.356446e-03
3.484805e-03
3.606840e-03
3.727520e-03
3.856015e-03
4.002411e-03
4.174340e-03
4.374660e-03
4.600842e-03
4.846122e-03
5.101900e-03
5.360478e-03
5.617228e-03
5.871550e-03
6.126441e-03
6.386986e-03
6.658373e-03
6.944149e-03
7.245203e-03
7.559698e-03
7.883804e-03
8.212880e-03
8.542680e-03
8.870221e-03
9.194161e-03
9.514664e-03
9.832870e-03
1.015024e-02
1.046802e-02
1.078673e-02
1.110590e-02
1.142414e-02
1.173932e-02
1.204893e-02
1.235048e-02
1.264185e-02
1.292150e-02
1.318859e-02
1.344286e-02
1.368446e-02
1.391371e-02
1.413083e-02
1.433580e-02
1.452825e-02
1.470756e-02
1.487289e-02
1.502338e-02
1.515828e-02
1.527704e-02
1.537941e-02
1.546537e-02
1.553515e-02
1.558913e-02
1.562775e-02
1.565154e-02
1.566101e-02
1.565674e-02
1.563932e-02
1.560945e-02
1.556795e-02
1.551577e-02
1.545400e-02
1.538393e-02
1.530698e-02
1.522473e-02
1.513891e-02
1.505141e-02
1.496427e-02
1.487969e-02
1.480003e-02
1.472776e-02
1.466546e-02
1.461569e-02
1.458083e-02
1.456302e-02
1.456435e-02
1.456478e-02
3.750302e-03
3.775773e-03
3.744801e-03
3.643118e-03
3.509879e-03
3.383676e-03
3.286029e-03
3.220524e-03
3.179224e-03
3.150931e-03
3.126842e-03
3.102072e-03
3.074324e-03
3.042194e-03
3.004923e-03
2.963740e-03
2.923514e-03
2.893073e-03
2.883327e-03
2.903721e-03
2.958562e-03
3.044991e-03
3.153634e-03
3.271777e-03
3.387836e-03
3.495354e-03
3.595083e-03
3.694451e-03
3.804741e-03
3.937116e-03
4.098901e-03
4.291381e-03
4.509738e-03
4.744970e-03
4.987027e-03
5.227994e-03
5.464288e-03
5.697236e-03
5.931991e-03
6.175341e-03
6.433247e-03
6.708940e-03
7.002114e-03
7.309314e-03
7.625213e-03
7.944241e-03
8.262011e-03
8.576165e-03
8.886491e-03
9.194439e-03
9.502274e-03
9.812114e-03
1.012519e-02
1.044160e-02
1.076015e-02
1.107858e-02
1.139402e-02
1.170352e-02
1.200449e-02
1.229502e-02
1.257411e-02
1.284150e-02
1.309752e-02
1.334275e-02
1.357769e-02
1.380250e-02
1.401688e-02
1.422010e-02
1.441109e-02
1.458869e-02
1.475180e-02
1.489956e-02
1.503145e-02
1.514730e-02
1.524721e-02
1.533150e-02
1.540056e-02
1.545482e-02
1.549470e-02
1.552056e-02
1.553279e-02
1.553183e-02
1.551821e-02
1.549259e-02
1.545580e-02
1.540882e-02
1.535278e-02
1.528895e-02
1.521872e-02
1.514358e-02
1.506516e-02
1.498516e-02
1.490543e-02
1.482791e-02
1.475464e-02
1.468778e-02
1.462949e-02
1.458196e-02
1.454726e-02
1.452746e-02
1.452476e-02
1.452514e-02
3.906751e-03
3.892901e-03
3.779153e-03
3.629861e-03
3.492931e-03
3.393419e-03
3.334266e-03
3.303906e-03
3.286643e-03
3.270155e-03
3.247873e-03
3.217508e-03
3.178663e-03
3.131891e-03
3.079665e-03
3.027962e-03
2.986611e-03
2.967340e-03
2.979988e-03
3.028572e-03
3.109167e-03
3.210789e-03
3.319095e-03
3.421470e-03
3.511513e-03
3.591190e-03
3.669964e-03
3.761311e-03
3.877984e-03
4.027766e-03
4.211117e-03
4.421432e-03
4.647604e-03
4.877895e-03
5.103684e-03
5.321872e-03
5.535233e-03
5.750818e-03
5.977114e-03
6.221057e-03
6.485889e-03
6.770444e-03
7.069907e-03
7.377585e-03
7.686972e-03
7.993437e-03
8.295078e-03
8.592647e-03
8.888736e-03
9.186603e-03
9.489006e-03
9.797307e-03
1.011109e-02
1.042847e-02
1.074646e-02
1.106155e-02
1.137041e-02
1.167039e-02
1.195988e-02
1.223832e-02
1.250600e-02
1.276375e-02
1.301246e-02
1.325275e-02
1.348468e-02
1.370769e-02
1.392069e-02
1.412228e-02
1.431100e-02
1.448558e-02
1.464511e-02
1.478911e-02
1.491748e-02
1.503042e-02
1.512828e-02
1.521146e-02
1.528034e-02
1.533521e-02
1.537630e-02
1.540385e-02
1.541815e-02
1.541960e-02
1.540874e-02
1.538631e-02
1.535316e-02
1.531031e-02
1.525891e-02
1.520016e-02
1.513538e-02
1.506595e-02
1.499334e-02
1.491908e-02
1.484482e-02
1.477227e-02
1.470324e-02
1.463956e-02
1.458309e-02
1.453567e-02
1.449908e-02
1.447506e-02
1.446543e-02
1.446576e-02
3.994281e-03
3.949257e-03
3.787461e-03
3.630195e-03
3.516578e-03
3.451961e-03
3.423658e-03
3.412556e-03
3.402454e-03
3.383889e-03
3.353227e-03
3.310064e-03
3.255711e-03
3.193670e-03
3.130967e-03
3.078425e-03
3.048667e-03
3.052174e-03
3.093122e-03
3.167089e-03
3.261979e-03
3.362036e-03
3.453427e-03
3.529230e-03
3.591881e-03
3.652186e-03
3.725406e-03
3.825898e-03
3.962289e-03
4.134848e-03
4.335838e-03
4.552536e-03
4.771713e-03
4.983926e-03
5.186182e-03
5.382214e-03
5.580494e-03
5.790883e-03
6.021179e-03
6.274736e-03
6.549798e-03
6.840536e-03
7.139215e-03
7.438626e-03
7.733987e-03
8.023801e-03
8.309619e-03
8.594946e-03
8.883791e-03
9.179309e-03
9.482903e-03
9.793829e-03
1.010943e-02
1.042610e-02
1.073988e-02
1.104727e-02
1.134572e-02
1.163394e-02
1.191181e-02
1.218009e-02
1.243992e-02
1.269238e-02
1.293804e-02
1.317680e-02
1.340781e-02
1.362969e-02
1.384079e-02
1.403948e-02
1.422443e-02
1.439473e-02
1.454997e-02
1.469011e-02
1.481540e-02
1.492617e-02
1.502279e-02
1.510551e-02
1.517451e-02
1.522989e-02
1.527176e-02
1.530030e-02
1.531582e-02
1.531878e-02
1.530982e-02
1.528973e-02
1.525942e-02
1.521988e-02
1.517220e-02
1.511751e-02
1.505700e-02
1.499192e-02
1.492360e-02
1.485343e-02
1.478288e-02
1.471347e-02
1.464678e-02
1.458439e-02
1.452789e-02
1.447879e-02
1.443856e-02
1.440855e-02
1.439001e-02
1.439030e-02
4.026347e-03
3.966967e-03
3.796534e-03
3.661048e-03
3.581034e-03
3.545189e-03
3.533027e-03
3.525354e-03
3.509535e-03
3.479624e-03
3.434110e-03
3.374232e-03
3.304056e-03
3.231462e-03
3.168206e-03
3.127792e-03
3.121406e-03
3.153584e-03
3.219783e-03
3.307272e-03
3.399305e-03
3.481038e-03
3.544899e-03
3.593324e-03
3.637845e-03
3.694908e-03
3.780088e-03
3.902816e-03
4.063455e-03
4.253657e-03
4.459669e-03
4.667244e-03
4.866354e-03
5.054063e-03
5.234757e-03
5.417874e-03
5.614167e-03
5.831935e-03
6.074490e-03
6.339560e-03
6.620570e-03
6.909120e-03
7.197671e-03
7.481556e-03
7.759796e-03
8.034666e-03
8.310371e-03
8.591378e-03
8.880942e-03
9.180218e-03
9.488063e-03
9.801354e-03
1.011579e-02
1.042720e-02
1.073214e-02
1.102836e-02
1.131502e-02
1.159244e-02
1.186173e-02
1.212420e-02
1.238089e-02
1.263218e-02
1.287769e-02
1.311626e-02
1.334626e-02
1.356591e-02
1.377352e-02
1.396782e-02
1.414801e-02
1.431376e-02
1.446508e-02
1.460223e-02
1.472547e-02
1.483504e-02
1.493106e-02
1.501353e-02
1.508245e-02
1.513784e-02
1.517979e-02
1.520857e-02
1.522459e-02
1.522842e-02
1.522078e-02
1.520247e-02
1.517439e-02
1.513745e-02
1.509264e-02
1.504099e-02
1.498356e-02
1.492152e-02
1.485605e-02
1.478844e-02
1.472002e-02
1.465214e-02
1.458619e-02
1.452353e-02
1.446547e-02
1.441327e-02
1.436804e-02
1.433077e-02
1.430225e-02
1.430250e-02
4.033655e-03
3.977193e-03
3.826985e-03
3.725632e-03
3.674423e-03
3.653516e-03
3.642391e-03
3.626005e-03
3.595942e-03
3.548857e-03
3.485056e-03
3.408487e-03
3.327479e-03
3.254537e-03
3.203979e-03
3.187670e-03
3.210555e-03
3.268128e-03
3.347326e-03
3.430803e-03
3.503066e-03
3.556084e-03
3.592218e-03
3.623352e-03
3.666613e-03
3.738278e-03
3.848221e-03
3.996822e-03
4.175338e-03
4.369423e-03
4.564338e-03
4.749910e-03
4.923499e-03
5.090111e-03
5.259869e-03
5.443986e-03
5.650807e-03
5.883263e-03
6.138435e-03
6.409107e-03
6.686501e-03
6.963130e-03
7.234802e-03
7.501285e-03
7.765632e-03
8.032613e-03
8.306890e-03
8.591505e-03
8.887092e-03
9.191855e-03
9.502214e-03
9.813648e-03
1.012171e-02
1.042324e-02
1.071654e-02
1.100131e-02
1.127835e-02
1.154904e-02
1.181470e-02
1.207614e-02
1.233341e-02
1.258570e-02
1.283154e-02
1.306909e-02
1.329649e-02
1.351217e-02
1.371500e-02
1.390435e-02
1.408003e-02
1.424210e-02
1.439075e-02
1.452614e-02
1.464833e-02
1.475724e-02
1.485273e-02
1.493465e-02
1.500294e-02
1.505768e-02
1.509911e-02
1.512761e-02
1.514373e-02
1.514810e-02
1.514143e-02
1.512448e-02
1.509806e-02
1.506298e-02
1.502013e-02
1.497045e-02
1.491493e-02
1.485463e-02
1.479070e-02
1.472430e-02
1.465665e-02
1.458895e-02
1.452242e-02
1.445820e-02
1.439739e-02
1.434097e-02
1.428978e-02
1.424448e-02
1.420547e-02
1.420569e-02
4.047421e-03
4.005832e-03
3.887417e-03
3.816335e-03
3.780449e-03
3.759527e-03
3.737513e-03
3.704227e-03
3.654474e-03
3.587109e-03
3.505290e-03
3.417228e-03
3.335815e-03
3.275999e-03
3.250255e-03
3.263904e-03
3.312504e-03
3.382776e-03
3.457010e-03
3.519375e-03
3.561689e-03
3.586418e-03
3.605766e-03
3.637242e-03
3.697420e-03
3.796173e-03
3.933578e-03
4.100409e-03
4.281896e-03
4.463178e-03
4.634390e-03
4.793568e-03
4.946535e-03
5.104049e-03
5.277522e-03
5.474958e-03
5.698524e-03
5.944395e-03
6.204650e-03
6.470277e-03
6.734123e-03
6.992803e-03
7.247107e-03
7.501001e-03
7.759788e-03
8.028141e-03
8.308634e-03
8.601116e-03
8.902963e-03
9.209971e-03
9.517512e-03
9.821446e-03
1.011881e-02
1.040860e-02
1.069121e-02
1.096794e-02
1.124034e-02
1.150963e-02
1.177626e-02
1.203977e-02
1.229888e-02
1.255176e-02
1.279641e-02
1.303101e-02
1.325414e-02
1.346491e-02
1.366293e-02
1.384814e-02
1.402065e-02
1.418057e-02
1.432789e-02
1.446244e-02
1.458395e-02
1.469211e-02
1.478665e-02
1.486746e-02
1.493457e-02
1.498824e-02
1.502887e-02
1.505695e-02
1.507305e-02
1.507778e-02
1.507178e-02
1.505571e-02
1.503027e-02
1.499622e-02
1.495435e-02
1.490557e-02
1.485083e-02
1.479116e-02
1.472760e-02
1.466127e-02
1.459324e-02
1.452461e-02
1.445640e-02
1.438960e-02
1.432508e-02
1.426362e-02
1.420582e-02
1.415209e-02
1.410255e-02
1.410272e-02
4.087599e-03
4.065633e-03
3.974885e-03
3.920425e-03
3.884464e-03
3.851246e-03
3.810033e-03
3.754469e-03
3.682050e-03
3.594792e-03
3.500257e-03
3.411244e-03
3.343012e-03
3.308475e-03
3.313255e-03
3.352940e-03
3.414036e-03
3.478544e-03
3.530462e-03
3.561700e-03
3.575084e-03
3.583308e-03
3.604270e-03
3.654596e-03
3.743852e-03
3.871438e-03
4.027374e-03
4.196382e-03
4.363612e-03
4.519800e-03
4.664022e-03
4.803204e-03
4.948878e-03
5.112592e-03
5.301789e-03
5.517573e-03
5.754947e-03
6.005127e-03
6.258869e-03
6.509497e-03
6.754662e-03
6.996396e-03
7.239728e-03
7.490526e-03
7.753386e-03
8.030238e-03
8.319963e-03
8.618969e-03
8.922378e-03
9.225370e-03
9.524276e-03
9.816975e-03
1.010291e-02
1.038324e-02
1.065975e-02
1.093412e-02
1.120734e-02
1.147938e-02
1.174922e-02
1.201507e-02
1.227477e-02
1.252619e-02
1.276759e-02
1.299779e-02
1.321620e-02
1.342264e-02
1.361721e-02
1.380003e-02
1.397108e-02
1.413016e-02
1.427689e-02
1.441078e-02
1.453136e-02
1.463827e-02
1.473136e-02
1.481065e-02
1.487638e-02
1.492897e-02
1.496887e-02
1.499658e-02
1.501260e-02
1.501746e-02
1.501169e-02
1.499586e-02
1.497062e-02
1.493668e-02
1.489485e-02
1.484600e-02
1.479107e-02
1.473103e-02
1.466690e-02
1.459967e-02
1.453033e-02
1.445982e-02
1.438905e-02
1.431883e-02
1.424988e-02
1.418279e-02
1.411799e-02
1.405568e-02
1.399583e-02
1.399597e-02
4.159124e-03
4.155632e-03
4.079161e-03
4.025025e-03
3.975897e-03
3.921569e-03
3.855582e-03
3.774747e-03
3.680094e-03
3.578294e-03
3.481634e-03
3.405287e-03
3.362335e-03
3.358561e-03
3.389510e-03
3.441431e-03
3.496002e-03
3.537078e-03
3.556763e-03
3.558427e-03
3.555464e-03
3.566317e-03
3.607718e-03
3.688732e-03
3.807865e-03
3.954085e-03
4.111378e-03
4.264819e-03
4.405833e-03
4.534735e-03
4.659814e-03
4.793573e-03
4.947787e-03
5.129298e-03
5.338005e-03
5.567558e-03
5.808163e-03
6.050269e-03
6.287700e-03
6.519229e-03
6.748253e-03
6.980956e-03
7.223804e-03
7.481285e-03
7.754603e-03
8.041581e-03
8.337594e-03
8.637086e-03
8.935096e-03
9.228357e-03
9.515724e-03
9.797728e-03
1.007586e-02
1.035234e-02
1.062890e-02
1.090621e-02
1.118370e-02
1.145977e-02
1.173213e-02
1.199834e-02
1.225621e-02
1.250417e-02
1.274129e-02
1.296726e-02
1.318214e-02
1.338610e-02
1.357923e-02
1.376138e-02
1.393215e-02
1.409091e-02
1.423701e-02
1.436985e-02
1.448899e-02
1.459427e-02
1.468571e-02
1.476354e-02
1.482812e-02
1.487987e-02
1.491923e-02
1.494658e-02
1.496231e-02
1.496686e-02
1.496068e-02
1.494434e-02
1.491848e-02
1.488383e-02
1.484120e-02
1.479147e-02
1.473554e-02
1.467436e-02
1.460885e-02
1.453991e-02
1.446845e-02
1.439529e-02
1.432120e-02
1.424689e-02
1.417295e-02
1.409983e-02
1.402782e-02
1.395700e-02
1.388722e-02
1.388732e-02
4.254900e-03
4.265450e-03
4.187531e-03
4.119525e-03
4.047674e-03
3.966315e-03
3.872493e-03
3.766871e-03
3.655412e-03
3.549729e-03
3.464588e-03
3.412936e-03
3.400514e-03
3.422713e-03
3.465452e-03
3.510021e-03
3.540055e-03
3.547826e-03
3.537291e-03
3.522682e-03
3.523176e-03
3.555773e-03
3.629130e-03
3.740721e-03
3.878319e-03
4.024938e-03
4.165376e-03
4.291639e-03
4.405303e-03
4.516130e-03
4.637756e-03
4.782325e-03
4.956162e-03
5.157981e-03
5.380035e-03
5.611451e-03
5.842304e-03
6.066874e-03
6.285036e-03
6.501547e-03
6.723749e-03
6.958693e-03
7.210739e-03
7.480342e-03
7.764256e-03
8.056849e-03
8.351944e-03
8.644522e-03
8.931801e-03
9.213474e-03
9.491203e-03
9.767406e-03
1.004417e-02
1.032314e-02
1.060461e-02
1.088744e-02
1.116944e-02
1.144792e-02
1.172023e-02
1.198426e-02
1.223861e-02
1.248264e-02
1.271630e-02
1.293980e-02
1.315336e-02
1.335696e-02
1.355029e-02
1.373271e-02
1.390344e-02
1.406165e-02
1.420666e-02
1.433802e-02
1.445553e-02
1.455924e-02
1.464934e-02
1.472615e-02
1.478996e-02
1.484114e-02
1.487996e-02
1.490670e-02
1.492169e-02
1.492531e-02
1.491804e-02
1.490046e-02
1.487327e-02
1.483723e-02
1.479315e-02
1.474190e-02
1.468433e-02
1.462133e-02
1.455374e-02
1.448240e-02
1.440811e-02
1.433161e-02
1.425359e-02
1.417465e-02
1.409529e-02
1.401587e-02
1.393659e-02
1.385744e-02
1.377821e-02
1.377827e-02
4.361820e-03
4.380845e-03
4.287932e-03
4.195662e-03
4.094778e-03
3.983277e-03
3.862221e-03
3.737403e-03
3.619947e-03
3.524127e-03
3.462542e-03
3.440685e-03
3.453656e-03
3.486953e-03
3.521389e-03
3.540269e-03
3.535908e-03
3.512775e-03
3.485953e-03
3.475472e-03
3.498784e-03
3.564325e-03
3.668670e-03
3.798303e-03
3.935167e-03
4.063574e-03
4.175913e-03
4.274878e-03
4.371659e-03
4.481070e-03
4.615730e-03
4.781578e-03
4.976260e-03
5.190722e-03
5.413053e-03
5.632949e-03
5.845096e-03
6.050400e-03
6.254884e-03
6.466951e-03
6.694161e-03
6.940692e-03
7.206247e-03
7.486554e-03
7.775065e-03
8.065103e-03
8.351716e-03
8.632695e-03
8.908605e-03
9.181982e-03
9.456111e-03
9.733540e-03
1.001517e-02
1.030081e-02
1.058873e-02
1.087625e-02
1.116034e-02
1.143830e-02
1.170815e-02
1.196877e-02
1.221979e-02
1.246138e-02
1.269383e-02
1.291731e-02
1.313164e-02
1.333629e-02
1.353044e-02
1.371312e-02
1.388342e-02
1.404063e-02
1.418428e-02
1.431421e-02
1.443043e-02
1.453313e-02
1.462250e-02
1.469876e-02
1.476206e-02
1.481263e-02
1.485063e-02
1.487629e-02
1.488993e-02
1.489200e-02
1.488302e-02
1.486366e-02
1.483463e-02
1.479671e-02
1.475068e-02
1.469738e-02
1.463761e-02
1.457218e-02
1.450189e-02
1.442749e-02
1.434974e-02
1.426931e-02
1.418682e-02
1.410282e-02
1.401773e-02
1.393186e-02
1.384533e-02
1.375812e-02
1.366995e-02
1.366997e-02
4.466025e-03
4.487779e-03
4.370081e-03
4.246902e-03
4.113882e-03
3.973031e-03
3.830581e-03
3.697619e-03
3.588122e-03
3.514341e-03
3.481416e-03
3.484044e-03
3.507204e-03
3.531130e-03
3.538671e-03
3.522018e-03
3.485995e-03
3.446431e-03
3.424231e-03
3.437435e-03
3.494468e-03
3.591209e-03
3.712996e-03
3.840626e-03
3.957837e-03
4.057188e-03
4.142276e-03
4.225552e-03
4.322927e-03
4.447518e-03
4.604976e-03
4.792036e-03
4.998494e-03
5.211537e-03
5.420554e-03
5.620635e-03
5.813636e-03
6.006717e-03
6.209186e-03
6.428971e-03
6.669976e-03
6.931128e-03
7.207193e-03
7.490829e-03
7.775023e-03
8.055043e-03
8.329366e-03
8.599454e-03
8.868658e-03
9.140759e-03
9.418635e-03
9.703158e-03
9.992932e-03
1.028565e-02
1.057818e-02
1.086732e-02
1.115043e-02
1.142578e-02
1.169256e-02
1.195070e-02
1.220051e-02
1.244228e-02
1.267604e-02
1.290140e-02
1.311760e-02
1.332359e-02
1.351831e-02
1.370078e-02
1.387031e-02
1.402647e-02
1.416911e-02
1.429823e-02
1.441395e-02
1.451635e-02
1.460549e-02
1.468139e-02
1.474409e-02
1.479370e-02
1.483038e-02
1.485442e-02
1.486620e-02
1.486626e-02
1.485519e-02
1.483369e-02
1.480247e-02
1.476228e-02
1.471389e-02
1.465805e-02
1.459553e-02
1.452710e-02
1.445349e-02
1.437546e-02
1.429367e-02
1.420880e-02
1.412141e-02
1.403200e-02
1.394095e-02
1.384854e-02
1.375486e-02
1.365986e-02
1.356329e-02
1.356327e-02
4.555530e-03
4.574239e-03
4.425630e-03
4.268580e-03
4.104491e-03
3.940433e-03
3.787934e-03
3.661074e-03
3.571981e-03
3.525530e-03
3.516001e-03
3.527799e-03
3.540483e-03
3.536300e-03
3.507138e-03
3.457965e-03
3.405199e-03
3.370540e-03
3.372682e-03
3.420207e-03
3.508532e-03
3.622052e-03
3.740526e-03
3.847024e-03
3.934163e-03
4.006226e-03
4.076706e-03
4.162451e-03
4.277003e-03
4.425768e-03
4.604689e-03
4.802593e-03
5.005936e-03
5.203930e-03
5.392118e-03
5.573261e-03
5.755531e-03
5.948975e-03
6.161714e-03
6.397256e-03
6.653708e-03
6.924915e-03
7.202871e-03
7.480398e-03
7.753153e-03
8.020412e-03
8.284567e-03
8.549727e-03
8.820033e-03
9.098273e-03
9.385142e-03
9.678960e-03
9.976134e-03
1.027316e-02
1.056679e-02
1.085456e-02
1.113509e-02
1.140796e-02
1.167335e-02
1.193165e-02
1.218310e-02
1.242750e-02
1.266419e-02
1.289215e-02
1.311017e-02
1.331707e-02
1.351191e-02
1.369401e-02
1.386301e-02
1.401878e-02
1.416130e-02
1.429056e-02
1.440653e-02
1.450909e-02
1.459811e-02
1.467349e-02
1.473519e-02
1.478337e-02
1.481829e-02
1.484032e-02
1.484995e-02
1.484777e-02
1.483440e-02
1.481053e-02
1.477685e-02
1.473405e-02
1.468285e-02
1.462399e-02
1.455818e-02
1.448619e-02
1.440872e-02
1.432650e-02
1.424020e-02
1.415043e-02
1.405777e-02
1.396266e-02
1.386549e-02
1.376649e-02
1.366578e-02
1.356329e-02
1.345880e-02
1.345875e-02
4.620551e-03
4.630691e-03
4.448628e-03
4.259180e-03
4.070518e-03
3.894904e-03
3.746921e-03
3.638961e-03
3.575915e-03
3.551800e-03
3.550482e-03
3.550793e-03
3.534239e-03
3.492205e-03
3.429579e-03
3.363163e-03
3.315336e-03
3.305439e-03
3.342344e-03
3.421200e-03
3.525674e-03
3.634647e-03
3.730553e-03
3.805938e-03
3.865638e-03
3.923983e-03
3.998576e-03
4.103268e-03
4.243193e-03
4.413575e-03
4.602408e-03
4.795582e-03
4.982277e-03
5.158565e-03
5.328108e-03
5.500001e-03
5.684884e-03
5.890915e-03
6.121076e-03
6.372591e-03
6.638410e-03
6.909965e-03
7.180061e-03
7.444900e-03
7.704667e-03
7.962715e-03
8.223856e-03
8.492477e-03
8.771128e-03
9.059927e-03
9.356806e-03
9.658035e-03
9.959039e-03
1.025660e-02
1.054860e-02
1.083406e-02
1.111296e-02
1.138572e-02
1.165277e-02
1.191419e-02
1.216951e-02
1.241777e-02
1.265770e-02
1.288793e-02
1.310725e-02
1.331472e-02
1.350977e-02
1.369208e-02
1.386153e-02
1.401803e-02
1.416145e-02
1.429160e-02
1.440818e-02
1.451091e-02
1.459956e-02
1.467402e-02
1.473433e-02
1.478076e-02
1.481369e-02
1.483360e-02
1.484102e-02
1.483653e-02
1.482075e-02
1.479431e-02
1.475786e-02
1.471205e-02
1.465760e-02
1.459520e-02
1.452559e-02
1.444951e-02
1.436767e-02
1.428079e-02
1.418952e-02
1.409449e-02
1.399622e-02
1.389518e-02
1.379174e-02
1.368614e-02
1.357850e-02
1.346880e-02
1.335686e-02
1.335677e-02
4.653234e-03
4.650536e-03
4.436734e-03
4.221810e-03
4.020538e-03
3.848245e-03
3.717973e-03
3.635033e-03
3.593505e-03
3.576899e-03
3.563344e-03
3.533505e-03
3.478059e-03
3.401578e-03
3.321026e-03
3.259318e-03
3.236419e-03
3.261571e-03
3.329831e-03
3.424319e-03
3.523183e-03
3.608300e-03
3.672087e-03
3.719781e-03
3.766430e-03
3.830241e-03
3.925265e-03
4.056314e-03
4.217912e-03
4.397302e-03
4.579924e-03
4.755033e-03
4.919311e-03
5.077335e-03
5.239073e-03
5.415658e-03
5.615171e-03
5.839963e-03
6.086321e-03
6.346308e-03
6.610864e-03
6.872892e-03
7.129253e-03
7.381126e-03
7.632847e-03
7.889883e-03
8.156769e-03
8.435702e-03
8.726134e-03
9.025283e-03
9.329200e-03
9.633640e-03
9.934643e-03
1.023048e-02
1.052066e-02
1.080556e-02
1.108580e-02
1.136178e-02
1.163336e-02
1.189978e-02
1.215978e-02
1.241183e-02
1.265446e-02
1.288645e-02
1.310693e-02
1.331539e-02
1.351158e-02
1.369534e-02
1.386650e-02
1.402478e-02
1.416978e-02
1.430106e-02
1.441818e-02
1.452079e-02
1.460871e-02
1.468196e-02
1.474072e-02
1.478537e-02
1.481639e-02
1.483427e-02
1.483952e-02
1.483269e-02
1.481434e-02
1.478506e-02
1.474547e-02
1.469624e-02
1.463806e-02
1.457164e-02
1.449774e-02
1.441709e-02
1.433043e-02
1.423845e-02
1.414183e-02
1.404116e-02
1.393700e-02
1.382981e-02
1.371997e-02
1.360775e-02
1.349330e-02
1.337663e-02
1.325762e-02
1.325751e-02
4.648218e-03
4.631234e-03
4.392548e-03
4.164411e-03
3.965685e-03
3.810308e-03
3.704420e-03
3.642596e-03
3.608317e-03
3.579157e-03
3.534904e-03
3.465355e-03
3.374513e-03
3.279274e-03
3.202938e-03
3.166061e-03
3.178339e-03
3.234883e-03
3.318428e-03
3.406495e-03
3.480438e-03
3.532537e-03
3.568313e-03
3.603405e-03
3.656564e-03
3.741978e-03
3.864109e-03
4.016785e-03
4.186525e-03
4.358371e-03
4.521710e-03
4.673866e-03
4.820339e-03
4.971950e-03
5.140274e-03
5.333248e-03
5.552541e-03
5.793474e-03
6.047233e-03
6.304311e-03
6.557777e-03
6.805225e-03
7.048869e-03
7.294029e-03
7.546779e-03
7.811723e-03
8.090625e-03
8.382217e-03
8.682996e-03
8.988543e-03
9.294829e-03
9.598781e-03
9.898115e-03
1.019285e-02
1.048373e-02
1.077152e-02
1.105654e-02
1.133839e-02
1.161599e-02
1.188777e-02
1.215203e-02
1.240721e-02
1.265214e-02
1.288604e-02
1.310846e-02
1.331917e-02
1.351796e-02
1.370452e-02
1.387839e-02
1.403900e-02
1.418571e-02
1.431795e-02
1.443531e-02
1.453754e-02
1.462462e-02
1.469671e-02
1.475410e-02
1.479722e-02
1.482656e-02
1.484254e-02
1.484563e-02
1.483633e-02
1.481515e-02
1.478269e-02
1.473957e-02
1.468648e-02
1.462412e-02
1.455325e-02
1.447461e-02
1.438897e-02
1.429707e-02
1.419960e-02
1.409724e-02
1.399061e-02
1.388028e-02
1.376672e-02
1.365035e-02
1.353147e-02
1.341027e-02
1.328683e-02
1.316109e-02
1.316096e-02
4.604256e-03
4.575614e-03
4.323853e-03
4.097822e-03
3.915575e-03
3.784360e-03
3.699678e-03
3.645399e-03
3.598821e-03
3.538913e-03
3.454468e-03
3.348689e-03
3.238159e-03
3.146407e-03
3.094550e-03
3.092829e-03
3.136567e-03
3.208257e-03
3.284873e-03
3.347237e-03
3.387418e-03
3.411163e-03
3.434585e-03
3.476931e-03
3.552563e-03
3.665611e-03
3.809229e-03
3.969226e-03
4.130240e-03
4.281773e-03
4.421772e-03
4.556640e-03
4.698022e-03
4.857922e-03
5.044122e-03
5.257610e-03
5.492753e-03
5.739884e-03
5.989082e-03
6.233618e-03
6.471839e-03
6.707000e-03
6.945376e-03
7.193596e-03
7.456262e-03
7.734656e-03
8.026768e-03
8.328401e-03
8.634733e-03
8.941729e-03
9.246966e-03
9.549466e-03
9.848594e-03
1.014541e-02
1.044078e-02
1.073486e-02
1.102697e-02
1.131570e-02
1.159921e-02
1.187568e-02
1.214354e-02
1.240168e-02
1.264942e-02
1.288637e-02
1.311229e-02
1.332685e-02
1.352959e-02
1.371983e-02
1.389681e-02
1.405975e-02
1.420795e-02
1.434094e-02
1.445843e-02
1.456038e-02
1.464690e-02
1.471822e-02
1.477465e-02
1.481658e-02
1.484441e-02
1.485853e-02
1.485935e-02
1.484733e-02
1.482302e-02
1.478702e-02
1.473998e-02
1.468263e-02
1.461571e-02
1.453998e-02
1.445621e-02
1.436518e-02
1.426763e-02
1.416428e-02
1.405583e-02
1.394291e-02
1.382612e-02
1.370598e-02
1.358293e-02
1.345733e-02
1.332943e-02
1.319935e-02
1.306713e-02
1.306697e-02
4.525758e-03
4.492165e-03
4.241866e-03
4.032020e-03
3.873978e-03
3.764474e-03
3.688188e-03
3.622483e-03
3.545680e-03
3.445513e-03
3.324185e-03
3.197734e-03
3.089745e-03
3.021869e-03
3.005000e-03
3.034847e-03
3.093821e-03
3.158414e-03
3.208864e-03
3.236907e-03
3.248385e-03
3.259852e-03
3.290997e-03
3.356410e-03
3.460013e-03
3.594349e-03
3.744533e-03
3.894767e-03
4.034598e-03
4.162517e-03
4.285759e-03
4.416758e-03
4.567938e-03
4.746959e-03
4.954172e-03
5.183047e-03
5.423109e-03
5.664057e-03
5.899373e-03
6.128147e-03
6.354638e-03
6.586023e-03
6.829422e-03
7.089382e-03
7.366663e-03
7.658523e-03
7.960119e-03
8.266305e-03
8.573129e-03
8.878588e-03
9.182557e-03
9.485870e-03
9.788533e-03
1.009142e-02
1.039449e-02
1.069673e-02
1.099642e-02
1.129151e-02
1.158011e-02
1.186071e-02
1.213229e-02
1.239428e-02
1.264633e-02
1.288813e-02
1.311921e-02
1.333889e-02
1.354630e-02
1.374047e-02
1.392048e-02
1.408556e-02
1.423517e-02
1.436901e-02
1.448699e-02
1.458918e-02
1.467572e-02
1.474682e-02
1.480270e-02
1.484364e-02
1.487002e-02
1.488217e-02
1.488049e-02
1.486548e-02
1.483772e-02
1.479784e-02
1.474656e-02
1.468462e-02
1.461278e-02
1.453182e-02
1.444255e-02
1.434573e-02
1.424214e-02
1.413253e-02
1.401762e-02
1.389809e-02
1.377456e-02
1.364760e-02
1.351771e-02
1.338529e-02
1.325065e-02
1.311402e-02
1.297548e-02
1.297531e-02
4.422753e-03
4.393330e-03
4.157711e-03
3.972028e-03
3.836345e-03
3.736456e-03