# vtk DataFile Version 3.0
Scalar Field
ASCII
DATASET RECTILINEAR_GRID
DIMENSIONS 102 102 1
X_COORDINATES 102 double
0.000000 0.100000 0.200000 0.300000 0.400000 0.500000 0.600000 0.700000 0.800000 0.900000 1.000000 1.100000 1.200000 1.300000 1.400000 1.500000 1.600000 1.700000 1.800000 1.900000 2.000000 2.100000 2.200000 2.300000 2.400000 2.500000 2.600000 2.700000 2.800000 2.900000 3.000000 3.100000 3.200000 3.300000 3.400000 3.500000 3.600000 3.700000 3.800000 3.900000 4.000000 4.100000 4.200000 4.300000 4.400000 4.500000 4.600000 4.700000 4.800000 4.900000 5.000000 5.100000 5.200000 5.300000 5.400000 5.500000 5.600000 5.700000 5.800000 5.900000 6.000000 6.100000 6.200000 6.300000 6.400000 6.500000 6.600000 6.700000 6.800000 6.900000 7.000000 7.100000 7.200000 7.300000 7.400000 7.500000 7.600000 7.700000 7.800000 7.900000 8.000000 8.100000 8.200000 8.300000 8.400000 8.500000 8.600000 8.700000 8.800000 8.900000 9.000000 9.100000 9.200000 9.300000 9.400000 9.500000 9.600000 9.700000 9.800000 9.900000 10.000000 10.100000 
Y_COORDINATES 102 double
0.000000 0.100000 0.200000 0.300000 0.400000 0.500000 0.600000 0.700000 0.800000 0.900000 1.000000 1.100000 1.200000 1.300000 1.400000 1.500000 1.600000 1.700000 1.800000 1.900000 2.000000 2.100000 2.200000 2.300000 2.400000 2.500000 2.600000 2.700000 2.800000 2.900000 3.000000 3.100000 3.200000 3.300000 3.400000 3.500000 3.600000 3.700000 3.800000 3.900000 4.000000 4.100000 4.200000 4.300000 4.400000 4.500000 4.600000 4.700000 4.800000 4.900000 5.000000 5.100000 5.200000 5.300000 5.400000 5.500000 5.600000 5.700000 5.800000 5.900000 6.000000 6.100000 6.200000 6.300000 6.400000 6.500000 6.600000 6.700000 6.800000 6.900000 7.000000 7.100000 7.200000 7.300000 7.400000 7.500000 7.600000 7.700000 7.800000 7.900000 8.000000 8.100000 8.200000 8.300000 8.400000 8.500000 8.600000 8.700000 8.800000 8.900000 9.000000 9.100000 9.200000 9.300000 9.400000 9.500000 9.600000 9.700000 9.800000 9.900000 10.000000 10.100000 
Z_COORDINATES 1 double
0.0
POINT_DATA 10404
SCALARS Pressure double 1
LOOKUP_TABLE default
0.000000e+00
1.712031e-02
1.721460e-02
1.730984e-02
1.731539e-02
1.719751e-02
1.697538e-02
1.670351e-02
1.644308e-02
1.623591e-02
1.609128e-02
1.598875e-02
1.589303e-02
1.577290e-02
1.561558e-02
1.543108e-02
1.524607e-02
1.509118e-02
1.498809e-02
1.494208e-02
1.494248e-02
1.496978e-02
1.500519e-02
1.503827e-02
1.506954e-02
1.510797e-02
1.516541e-02
1.525101e-02
1.536811e-02
1.551422e-02
1.568346e-02
1.586973e-02
1.606908e-02
1.628047e-02
1.650510e-02
1.674496e-02
1.700147e-02
1.727482e-02
1.756392e-02
1.786691e-02
1.818184e-02
1.850701e-02
1.884115e-02
1.918329e-02
1.953243e-02
1.988736e-02
2.024650e-02
2.060792e-02
2.096941e-02
2.132876e-02
2.168391e-02
2.203293e-02
2.237406e-02
2.270562e-02
2.302594e-02
2.333334e-02
2.362611e-02
2.390257e-02
2.416105e-02
2.440005e-02
2.461819e-02
2.481426e-02
2.498727e-02
2.513636e-02
2.526086e-02
2.536024e-02
2.543412e-02
2.548226e-02
2.550461e-02
2.550127e-02
2.547251e-02
2.541880e-02
2.534079e-02
2.523933e-02
2.511543e-02
2.497031e-02
2.480537e-02
2.462216e-02
2.442241e-02
2.420797e-02
2.398087e-02
2.374322e-02
2.349731e-02
2.324550e-02
2.299032e-02
2.273440e-02
2.248048e-02
2.223141e-02
2.199015e-02
2.175975e-02
2.154332e-02
2.134405e-02
2.116512e-02
2.100968e-02
2.088072e-02
2.078092e-02
2.071225e-02
2.067535e-02
2.066832e-02
2.068451e-02
2.070867e-02
0.000000e+00
1.712031e-02
1.715278e-02
1.728280e-02
1.736215e-02
1.731928e-02
1.715141e-02
1.690369e-02
1.664074e-02
1.641624e-02
1.625301e-02
1.613997e-02
1.604404e-02
1.592958e-02
1.577597e-02
1.558617e-02
1.538372e-02
1.520104e-02
1.506531e-02
1.498826e-02
1.496381e-02
1.497359e-02
1.499670e-02
1.501872e-02
1.503645e-02
1.505690e-02
1.509222e-02
1.515356e-02
1.524672e-02
1.537105e-02
1.552131e-02
1.569090e-02
1.587476e-02
1.607079e-02
1.627962e-02
1.650324e-02
1.674355e-02
1.700127e-02
1.727580e-02
1.756552e-02
1.786848e-02
1.818292e-02
1.850752e-02
1.884130e-02
1.918339e-02
1.953277e-02
1.988804e-02
2.024745e-02
2.060897e-02
2.097036e-02
2.132948e-02
2.168437e-02
2.203321e-02
2.237429e-02
2.270592e-02
2.302640e-02
2.333397e-02
2.362686e-02
2.390334e-02
2.416177e-02
2.440065e-02
2.461864e-02
2.481458e-02
2.498749e-02
2.513654e-02
2.526105e-02
2.536048e-02
2.543443e-02
2.548265e-02
2.550505e-02
2.550173e-02
2.547297e-02
2.541923e-02
2.534117e-02
2.523963e-02
2.511567e-02
2.497050e-02
2.480553e-02
2.462230e-02
2.442255e-02
2.420813e-02
2.398104e-02
2.374341e-02
2.349749e-02
2.324568e-02
2.299049e-02
2.273455e-02
2.248060e-02
2.223152e-02
2.199024e-02
2.175982e-02
2.154338e-02
2.134410e-02
2.116516e-02
2.100971e-02
2.088075e-02
2.078094e-02
2.071226e-02
2.067535e-02
2.066833e-02
2.068451e-02
2.070868e-02
2.070867e-02
1.721610e-02
1.728637e-02
1.738966e-02
1.738319e-02
1.725886e-02
1.706104e-02
1.684931e-02
1.667046e-02
1.654154e-02
1.644903e-02
1.636140e-02
1.624753e-02
1.609221e-02
1.590246e-02
1.570309e-02
1.552492e-02
1.539166e-02
1.531152e-02
1.527646e-02
1.526847e-02
1.526906e-02
1.526713e-02
1.526228e-02
1.526282e-02
1.528042e-02
1.532457e-02
1.539912e-02
1.550216e-02
1.562820e-02
1.577140e-02
1.592790e-02
1.609673e-02
1.627908e-02
1.647694e-02
1.669179e-02
1.692388e-02
1.717225e-02
1.743530e-02
1.771134e-02
1.799901e-02
1.829739e-02
1.860578e-02
1.892345e-02
1.924942e-02
1.958235e-02
1.992059e-02
2.026226e-02
2.060544e-02
2.094814e-02
2.128853e-02
2.162495e-02
2.195575e-02
2.227930e-02
2.259390e-02
2.289779e-02
2.318922e-02
2.346646e-02
2.372791e-02
2.397205e-02
2.419757e-02
2.440326e-02
2.458809e-02
2.475115e-02
2.489164e-02
2.500889e-02
2.510239e-02
2.517172e-02
2.521667e-02
2.523716e-02
2.523331e-02
2.520541e-02
2.515395e-02
2.507960e-02
2.498321e-02
2.486579e-02
2.472854e-02
2.457281e-02
2.440008e-02
2.421199e-02
2.401032e-02
2.379695e-02
2.357393e-02
2.334341e-02
2.310766e-02
2.286906e-02
2.263012e-02
2.239340e-02
2.216159e-02
2.193743e-02
2.172370e-02
2.152325e-02
2.133892e-02
2.117351e-02
2.102972e-02
2.090999e-02
2.081638e-02
2.075024e-02
2.071175e-02
2.069929e-02
2.070866e-02
2.073286e-02
2.073286e-02
1.740537e-02
1.746186e-02
1.747191e-02
1.736572e-02
1.719242e-02
1.701573e-02
1.687892e-02
1.679094e-02
1.672990e-02
1.665945e-02
1.654902e-02
1.638853e-02
1.619194e-02
1.598971e-02
1.581464e-02
1.568829e-02
1.561399e-02
1.557860e-02
1.556118e-02
1.554358e-02
1.551795e-02
1.548831e-02
1.546655e-02
1.546577e-02
1.549452e-02
1.555428e-02
1.564061e-02
1.574656e-02
1.586626e-02
1.599701e-02
1.613938e-02
1.629582e-02
1.646881e-02
1.665960e-02
1.686781e-02
1.709193e-02
1.733008e-02
1.758072e-02
1.784290e-02
1.811616e-02
1.840018e-02
1.869444e-02
1.899800e-02
1.930949e-02
1.962727e-02
1.994957e-02
2.027468e-02
2.060100e-02
2.092678e-02
2.125047e-02
2.157055e-02
2.188542e-02
2.219338e-02
2.249266e-02
2.278150e-02
2.305817e-02
2.332110e-02
2.356881e-02
2.379999e-02
2.401343e-02
2.420806e-02
2.438289e-02
2.453704e-02
2.466973e-02
2.478029e-02
2.486820e-02
2.493308e-02
2.497473e-02
2.499310e-02
2.498836e-02
2.496082e-02
2.491101e-02
2.483959e-02
2.474740e-02
2.463544e-02
2.450486e-02
2.435694e-02
2.419311e-02
2.401493e-02
2.382409e-02
2.362241e-02
2.341183e-02
2.319442e-02
2.297235e-02
2.274789e-02
2.252337e-02
2.230124e-02
2.208399e-02
2.187414e-02
2.167428e-02
2.148699e-02
2.131482e-02
2.116025e-02
2.102565e-02
2.091310e-02
2.082434e-02
2.076055e-02
2.072211e-02
2.070842e-02
2.071799e-02
2.074924e-02
2.074924e-02
1.759871e-02
1.760613e-02
1.750967e-02
1.734214e-02
1.717863e-02
1.706644e-02
1.701096e-02
1.698214e-02
1.693546e-02
1.683593e-02
1.667442e-02
1.647019e-02
1.626040e-02
1.608276e-02
1.595984e-02
1.589203e-02
1.586109e-02
1.584143e-02
1.581280e-02
1.576857e-02
1.571635e-02
1.567211e-02
1.565176e-02
1.566438e-02
1.570999e-02
1.578178e-02
1.587079e-02
1.597033e-02
1.607820e-02
1.619620e-02
1.632810e-02
1.647718e-02
1.664480e-02
1.683020e-02
1.703134e-02
1.724604e-02
1.747274e-02
1.771081e-02
1.796019e-02
1.822093e-02
1.849273e-02
1.877469e-02
1.906544e-02
1.936332e-02
1.966668e-02
1.997396e-02
2.028383e-02
2.059502e-02
2.090595e-02
2.121508e-02
2.152089e-02
2.182166e-02
2.211563e-02
2.240101e-02
2.267610e-02
2.293932e-02
2.318926e-02
2.342460e-02
2.364418e-02
2.384687e-02
2.403163e-02
2.419750e-02
2.434359e-02
2.446912e-02
2.457344e-02
2.465604e-02
2.471659e-02
2.475491e-02
2.477102e-02
2.476509e-02
2.473750e-02
2.468877e-02
2.461957e-02
2.453073e-02
2.442319e-02
2.429807e-02
2.415658e-02
2.400011e-02
2.383014e-02
2.364832e-02
2.345639e-02
2.325624e-02
2.304983e-02
2.283923e-02
2.262659e-02
2.241413e-02
2.220412e-02
2.199891e-02
2.180084e-02
2.161228e-02
2.143560e-02
2.127310e-02
2.112704e-02
2.099952e-02
2.089242e-02
2.080734e-02
2.074551e-02
2.070770e-02
2.069431e-02
2.070564e-02
2.074280e-02
2.074280e-02
1.774293e-02
1.769592e-02
1.753053e-02
1.736214e-02
1.725466e-02
1.721612e-02
1.721212e-02
1.718993e-02
1.710697e-02
1.695062e-02
1.674183e-02
1.652309e-02
1.633807e-02
1.621303e-02
1.614824e-02
1.612204e-02
1.610412e-02
1.607068e-02
1.601410e-02
1.594380e-02
1.587912e-02
1.583916e-02
1.583467e-02
1.586550e-02
1.592329e-02
1.599727e-02
1.607949e-02
1.616752e-02
1.626383e-02
1.637316e-02
1.649962e-02
1.664493e-02
1.680828e-02
1.698735e-02
1.717971e-02
1.738378e-02
1.759908e-02
1.782585e-02
1.806443e-02
1.831466e-02
1.857574e-02
1.884632e-02
1.912476e-02
1.940951e-02
1.969919e-02
1.999270e-02
2.028904e-02
2.058716e-02
2.088533e-02
2.118188e-02
2.147511e-02
2.176326e-02
2.204453e-02
2.231724e-02
2.257985e-02
2.283097e-02
2.306934e-02
2.329376e-02
2.350313e-02
2.369633e-02
2.387234e-02
2.403017e-02
2.416893e-02
2.428786e-02
2.438634e-02
2.446391e-02
2.452027e-02
2.455530e-02
2.456906e-02
2.456174e-02
2.453375e-02
2.448562e-02
2.441799e-02
2.433166e-02
2.422755e-02
2.410671e-02
2.397034e-02
2.381976e-02
2.365644e-02
2.348196e-02
2.329802e-02
2.310641e-02
2.290903e-02
2.270784e-02
2.250489e-02
2.230227e-02
2.210212e-02
2.190662e-02
2.171798e-02
2.153839e-02
2.137001e-02
2.121497e-02
2.107532e-02
2.095299e-02
2.084973e-02
2.076710e-02
2.070645e-02
2.066888e-02
2.065546e-02
2.066747e-02
2.070702e-02
2.070701e-02
1.783255e-02
1.775353e-02
1.757942e-02
1.746014e-02
1.742117e-02
1.742886e-02
1.742523e-02
1.735983e-02
1.721365e-02
1.700543e-02
1.678000e-02
1.658597e-02
1.645433e-02
1.638757e-02
1.636302e-02
1.634708e-02
1.631224e-02
1.624865e-02
1.616569e-02
1.608454e-02
1.602684e-02
1.600538e-02
1.602073e-02
1.606410e-02
1.612360e-02
1.619023e-02
1.626098e-02
1.633837e-02
1.642756e-02
1.653319e-02
1.665738e-02
1.679947e-02
1.695716e-02
1.712799e-02
1.731046e-02
1.750419e-02
1.770959e-02
1.792711e-02
1.815671e-02
1.839760e-02
1.864849e-02
1.890784e-02
1.917421e-02
1.944647e-02
1.972372e-02
2.000519e-02
2.029001e-02
2.057706e-02
2.086431e-02
2.114980e-02
2.143177e-02
2.170845e-02
2.197818e-02
2.223949e-02
2.249101e-02
2.273150e-02
2.295980e-02
2.317475e-02
2.337523e-02
2.356011e-02
2.372835e-02
2.387894e-02
2.401104e-02
2.412390e-02
2.421696e-02
2.428981e-02
2.434220e-02
2.437406e-02
2.438546e-02
2.437662e-02
2.434794e-02
2.429994e-02
2.423326e-02
2.414865e-02
2.404700e-02
2.392936e-02
2.379688e-02
2.365088e-02
2.349277e-02
2.332409e-02
2.314649e-02
2.296170e-02
2.277152e-02
2.257783e-02
2.238258e-02
2.218774e-02
2.199534e-02
2.180743e-02
2.162606e-02
2.145327e-02
2.129109e-02
2.114148e-02
2.100632e-02
2.088742e-02
2.078643e-02
2.070492e-02
2.064430e-02
2.060591e-02
2.059118e-02
2.060177e-02
2.063998e-02
2.063997e-02
1.790169e-02
1.782688e-02
1.769400e-02
1.764014e-02
1.764478e-02
1.764884e-02
1.759620e-02
1.746097e-02
1.725723e-02
1.702897e-02
1.682738e-02
1.668749e-02
1.661493e-02
1.658791e-02
1.657143e-02
1.653540e-02
1.646763e-02
1.637643e-02
1.628337e-02
1.621139e-02
1.617475e-02
1.617500e-02
1.620363e-02
1.624847e-02
1.630011e-02
1.635515e-02
1.641586e-02
1.648737e-02
1.657437e-02
1.667908e-02
1.680101e-02
1.693808e-02
1.708808e-02
1.724973e-02
1.742286e-02
1.760796e-02
1.780550e-02
1.801537e-02
1.823679e-02
1.846848e-02
1.870902e-02
1.895721e-02
1.921214e-02
1.947318e-02
1.973975e-02
2.001114e-02
2.028631e-02
2.056393e-02
2.084159e-02
2.111713e-02
2.138886e-02
2.165517e-02
2.191463e-02
2.216595e-02
2.240791e-02
2.263934e-02
2.285907e-02
2.306591e-02
2.325870e-02
2.343628e-02
2.359761e-02
2.374172e-02
2.386779e-02
2.397514e-02
2.406326e-02
2.413179e-02
2.418052e-02
2.420939e-02
2.421849e-02
2.420804e-02
2.417840e-02
2.413011e-02
2.406378e-02
2.398015e-02
2.388011e-02
2.376467e-02
2.363500e-02
2.349237e-02
2.333816e-02
2.317389e-02
2.300112e-02
2.282154e-02
2.263686e-02
2.244890e-02
2.225950e-02
2.207054e-02
2.188395e-02
2.170165e-02
2.152557e-02
2.135762e-02
2.119969e-02
2.105361e-02
2.092115e-02
2.080398e-02
2.070371e-02
2.062187e-02
2.055992e-02
2.051930e-02
2.050156e-02
2.050844e-02
2.054208e-02
2.054207e-02
1.799965e-02
1.796119e-02
1.788656e-02
1.787560e-02
1.787475e-02
1.782545e-02
1.769658e-02
1.749705e-02
1.726812e-02
1.706124e-02
1.691369e-02
1.683373e-02
1.680112e-02
1.678082e-02
1.674154e-02
1.666959e-02
1.657222e-02
1.647067e-02
1.638811e-02
1.633928e-02
1.632620e-02
1.634073e-02
1.637098e-02
1.640768e-02
1.644762e-02
1.649301e-02
1.654876e-02
1.661924e-02
1.670641e-02
1.680971e-02
1.692726e-02
1.705724e-02
1.719879e-02
1.735208e-02
1.751775e-02
1.769621e-02
1.788722e-02
1.808987e-02
1.830286e-02
1.852492e-02
1.875509e-02
1.899276e-02
1.923759e-02
1.948920e-02
1.974699e-02
2.001000e-02
2.027692e-02
2.054618e-02
2.081516e-02
2.108166e-02
2.134420e-02
2.160141e-02
2.185207e-02
2.209498e-02
2.232899e-02
2.255287e-02
2.276541e-02
2.296535e-02
2.315150e-02
2.332272e-02
2.347797e-02
2.361634e-02
2.373707e-02
2.383955e-02
2.392329e-02
2.398797e-02
2.403341e-02
2.405954e-02
2.406643e-02
2.405429e-02
2.402345e-02
2.397449e-02
2.390799e-02
2.382470e-02
2.372550e-02
2.361141e-02
2.348357e-02
2.334324e-02
2.319176e-02
2.303060e-02
2.286129e-02
2.268543e-02
2.250470e-02
2.232082e-02
2.213557e-02
2.195074e-02
2.176815e-02
2.158963e-02
2.141700e-02
2.125206e-02
2.109657e-02
2.095225e-02
2.082076e-02
2.070371e-02
2.060262e-02
2.051896e-02
2.045421e-02
2.040982e-02
2.038732e-02
2.038836e-02
2.041480e-02
2.041479e-02
1.816414e-02
1.817630e-02
1.813899e-02
1.812212e-02
1.806489e-02
1.793337e-02
1.773263e-02
1.750095e-02
1.728879e-02
1.713413e-02
1.704654e-02
1.700680e-02
1.698011e-02
1.693480e-02
1.685669e-02
1.675268e-02
1.664380e-02
1.655308e-02
1.649496e-02
1.647114e-02
1.647331e-02
1.648980e-02
1.651188e-02
1.653688e-02
1.656750e-02
1.660861e-02
1.666417e-02
1.673562e-02
1.682204e-02
1.692151e-02
1.703257e-02
1.715487e-02
1.728905e-02
1.743599e-02
1.759610e-02
1.776897e-02
1.795348e-02
1.814829e-02
1.835223e-02
1.856457e-02
1.878507e-02
1.901367e-02
1.925021e-02
1.949421e-02
1.974474e-02
2.000050e-02
2.025996e-02
2.052155e-02
2.078263e-02
2.104111e-02
2.129575e-02
2.154538e-02
2.178886e-02
2.202500e-02
2.225257e-02
2.247027e-02
2.267682e-02
2.287093e-02
2.305141e-02
2.321716e-02
2.336718e-02
2.350063e-02
2.361681e-02
2.371512e-02
2.379513e-02
2.385652e-02
2.389907e-02
2.392273e-02
2.392753e-02
2.391365e-02
2.388144e-02
2.383148e-02
2.376439e-02
2.368090e-02
2.358192e-02
2.346843e-02
2.334158e-02
2.320258e-02
2.305277e-02
2.289355e-02
2.272642e-02
2.255293e-02
2.237470e-02
2.219340e-02
2.201073e-02
2.182840e-02
2.164815e-02
2.147173e-02
2.130084e-02
2.113718e-02
2.098243e-02
2.083820e-02
2.070606e-02
2.058755e-02
2.048412e-02
2.039719e-02
2.032816e-02
2.027847e-02
2.024953e-02
2.024287e-02
2.026005e-02
2.026005e-02
1.840357e-02
1.845808e-02
1.841134e-02
1.833604e-02
1.819121e-02
1.797986e-02
1.773856e-02
1.751698e-02
1.735316e-02
1.725700e-02
1.720920e-02
1.717453e-02
1.712085e-02
1.703389e-02
1.692094e-02
1.680358e-02
1.670496e-02
1.663908e-02
1.660673e-02
1.659874e-02
1.660310e-02
1.661144e-02
1.662190e-02
1.663790e-02
1.666478e-02
1.670632e-02
1.676338e-02
1.683448e-02
1.691744e-02
1.701094e-02
1.711509e-02
1.723100e-02
1.735990e-02
1.750226e-02
1.765754e-02
1.782445e-02
1.800154e-02
1.818770e-02
1.838248e-02
1.858593e-02
1.879830e-02
1.901965e-02
1.924960e-02
1.948728e-02
1.973138e-02
1.998042e-02
2.023290e-02
2.048747e-02
2.074166e-02
2.099344e-02
2.124174e-02
2.148544e-02
2.172336e-02
2.195422e-02
2.217670e-02
2.238941e-02
2.259104e-02
2.278032e-02
2.295609e-02
2.311730e-02
2.326303e-02
2.339248e-02
2.350496e-02
2.359992e-02
2.367690e-02
2.373557e-02
2.377568e-02
2.379715e-02
2.380000e-02
2.378441e-02
2.375072e-02
2.369956e-02
2.363156e-02
2.354746e-02
2.344817e-02
2.333466e-02
2.320805e-02
2.306954e-02
2.292043e-02
2.276210e-02
2.259600e-02
2.242364e-02
2.224661e-02
2.206650e-02
2.188495e-02
2.170362e-02
2.152417e-02
2.134825e-02
2.117750e-02
2.101353e-02
2.085792e-02
2.071222e-02
2.057790e-02
2.045642e-02
2.034918e-02
2.025753e-02
2.018281e-02
2.012635e-02
2.008949e-02
2.007355e-02
2.007987e-02
2.007987e-02
1.869426e-02
1.876545e-02
1.865857e-02
1.849096e-02
1.825856e-02
1.799761e-02
1.775833e-02
1.757953e-02
1.747129e-02
1.741353e-02
1.736949e-02
1.730569e-02
1.720741e-02
1.708256e-02
1.695391e-02
1.684555e-02
1.677145e-02
1.673141e-02
1.671492e-02
1.670893e-02
1.670490e-02
1.670157e-02
1.670328e-02
1.671599e-02
1.674378e-02
1.678715e-02
1.684404e-02
1.691186e-02
1.698920e-02
1.707644e-02
1.717511e-02
1.728673e-02
1.741193e-02
1.755010e-02
1.769982e-02
1.785955e-02
1.802827e-02
1.820574e-02
1.839229e-02
1.858845e-02
1.879451e-02
1.901017e-02
1.923459e-02
1.946649e-02
1.970443e-02
1.994702e-02
2.019306e-02
2.044155e-02
2.069020e-02
2.093687e-02
2.118048e-02
2.141985e-02
2.165367e-02
2.188056e-02
2.209908e-02
2.230787e-02
2.250560e-02
2.269106e-02
2.286314e-02
2.302086e-02
2.316334e-02
2.328979e-02
2.339954e-02
2.349199e-02
2.356667e-02
2.362321e-02
2.366133e-02
2.368094e-02
2.368205e-02
2.366486e-02
2.362970e-02
2.357723e-02
2.350813e-02
2.342313e-02
2.332312e-02
2.320906e-02
2.308207e-02
2.294330e-02
2.279405e-02
2.263565e-02
2.246955e-02
2.229720e-02
2.212015e-02
2.193996e-02
2.175820e-02
2.157648e-02
2.139638e-02
2.121950e-02
2.104740e-02
2.088162e-02
2.072367e-02
2.057500e-02
2.043705e-02
2.031118e-02
2.019873e-02
2.010099e-02
2.001922e-02
1.995466e-02
1.990852e-02
1.988199e-02
1.987619e-02
1.987620e-02
1.899132e-02
1.904800e-02
1.884786e-02
1.858561e-02
1.829481e-02
1.802749e-02
1.782474e-02
1.769784e-02
1.762601e-02
1.757033e-02
1.749480e-02
1.738321e-02
1.724365e-02
1.710035e-02
1.697900e-02
1.689435e-02
1.684568e-02
1.682104e-02
1.680588e-02
1.679084e-02
1.677474e-02
1.676267e-02
1.676142e-02
1.677542e-02
1.680526e-02
1.684849e-02
1.690210e-02
1.696447e-02
1.703602e-02
1.711852e-02
1.721375e-02
1.732244e-02
1.744397e-02
1.757685e-02
1.771952e-02
1.787106e-02
1.803143e-02
1.820123e-02
1.838125e-02
1.857191e-02
1.877304e-02
1.898379e-02
1.920291e-02
1.942904e-02
1.966092e-02
1.989752e-02
2.013804e-02
2.038175e-02
2.062647e-02
2.086966e-02
2.111014e-02
2.134657e-02
2.157751e-02
2.180151e-02
2.201713e-02
2.222301e-02
2.241790e-02
2.260065e-02
2.277019e-02
2.292558e-02
2.306595e-02
2.319048e-02
2.329847e-02
2.338929e-02
2.346241e-02
2.351743e-02
2.355407e-02
2.357221e-02
2.357190e-02
2.355332e-02
2.351682e-02
2.346308e-02
2.339279e-02
2.330670e-02
2.320566e-02
2.309064e-02
2.296272e-02
2.282307e-02
2.267293e-02
2.251364e-02
2.234660e-02
2.217326e-02
2.199510e-02
2.181365e-02
2.163046e-02
2.144705e-02
2.126498e-02
2.108577e-02
2.091094e-02
2.074195e-02
2.058025e-02
2.042724e-02
2.028427e-02
2.015267e-02
2.003368e-02
1.992855e-02
1.983846e-02
1.976455e-02
1.970795e-02
1.966972e-02
1.965080e-02
1.965082e-02
1.924722e-02
1.926583e-02
1.896961e-02
1.864093e-02
1.833591e-02
1.809925e-02
1.794502e-02
1.785287e-02
1.778173e-02
1.769231e-02
1.756571e-02
1.740921e-02
1.724813e-02
1.711015e-02
1.701153e-02
1.695177e-02
1.691782e-02
1.689353e-02
1.686823e-02
1.684026e-02
1.681508e-02
1.680014e-02
1.680044e-02
1.681667e-02
1.684638e-02
1.688622e-02
1.693436e-02
1.699119e-02
1.705853e-02
1.713827e-02
1.723117e-02
1.733658e-02
1.745299e-02
1.757886e-02
1.771342e-02
1.785685e-02
1.801002e-02
1.817393e-02
1.834913e-02
1.853547e-02
1.873215e-02
1.893792e-02
1.915151e-02
1.937182e-02
1.959802e-02
1.982953e-02
2.006581e-02
2.030627e-02
2.054865e-02
2.078984e-02
2.102847e-02
2.126308e-02
2.149217e-02
2.171429e-02
2.192803e-02
2.213211e-02
2.232533e-02
2.250660e-02
2.267487e-02
2.282918e-02
2.296862e-02
2.309235e-02
2.319958e-02
2.328964e-02
2.336196e-02
2.341614e-02
2.345187e-02
2.346906e-02
2.346775e-02
2.344814e-02
2.341056e-02
2.335568e-02
2.328423e-02
2.319695e-02
2.309469e-02
2.297839e-02
2.284913e-02
2.270805e-02
2.255640e-02
2.239549e-02
2.222669e-02
2.205144e-02
2.187119e-02
2.168744e-02
2.150167e-02
2.131540e-02
2.113013e-02
2.094734e-02
2.076849e-02
2.059499e-02
2.042824e-02
2.026958e-02
2.012030e-02
1.998167e-02
1.985490e-02
1.974115e-02
1.964154e-02
1.955716e-02
1.948904e-02
1.943814e-02
1.940530e-02
1.940532e-02
1.942987e-02
1.940361e-02
1.903808e-02
1.868822e-02
1.840888e-02
1.821847e-02
1.809855e-02
1.800681e-02
1.790050e-02
1.775709e-02
1.758192e-02
1.740063e-02
1.724278e-02
1.712660e-02
1.705249e-02
1.700694e-02
1.697235e-02
1.693659e-02
1.689714e-02
1.685935e-02
1.683109e-02
1.681785e-02
1.682054e-02
1.683664e-02
1.686281e-02
1.689708e-02
1.693976e-02
1.699269e-02
1.705772e-02
1.713555e-02
1.722543e-02
1.732578e-02
1.743514e-02
1.755289e-02
1.767951e-02
1.781613e-02
1.796393e-02
1.812356e-02
1.829490e-02
1.847709e-02
1.866895e-02
1.886927e-02
1.907714e-02
1.929195e-02
1.951336e-02
1.974104e-02
1.997454e-02
2.021316e-02
2.045457e-02
2.069491e-02
2.093272e-02
2.116646e-02
2.139465e-02
2.161590e-02
2.182890e-02
2.203240e-02
2.222528e-02
2.240641e-02
2.257475e-02
2.272928e-02
2.286900e-02
2.299302e-02
2.310048e-02
2.319069e-02
2.326305e-02
2.331714e-02
2.335268e-02
2.336956e-02
2.336782e-02
2.334765e-02
2.330937e-02
2.325359e-02
2.318112e-02
2.309267e-02
2.298908e-02
2.287129e-02
2.274037e-02
2.259745e-02
2.244376e-02
2.228062e-02
2.210936e-02
2.193141e-02
2.174819e-02
2.156117e-02
2.137182e-02
2.118162e-02
2.099204e-02
2.080450e-02
2.062044e-02
2.044122e-02
2.026819e-02
2.010264e-02
1.994582e-02
1.979895e-02
1.966319e-02
1.953965e-02
1.942942e-02
1.933352e-02
1.925292e-02
1.918851e-02
1.914107e-02
1.914108e-02
1.953303e-02
1.947353e-02
1.908242e-02
1.875407e-02
1.851985e-02
1.836485e-02
1.824677e-02
1.811983e-02
1.795745e-02
1.776208e-02
1.755879e-02
1.737855e-02
1.724169e-02
1.715003e-02
1.709008e-02
1.704322e-02
1.699590e-02
1.694460e-02
1.689428e-02
1.685294e-02
1.682636e-02
1.681566e-02
1.681826e-02
1.683072e-02
1.685119e-02
1.687997e-02
1.691891e-02
1.696979e-02
1.703316e-02
1.710809e-02
1.719285e-02
1.728602e-02
1.738719e-02
1.749711e-02
1.761721e-02
1.774887e-02
1.789281e-02
1.804888e-02
1.821620e-02
1.839358e-02
1.857992e-02
1.877447e-02
1.897690e-02
1.918709e-02
1.940493e-02
1.963015e-02
1.986216e-02
2.010006e-02
2.034150e-02
2.058189e-02
2.081971e-02
2.105347e-02
2.128177e-02
2.150330e-02
2.171681e-02
2.192112e-02
2.211506e-02
2.229748e-02
2.246726e-02
2.262328e-02
2.276448e-02
2.288989e-02
2.299862e-02
2.308995e-02
2.316329e-02
2.321819e-02
2.325439e-02
2.327174e-02
2.327027e-02
2.325014e-02
2.321165e-02
2.315532e-02
2.308206e-02
2.299256e-02
2.288766e-02
2.276829e-02
2.263551e-02
2.249045e-02
2.233433e-02
2.216845e-02
2.199414e-02
2.181279e-02
2.162584e-02
2.143473e-02
2.124090e-02
2.104581e-02
2.085089e-02
2.065755e-02
2.046717e-02
2.028109e-02
2.010062e-02
1.992701e-02
1.976148e-02
1.960520e-02
1.945931e-02
1.932489e-02
1.920298e-02
1.909458e-02
1.900060e-02
1.892191e-02
1.885926e-02
1.885927e-02
1.957565e-02
1.950711e-02
1.913239e-02
1.884854e-02
1.865195e-02
1.850174e-02
1.834994e-02
1.816593e-02
1.794864e-02
1.772178e-02
1.751721e-02
1.735721e-02
1.724523e-02
1.716822e-02
1.710683e-02
1.704632e-02
1.698213e-02
1.691876e-02
1.686422e-02
1.682441e-02
1.680048e-02
1.678980e-02
1.678872e-02
1.679538e-02
1.681029e-02
1.683538e-02
1.687242e-02
1.692175e-02
1.698219e-02
1.705184e-02
1.712922e-02
1.721408e-02
1.730746e-02
1.741108e-02
1.752653e-02
1.765462e-02
1.779516e-02
1.794721e-02
1.810956e-02
1.828121e-02
1.846161e-02
1.865065e-02
1.884849e-02
1.905524e-02
1.927079e-02
1.949469e-02
1.972611e-02
1.996399e-02
2.020619e-02
2.044734e-02
2.068598e-02
2.092072e-02
2.115027e-02
2.137337e-02
2.158882e-02
2.179538e-02
2.199185e-02
2.217698e-02
2.234952e-02
2.250829e-02
2.265216e-02
2.278011e-02
2.289123e-02
2.298479e-02
2.306019e-02
2.311696e-02
2.315481e-02
2.317355e-02
2.317318e-02
2.315380e-02
2.311569e-02
2.305929e-02
2.298559e-02
2.289529e-02
2.278922e-02
2.266831e-02
2.253360e-02
2.238622e-02
2.222739e-02
2.205839e-02
2.188056e-02
2.169527e-02
2.150395e-02
2.130801e-02
2.110891e-02
2.090806e-02
2.070688e-02
2.050675e-02
2.030903e-02
2.011503e-02
1.992602e-02
1.974324e-02
1.956787e-02
1.940108e-02
1.924397e-02
1.909760e-02
1.896301e-02
1.884117e-02
1.873299e-02
1.863930e-02
1.856085e-02
1.856086e-02
1.959123e-02
1.953983e-02
1.920503e-02
1.896121e-02
1.877320e-02
1.859184e-02
1.838280e-02
1.814121e-02
1.788885e-02
1.765797e-02
1.747262e-02
1.733797e-02
1.724157e-02
1.716353e-02
1.708798e-02
1.700944e-02
1.693199e-02
1.686361e-02
1.681032e-02
1.677322e-02
1.674946e-02
1.673515e-02
1.672819e-02
1.672924e-02
1.674048e-02
1.676374e-02
1.679924e-02
1.684556e-02
1.690051e-02
1.696250e-02
1.703137e-02
1.710841e-02
1.719562e-02
1.729483e-02
1.740691e-02
1.753164e-02
1.766801e-02
1.781480e-02
1.797108e-02
1.813649e-02
1.831116e-02
1.849552e-02
1.868990e-02
1.889437e-02
1.910859e-02
1.933186e-02
1.956319e-02
1.980145e-02
2.004496e-02
2.028757e-02
2.052794e-02
2.076479e-02
2.099687e-02
2.122297e-02
2.144183e-02
2.165213e-02
2.185255e-02
2.204173e-02
2.221834e-02
2.238112e-02
2.252889e-02
2.266062e-02
2.277540e-02
2.287246e-02
2.295116e-02
2.301101e-02
2.305163e-02
2.307281e-02
2.307446e-02
2.305666e-02
2.301966e-02
2.296384e-02
2.289018e-02
2.279946e-02
2.269250e-02
2.257022e-02
2.243364e-02
2.228391e-02
2.212223e-02
2.194987e-02
2.176817e-02
2.157851e-02
2.138229e-02
2.118093e-02
2.097586e-02
2.076849e-02
2.056021e-02
2.035239e-02
2.014636e-02
1.994343e-02
1.974484e-02
1.955182e-02
1.936556e-02
1.918718e-02
1.901780e-02
1.885847e-02
1.871023e-02
1.857405e-02
1.845084e-02
1.834145e-02
1.824664e-02
1.824665e-02
1.961213e-02
1.959550e-02
1.929781e-02
1.906624e-02
1.885004e-02
1.861162e-02
1.834227e-02
1.806147e-02
1.780154e-02
1.758821e-02
1.742837e-02
1.731030e-02
1.721359e-02
1.712119e-02
1.702665e-02
1.693364e-02
1.685028e-02
1.678278e-02
1.673223e-02
1.669543e-02
1.666810e-02
1.664787e-02
1.663521e-02
1.663258e-02
1.664203e-02
1.666376e-02
1.669613e-02
1.673669e-02
1.678366e-02
1.683689e-02
1.689784e-02
1.696879e-02
1.705174e-02
1.714767e-02
1.725632e-02
1.737663e-02
1.750733e-02
1.764759e-02
1.779720e-02
1.795656e-02
1.812632e-02
1.830706e-02
1.849901e-02
1.870197e-02
1.891535e-02
1.913826e-02
1.936969e-02
1.960860e-02
1.985388e-02
2.009879e-02
2.034197e-02
2.058219e-02
2.081822e-02
2.104877e-02
2.127248e-02
2.148793e-02
2.169364e-02
2.188818e-02
2.207014e-02
2.223824e-02
2.239128e-02
2.252820e-02
2.264807e-02
2.275005e-02
2.283346e-02
2.289770e-02
2.294235e-02
2.296712e-02
2.297186e-02
2.295662e-02
2.292159e-02
2.286715e-02
2.279417e-02
2.270357e-02
2.259615e-02
2.247283e-02
2.233461e-02
2.218264e-02
2.201810e-02
2.184228e-02
2.165652e-02
2.146218e-02
2.126066e-02
2.105337e-02
2.084174e-02
2.062716e-02
2.041102e-02
2.019467e-02
1.997945e-02
1.976663e-02
1.955749e-02
1.935323e-02
1.915503e-02
1.896405e-02
1.878139e-02
1.860812e-02
1.844527e-02
1.829386e-02
1.815481e-02
1.802901e-02
1.791724e-02
1.791725e-02
1.965568e-02
1.967664e-02
1.939041e-02
1.913340e-02
1.886028e-02
1.855846e-02
1.824490e-02
1.795183e-02
1.770667e-02
1.751826e-02
1.737573e-02
1.725807e-02
1.714689e-02
1.703453e-02
1.692421e-02
1.682425e-02
1.674126e-02
1.667643e-02
1.662624e-02
1.658589e-02
1.655252e-02
1.652647e-02
1.651005e-02
1.650564e-02
1.651357e-02
1.653206e-02
1.655841e-02
1.659065e-02
1.662854e-02
1.667368e-02
1.672853e-02
1.679527e-02
1.687495e-02
1.696731e-02
1.707119e-02
1.718533e-02
1.730894e-02
1.744199e-02
1.758511e-02
1.773921e-02
1.790506e-02
1.808307e-02
1.827317e-02
1.847487e-02
1.868741e-02
1.890994e-02
1.914158e-02
1.938149e-02
1.962889e-02
1.987718e-02
2.012441e-02
2.036936e-02
2.061073e-02
2.084712e-02
2.107702e-02
2.129889e-02
2.151117e-02
2.171237e-02
2.190106e-02
2.207592e-02
2.223576e-02
2.237944e-02
2.250598e-02
2.261445e-02
2.270407e-02
2.277416e-02
2.282422e-02
2.285387e-02
2.286293e-02
2.285138e-02
2.281938e-02
2.276727e-02
2.269580e-02
2.260604e-02
2.249878e-02
2.237490e-02
2.223543e-02
2.208148e-02
2.191426e-02
2.173504e-02
2.154514e-02
2.134593e-02
2.113882e-02
2.092521e-02
2.070651e-02
2.048413e-02
2.025944e-02
2.003380e-02
1.980855e-02
1.958498e-02
1.936435e-02
1.914789e-02
1.893679e-02
1.873220e-02
1.853527e-02
1.834709e-02
1.816871e-02
1.800118e-02
1.784547e-02
1.770251e-02
1.757315e-02
1.757316e-02
1.971757e-02
1.976448e-02
1.945363e-02
1.913974e-02
1.879981e-02
1.844797e-02
1.811621e-02
1.783386e-02
1.761207e-02
1.744111e-02
1.729944e-02
1.716708e-02
1.703480e-02
1.690511e-02
1.678652e-02
1.668620e-02
1.660566e-02
1.654119e-02
1.648736e-02
1.644074e-02
1.640129e-02
1.637130e-02
1.635301e-02
1.634708e-02
1.635167e-02
1.636391e-02
1.638158e-02
1.640438e-02
1.643393e-02
1.647285e-02
1.652346e-02
1.658687e-02
1.666276e-02
1.674993e-02
1.684707e-02
1.695346e-02
1.706925e-02
1.719527e-02
1.733266e-02
1.748241e-02
1.764509e-02
1.782074e-02
1.800898e-02
1.820920e-02
1.842067e-02
1.864269e-02
1.887465e-02
1.911598e-02
1.936614e-02
1.961895e-02
1.987149e-02
2.012246e-02
2.037045e-02
2.061389e-02
2.085118e-02
2.108068e-02
2.130081e-02
2.151005e-02
2.170697e-02
2.189022e-02
2.205852e-02
2.221068e-02
2.234559e-02
2.246222e-02
2.255968e-02
2.263721e-02
2.269419e-02
2.273020e-02
2.274498e-02
2.273846e-02
2.271074e-02
2.266213e-02
2.259319e-02
2.250518e-02
2.239886e-02
2.227512e-02
2.213496e-02
2.197949e-02
2.180990e-02
2.162746e-02
2.143350e-02
2.122938e-02
2.101649e-02
2.079626e-02
2.057009e-02
2.033939e-02
2.010555e-02
1.986995e-02
1.963391e-02
1.939877e-02
1.916578e-02
1.893621e-02
1.871126e-02
1.849212e-02
1.827995e-02
1.807589e-02
1.788104e-02
1.769649e-02
1.752327e-02
1.736239e-02
1.721474e-02
1.721475e-02
1.977463e-02
1.982743e-02
1.946096e-02
1.907693e-02
1.868078e-02
1.830396e-02