# vtk DataFile Version 3.0
Scalar Field
ASCII
DATASET RECTILINEAR_GRID
DIMENSIONS 102 102 1
X_COORDINATES 102 double
0.000000 0.100000 0.200000 0.300000 0.400000 0.500000 0.600000 0.700000 0.800000 0.900000 1.000000 1.100000 1.200000 1.300000 1.400000 1.500000 1.600000 1.700000 1.800000 1.900000 2.000000 2.100000 2.200000 2.300000 2.400000 2.500000 2.600000 2.700000 2.800000 2.900000 3.000000 3.100000 3.200000 3.300000 3.400000 3.500000 3.600000 3.700000 3.800000 3.900000 4.000000 4.100000 4.200000 4.300000 4.400000 4.500000 4.600000 4.700000 4.800000 4.900000 5.000000 5.100000 5.200000 5.300000 5.400000 5.500000 5.600000 5.700000 5.800000 5.900000 6.000000 6.100000 6.200000 6.300000 6.400000 6.500000 6.600000 6.700000 6.800000 6.900000 7.000000 7.100000 7.200000 7.300000 7.400000 7.500000 7.600000 7.700000 7.800000 7.900000 8.000000 8.100000 8.200000 8.300000 8.400000 8.500000 8.600000 8.700000 8.800000 8.900000 9.000000 9.100000 9.200000 9.300000 9.400000 9.500000 9.600000 9.700000 9.800000 9.900000 10.000000 10.100000 
Y_COORDINATES 102 double
0.000000 0.100000 0.200000 0.300000 0.400000 0.500000 0.600000 0.700000 0.800000 0.900000 1.000000 1.100000 1.200000 1.300000 1.400000 1.500000 1.600000 1.700000 1.800000 1.900000 2.000000 2.100000 2.200000 2.300000 2.400000 2.500000 2.600000 2.700000 2.800000 2.900000 3.000000 3.100000 3.200000 3.300000 3.400000 3.500000 3.600000 3.700000 3.800000 3.900000 4.000000 4.100000 4.200000 4.300000 4.400000 4.500000 4.600000 4.700000 4.800000 4.900000 5.000000 5.100000 5.200000 5.300000 5.400000 5.500000 5.600000 5.700000 5.800000 5.900000 6.000000 6.100000 6.200000 6.300000 6.400000 6.500000 6.600000 6.700000 6.800000 6.900000 7.000000 7.100000 7.200000 7.300000 7.400000 7.500000 7.600000 7.700000 7.800000 7.900000 8.000000 8.100000 8.200000 8.300000 8.400000 8.500000 8.600000 8.700000 8.800000 8.900000 9.000000 9.100000 9.200000 9.300000 9.400000 9.500000 9.600000 9.700000 9.800000 9.900000 10.000000 10.100000 
Z_COORDINATES 1 double
0.0
POINT_DATA 10404
SCALARS Pressure double 1
LOOKUP_TABLE default
0.000000e+00
1.205716e-02
1.214295e-02
1.206355e-02
1.186075e-02
1.161446e-02
1.138984e-02
1.121752e-02
1.109723e-02
1.101295e-02
1.094681e-02
1.088504e-02
1.081731e-02
1.073502e-02
1.063277e-02
1.051245e-02
1.038636e-02
1.027540e-02
1.020191e-02
1.018035e-02
1.021102e-02
1.028018e-02
1.036665e-02
1.045153e-02
1.052610e-02
1.059440e-02
1.066988e-02
1.076837e-02
1.090090e-02
1.106972e-02
1.126857e-02
1.148658e-02
1.171334e-02
1.194290e-02
1.217517e-02
1.241469e-02
1.266772e-02
1.293923e-02
1.323093e-02
1.354103e-02
1.386526e-02
1.419865e-02
1.453711e-02
1.487834e-02
1.522186e-02
1.556833e-02
1.591867e-02
1.627320e-02
1.663120e-02
1.699084e-02
1.734962e-02
1.770481e-02
1.805386e-02
1.839463e-02
1.872552e-02
1.904532e-02
1.935303e-02
1.964776e-02
1.992854e-02
2.019432e-02
2.044400e-02
2.067646e-02
2.089063e-02
2.108549e-02
2.126017e-02
2.141390e-02
2.154608e-02
2.165626e-02
2.174419e-02
2.180979e-02
2.185320e-02
2.187469e-02
2.187470e-02
2.185378e-02
2.181260e-02
2.175193e-02
2.167267e-02
2.157587e-02
2.146272e-02
2.133455e-02
2.119287e-02
2.103929e-02
2.087554e-02
2.070348e-02
2.052505e-02
2.034230e-02
2.015738e-02
1.997256e-02
1.979021e-02
1.961283e-02
1.944301e-02
1.928344e-02
1.913692e-02
1.900625e-02
1.889425e-02
1.880360e-02
1.873665e-02
1.869493e-02
1.867833e-02
1.868330e-02
1.869958e-02
0.000000e+00
1.205716e-02
1.216277e-02
1.215619e-02
1.200561e-02
1.177437e-02
1.153947e-02
1.134876e-02
1.121436e-02
1.112434e-02
1.105865e-02
1.099936e-02
1.093303e-02
1.084967e-02
1.074303e-02
1.061371e-02
1.047242e-02
1.033944e-02
1.023861e-02
1.018810e-02
1.019268e-02
1.024186e-02
1.031498e-02
1.039074e-02
1.045640e-02
1.051234e-02
1.057031e-02
1.064694e-02
1.075587e-02
1.090240e-02
1.108243e-02
1.128554e-02
1.150026e-02
1.171874e-02
1.193920e-02
1.216529e-02
1.240348e-02
1.265969e-02
1.293688e-02
1.323421e-02
1.354781e-02
1.387256e-02
1.420388e-02
1.453891e-02
1.487681e-02
1.521820e-02
1.556421e-02
1.591557e-02
1.627196e-02
1.663190e-02
1.699296e-02
1.735232e-02
1.770727e-02
1.805550e-02
1.839524e-02
1.872518e-02
1.904430e-02
1.935170e-02
1.964641e-02
1.992740e-02
2.019352e-02
2.044357e-02
2.067637e-02
2.089079e-02
2.108581e-02
2.126053e-02
2.141419e-02
2.154621e-02
2.165617e-02
2.174388e-02
2.180930e-02
2.185257e-02
2.187398e-02
2.187396e-02
2.185303e-02
2.181182e-02
2.175112e-02
2.167181e-02
2.157494e-02
2.146174e-02
2.133354e-02
2.119184e-02
2.103826e-02
2.087453e-02
2.070248e-02
2.052404e-02
2.034127e-02
2.015630e-02
1.997142e-02
1.978901e-02
1.961157e-02
1.944170e-02
1.928211e-02
1.913556e-02
1.900488e-02
1.889287e-02
1.880222e-02
1.873526e-02
1.869355e-02
1.867696e-02
1.868192e-02
1.869820e-02
1.869958e-02
1.215394e-02
1.216651e-02
1.205475e-02
1.187074e-02
1.168779e-02
1.154313e-02
1.144232e-02
1.137212e-02
1.131506e-02
1.125714e-02
1.118840e-02
1.110119e-02
1.099076e-02
1.085879e-02
1.071660e-02
1.058413e-02
1.048358e-02
1.043042e-02
1.042672e-02
1.046057e-02
1.051207e-02
1.056276e-02
1.060364e-02
1.063817e-02
1.067926e-02
1.074243e-02
1.083863e-02
1.097019e-02
1.113110e-02
1.131079e-02
1.149925e-02
1.169095e-02
1.188619e-02
1.208974e-02
1.230789e-02
1.254540e-02
1.280373e-02
1.308085e-02
1.337250e-02
1.367393e-02
1.398152e-02
1.429354e-02
1.460999e-02
1.493186e-02
1.526022e-02
1.559539e-02
1.593661e-02
1.628214e-02
1.662954e-02
1.697612e-02
1.731950e-02
1.765775e-02
1.798939e-02
1.831329e-02
1.862849e-02
1.893403e-02
1.922884e-02
1.951177e-02
1.978161e-02
2.003709e-02
2.027701e-02
2.050021e-02
2.070565e-02
2.089239e-02
2.105965e-02
2.120677e-02
2.133329e-02
2.143891e-02
2.152349e-02
2.158703e-02
2.162967e-02
2.165168e-02
2.165342e-02
2.163536e-02
2.159812e-02
2.154245e-02
2.146923e-02
2.137953e-02
2.127452e-02
2.115552e-02
2.102394e-02
2.088133e-02
2.072930e-02
2.056960e-02
2.040406e-02
2.023465e-02
2.006339e-02
1.989246e-02
1.972410e-02
1.956064e-02
1.940447e-02
1.925803e-02
1.912380e-02
1.900422e-02
1.890166e-02
1.881828e-02
1.875583e-02
1.871533e-02
1.869656e-02
1.869742e-02
1.871364e-02
1.871500e-02
1.215718e-02
1.209682e-02
1.194341e-02
1.179699e-02
1.169779e-02
1.163910e-02
1.159937e-02
1.155888e-02
1.150605e-02
1.143498e-02
1.134154e-02
1.122340e-02
1.108422e-02
1.093717e-02
1.080357e-02
1.070539e-02
1.065563e-02
1.065223e-02
1.067922e-02
1.071478e-02
1.074182e-02
1.075555e-02
1.076459e-02
1.078563e-02
1.083497e-02
1.092130e-02
1.104294e-02
1.119006e-02
1.135021e-02
1.151399e-02
1.167844e-02
1.184703e-02
1.202694e-02
1.222517e-02
1.244559e-02
1.268770e-02
1.294751e-02
1.321957e-02
1.349912e-02
1.378351e-02
1.407244e-02
1.436723e-02
1.466967e-02
1.498089e-02
1.530077e-02
1.562790e-02
1.595994e-02
1.629424e-02
1.662832e-02
1.695998e-02
1.728775e-02
1.761061e-02
1.792770e-02
1.823817e-02
1.854102e-02
1.883507e-02
1.911903e-02
1.939155e-02
1.965129e-02
1.989700e-02
2.012749e-02
2.034171e-02
2.053871e-02
2.071767e-02
2.087792e-02
2.101895e-02
2.114038e-02
2.124200e-02
2.132368e-02
2.138543e-02
2.142734e-02
2.144963e-02
2.145262e-02
2.143678e-02
2.140271e-02
2.135117e-02
2.128307e-02
2.119943e-02
2.110139e-02
2.099021e-02
2.086722e-02
2.073388e-02
2.059175e-02
2.044248e-02
2.028785e-02
2.012971e-02
1.997004e-02
1.981086e-02
1.965428e-02
1.950245e-02
1.935757e-02
1.922185e-02
1.909749e-02
1.898664e-02
1.889136e-02
1.881348e-02
1.875451e-02
1.871545e-02
1.869660e-02
1.869762e-02
1.871810e-02
1.871944e-02
1.210249e-02
1.201198e-02
1.188749e-02
1.181633e-02
1.179426e-02
1.178858e-02
1.177253e-02
1.173281e-02
1.166544e-02
1.156930e-02
1.144467e-02
1.129737e-02
1.114287e-02
1.100473e-02
1.090619e-02
1.085943e-02
1.085917e-02
1.088500e-02
1.091160e-02
1.092110e-02
1.091129e-02
1.089548e-02
1.089493e-02
1.092834e-02
1.100373e-02
1.111624e-02
1.125220e-02
1.139638e-02
1.153890e-02
1.167852e-02
1.182161e-02
1.197802e-02
1.215612e-02
1.235944e-02
1.258593e-02
1.282968e-02
1.308381e-02
1.334319e-02
1.360583e-02
1.387272e-02
1.414653e-02
1.442992e-02
1.472427e-02
1.502913e-02
1.534249e-02
1.566143e-02
1.598298e-02
1.630470e-02
1.662488e-02
1.694223e-02
1.725612e-02
1.756601e-02
1.787120e-02
1.817068e-02
1.846320e-02
1.874733e-02
1.902160e-02
1.928459e-02
1.953498e-02
1.977156e-02
1.999325e-02
2.019909e-02
2.038825e-02
2.056004e-02
2.071390e-02
2.084942e-02
2.096629e-02
2.106429e-02
2.114330e-02
2.120326e-02
2.124425e-02
2.126644e-02
2.127016e-02
2.125590e-02
2.122428e-02
2.117607e-02
2.111214e-02
2.103349e-02
2.094121e-02
2.083647e-02
2.072056e-02
2.059488e-02
2.046093e-02
2.032032e-02
2.017475e-02
2.002602e-02
1.987597e-02
1.972653e-02
1.957964e-02
1.943730e-02
1.930151e-02
1.917429e-02
1.905763e-02
1.895345e-02
1.886358e-02
1.878970e-02
1.873321e-02
1.869526e-02
1.867669e-02
1.867828e-02
1.870134e-02
1.870266e-02
1.205643e-02
1.197690e-02
1.191591e-02
1.191513e-02
1.193886e-02
1.195048e-02
1.193070e-02
1.187399e-02
1.178045e-02
1.165257e-02
1.149841e-02
1.133580e-02
1.119084e-02
1.108884e-02
1.104252e-02
1.104487e-02
1.107198e-02
1.109471e-02
1.109311e-02
1.106561e-02
1.102863e-02
1.100748e-02
1.102386e-02
1.108642e-02
1.118864e-02
1.131387e-02
1.144425e-02
1.156877e-02
1.168695e-02
1.180720e-02
1.194160e-02
1.209995e-02
1.228595e-02
1.249657e-02
1.272443e-02
1.296144e-02
1.320202e-02
1.344454e-02
1.369096e-02
1.394501e-02
1.421013e-02
1.448798e-02
1.477792e-02
1.507748e-02
1.538331e-02
1.569219e-02
1.600168e-02
1.631036e-02
1.661757e-02
1.692264e-02
1.722526e-02
1.752487e-02
1.782051e-02
1.811088e-02
1.839446e-02
1.866970e-02
1.893510e-02
1.918927e-02
1.943097e-02
1.965909e-02
1.987265e-02
2.007081e-02
2.025286e-02
2.041822e-02
2.056643e-02
2.069709e-02
2.080991e-02
2.090464e-02
2.098109e-02
2.103920e-02
2.107901e-02
2.110074e-02
2.110473e-02
2.109151e-02
2.106169e-02
2.101602e-02
2.095536e-02
2.088064e-02
2.079289e-02
2.069327e-02
2.058302e-02
2.046350e-02
2.033618e-02
2.020263e-02
2.006447e-02
1.992340e-02
1.978118e-02
1.963959e-02
1.950044e-02
1.936558e-02
1.923687e-02
1.911614e-02
1.900522e-02
1.890586e-02
1.881975e-02
1.874844e-02
1.869331e-02
1.865562e-02
1.863654e-02
1.863738e-02
1.865997e-02
1.866126e-02
1.207174e-02
1.202717e-02
1.202475e-02
1.206370e-02
1.209788e-02
1.209983e-02
1.205887e-02
1.197337e-02
1.184641e-02
1.168779e-02
1.151770e-02
1.136487e-02
1.125702e-02
1.120816e-02
1.121079e-02
1.123871e-02
1.125974e-02
1.125155e-02
1.121202e-02
1.115910e-02
1.112075e-02
1.112112e-02
1.117000e-02
1.126030e-02
1.137372e-02
1.149066e-02
1.159917e-02
1.169900e-02
1.179969e-02
1.191470e-02
1.205480e-02
1.222384e-02
1.241825e-02
1.262979e-02
1.284970e-02
1.307216e-02
1.329589e-02
1.352348e-02
1.375937e-02
1.400743e-02
1.426946e-02
1.454466e-02
1.483026e-02
1.512271e-02
1.541869e-02
1.571590e-02
1.601314e-02
1.631003e-02
1.660659e-02
1.690213e-02
1.719614e-02
1.748769e-02
1.777547e-02
1.805794e-02
1.833350e-02
1.860060e-02
1.885781e-02
1.910385e-02
1.933756e-02
1.955796e-02
1.976419e-02
1.995552e-02
2.013134e-02
2.029113e-02
2.043445e-02
2.056089e-02
2.067008e-02
2.076175e-02
2.083569e-02
2.089184e-02
2.093026e-02
2.095121e-02
2.095509e-02
2.094240e-02
2.091376e-02
2.086988e-02
2.081157e-02
2.073974e-02
2.065539e-02
2.055966e-02
2.045379e-02
2.033910e-02
2.021703e-02
2.008908e-02
1.995679e-02
1.982178e-02
1.968567e-02
1.955014e-02
1.941691e-02
1.928767e-02
1.916417e-02
1.904811e-02
1.894117e-02
1.884497e-02
1.876107e-02
1.869093e-02
1.863590e-02
1.859730e-02
1.857641e-02
1.857468e-02
1.859389e-02
1.859514e-02
1.216801e-02
1.216310e-02
1.219037e-02
1.223345e-02
1.225091e-02
1.222549e-02
1.215101e-02
1.202854e-02
1.186812e-02
1.169167e-02
1.153054e-02
1.141507e-02
1.136101e-02
1.136107e-02
1.138775e-02
1.140671e-02
1.139372e-02
1.134587e-02
1.128165e-02
1.123038e-02
1.121758e-02
1.125370e-02
1.133145e-02
1.143181e-02
1.153452e-02
1.162748e-02
1.171080e-02
1.179473e-02
1.189331e-02
1.201749e-02
1.217085e-02
1.234932e-02
1.254422e-02
1.274666e-02
1.295110e-02
1.315679e-02
1.336687e-02
1.358614e-02
1.381856e-02
1.406574e-02
1.432663e-02
1.459824e-02
1.487698e-02
1.515970e-02
1.544436e-02
1.573006e-02
1.601669e-02
1.630438e-02
1.659311e-02
1.688169e-02
1.716911e-02
1.745406e-02
1.773502e-02
1.801039e-02
1.827862e-02
1.853825e-02
1.878797e-02
1.902662e-02
1.925317e-02
1.946674e-02
1.966660e-02
1.985210e-02
2.002266e-02
2.017775e-02
2.031689e-02
2.043960e-02
2.054548e-02
2.063423e-02
2.070567e-02
2.075977e-02
2.079665e-02
2.081659e-02
2.082000e-02
2.080737e-02
2.077930e-02
2.073647e-02
2.067965e-02
2.060976e-02
2.052780e-02
2.043490e-02
2.033228e-02
2.022124e-02
2.010315e-02
1.997943e-02
1.985155e-02
1.972102e-02
1.958941e-02
1.945828e-02
1.932926e-02
1.920395e-02
1.908396e-02
1.897091e-02
1.886633e-02
1.877174e-02
1.868859e-02
1.861826e-02
1.856204e-02
1.852122e-02
1.849707e-02
1.849098e-02
1.850447e-02
1.850569e-02
1.233404e-02
1.236113e-02
1.238509e-02
1.240458e-02
1.238744e-02
1.232195e-02
1.220496e-02
1.204443e-02
1.186257e-02
1.169278e-02
1.156811e-02
1.150642e-02
1.150113e-02
1.152396e-02
1.153907e-02
1.152085e-02
1.146590e-02
1.139302e-02
1.133226e-02
1.130955e-02
1.133517e-02
1.140125e-02
1.148828e-02
1.157598e-02
1.165292e-02
1.172024e-02
1.178900e-02
1.187347e-02
1.198415e-02
1.212374e-02
1.228735e-02
1.246591e-02
1.265075e-02
1.283706e-02
1.302498e-02
1.321833e-02
1.342214e-02
1.364018e-02
1.387357e-02
1.412079e-02
1.437862e-02
1.464349e-02
1.491262e-02
1.518439e-02
1.545834e-02
1.573460e-02
1.601343e-02
1.629476e-02
1.657805e-02
1.686144e-02
1.714349e-02
1.742270e-02
1.769752e-02
1.796642e-02
1.822797e-02
1.848086e-02
1.872390e-02
1.895605e-02
1.917643e-02
1.938426e-02
1.957885e-02
1.975957e-02
1.992582e-02
2.007699e-02
2.021250e-02
2.033186e-02
2.043466e-02
2.052061e-02
2.058960e-02
2.064164e-02
2.067688e-02
2.069560e-02
2.069823e-02
2.068522e-02
2.065714e-02
2.061467e-02
2.055861e-02
2.048985e-02
2.040942e-02
2.031842e-02
2.021804e-02
2.010953e-02
1.999419e-02
1.987339e-02
1.974851e-02
1.962102e-02
1.949238e-02
1.936412e-02
1.923775e-02
1.911480e-02
1.899679e-02
1.888521e-02
1.878151e-02
1.868709e-02
1.860330e-02
1.853144e-02
1.847274e-02
1.842841e-02
1.839964e-02
1.838764e-02
1.839367e-02
1.839486e-02
1.254317e-02
1.259067e-02
1.258619e-02
1.256410e-02
1.249978e-02
1.238501e-02
1.222374e-02
1.203645e-02
1.185731e-02
1.172173e-02
1.164997e-02
1.163660e-02
1.165297e-02
1.166196e-02
1.163687e-02
1.157407e-02
1.149293e-02
1.142419e-02
1.139383e-02
1.141136e-02
1.146766e-02
1.154231e-02
1.161511e-02
1.167566e-02
1.172674e-02
1.178072e-02
1.185227e-02
1.195120e-02
1.207892e-02
1.222924e-02
1.239245e-02
1.256015e-02
1.272848e-02
1.289876e-02
1.307574e-02
1.326474e-02
1.346924e-02
1.368972e-02
1.392395e-02
1.416838e-02
1.441949e-02
1.467488e-02
1.493353e-02
1.519547e-02
1.546117e-02
1.573099e-02
1.600479e-02
1.628191e-02
1.656124e-02
1.684041e-02
1.711776e-02
1.739179e-02
1.766104e-02
1.792412e-02
1.817975e-02
1.842675e-02
1.866408e-02
1.889084e-02
1.910623e-02
1.930951e-02
1.949999e-02
1.967694e-02
1.983968e-02
1.998751e-02
2.011984e-02
2.023615e-02
2.033608e-02
2.041942e-02
2.048609e-02
2.053613e-02
2.056970e-02
2.058704e-02
2.058859e-02
2.057479e-02
2.054622e-02
2.050357e-02
2.044764e-02
2.037934e-02
2.029967e-02
2.020972e-02
2.011062e-02
2.000357e-02
1.988982e-02
1.977067e-02
1.964749e-02
1.952166e-02
1.939461e-02
1.926780e-02
1.914266e-02
1.902064e-02
1.890317e-02
1.879165e-02
1.868743e-02
1.859182e-02
1.850609e-02
1.843144e-02
1.836904e-02
1.831999e-02
1.828537e-02
1.826623e-02
1.826354e-02
1.826468e-02
1.276843e-02
1.282529e-02
1.277658e-02
1.270090e-02
1.258051e-02
1.241453e-02
1.221992e-02
1.202993e-02
1.188140e-02
1.179695e-02
1.177273e-02
1.178007e-02
1.178069e-02
1.174673e-02
1.167434e-02
1.158366e-02
1.150643e-02
1.146894e-02
1.147977e-02
1.152816e-02
1.159215e-02
1.165114e-02
1.169570e-02
1.173038e-02
1.176937e-02
1.182815e-02
1.191609e-02
1.203320e-02
1.217172e-02
1.232096e-02
1.247254e-02
1.262352e-02
1.277652e-02
1.293737e-02
1.311186e-02
1.330323e-02
1.351127e-02
1.373303e-02
1.396447e-02
1.420209e-02
1.444386e-02
1.468934e-02
1.493912e-02
1.519406e-02
1.545461e-02
1.572061e-02
1.599127e-02
1.626534e-02
1.654140e-02
1.681682e-02
1.708993e-02
1.735931e-02
1.762364e-02
1.788168e-02
1.813229e-02
1.837446e-02
1.860728e-02
1.882993e-02
1.904163e-02
1.924157e-02
1.942895e-02
1.960296e-02
1.976281e-02
1.990779e-02
2.003730e-02
2.015090e-02
2.024829e-02
2.032929e-02
2.039386e-02
2.044201e-02
2.047390e-02
2.048975e-02
2.048999e-02
2.047510e-02
2.044566e-02
2.040239e-02
2.034608e-02
2.027763e-02
2.019803e-02
2.010829e-02
2.000954e-02
1.990292e-02
1.978965e-02
1.967101e-02
1.954832e-02
1.942292e-02
1.929619e-02
1.916952e-02
1.904429e-02
1.892187e-02
1.880360e-02
1.869080e-02
1.858475e-02
1.848668e-02
1.839778e-02
1.831917e-02
1.825194e-02
1.819710e-02
1.815559e-02
1.812830e-02
1.811601e-02
1.811712e-02
1.298951e-02
1.304514e-02
1.294183e-02
1.280449e-02
1.262633e-02
1.241998e-02
1.221621e-02
1.205206e-02
1.195203e-02
1.191402e-02
1.190976e-02
1.189989e-02
1.185519e-02
1.177124e-02
1.166893e-02
1.158129e-02
1.153542e-02
1.153940e-02
1.158079e-02
1.163574e-02
1.168257e-02
1.171228e-02
1.173104e-02
1.175487e-02
1.180055e-02
1.187742e-02
1.198435e-02
1.211200e-02
1.224852e-02
1.238526e-02
1.251995e-02
1.265639e-02
1.280151e-02
1.296168e-02
1.314005e-02
1.333581e-02
1.354531e-02
1.376406e-02
1.398847e-02
1.421687e-02
1.444934e-02
1.468698e-02
1.493100e-02
1.518203e-02
1.543987e-02
1.570361e-02
1.597195e-02
1.624340e-02
1.651649e-02
1.678855e-02
1.705791e-02
1.732328e-02
1.758349e-02
1.783744e-02
1.808418e-02
1.832281e-02
1.855250e-02
1.877240e-02
1.898163e-02
1.917927e-02
1.936440e-02
1.953610e-02
1.969358e-02
1.983617e-02
1.996332e-02
2.007467e-02
2.016994e-02
2.024897e-02
2.031170e-02
2.035814e-02
2.038838e-02
2.040268e-02
2.040147e-02
2.038528e-02
2.035470e-02
2.031044e-02
2.025329e-02
2.018413e-02
2.010390e-02
2.001361e-02
1.991432e-02
1.980719e-02
1.969340e-02
1.957421e-02
1.945090e-02
1.932479e-02
1.919721e-02
1.906947e-02
1.894291e-02
1.881882e-02
1.869849e-02
1.858317e-02
1.847407e-02
1.837235e-02
1.827915e-02
1.819551e-02
1.812242e-02
1.806082e-02
1.801154e-02
1.797534e-02
1.795283e-02
1.795389e-02
1.319121e-02
1.323419e-02
1.306913e-02
1.286898e-02
1.264391e-02
1.242157e-02
1.223808e-02
1.211909e-02
1.206418e-02
1.204568e-02
1.202331e-02
1.196619e-02
1.186892e-02
1.175276e-02
1.165215e-02
1.159548e-02
1.159096e-02
1.162492e-02
1.167156e-02
1.170770e-02
1.172407e-02
1.172791e-02
1.173695e-02
1.176924e-02
1.183458e-02
1.193108e-02
1.204813e-02
1.217271e-02
1.229571e-02
1.241528e-02
1.253615e-02
1.266622e-02
1.281241e-02
1.297786e-02
1.316131e-02
1.335854e-02
1.356467e-02
1.377609e-02
1.399138e-02
1.421107e-02
1.443671e-02
1.466978e-02
1.491105e-02
1.516031e-02
1.541663e-02
1.567865e-02
1.594487e-02
1.621386e-02
1.648427e-02
1.675344e-02
1.701967e-02
1.728184e-02
1.753893e-02
1.779002e-02
1.803426e-02
1.827081e-02
1.849877e-02
1.871718e-02
1.892499e-02
1.912115e-02
1.930466e-02
1.947462e-02
1.963029e-02
1.977106e-02
1.989646e-02
2.000613e-02
2.009981e-02
2.017731e-02
2.023851e-02
2.028340e-02
2.031211e-02
2.032487e-02
2.032215e-02
2.030453e-02
2.027259e-02
2.022704e-02
2.016863e-02
2.009822e-02
2.001672e-02
1.992513e-02
1.982452e-02
1.971602e-02
1.960081e-02
1.948011e-02
1.935518e-02
1.922730e-02
1.909774e-02
1.896779e-02
1.883872e-02
1.871179e-02
1.858823e-02
1.846922e-02
1.835594e-02
1.824950e-02
1.815094e-02
1.806126e-02
1.798140e-02
1.791219e-02
1.785439e-02
1.780866e-02
1.777549e-02
1.777651e-02
1.335959e-02
1.337856e-02
1.315059e-02
1.289859e-02
1.265118e-02
1.244328e-02
1.230120e-02
1.222596e-02
1.219052e-02
1.215369e-02
1.208270e-02
1.197064e-02
1.183865e-02
1.172245e-02
1.165204e-02
1.163643e-02
1.166132e-02
1.169927e-02
1.172541e-02
1.172970e-02
1.171982e-02
1.171475e-02
1.173379e-02
1.178718e-02
1.187276e-02
1.197895e-02
1.209179e-02
1.220174e-02
1.230715e-02
1.241347e-02
1.252932e-02
1.266208e-02
1.281483e-02
1.298595e-02
1.317082e-02
1.336426e-02
1.356272e-02
1.376506e-02
1.397219e-02
1.418598e-02
1.440813e-02
1.463946e-02
1.487977e-02
1.512812e-02
1.538316e-02
1.564346e-02
1.590763e-02
1.617438e-02
1.644250e-02
1.670939e-02
1.697333e-02
1.723335e-02
1.748860e-02
1.773829e-02
1.798156e-02
1.821748e-02
1.844496e-02
1.866287e-02
1.887005e-02
1.906538e-02
1.924790e-02
1.941678e-02
1.957135e-02
1.971106e-02
1.983545e-02
1.994413e-02
2.003678e-02
2.011317e-02
2.017316e-02
2.021675e-02
2.024407e-02
2.025539e-02
2.025120e-02
2.023207e-02
2.019861e-02
2.015147e-02
2.009140e-02
2.001925e-02
1.993591e-02
1.984239e-02
1.973975e-02
1.962911e-02
1.951165e-02
1.938855e-02
1.926105e-02
1.913039e-02
1.899783e-02
1.886459e-02
1.873193e-02
1.860106e-02
1.847317e-02
1.834942e-02
1.823091e-02
1.811871e-02
1.801382e-02
1.791719e-02
1.782968e-02
1.775210e-02
1.768513e-02
1.762936e-02
1.758524e-02
1.758622e-02
1.348143e-02
1.346919e-02
1.318826e-02
1.290896e-02
1.267065e-02
1.250049e-02
1.240100e-02
1.234578e-02
1.229263e-02
1.220655e-02
1.207855e-02
1.192911e-02
1.179494e-02
1.170786e-02
1.167820e-02
1.169167e-02
1.171961e-02
1.173552e-02
1.172831e-02
1.170560e-02
1.168716e-02
1.169325e-02
1.173462e-02
1.180885e-02
1.190377e-02
1.200471e-02
1.210181e-02
1.219363e-02
1.228618e-02
1.238862e-02
1.250858e-02
1.264902e-02
1.280796e-02
1.298040e-02
1.316106e-02
1.334649e-02
1.353589e-02
1.373055e-02
1.393259e-02
1.414382e-02
1.436505e-02
1.459607e-02
1.483593e-02
1.508334e-02
1.533697e-02
1.559554e-02
1.585783e-02
1.612270e-02
1.638909e-02
1.665452e-02
1.691725e-02
1.717647e-02
1.743144e-02
1.768129e-02
1.792503e-02
1.816151e-02
1.838947e-02
1.860765e-02
1.881485e-02
1.901005e-02
1.919235e-02
1.936101e-02
1.951540e-02
1.965493e-02
1.977911e-02
1.988747e-02
1.997964e-02
2.005537e-02
2.011451e-02
2.015710e-02
2.018328e-02
2.019334e-02
2.018774e-02
2.016709e-02
2.013196e-02
2.008299e-02
2.002093e-02
1.994661e-02
1.986094e-02
1.976493e-02
1.965963e-02
1.954616e-02
1.942568e-02
1.929936e-02
1.916841e-02
1.903404e-02
1.889750e-02
1.876000e-02
1.862274e-02
1.848693e-02
1.835370e-02
1.822419e-02
1.809947e-02
1.798055e-02
1.786841e-02
1.776395e-02
1.766801e-02
1.758135e-02
1.750462e-02
1.743839e-02
1.738306e-02
1.738400e-02
1.354874e-02
1.350707e-02
1.319610e-02
1.292163e-02
1.271797e-02
1.258976e-02
1.251164e-02
1.244034e-02
1.233821e-02
1.219349e-02
1.202537e-02
1.187124e-02
1.176482e-02
1.171823e-02
1.171773e-02
1.173385e-02
1.173863e-02
1.171976e-02
1.168450e-02
1.165307e-02
1.164647e-02
1.167584e-02
1.173861e-02
1.182194e-02
1.191073e-02
1.199492e-02
1.207335e-02
1.215253e-02
1.224212e-02
1.234984e-02
1.247843e-02
1.262547e-02
1.278559e-02
1.295342e-02
1.312573e-02
1.330212e-02
1.348426e-02
1.367450e-02
1.387472e-02
1.408567e-02
1.430707e-02
1.453796e-02
1.477713e-02
1.502335e-02
1.527550e-02
1.553246e-02
1.579317e-02
1.605666e-02
1.632208e-02
1.658720e-02
1.685014e-02
1.711016e-02
1.736641e-02
1.761783e-02
1.786318e-02
1.810110e-02
1.833025e-02
1.854937e-02
1.875738e-02
1.895334e-02
1.913643e-02
1.930593e-02
1.946114e-02
1.960142e-02
1.972615e-02
1.983483e-02
1.992707e-02
2.000261e-02
2.006136e-02
2.010334e-02
2.012872e-02
2.013777e-02
2.013089e-02
2.010874e-02
2.007185e-02
2.002087e-02
1.995654e-02
1.987970e-02
1.979129e-02
1.969229e-02
1.958378e-02
1.946686e-02
1.934265e-02
1.921235e-02
1.907714e-02
1.893823e-02
1.879683e-02
1.865415e-02
1.851137e-02
1.836967e-02
1.823016e-02
1.809394e-02
1.796206e-02
1.783550e-02
1.771522e-02
1.760211e-02
1.749699e-02
1.740059e-02
1.731358e-02
1.723649e-02
1.716972e-02
1.717061e-02
1.356469e-02
1.350628e-02
1.319597e-02
1.295367e-02
1.279200e-02
1.268743e-02
1.259595e-02
1.247689e-02
1.231501e-02
1.212741e-02
1.195173e-02
1.182366e-02
1.175751e-02
1.174062e-02
1.174308e-02
1.173556e-02
1.170438e-02
1.165626e-02
1.161170e-02
1.159229e-02
1.160958e-02
1.166081e-02
1.173256e-02
1.180909e-02
1.188029e-02
1.194532e-02
1.201125e-02
1.208821e-02
1.218403e-02
1.230113e-02
1.243659e-02
1.258461e-02
1.273971e-02
1.289888e-02
1.306215e-02
1.323161e-02
1.340988e-02
1.359888e-02
1.379929e-02
1.401072e-02
1.423218e-02
1.446252e-02
1.470066e-02
1.494559e-02
1.519631e-02
1.545190e-02
1.571147e-02
1.597432e-02
1.623987e-02
1.650616e-02
1.677093e-02
1.703331e-02
1.729217e-02
1.754619e-02
1.779391e-02
1.803394e-02
1.826498e-02
1.848591e-02
1.869576e-02
1.889364e-02
1.907872e-02
1.925017e-02
1.940719e-02
1.954903e-02
1.967505e-02
1.978470e-02
1.987762e-02
1.995358e-02
2.001249e-02
2.005437e-02
2.007937e-02
2.008771e-02
2.007974e-02
2.005614e-02
2.001745e-02
1.996433e-02
1.989754e-02
1.981792e-02
1.972643e-02
1.962404e-02
1.951183e-02
1.939089e-02
1.926235e-02
1.912739e-02
1.898719e-02
1.884297e-02
1.869591e-02
1.854722e-02
1.839806e-02
1.824957e-02
1.810287e-02
1.795902e-02
1.781906e-02
1.768399e-02
1.755473e-02
1.743218e-02
1.731715e-02
1.721039e-02
1.711256e-02
1.702421e-02
1.694579e-02
1.694663e-02
1.354575e-02
1.349083e-02
1.320817e-02
1.300811e-02
1.287296e-02
1.275867e-02
1.262152e-02
1.244206e-02
1.223444e-02
1.203596e-02
1.188423e-02
1.179616e-02
1.176069e-02
1.174783e-02
1.172685e-02
1.168258e-02
1.162094e-02
1.156258e-02
1.152979e-02
1.153456e-02
1.157407e-02
1.163430e-02
1.169879e-02
1.175709e-02
1.180871e-02
1.186134e-02
1.192563e-02
1.200960e-02
1.211538e-02
1.223949e-02
1.237567e-02
1.251821e-02
1.266432e-02
1.281442e-02
1.297104e-02
1.313709e-02
1.331455e-02
1.350405e-02
1.370511e-02
1.391668e-02
1.413767e-02
1.436707e-02
1.460400e-02
1.484760e-02
1.509705e-02
1.535163e-02
1.561076e-02
1.587407e-02
1.614120e-02
1.641027e-02
1.667838e-02
1.694433e-02
1.720669e-02
1.746395e-02
1.771468e-02
1.795755e-02
1.819145e-02
1.841537e-02
1.862834e-02
1.882942e-02
1.901765e-02
1.919208e-02
1.935180e-02
1.949601e-02
1.962406e-02
1.973544e-02
1.982981e-02
1.990693e-02
1.996669e-02
2.000907e-02
2.003415e-02
2.004212e-02
2.003328e-02
2.000834e-02
1.996789e-02
1.991260e-02
1.984324e-02
1.976068e-02
1.966584e-02
1.955974e-02
1.944342e-02
1.931799e-02
1.918458e-02
1.904437e-02
1.889855e-02
1.874832e-02
1.859486e-02
1.843937e-02
1.828299e-02
1.812686e-02
1.797208e-02
1.781972e-02
1.767083e-02
1.752638e-02
1.738733e-02
1.725457e-02
1.712893e-02
1.701118e-02
1.690200e-02
1.680199e-02
1.671162e-02
1.671242e-02
1.351677e-02
1.348530e-02
1.324152e-02
1.307076e-02
1.292992e-02
1.277259e-02
1.257461e-02
1.234626e-02
1.212375e-02
1.194641e-02
1.183411e-02
1.177795e-02
1.174818e-02
1.171274e-02
1.165463e-02
1.157868e-02
1.150557e-02
1.145834e-02
1.144975e-02
1.147706e-02
1.152572e-02
1.157845e-02
1.162424e-02
1.166262e-02
1.170190e-02
1.175337e-02
1.182530e-02
1.191967e-02
1.203250e-02
1.215699e-02
1.228720e-02
1.242040e-02
1.255737e-02
1.270103e-02
1.285459e-02
1.302016e-02
1.319834e-02
1.338856e-02
1.358975e-02
1.380083e-02
1.402086e-02
1.424905e-02
1.448465e-02
1.472696e-02
1.497541e-02
1.522965e-02
1.548946e-02
1.575466e-02
1.602484e-02
1.629810e-02
1.657059e-02
1.684082e-02
1.710722e-02
1.736831e-02
1.762282e-02
1.786962e-02
1.810767e-02
1.833595e-02
1.855339e-02
1.875888e-02
1.895131e-02
1.912963e-02
1.929291e-02
1.944037e-02
1.957137e-02
1.968544e-02
1.978218e-02
1.986133e-02
1.992269e-02
1.996619e-02
1.999184e-02
1.999982e-02
1.999042e-02
1.996434e-02
1.992228e-02
1.986490e-02
1.979298e-02
1.970739e-02
1.960906e-02
1.949900e-02
1.937826e-02
1.924795e-02
1.910923e-02
1.896325e-02
1.881123e-02
1.865434e-02
1.849378e-02
1.833073e-02
1.816633e-02
1.800173e-02
1.783804e-02
1.767633e-02
1.751765e-02
1.736300e-02
1.721336e-02
1.706963e-02
1.693268e-02
1.680329e-02
1.668221e-02
1.657008e-02
1.646745e-02
1.646819e-02
1.350039e-02
1.350350e-02
1.328794e-02
1.311530e-02
1.293411e-02
1.271543e-02
1.246484e-02
1.221661e-02
1.201142e-02
1.187229e-02
1.179304e-02
1.174460e-02
1.169361e-02
1.162092e-02
1.152983e-02
1.144084e-02
1.137782e-02
1.135457e-02
1.136881e-02
1.140556e-02
1.144669e-02
1.148041e-02
1.150596e-02
1.153197e-02
1.157043e-02
1.163004e-02
1.171273e-02
1.181415e-02
1.192699e-02
1.204499e-02
1.216544e-02
1.228937e-02
1.242004e-02
1.256092e-02
1.271426e-02
1.288067e-02
1.305957e-02
1.324986e-02
1.345046e-02
1.366049e-02
1.387919e-02
1.410591e-02
1.434007e-02
1.458127e-02
1.482937e-02
1.508438e-02
1.534627e-02
1.561476e-02
1.588913e-02
1.616742e-02
1.644482e-02
1.671973e-02
1.699070e-02
1.725647e-02
1.751594e-02
1.776805e-02
1.801170e-02
1.824570e-02
1.846879e-02
1.867971e-02
1.887729e-02
1.906046e-02
1.922832e-02
1.938012e-02
1.951521e-02
1.963306e-02
1.973322e-02
1.981530e-02
1.987905e-02
1.992431e-02
1.995109e-02
1.995955e-02
1.995000e-02
1.992314e-02
1.987973e-02
1.982046e-02
1.974609e-02
1.965750e-02
1.955561e-02
1.944144e-02
1.931606e-02
1.918058e-02
1.903615e-02
1.888396e-02
1.872520e-02
1.856106e-02
1.839273e-02
1.822140e-02
1.804823e-02
1.787438e-02
1.770097e-02
1.752909e-02
1.735981e-02
1.719416e-02
1.703313e-02
1.687767e-02
1.672867e-02
1.658698e-02
1.645340e-02
1.632864e-02
1.621333e-02
1.621403e-02
1.350607e-02
1.354097e-02
1.332483e-02
1.311444e-02
1.287116e-02
1.259547e-02
1.231886e-02
1.208282e-02
1.191361e-02
1.180822e-02
1.173878e-02
1.167071e-02
1.158245e-02
1.147528e-02
1.136912e-02
1.128869e-02
1.124912e-02
1.124896e-02
1.127311e-02
1.130252e-02
1.132442e-02
1.133752e-02
1.135050e-02
1.137583e-02
1.142279e-02
1.149344e-02
1.158316e-02
1.168423e-02
1.179007e-02
1.189788e-02
1.200886e-02
1.212654e-02
1.225461e-02
1.239545e-02
1.254971e-02
1.271680e-02
1.289565e-02
1.308519e-02
1.328455e-02
1.349302e-02
1.370997e-02
1.393496e-02
1.416777e-02
1.440848e-02
1.465733e-02
1.491448e-02
1.517974e-02
1.545245e-02
1.573150e-02
1.601510e-02
1.629768e-02
1.657780e-02
1.685425e-02
1.712595e-02
1.739183e-02
1.765070e-02
1.790126e-02
1.814211e-02
1.837186e-02
1.858919e-02
1.879295e-02
1.898213e-02
1.915584e-02
1.931328e-02
1.945374e-02
1.957656e-02
1.968118e-02
1.976711e-02
1.983404e-02
1.988179e-02
1.991038e-02
1.991996e-02
1.991086e-02
1.988370e-02
1.983936e-02
1.977851e-02
1.970192e-02
1.961045e-02
1.950504e-02
1.938671e-02
1.925654e-02
1.911566e-02
1.896522e-02
1.880640e-02
1.864042e-02
1.846847e-02
1.829176e-02
1.811148e-02
1.792884e-02
1.774500e-02
1.756109e-02
1.737826e-02
1.719758e-02
1.702012e-02
1.684690e-02
1.667891e-02
1.651711e-02
1.636241e-02
1.621567e-02
1.607770e-02
1.594922e-02
1.594987e-02
1.352440e-02
1.357552e-02
1.332424e-02
1.305125e-02
1.274628e-02
1.243747e-02