# vtk DataFile Version 3.0
Scalar Field
ASCII
DATASET RECTILINEAR_GRID
DIMENSIONS 102 102 1
X_COORDINATES 102 double
0.000000 0.100000 0.200000 0.300000 0.400000 0.500000 0.600000 0.700000 0.800000 0.900000 1.000000 1.100000 1.200000 1.300000 1.400000 1.500000 1.600000 1.700000 1.800000 1.900000 2.000000 2.100000 2.200000 2.300000 2.400000 2.500000 2.600000 2.700000 2.800000 2.900000 3.000000 3.100000 3.200000 3.300000 3.400000 3.500000 3.600000 3.700000 3.800000 3.900000 4.000000 4.100000 4.200000 4.300000 4.400000 4.500000 4.600000 4.700000 4.800000 4.900000 5.000000 5.100000 5.200000 5.300000 5.400000 5.500000 5.600000 5.700000 5.800000 5.900000 6.000000 6.100000 6.200000 6.300000 6.400000 6.500000 6.600000 6.700000 6.800000 6.900000 7.000000 7.100000 7.200000 7.300000 7.400000 7.500000 7.600000 7.700000 7.800000 7.900000 8.000000 8.100000 8.200000 8.300000 8.400000 8.500000 8.600000 8.700000 8.800000 8.900000 9.000000 9.100000 9.200000 9.300000 9.400000 9.500000 9.600000 9.700000 9.800000 9.900000 10.000000 10.100000 
Y_COORDINATES 102 double
0.000000 0.100000 0.200000 0.300000 0.400000 0.500000 0.600000 0.700000 0.800000 0.900000 1.000000 1.100000 1.200000 1.300000 1.400000 1.500000 1.600000 1.700000 1.800000 1.900000 2.000000 2.100000 2.200000 2.300000 2.400000 2.500000 2.600000 2.700000 2.800000 2.900000 3.000000 3.100000 3.200000 3.300000 3.400000 3.500000 3.600000 3.700000 3.800000 3.900000 4.000000 4.100000 4.200000 4.300000 4.400000 4.500000 4.600000 4.700000 4.800000 4.900000 5.000000 5.100000 5.200000 5.300000 5.400000 5.500000 5.600000 5.700000 5.800000 5.900000 6.000000 6.100000 6.200000 6.300000 6.400000 6.500000 6.600000 6.700000 6.800000 6.900000 7.000000 7.100000 7.200000 7.300000 7.400000 7.500000 7.600000 7.700000 7.800000 7.900000 8.000000 8.100000 8.200000 8.300000 8.400000 8.500000 8.600000 8.700000 8.800000 8.900000 9.000000 9.100000 9.200000 9.300000 9.400000 9.500000 9.600000 9.700000 9.800000 9.900000 10.000000 10.100000 
Z_COORDINATES 1 double
0.0
POINT_DATA 10404
SCALARS Pressure double 1
LOOKUP_TABLE default
0.000000e+00
1.331923e-02
1.343729e-02
1.358503e-02
1.364556e-02
1.356716e-02
1.336711e-02
1.311091e-02
1.287199e-02
1.269569e-02
1.258459e-02
1.250812e-02
1.242642e-02
1.231367e-02
1.216950e-02
1.201562e-02
1.188226e-02
1.179306e-02
1.175567e-02
1.176130e-02
1.179167e-02
1.182893e-02
1.186355e-02
1.189703e-02
1.193937e-02
1.200305e-02
1.209703e-02
1.222330e-02
1.237700e-02
1.254962e-02
1.273320e-02
1.292360e-02
1.312152e-02
1.333126e-02
1.355811e-02
1.380573e-02
1.407474e-02
1.436267e-02
1.466523e-02
1.497798e-02
1.529766e-02
1.562282e-02
1.595353e-02
1.629063e-02
1.663477e-02
1.698583e-02
1.734261e-02
1.770307e-02
1.806466e-02
1.842480e-02
1.878126e-02
1.913222e-02
1.947623e-02
1.981200e-02
2.013829e-02
2.045371e-02
2.075680e-02
2.104600e-02
2.131976e-02
2.157664e-02
2.181532e-02
2.203469e-02
2.223380e-02
2.241186e-02
2.256820e-02
2.270231e-02
2.281376e-02
2.290224e-02
2.296758e-02
2.300974e-02
2.302881e-02
2.302506e-02
2.299894e-02
2.295103e-02
2.288214e-02
2.279322e-02
2.268537e-02
2.255985e-02
2.241808e-02
2.226156e-02
2.209196e-02
2.191104e-02
2.172070e-02
2.152293e-02
2.131986e-02
2.111375e-02
2.090694e-02
2.070190e-02
2.050120e-02
2.030749e-02
2.012354e-02
1.995217e-02
1.979626e-02
1.965870e-02
1.954233e-02
1.944977e-02
1.938321e-02
1.934384e-02
1.933090e-02
1.933975e-02
1.935854e-02
0.000000e+00
1.331923e-02
1.336015e-02
1.353319e-02
1.366640e-02
1.366534e-02
1.352059e-02
1.328555e-02
1.303833e-02
1.283972e-02
1.270868e-02
1.262390e-02
1.254493e-02
1.243829e-02
1.229452e-02
1.212978e-02
1.197452e-02
1.185719e-02
1.179184e-02
1.177446e-02
1.178823e-02
1.181342e-02
1.183688e-02
1.185674e-02
1.188130e-02
1.192356e-02
1.199455e-02
1.209871e-02
1.223291e-02
1.238899e-02
1.255813e-02
1.273470e-02
1.291809e-02
1.311204e-02
1.332213e-02
1.355294e-02
1.380609e-02
1.407986e-02
1.437015e-02
1.467226e-02
1.498242e-02
1.529872e-02
1.562102e-02
1.595024e-02
1.628735e-02
1.663262e-02
1.698523e-02
1.734337e-02
1.770460e-02
1.806629e-02
1.842606e-02
1.878195e-02
1.913244e-02
1.947622e-02
1.981203e-02
2.013852e-02
2.045421e-02
2.075751e-02
2.104679e-02
2.132050e-02
2.157722e-02
2.181572e-02
2.203493e-02
2.223392e-02
2.241194e-02
2.256832e-02
2.270250e-02
2.281405e-02
2.290263e-02
2.296803e-02
2.301020e-02
2.302924e-02
2.302542e-02
2.299919e-02
2.295118e-02
2.288219e-02
2.279319e-02
2.268529e-02
2.255974e-02
2.241796e-02
2.226144e-02
2.209183e-02
2.191090e-02
2.172053e-02
2.152273e-02
2.131963e-02
2.111348e-02
2.090663e-02
2.070155e-02
2.050082e-02
2.030709e-02
2.012312e-02
1.995173e-02
1.979581e-02
1.965824e-02
1.954186e-02
1.944930e-02
1.938274e-02
1.934337e-02
1.933042e-02
1.933928e-02
1.935806e-02
1.935854e-02
1.344244e-02
1.354126e-02
1.368659e-02
1.371093e-02
1.359950e-02
1.340674e-02
1.320570e-02
1.304903e-02
1.294871e-02
1.288076e-02
1.280711e-02
1.269984e-02
1.255514e-02
1.239229e-02
1.224127e-02
1.212740e-02
1.206094e-02
1.203546e-02
1.203417e-02
1.203967e-02
1.204213e-02
1.204255e-02
1.205047e-02
1.207823e-02
1.213494e-02
1.222286e-02
1.233750e-02
1.247071e-02
1.261486e-02
1.276608e-02
1.292529e-02
1.309687e-02
1.328607e-02
1.349642e-02
1.372836e-02
1.397938e-02
1.424532e-02
1.452203e-02
1.480671e-02
1.509836e-02
1.539743e-02
1.570498e-02
1.602176e-02
1.634767e-02
1.668156e-02
1.702152e-02
1.736527e-02
1.771055e-02
1.805537e-02
1.839805e-02
1.873724e-02
1.907172e-02
1.940022e-02
1.972132e-02
2.003349e-02
2.033510e-02
2.062457e-02
2.090038e-02
2.116117e-02
2.140570e-02
2.163293e-02
2.184188e-02
2.203172e-02
2.220169e-02
2.235114e-02
2.247949e-02
2.258630e-02
2.267123e-02
2.273410e-02
2.277489e-02
2.279373e-02
2.279094e-02
2.276699e-02
2.272253e-02
2.265834e-02
2.257536e-02
2.247467e-02
2.235745e-02
2.222504e-02
2.207887e-02
2.192051e-02
2.175166e-02
2.157412e-02
2.138982e-02
2.120078e-02
2.100914e-02
2.081712e-02
2.062705e-02
2.044131e-02
2.026236e-02
2.009272e-02
1.993494e-02
1.979158e-02
1.966513e-02
1.955797e-02
1.947218e-02
1.940935e-02
1.937017e-02
1.935392e-02
1.935778e-02
1.937658e-02
1.937703e-02
1.367840e-02
1.376592e-02
1.379439e-02
1.368843e-02
1.350890e-02
1.333539e-02
1.321682e-02
1.315485e-02
1.311510e-02
1.305446e-02
1.294711e-02
1.279625e-02
1.262865e-02
1.247839e-02
1.237000e-02
1.230923e-02
1.228435e-02
1.227529e-02
1.226483e-02
1.224637e-02
1.222529e-02
1.221461e-02
1.222782e-02
1.227263e-02
1.234848e-02
1.244810e-02
1.256195e-02
1.268290e-02
1.280904e-02
1.294364e-02
1.309276e-02
1.326198e-02
1.345391e-02
1.366740e-02
1.389847e-02
1.414227e-02
1.439495e-02
1.465475e-02
1.492192e-02
1.519795e-02
1.548431e-02
1.578165e-02
1.608935e-02
1.640575e-02
1.672859e-02
1.705557e-02
1.738475e-02
1.771461e-02
1.804394e-02
1.837156e-02
1.869637e-02
1.901710e-02
1.933226e-02
1.964020e-02
1.993927e-02
2.022788e-02
2.050456e-02
2.076800e-02
2.101705e-02
2.125064e-02
2.146781e-02
2.166765e-02
2.184930e-02
2.201201e-02
2.215509e-02
2.227797e-02
2.238022e-02
2.246153e-02
2.252176e-02
2.256094e-02
2.257926e-02
2.257706e-02
2.255485e-02
2.251326e-02
2.245305e-02
2.237512e-02
2.228049e-02
2.217029e-02
2.204579e-02
2.190838e-02
2.175957e-02
2.160098e-02
2.143435e-02
2.126153e-02
2.108445e-02
2.090512e-02
2.072565e-02
2.054821e-02
2.037501e-02
2.020834e-02
2.005049e-02
1.990377e-02
1.977046e-02
1.965277e-02
1.955274e-02
1.947214e-02
1.941233e-02
1.937407e-02
1.935734e-02
1.936139e-02
1.938538e-02
1.938581e-02
1.390940e-02
1.393462e-02
1.382769e-02
1.364143e-02
1.347061e-02
1.337013e-02
1.333727e-02
1.332706e-02
1.328648e-02
1.318564e-02
1.303059e-02
1.285513e-02
1.269997e-02
1.259243e-02
1.253636e-02
1.251523e-02
1.250424e-02
1.248394e-02
1.244886e-02
1.240797e-02
1.237826e-02
1.237567e-02
1.240799e-02
1.247266e-02
1.255964e-02
1.265735e-02
1.275821e-02
1.286156e-02
1.297278e-02
1.309988e-02
1.324935e-02
1.342340e-02
1.361956e-02
1.383235e-02
1.405598e-02
1.428654e-02
1.452303e-02
1.476686e-02
1.502058e-02
1.528627e-02
1.556460e-02
1.585460e-02
1.615409e-02
1.646044e-02
1.677127e-02
1.708481e-02
1.739997e-02
1.771598e-02
1.803208e-02
1.834708e-02
1.865973e-02
1.896848e-02
1.927164e-02
1.956749e-02
1.985443e-02
2.013105e-02
2.039611e-02
2.064848e-02
2.088714e-02
2.111111e-02
2.131942e-02
2.151115e-02
2.168544e-02
2.184149e-02
2.197862e-02
2.209630e-02
2.219412e-02
2.227185e-02
2.232939e-02
2.236683e-02
2.238439e-02
2.238244e-02
2.236148e-02
2.232211e-02
2.226508e-02
2.219123e-02
2.210152e-02
2.199707e-02
2.187908e-02
2.174892e-02
2.160804e-02
2.145801e-02
2.130051e-02
2.113729e-02
2.097020e-02
2.080114e-02
2.063208e-02
2.046506e-02
2.030215e-02
2.014545e-02
1.999709e-02
1.985916e-02
1.973372e-02
1.962274e-02
1.952806e-02
1.945128e-02
1.939374e-02
1.935641e-02
1.933997e-02
1.934501e-02
1.937276e-02
1.937315e-02
1.406266e-02
1.401523e-02
1.382254e-02
1.363531e-02
1.353061e-02
1.350949e-02
1.352124e-02
1.350234e-02
1.341423e-02
1.326036e-02
1.307806e-02
1.291448e-02
1.280215e-02
1.274628e-02
1.272783e-02
1.271759e-02
1.269256e-02
1.264626e-02
1.258938e-02
1.254210e-02
1.252326e-02
1.254189e-02
1.259468e-02
1.266966e-02
1.275325e-02
1.283692e-02
1.292040e-02
1.301052e-02
1.311694e-02
1.324717e-02
1.340348e-02
1.358258e-02
1.377788e-02
1.398268e-02
1.419285e-02
1.440784e-02
1.462993e-02
1.486252e-02
1.510827e-02
1.536800e-02
1.564053e-02
1.592333e-02
1.621350e-02
1.650857e-02
1.680693e-02
1.710775e-02
1.741061e-02
1.771511e-02
1.802036e-02
1.832478e-02
1.862683e-02
1.892477e-02
1.921686e-02
1.950153e-02
1.977739e-02
2.004327e-02
2.029808e-02
2.054081e-02
2.077047e-02
2.098604e-02
2.118654e-02
2.137101e-02
2.153857e-02
2.168845e-02
2.182000e-02
2.193274e-02
2.202634e-02
2.210060e-02
2.215550e-02
2.219114e-02
2.220776e-02
2.220575e-02
2.218556e-02
2.214779e-02
2.209313e-02
2.202239e-02
2.193653e-02
2.183662e-02
2.172385e-02
2.159954e-02
2.146511e-02
2.132207e-02
2.117203e-02
2.101666e-02
2.085771e-02
2.069699e-02
2.053636e-02
2.037772e-02
2.022302e-02
2.007420e-02
1.993323e-02
1.980204e-02
1.968249e-02
1.957641e-02
1.948546e-02
1.941118e-02
1.935491e-02
1.931784e-02
1.930109e-02
1.930592e-02
1.933423e-02
1.933459e-02
1.412925e-02
1.403783e-02
1.383843e-02
1.371258e-02
1.368442e-02
1.370413e-02
1.370134e-02
1.362800e-02
1.348087e-02
1.329620e-02
1.312483e-02
1.300449e-02
1.294394e-02
1.292436e-02
1.291406e-02
1.288672e-02
1.283368e-02
1.276551e-02
1.270402e-02
1.267026e-02
1.267485e-02
1.271475e-02
1.277715e-02
1.284719e-02
1.291550e-02
1.298178e-02
1.305357e-02
1.314148e-02
1.325375e-02
1.339279e-02
1.355490e-02
1.373284e-02
1.391941e-02
1.411038e-02
1.430548e-02
1.450757e-02
1.472056e-02
1.494747e-02
1.518920e-02
1.544448e-02
1.571063e-02
1.598465e-02
1.626411e-02
1.654756e-02
1.683438e-02
1.712437e-02
1.741730e-02
1.771253e-02
1.800876e-02
1.830392e-02
1.859632e-02
1.888424e-02
1.916616e-02
1.944076e-02
1.970688e-02
1.996347e-02
2.020953e-02
2.044403e-02
2.066592e-02
2.087414e-02
2.106768e-02
2.124557e-02
2.140696e-02
2.155113e-02
2.167749e-02
2.178564e-02
2.187529e-02
2.194630e-02
2.199867e-02
2.203251e-02
2.204805e-02
2.204565e-02
2.202577e-02
2.198895e-02
2.193589e-02
2.186738e-02
2.178436e-02
2.168790e-02
2.157916e-02
2.145943e-02
2.133008e-02
2.119256e-02
2.104842e-02
2.089925e-02
2.074672e-02
2.059255e-02
2.043850e-02
2.028635e-02
2.013794e-02
1.999508e-02
1.985959e-02
1.973326e-02
1.961782e-02
1.951494e-02
1.942620e-02
1.935305e-02
1.929686e-02
1.925894e-02
1.924059e-02
1.924332e-02
1.926906e-02
1.926938e-02
1.415494e-02
1.406657e-02
1.392275e-02
1.387341e-02
1.388585e-02
1.388811e-02
1.382529e-02
1.368662e-02
1.350401e-02
1.332835e-02
1.320049e-02
1.313275e-02
1.310825e-02
1.309498e-02
1.306480e-02
1.300707e-02
1.293131e-02
1.285955e-02
1.281378e-02
1.280561e-02
1.283255e-02
1.288172e-02
1.293792e-02
1.299152e-02
1.304231e-02
1.309816e-02
1.317005e-02
1.326635e-02
1.338930e-02
1.353486e-02
1.369551e-02
1.386401e-02
1.403635e-02
1.421268e-02
1.439624e-02
1.459120e-02
1.480060e-02
1.502524e-02
1.526372e-02
1.551330e-02
1.577110e-02
1.603491e-02
1.630351e-02
1.657652e-02
1.685387e-02
1.713539e-02
1.742046e-02
1.770796e-02
1.799621e-02
1.828286e-02
1.856632e-02
1.884513e-02
1.911806e-02
1.938399e-02
1.964189e-02
1.989073e-02
2.012944e-02
2.035693e-02
2.057208e-02
2.077382e-02
2.096111e-02
2.113304e-02
2.128883e-02
2.142781e-02
2.154947e-02
2.165346e-02
2.173954e-02
2.180757e-02
2.185756e-02
2.188961e-02
2.190390e-02
2.190079e-02
2.188074e-02
2.184428e-02
2.179211e-02
2.172503e-02
2.164396e-02
2.154996e-02
2.144417e-02
2.132784e-02
2.120229e-02
2.106893e-02
2.092923e-02
2.078473e-02
2.063702e-02
2.048773e-02
2.033854e-02
2.019114e-02
2.004725e-02
1.990858e-02
1.977681e-02
1.965362e-02
1.954062e-02
1.943937e-02
1.935134e-02
1.927796e-02
1.922055e-02
1.918045e-02
1.915900e-02
1.915770e-02
1.917825e-02
1.917853e-02
1.420544e-02
1.415911e-02
1.408678e-02
1.408038e-02
1.407519e-02
1.401347e-02
1.387902e-02
1.369887e-02
1.352162e-02
1.338857e-02
1.331395e-02
1.328272e-02
1.326366e-02
1.322837e-02
1.316538e-02
1.308345e-02
1.300419e-02
1.294952e-02
1.293108e-02
1.294639e-02
1.298261e-02
1.302477e-02
1.306366e-02
1.309963e-02
1.314105e-02
1.319899e-02
1.328145e-02
1.339004e-02
1.352014e-02
1.366400e-02
1.381463e-02
1.396860e-02
1.412677e-02
1.429283e-02
1.447105e-02
1.466426e-02
1.487289e-02
1.509525e-02
1.532858e-02
1.557020e-02
1.581828e-02
1.607198e-02
1.633119e-02
1.659598e-02
1.686617e-02
1.714105e-02
1.741949e-02
1.770002e-02
1.798085e-02
1.825965e-02
1.853509e-02
1.880604e-02
1.907145e-02
1.933029e-02
1.958150e-02
1.982396e-02
2.005652e-02
2.027801e-02
2.048728e-02
2.068328e-02
2.086502e-02
2.103166e-02
2.118248e-02
2.131689e-02
2.143445e-02
2.153480e-02
2.161772e-02
2.168307e-02
2.173082e-02
2.176104e-02
2.177392e-02
2.176980e-02
2.174915e-02
2.171254e-02
2.166065e-02
2.159429e-02
2.151438e-02
2.142196e-02
2.131813e-02
2.120411e-02
2.108118e-02
2.095070e-02
2.081409e-02
2.067282e-02
2.052843e-02
2.038249e-02
2.023658e-02
2.009231e-02
1.995131e-02
1.981517e-02
1.968550e-02
1.956384e-02
1.945172e-02
1.935060e-02
1.926187e-02
1.918688e-02
1.912692e-02
1.908328e-02
1.905726e-02
1.905019e-02
1.906354e-02
1.906378e-02
1.432779e-02
1.433630e-02
1.430353e-02
1.428116e-02
1.420955e-02
1.407017e-02
1.388707e-02
1.370660e-02
1.356907e-02
1.348866e-02
1.345072e-02
1.342444e-02
1.338171e-02
1.331131e-02
1.322218e-02
1.313593e-02
1.307414e-02
1.304777e-02
1.305358e-02
1.307825e-02
1.310694e-02
1.313123e-02
1.315255e-02
1.318012e-02
1.322529e-02
1.329557e-02
1.339157e-02
1.350774e-02
1.363587e-02
1.376923e-02
1.390521e-02
1.404560e-02
1.419476e-02
1.435712e-02
1.453517e-02
1.472881e-02
1.493589e-02
1.515352e-02
1.537922e-02
1.561161e-02
1.585035e-02
1.609569e-02
1.634786e-02
1.660665e-02
1.687125e-02
1.714043e-02
1.741270e-02
1.768663e-02
1.796066e-02
1.823256e-02
1.850131e-02
1.876593e-02
1.902542e-02
1.927867e-02
1.952453e-02
1.976176e-02
1.998915e-02
2.020549e-02
2.040967e-02
2.060069e-02
2.077764e-02
2.093975e-02
2.108636e-02
2.121694e-02
2.133103e-02
2.142830e-02
2.150848e-02
2.157141e-02
2.161704e-02
2.164542e-02
2.165674e-02
2.165135e-02
2.162977e-02
2.159258e-02
2.154045e-02
2.147421e-02
2.139476e-02
2.130310e-02
2.120033e-02
2.108761e-02
2.096620e-02
2.083742e-02
2.070264e-02
2.056329e-02
2.042085e-02
2.027681e-02
2.013271e-02
1.999007e-02
1.985043e-02
1.971531e-02
1.958621e-02
1.946459e-02
1.935189e-02
1.924948e-02
1.915868e-02
1.908077e-02
1.901697e-02
1.896849e-02
1.893652e-02
1.892226e-02
1.892687e-02
1.892707e-02
1.452773e-02
1.457528e-02
1.452492e-02
1.443481e-02
1.428003e-02
1.408425e-02
1.389359e-02
1.374795e-02
1.366072e-02
1.361608e-02
1.358220e-02
1.353055e-02
1.345032e-02
1.335146e-02
1.325646e-02
1.318715e-02
1.315378e-02
1.315182e-02
1.316678e-02
1.318337e-02
1.319374e-02
1.320059e-02
1.321442e-02
1.324716e-02
1.330608e-02
1.339077e-02
1.349447e-02
1.360823e-02
1.372539e-02
1.384411e-02
1.396721e-02
1.409991e-02
1.424693e-02
1.441049e-02
1.458989e-02
1.478246e-02
1.498503e-02
1.519527e-02
1.541223e-02
1.563609e-02
1.586751e-02
1.610692e-02
1.635412e-02
1.660821e-02
1.686784e-02
1.713151e-02
1.739786e-02
1.766573e-02
1.793398e-02
1.820036e-02
1.846398e-02
1.872387e-02
1.897891e-02
1.922786e-02
1.946946e-02
1.970241e-02
1.992547e-02
2.013748e-02
2.033740e-02
2.052428e-02
2.069732e-02
2.085578e-02
2.099904e-02
2.112655e-02
2.123786e-02
2.133257e-02
2.141040e-02
2.147116e-02
2.151479e-02
2.154134e-02
2.155101e-02
2.154420e-02
2.152145e-02
2.148333e-02
2.143056e-02
2.136391e-02
2.128428e-02
2.119266e-02
2.109010e-02
2.097777e-02
2.085687e-02
2.072869e-02
2.059458e-02
2.045593e-02
2.031416e-02
2.017071e-02
2.002704e-02
1.988463e-02
1.974494e-02
1.960940e-02
1.947946e-02
1.935648e-02
1.924183e-02
1.913679e-02
1.904264e-02
1.896055e-02
1.889169e-02
1.883717e-02
1.879807e-02
1.877542e-02
1.877017e-02
1.877034e-02
1.477127e-02
1.482521e-02
1.470652e-02
1.452843e-02
1.430969e-02
1.409856e-02
1.393674e-02
1.383781e-02
1.378438e-02
1.374217e-02
1.368075e-02
1.358884e-02
1.347739e-02
1.337054e-02
1.329128e-02
1.324983e-02
1.324045e-02
1.324699e-02
1.325302e-02
1.325065e-02
1.324355e-02
1.324365e-02
1.326388e-02
1.331152e-02
1.338543e-02
1.347765e-02
1.357830e-02
1.368050e-02
1.378299e-02
1.388956e-02
1.400631e-02
1.413837e-02
1.428782e-02
1.445347e-02
1.463206e-02
1.482015e-02
1.501546e-02
1.521739e-02
1.542660e-02
1.564415e-02
1.587068e-02
1.610606e-02
1.634931e-02
1.659901e-02
1.685365e-02
1.711194e-02
1.737289e-02
1.763574e-02
1.789961e-02
1.816207e-02
1.842214e-02
1.867871e-02
1.893051e-02
1.917620e-02
1.941443e-02
1.964394e-02
1.986352e-02
2.007209e-02
2.026869e-02
2.045243e-02
2.062255e-02
2.077833e-02
2.091911e-02
2.104434e-02
2.115349e-02
2.124615e-02
2.132200e-02
2.138085e-02
2.142263e-02
2.144744e-02
2.145549e-02
2.144718e-02
2.142310e-02
2.138383e-02
2.133005e-02
2.126254e-02
2.118217e-02
2.108992e-02
2.098682e-02
2.087402e-02
2.075271e-02
2.062414e-02
2.048965e-02
2.035056e-02
2.020827e-02
2.006417e-02
1.991967e-02
1.977619e-02
1.963512e-02
1.949785e-02
1.936573e-02
1.924008e-02
1.912219e-02
1.901328e-02
1.891455e-02
1.882711e-02
1.875206e-02
1.869041e-02
1.864314e-02
1.861115e-02
1.859521e-02
1.859535e-02
1.500535e-02
1.503438e-02
1.482695e-02
1.457789e-02
1.433642e-02
1.414829e-02
1.402953e-02
1.396226e-02
1.390939e-02
1.383715e-02
1.373231e-02
1.360595e-02
1.348395e-02
1.339123e-02
1.333894e-02
1.332077e-02
1.331895e-02
1.331540e-02
1.330146e-02
1.328123e-02
1.326780e-02
1.327526e-02
1.331134e-02
1.337434e-02
1.345543e-02
1.354377e-02
1.363212e-02
1.371950e-02
1.381049e-02
1.391197e-02
1.402951e-02
1.416515e-02
1.431728e-02
1.448221e-02
1.465621e-02
1.483704e-02
1.502438e-02
1.521927e-02
1.542310e-02
1.563674e-02
1.586007e-02
1.609212e-02
1.633143e-02
1.657654e-02
1.682624e-02
1.707969e-02
1.733629e-02
1.759551e-02
1.785661e-02
1.811665e-02
1.837451e-02
1.862889e-02
1.887840e-02
1.912168e-02
1.935739e-02
1.958434e-02
1.980139e-02
2.000755e-02
2.020191e-02
2.038361e-02
2.055187e-02
2.070594e-02
2.084513e-02
2.096880e-02
2.107640e-02
2.116749e-02
2.124174e-02
2.129898e-02
2.133918e-02
2.136243e-02
2.136898e-02
2.135920e-02
2.133371e-02
2.129310e-02
2.123803e-02
2.116926e-02
2.108766e-02
2.099418e-02
2.088987e-02
2.077584e-02
2.065328e-02
2.052342e-02
2.038756e-02
2.024700e-02
2.010310e-02
1.995721e-02
1.981070e-02
1.966494e-02
1.952126e-02
1.938101e-02
1.924548e-02
1.911593e-02
1.899359e-02
1.887963e-02
1.877517e-02
1.868129e-02
1.859900e-02
1.852924e-02
1.847291e-02
1.843079e-02
1.840354e-02
1.840364e-02
1.518466e-02
1.517364e-02
1.489334e-02
1.461479e-02
1.439138e-02
1.424374e-02
1.415554e-02
1.408772e-02
1.400267e-02
1.388381e-02
1.374100e-02
1.360120e-02
1.349154e-02
1.342493e-02
1.339535e-02
1.338387e-02
1.337069e-02
1.334585e-02
1.331323e-02
1.328664e-02
1.328119e-02
1.330525e-02
1.335699e-02
1.342678e-02
1.350311e-02
1.357829e-02
1.365150e-02
1.372786e-02
1.381487e-02
1.391845e-02
1.404059e-02
1.417939e-02
1.433081e-02
1.449092e-02
1.465755e-02
1.483063e-02
1.501153e-02
1.520189e-02
1.540268e-02
1.561383e-02
1.583434e-02
1.606280e-02
1.629781e-02
1.653831e-02
1.678362e-02
1.703331e-02
1.728699e-02
1.754409e-02
1.780381e-02
1.806268e-02
1.831934e-02
1.857240e-02
1.882044e-02
1.906214e-02
1.929624e-02
1.952163e-02
1.973726e-02
1.994218e-02
2.013548e-02
2.031629e-02
2.048375e-02
2.063706e-02
2.077546e-02
2.089826e-02
2.100491e-02
2.109494e-02
2.116807e-02
2.122412e-02
2.126309e-02
2.128508e-02
2.129032e-02
2.127917e-02
2.125227e-02
2.121019e-02
2.115359e-02
2.108323e-02
2.099997e-02
2.090477e-02
2.079865e-02
2.068272e-02
2.055816e-02
2.042619e-02
2.028807e-02
2.014509e-02
1.999857e-02
1.984984e-02
1.970023e-02
1.955106e-02
1.940364e-02
1.925925e-02
1.911914e-02
1.898454e-02
1.885661e-02
1.873649e-02
1.862524e-02
1.852389e-02
1.843339e-02
1.835464e-02
1.828845e-02
1.823553e-02
1.819649e-02
1.819655e-02
1.529073e-02
1.524580e-02
1.493277e-02
1.466805e-02
1.448383e-02
1.436733e-02
1.427912e-02
1.417816e-02
1.404382e-02
1.388350e-02
1.372420e-02
1.359492e-02
1.351075e-02
1.346672e-02
1.344342e-02
1.341955e-02
1.338367e-02
1.333896e-02
1.329949e-02
1.328112e-02
1.329282e-02
1.333285e-02
1.339109e-02
1.345531e-02
1.351760e-02
1.357721e-02
1.363970e-02
1.371298e-02
1.380320e-02
1.391227e-02
1.403798e-02
1.417599e-02
1.432230e-02
1.447487e-02
1.463391e-02
1.480105e-02
1.497811e-02
1.516614e-02
1.536503e-02
1.557375e-02
1.579091e-02
1.601526e-02
1.624590e-02
1.648238e-02
1.672442e-02
1.697177e-02
1.722395e-02
1.748023e-02
1.773958e-02
1.799820e-02
1.825446e-02
1.850696e-02
1.875434e-02
1.899538e-02
1.922893e-02
1.945393e-02
1.966938e-02
1.987432e-02
2.006778e-02
2.024881e-02
2.041649e-02
2.056992e-02
2.070831e-02
2.083095e-02
2.093728e-02
2.102688e-02
2.109945e-02
2.115484e-02
2.119304e-02
2.121415e-02
2.121836e-02
2.120601e-02
2.117773e-02
2.113411e-02
2.107582e-02
2.100362e-02
2.091836e-02
2.082100e-02
2.071257e-02
2.059417e-02
2.046695e-02
2.033213e-02
2.019095e-02
2.004468e-02
1.989463e-02
1.974209e-02
1.958837e-02
1.943475e-02
1.928251e-02
1.913290e-02
1.898713e-02
1.884639e-02
1.871181e-02
1.858447e-02
1.846541e-02
1.835562e-02
1.825601e-02
1.816744e-02
1.809068e-02
1.802640e-02
1.797514e-02
1.797517e-02
1.533568e-02
1.527873e-02
1.497567e-02
1.474952e-02
1.459838e-02
1.448413e-02
1.436338e-02
1.421142e-02
1.403242e-02
1.385245e-02
1.370178e-02
1.359759e-02
1.353642e-02
1.349895e-02
1.346276e-02
1.341496e-02
1.335784e-02
1.330540e-02
1.327400e-02
1.327314e-02
1.330115e-02
1.334755e-02
1.339959e-02
1.344901e-02
1.349527e-02
1.354429e-02
1.360438e-02
1.368179e-02
1.377825e-02
1.389118e-02
1.401598e-02
1.414859e-02
1.428715e-02
1.443220e-02
1.458568e-02
1.474957e-02
1.492489e-02
1.511145e-02
1.530816e-02
1.551366e-02
1.572682e-02
1.594697e-02
1.617387e-02
1.640746e-02
1.664761e-02
1.689394e-02
1.714576e-02
1.740210e-02
1.766179e-02
1.792084e-02
1.817739e-02
1.843012e-02
1.867779e-02
1.891926e-02
1.915348e-02
1.937940e-02
1.959600e-02
1.980221e-02
1.999700e-02
2.017930e-02
2.034813e-02
2.050254e-02
2.064171e-02
2.076497e-02
2.087176e-02
2.096165e-02
2.103437e-02
2.108974e-02
2.112772e-02
2.114837e-02
2.115188e-02
2.113855e-02
2.110899e-02
2.106385e-02
2.100380e-02
2.092958e-02
2.084208e-02
2.074223e-02
2.063108e-02
2.050970e-02
2.037925e-02
2.024094e-02
2.009598e-02
1.994566e-02
1.979124e-02
1.963401e-02
1.947524e-02
1.931620e-02
1.915815e-02
1.900230e-02
1.884985e-02
1.870194e-02
1.855967e-02
1.842413e-02
1.829630e-02
1.817714e-02
1.806757e-02
1.796841e-02
1.788041e-02
1.780422e-02
1.774039e-02
1.774038e-02
1.535134e-02
1.530799e-02
1.504016e-02
1.484951e-02
1.470401e-02
1.455909e-02
1.438651e-02
1.418696e-02
1.398494e-02
1.381139e-02
1.368535e-02
1.360495e-02
1.355125e-02
1.350099e-02
1.343996e-02
1.336952e-02
1.330348e-02
1.325862e-02
1.324487e-02
1.326064e-02
1.329508e-02
1.333494e-02
1.337157e-02
1.340453e-02
1.344023e-02
1.348738e-02
1.355232e-02
1.363654e-02
1.373707e-02
1.384893e-02
1.396800e-02
1.409264e-02
1.422373e-02
1.436356e-02
1.451426e-02
1.467684e-02
1.485099e-02
1.503550e-02
1.522901e-02
1.543051e-02
1.563955e-02
1.585614e-02
1.608043e-02
1.631247e-02
1.655195e-02
1.679824e-02
1.705042e-02
1.730736e-02
1.756785e-02
1.782795e-02
1.808555e-02
1.833944e-02
1.858852e-02
1.883171e-02
1.906794e-02
1.929614e-02
1.951516e-02
1.972384e-02
1.992102e-02
2.010558e-02
2.027648e-02
2.043276e-02
2.057364e-02
2.069842e-02
2.080655e-02
2.089761e-02
2.097127e-02
2.102733e-02
2.106570e-02
2.108640e-02
2.108959e-02
2.107558e-02
2.104492e-02
2.099837e-02
2.093656e-02
2.086028e-02
2.077039e-02
2.066783e-02
2.055362e-02
2.042887e-02
2.029472e-02
2.015235e-02
2.000300e-02
1.984793e-02
1.968838e-02
1.952564e-02
1.936097e-02
1.919562e-02
1.903083e-02
1.886778e-02
1.870767e-02
1.855160e-02
1.840069e-02
1.825596e-02
1.811843e-02
1.798903e-02
1.786866e-02
1.775816e-02
1.765827e-02
1.756966e-02
1.749289e-02
1.749285e-02
1.537094e-02
1.535843e-02
1.512427e-02
1.494289e-02
1.476923e-02
1.457214e-02
1.434902e-02
1.412258e-02
1.392408e-02
1.377421e-02
1.367268e-02
1.360097e-02
1.353502e-02
1.345932e-02
1.337422e-02
1.329339e-02
1.323409e-02
1.320678e-02
1.320998e-02
1.323240e-02
1.326015e-02
1.328416e-02
1.330395e-02
1.332632e-02
1.336051e-02
1.341308e-02
1.348528e-02
1.357370e-02
1.367295e-02
1.377875e-02
1.388961e-02
1.400680e-02
1.413294e-02
1.427038e-02
1.442011e-02
1.458170e-02
1.475380e-02
1.493501e-02
1.512441e-02
1.532178e-02
1.552736e-02
1.574153e-02
1.596449e-02
1.619607e-02
1.643569e-02
1.668247e-02
1.693535e-02
1.719320e-02
1.745492e-02
1.771679e-02
1.797636e-02
1.823256e-02
1.848434e-02
1.873060e-02
1.897022e-02
1.920197e-02
1.942459e-02
1.963682e-02
1.983741e-02
2.002521e-02
2.019917e-02
2.035836e-02
2.050197e-02
2.062933e-02
2.073983e-02
2.083301e-02
2.090849e-02
2.096601e-02
2.100543e-02
2.102675e-02
2.103012e-02
2.101581e-02
2.098437e-02
2.093661e-02
2.087320e-02
2.079489e-02
2.070257e-02
2.059716e-02
2.047969e-02
2.035127e-02
2.021301e-02
2.006613e-02
1.991184e-02
1.975140e-02
1.958605e-02
1.941707e-02
1.924570e-02
1.907320e-02
1.890078e-02
1.872964e-02
1.856093e-02
1.839577e-02
1.823525e-02
1.808042e-02
1.793227e-02
1.779176e-02
1.765979e-02
1.753721e-02
1.742480e-02
1.732324e-02
1.723314e-02
1.723307e-02
1.541283e-02
1.543325e-02
1.520832e-02
1.500140e-02
1.477541e-02
1.452461e-02
1.426996e-02
1.404309e-02
1.386640e-02
1.374124e-02
1.364952e-02
1.356624e-02
1.347434e-02
1.337303e-02
1.327577e-02
1.320047e-02
1.315834e-02
1.314820e-02
1.315834e-02
1.317406e-02
1.318564e-02
1.319243e-02
1.320149e-02
1.322257e-02
1.326261e-02
1.332279e-02
1.339926e-02
1.348617e-02
1.357899e-02
1.367631e-02
1.377972e-02
1.389218e-02
1.401625e-02
1.415298e-02
1.430180e-02
1.446123e-02
1.462982e-02
1.480672e-02
1.499188e-02
1.518578e-02
1.538902e-02
1.560197e-02
1.582457e-02
1.605632e-02
1.629641e-02
1.654384e-02
1.679756e-02
1.705662e-02
1.732010e-02
1.758463e-02
1.784732e-02
1.810712e-02
1.836296e-02
1.861365e-02
1.885789e-02
1.909435e-02
1.932164e-02
1.953843e-02
1.974346e-02
1.993558e-02
2.011374e-02
2.027701e-02
2.042456e-02
2.055566e-02
2.066965e-02
2.076597e-02
2.084420e-02
2.090401e-02
2.094524e-02
2.096786e-02
2.097199e-02
2.095793e-02
2.092613e-02
2.087752e-02
2.081275e-02
2.073259e-02
2.063790e-02
2.052962e-02
2.040877e-02
2.027646e-02
2.013381e-02
1.998204e-02
1.982235e-02
1.965600e-02
1.948424e-02
1.930834e-02
1.912956e-02
1.894912e-02
1.876825e-02
1.858813e-02
1.840993e-02
1.823476e-02
1.806373e-02
1.789788e-02
1.773823e-02
1.758575e-02
1.744138e-02
1.730598e-02
1.718039e-02
1.706533e-02
1.696145e-02
1.696136e-02
1.547323e-02
1.551434e-02
1.526502e-02
1.500572e-02
1.472268e-02
1.443505e-02
1.417497e-02
1.396696e-02
1.381438e-02
1.369977e-02
1.359707e-02
1.348725e-02
1.336798e-02
1.325234e-02
1.315894e-02
1.310011e-02
1.307524e-02
1.307237e-02
1.307588e-02
1.307512e-02
1.306901e-02
1.306478e-02
1.307258e-02
1.309978e-02
1.314771e-02
1.321219e-02
1.328690e-02
1.336698e-02
1.345101e-02
1.354080e-02
1.363963e-02
1.375028e-02
1.387384e-02
1.400965e-02
1.415613e-02
1.431175e-02
1.447573e-02
1.464817e-02
1.482975e-02
1.502128e-02
1.522330e-02
1.543586e-02
1.565854e-02
1.589060e-02
1.613112e-02
1.637917e-02
1.663391e-02
1.689459e-02
1.716056e-02
1.742887e-02
1.769594e-02
1.796067e-02
1.822186e-02
1.847815e-02
1.872811e-02
1.897030e-02
1.920327e-02
1.942569e-02
1.963630e-02
1.983397e-02
2.001762e-02
2.018630e-02
2.033909e-02
2.047517e-02
2.059380e-02
2.069436e-02
2.077634e-02
2.083939e-02
2.088331e-02
2.090804e-02
2.091370e-02
2.090056e-02
2.086900e-02
2.082000e-02
2.075425e-02
2.067251e-02
2.057563e-02
2.046456e-02
2.034033e-02
2.020402e-02
2.005678e-02
1.989982e-02
1.973435e-02
1.956164e-02
1.938294e-02
1.919952e-02
1.901263e-02
1.882352e-02
1.863340e-02
1.844348e-02
1.825493e-02
1.806887e-02
1.788643e-02
1.770868e-02
1.753665e-02
1.737136e-02
1.721377e-02
1.706481e-02
1.692534e-02
1.679617e-02
1.667802e-02
1.667791e-02
1.552977e-02
1.557207e-02
1.527155e-02
1.495206e-02
1.462663e-02
1.432787e-02
1.408286e-02
1.389770e-02
1.375607e-02
1.363093e-02
1.350100e-02
1.336179e-02
1.322559e-02
1.311167e-02
1.303370e-02
1.299208e-02
1.297484e-02
1.296547e-02
1.295216e-02
1.293308e-02
1.291539e-02
1.290970e-02
1.292373e-02
1.295901e-02
1.301126e-02
1.307373e-02
1.314119e-02
1.321212e-02
1.328844e-02
1.337371e-02
1.347090e-02
1.358115e-02
1.370373e-02
1.383696e-02
1.397925e-02
1.412988e-02
1.428908e-02
1.445773e-02
1.463681e-02
1.482701e-02
1.502848e-02
1.524089e-02
1.546358e-02
1.569572e-02
1.593650e-02
1.618520e-02
1.644127e-02
1.670422e-02
1.697357e-02
1.724687e-02
1.751956e-02
1.779041e-02
1.805803e-02
1.832092e-02
1.857756e-02
1.882646e-02
1.906620e-02
1.929544e-02
1.951295e-02
1.971755e-02
1.990812e-02
2.008360e-02
2.024298e-02
2.038533e-02
2.050984e-02
2.061581e-02
2.070268e-02
2.077006e-02
2.081770e-02
2.084554e-02
2.085363e-02
2.084222e-02
2.081167e-02
2.076288e-02
2.069665e-02
2.061374e-02
2.051498e-02
2.040132e-02
2.027378e-02
2.013347e-02
1.998154e-02
1.981920e-02
1.964766e-02
1.946821e-02
1.928210e-02
1.909060e-02
1.889499e-02
1.869652e-02
1.849642e-02
1.829590e-02
1.809617e-02
1.789837e-02
1.770365e-02
1.751312e-02
1.732785e-02
1.714890e-02
1.697727e-02
1.681396e-02
1.665989e-02
1.651594e-02
1.638293e-02
1.638280e-02
1.555281e-02
1.557881e-02
1.521811e-02
1.485091e-02
1.450848e-02
1.422065e-02