# vtk DataFile Version 3.0
Scalar Field
ASCII
DATASET RECTILINEAR_GRID
DIMENSIONS 102 102 1
X_COORDINATES 102 double
0.000000 0.100000 0.200000 0.300000 0.400000 0.500000 0.600000 0.700000 0.800000 0.900000 1.000000 1.100000 1.200000 1.300000 1.400000 1.500000 1.600000 1.700000 1.800000 1.900000 2.000000 2.100000 2.200000 2.300000 2.400000 2.500000 2.600000 2.700000 2.800000 2.900000 3.000000 3.100000 3.200000 3.300000 3.400000 3.500000 3.600000 3.700000 3.800000 3.900000 4.000000 4.100000 4.200000 4.300000 4.400000 4.500000 4.600000 4.700000 4.800000 4.900000 5.000000 5.100000 5.200000 5.300000 5.400000 5.500000 5.600000 5.700000 5.800000 5.900000 6.000000 6.100000 6.200000 6.300000 6.400000 6.500000 6.600000 6.700000 6.800000 6.900000 7.000000 7.100000 7.200000 7.300000 7.400000 7.500000 7.600000 7.700000 7.800000 7.900000 8.000000 8.100000 8.200000 8.300000 8.400000 8.500000 8.600000 8.700000 8.800000 8.900000 9.000000 9.100000 9.200000 9.300000 9.400000 9.500000 9.600000 9.700000 9.800000 9.900000 10.000000 10.100000 
Y_COORDINATES 102 double
0.000000 0.100000 0.200000 0.300000 0.400000 0.500000 0.600000 0.700000 0.800000 0.900000 1.000000 1.100000 1.200000 1.300000 1.400000 1.500000 1.600000 1.700000 1.800000 1.900000 2.000000 2.100000 2.200000 2.300000 2.400000 2.500000 2.600000 2.700000 2.800000 2.900000 3.000000 3.100000 3.200000 3.300000 3.400000 3.500000 3.600000 3.700000 3.800000 3.900000 4.000000 4.100000 4.200000 4.300000 4.400000 4.500000 4.600000 4.700000 4.800000 4.900000 5.000000 5.100000 5.200000 5.300000 5.400000 5.500000 5.600000 5.700000 5.800000 5.900000 6.000000 6.100000 6.200000 6.300000 6.400000 6.500000 6.600000 6.700000 6.800000 6.900000 7.000000 7.100000 7.200000 7.300000 7.400000 7.500000 7.600000 7.700000 7.800000 7.900000 8.000000 8.100000 8.200000 8.300000 8.400000 8.500000 8.600000 8.700000 8.800000 8.900000 9.000000 9.100000 9.200000 9.300000 9.400000 9.500000 9.600000 9.700000 9.800000 9.900000 10.000000 10.100000 
Z_COORDINATES 1 double
0.0
POINT_DATA 10404
SCALARS Pressure double 1
LOOKUP_TABLE default
0.000000e+00
-1.141346e-02
-1.141913e-02
-1.153423e-02
-1.171282e-02
-1.190989e-02
-1.208361e-02
-1.220300e-02
-1.225285e-02
-1.223477e-02
-1.216436e-02
-1.206534e-02
-1.196207e-02
-1.187285e-02
-1.180549e-02
-1.175642e-02
-1.171302e-02
-1.165841e-02
-1.157673e-02
-1.145749e-02
-1.129762e-02
-1.110111e-02
-1.087665e-02
-1.063436e-02
-1.038284e-02
-1.012725e-02
-9.868927e-03
-9.606144e-03
-9.335611e-03
-9.053996e-03
-8.759004e-03
-8.449797e-03
-8.126805e-03
-7.791185e-03
-7.444208e-03
-7.086814e-03
-6.719451e-03
-6.342163e-03
-5.954851e-03
-5.557563e-03
-5.150701e-03
-4.735106e-03
-4.312004e-03
-3.882854e-03
-3.449150e-03
-3.012229e-03
-2.573122e-03
-2.132472e-03
-1.690524e-03
-1.247180e-03
-8.021156e-04
-3.549328e-04
9.466742e-05
5.467227e-04
1.000885e-03
1.456343e-03
1.911817e-03
2.365646e-03
2.815938e-03
3.260776e-03
3.698435e-03
4.127569e-03
4.547336e-03
4.957426e-03
5.358006e-03
5.749571e-03
6.132747e-03
6.508086e-03
6.875887e-03
7.236083e-03
7.588195e-03
7.931378e-03
8.264508e-03
8.586317e-03
8.895528e-03
9.190970e-03
9.471658e-03
9.736821e-03
9.985899e-03
1.021850e-02
1.043433e-02
1.063316e-02
1.081475e-02
1.097883e-02
1.112507e-02
1.125309e-02
1.136249e-02
1.145287e-02
1.152386e-02
1.157521e-02
1.160682e-02
1.161885e-02
1.161183e-02
1.158677e-02
1.154541e-02
1.149047e-02
1.142598e-02
1.135779e-02
1.129405e-02
1.124557e-02
1.122456e-02
0.000000e+00
-1.141346e-02
-1.135016e-02
-1.141622e-02
-1.157890e-02
-1.178254e-02
-1.197890e-02
-1.212953e-02
-1.221210e-02
-1.222262e-02
-1.217353e-02
-1.208804e-02
-1.199242e-02
-1.190843e-02
-1.184766e-02
-1.180948e-02
-1.178267e-02
-1.174984e-02
-1.169316e-02
-1.159943e-02
-1.146306e-02
-1.128637e-02
-1.107760e-02
-1.084756e-02
-1.060622e-02
-1.036029e-02
-1.011231e-02
-9.861172e-03
-9.603580e-03
-9.335735e-03
-9.054685e-03
-8.758996e-03
-8.448717e-03
-8.124880e-03
-7.788829e-03
-7.441675e-03
-7.084027e-03
-6.716017e-03
-6.337545e-03
-5.948585e-03
-5.549447e-03
-5.140898e-03
-4.724141e-03
-4.300666e-03
-3.872041e-03
-3.439687e-03
-3.004711e-03
-2.567796e-03
-2.129181e-03
-1.688717e-03
-1.245995e-03
-8.005147e-04
-3.518738e-04
1.000424e-04
5.549203e-04
1.011944e-03
1.469791e-03
1.926720e-03
2.380741e-03
2.829830e-03
3.272171e-03
3.706353e-03
4.131511e-03
4.547359e-03
4.954127e-03
5.352407e-03
5.742937e-03
6.126376e-03
6.503107e-03
6.873108e-03
7.235905e-03
7.590606e-03
7.936014e-03
8.270761e-03
8.593467e-03
8.902867e-03
9.197899e-03
9.477748e-03
9.741835e-03
9.989773e-03
1.022130e-02
1.043623e-02
1.063435e-02
1.081542e-02
1.097915e-02
1.112517e-02
1.125304e-02
1.136235e-02
1.145264e-02
1.152356e-02
1.157484e-02
1.160638e-02
1.161834e-02
1.161124e-02
1.158613e-02
1.154473e-02
1.148976e-02
1.142525e-02
1.135705e-02
1.129332e-02
1.124484e-02
1.122384e-02
1.122456e-02
-1.138220e-02
-1.137880e-02
-1.150104e-02
-1.166863e-02
-1.183241e-02
-1.196004e-02
-1.203249e-02
-1.204656e-02
-1.201314e-02
-1.195205e-02
-1.188520e-02
-1.182990e-02
-1.179424e-02
-1.177565e-02
-1.176278e-02
-1.173970e-02
-1.169109e-02
-1.160638e-02
-1.148209e-02
-1.132157e-02
-1.113283e-02
-1.092548e-02
-1.070774e-02
-1.048461e-02
-1.025740e-02
-1.002448e-02
-9.782727e-03
-9.529017e-03
-9.261233e-03
-8.978660e-03
-8.681778e-03
-8.371712e-03
-8.049642e-03
-7.716392e-03
-7.372300e-03
-7.017342e-03
-6.651401e-03
-6.274548e-03
-5.887239e-03
-5.490371e-03
-5.085205e-03
-4.673197e-03
-4.255784e-03
-3.834196e-03
-3.409310e-03
-2.981594e-03
-2.551111e-03
-2.117618e-03
-1.680705e-03
-1.239975e-03
-7.952219e-04
-3.465937e-04
1.053031e-04
5.593754e-04
1.014113e-03
1.467710e-03
1.918262e-03
2.363975e-03
2.803374e-03
3.235447e-03
3.659712e-03
4.076184e-03
4.485259e-03
4.887525e-03
5.283563e-03
5.673742e-03
6.058088e-03
6.436212e-03
6.807327e-03
7.170331e-03
7.523933e-03
7.866798e-03
8.197671e-03
8.515476e-03
8.819359e-03
9.108694e-03
9.383051e-03
9.642134e-03
9.885722e-03
1.011361e-02
1.032557e-02
1.052133e-02
1.070055e-02
1.086285e-02
1.100784e-02
1.113511e-02
1.124428e-02
1.133506e-02
1.140721e-02
1.146068e-02
1.149558e-02
1.151229e-02
1.151155e-02
1.149458e-02
1.146320e-02
1.142009e-02
1.136891e-02
1.131461e-02
1.126354e-02
1.122333e-02
1.120227e-02
1.120305e-02
-1.140703e-02
-1.144952e-02
-1.159163e-02
-1.173013e-02
-1.183121e-02
-1.188303e-02
-1.188726e-02
-1.185693e-02
-1.181126e-02
-1.176919e-02
-1.174355e-02
-1.173757e-02
-1.174460e-02
-1.175090e-02
-1.174031e-02
-1.169921e-02
-1.162003e-02
-1.150254e-02
-1.135263e-02
-1.117953e-02
-1.099248e-02
-1.079813e-02
-1.059928e-02
-1.039520e-02
-1.018285e-02
-9.958674e-03
-9.719899e-03
-9.465308e-03
-9.195197e-03
-8.910829e-03
-8.613714e-03
-8.305012e-03
-7.985269e-03
-7.654464e-03
-7.312306e-03
-6.958580e-03
-6.593441e-03
-6.217539e-03
-5.831985e-03
-5.438188e-03
-5.037623e-03
-4.631612e-03
-4.221146e-03
-3.806792e-03
-3.388688e-03
-2.966621e-03
-2.540167e-03
-2.108877e-03
-1.672470e-03
-1.231006e-03
-7.850070e-04
-3.354960e-04
1.160398e-04
5.677875e-04
1.017830e-03
1.464358e-03
1.905882e-03
2.341391e-03
2.770421e-03
3.193025e-03
3.609639e-03
4.020896e-03
4.427393e-03
4.829493e-03
5.227174e-03
5.619967e-03
6.006978e-03
6.386988e-03
6.758602e-03
7.120408e-03
7.471115e-03
7.809652e-03
8.135206e-03
8.447216e-03
8.745323e-03
9.029298e-03
9.298969e-03
9.554155e-03
9.794627e-03
1.002009e-02
1.023018e-02
1.042449e-02
1.060258e-02
1.076402e-02
1.090840e-02
1.103538e-02
1.114467e-02
1.123606e-02
1.130949e-02
1.136501e-02
1.140289e-02
1.142363e-02
1.142806e-02
1.141741e-02
1.139344e-02
1.135851e-02
1.131573e-02
1.126899e-02
1.122293e-02
1.118268e-02
1.115334e-02
1.115418e-02
-1.146206e-02
-1.152706e-02
-1.165283e-02
-1.173869e-02
-1.177282e-02
-1.176311e-02
-1.172706e-02
-1.168607e-02
-1.165878e-02
-1.165562e-02
-1.167597e-02
-1.170902e-02
-1.173756e-02
-1.174358e-02
-1.171350e-02
-1.164154e-02
-1.153024e-02
-1.138834e-02
-1.122709e-02
-1.105644e-02
-1.088235e-02
-1.070598e-02
-1.052459e-02
-1.033347e-02
-1.012807e-02
-9.905503e-03
-9.665069e-03
-9.407916e-03
-9.136115e-03
-8.851698e-03
-8.555981e-03
-8.249362e-03
-7.931532e-03
-7.601931e-03
-7.260212e-03
-6.906567e-03
-6.541815e-03
-6.167286e-03
-5.784564e-03
-5.395194e-03
-5.000416e-03
-4.601002e-03
-4.197202e-03
-3.788798e-03
-3.375254e-03
-2.955922e-03
-2.530282e-03
-2.098161e-03
-1.659896e-03
-1.216416e-03
-7.692062e-04
-3.201747e-04
1.285585e-04
5.749391e-04
1.017272e-03
1.454405e-03
1.885829e-03
2.311667e-03
2.732527e-03
3.149277e-03
3.562773e-03
3.973596e-03
4.381860e-03
4.787115e-03
5.188372e-03
5.584214e-03
5.972988e-03
6.353014e-03
6.722775e-03
7.081048e-03
7.426963e-03
7.759990e-03
8.079870e-03
8.386511e-03
8.679882e-03
8.959924e-03
9.226484e-03
9.479295e-03
9.717979e-03
9.942076e-03
1.015108e-02
1.034449e-02
1.052183e-02
1.068265e-02
1.082662e-02
1.095344e-02
1.106291e-02
1.115494e-02
1.122955e-02
1.128688e-02
1.132725e-02
1.135122e-02
1.135960e-02
1.135355e-02
1.133461e-02
1.130478e-02
1.126651e-02
1.122269e-02
1.117650e-02
1.113111e-02
1.108914e-02
1.109005e-02
-1.152092e-02
-1.158296e-02
-1.166761e-02
-1.169418e-02
-1.167389e-02
-1.162937e-02
-1.158592e-02
-1.156425e-02
-1.157472e-02
-1.161485e-02
-1.167068e-02
-1.172158e-02
-1.174679e-02
-1.173137e-02
-1.166984e-02
-1.156638e-02
-1.143209e-02
-1.128043e-02
-1.112276e-02
-1.096528e-02
-1.080835e-02
-1.064774e-02
-1.047719e-02
-1.029093e-02
-1.008553e-02
-9.860363e-03
-9.617060e-03
-9.358326e-03
-9.086705e-03
-8.803776e-03
-8.509945e-03
-8.204748e-03
-7.887431e-03
-7.557533e-03
-7.215251e-03
-6.861526e-03
-6.497867e-03
-6.126022e-03
-5.747607e-03
-5.363812e-03
-4.975221e-03
-4.581790e-03
-4.182955e-03
-3.777858e-03
-3.365622e-03
-2.945654e-03
-2.517887e-03
-2.082942e-03
-1.642157e-03
-1.197478e-03
-7.512245e-04
-3.057724e-04
1.367574e-04
5.748054e-04
1.007590e-03
1.435121e-03
1.858082e-03
2.277592e-03
2.694875e-03
3.110933e-03
3.526261e-03
3.940679e-03
4.353300e-03
4.762636e-03
5.166803e-03
5.563785e-03
5.951690e-03
6.328956e-03
6.694465e-03
7.047563e-03
7.387987e-03
7.715746e-03
8.030975e-03
8.333796e-03
8.624226e-03
8.902115e-03
9.167144e-03
9.418852e-03
9.656685e-03
9.880055e-03
1.008838e-02
1.028115e-02
1.045789e-02
1.061824e-02
1.076191e-02
1.088867e-02
1.099840e-02
1.109107e-02
1.116673e-02
1.122556e-02
1.126792e-02
1.129432e-02
1.130551e-02
1.130253e-02
1.128665e-02
1.125946e-02
1.122282e-02
1.117875e-02
1.112928e-02
1.107613e-02
1.102024e-02
1.102123e-02
-1.155785e-02
-1.159612e-02
-1.163163e-02
-1.160988e-02
-1.156049e-02
-1.151293e-02
-1.149128e-02
-1.150785e-02
-1.156034e-02
-1.163338e-02
-1.170391e-02
-1.174850e-02
-1.175010e-02
-1.170229e-02
-1.160959e-02
-1.148444e-02
-1.134209e-02
-1.119542e-02
-1.105151e-02
-1.091070e-02
-1.076805e-02
-1.061620e-02
-1.044836e-02
-1.026033e-02
-1.005120e-02
-9.822690e-03
-9.577808e-03
-9.319436e-03
-9.049398e-03
-8.768195e-03
-8.475347e-03
-8.170035e-03
-7.851752e-03
-7.520716e-03
-7.177958e-03
-6.825114e-03
-6.464045e-03
-6.096419e-03
-5.723371e-03
-5.345318e-03
-4.961951e-03
-4.572399e-03
-4.175511e-03
-3.770216e-03
-3.355870e-03
-2.932537e-03
-2.501133e-03
-2.063399e-03
-1.621706e-03
-1.178726e-03
-7.370270e-04
-2.986849e-04
1.349847e-04
5.635894e-04
9.876540e-04
1.408374e-03
1.827273e-03
2.245804e-03
2.664981e-03
3.085103e-03
3.505633e-03
3.925247e-03
4.342013e-03
4.753682e-03
5.157999e-03
5.552985e-03
5.937131e-03
6.309481e-03
6.669605e-03
7.017480e-03
7.353322e-03
7.677414e-03
7.989960e-03
8.290990e-03
8.580321e-03
8.857566e-03
9.122184e-03
9.373543e-03
9.610992e-03
9.833907e-03
1.004173e-02
1.023398e-02
1.041027e-02
1.057029e-02
1.071381e-02
1.084064e-02
1.095071e-02
1.104398e-02
1.112054e-02
1.118057e-02
1.122439e-02
1.125247e-02
1.126549e-02
1.126428e-02
1.124990e-02
1.122353e-02
1.118652e-02
1.114020e-02
1.108574e-02
1.102388e-02
1.095457e-02
1.095565e-02
-1.155570e-02
-1.155879e-02
-1.155426e-02
-1.150849e-02
-1.146074e-02
-1.143855e-02
-1.145720e-02
-1.151623e-02
-1.160070e-02
-1.168658e-02
-1.174861e-02
-1.176771e-02
-1.173587e-02
-1.165693e-02
-1.154356e-02
-1.141192e-02
-1.127607e-02
-1.114406e-02
-1.101676e-02
-1.088920e-02
-1.075359e-02
-1.060249e-02
-1.043111e-02
-1.023812e-02
-1.002501e-02
-9.794746e-03
-9.550281e-03
-9.293521e-03
-9.025049e-03
-8.744439e-03
-8.450926e-03
-8.144060e-03
-7.824140e-03
-7.492291e-03
-7.150243e-03
-6.799920e-03
-6.442992e-03
-6.080515e-03
-5.712735e-03
-5.339105e-03
-4.958478e-03
-4.569466e-03
-4.170854e-03
-3.762004e-03
-3.343152e-03
-2.915530e-03
-2.481275e-03
-2.043139e-03
-1.604061e-03
-1.166690e-03
-7.329625e-04
-3.038230e-04
1.208146e-04
5.419535e-04
9.612280e-04
1.380439e-03
1.801104e-03
2.224085e-03
2.649354e-03
3.075950e-03
3.502107e-03
3.925524e-03
4.343713e-03
4.754334e-03
5.155467e-03
5.545776e-03
5.924537e-03
6.291554e-03
6.647004e-03
6.991236e-03
7.324593e-03
7.647269e-03
7.959239e-03
8.260236e-03
8.549790e-03
8.827285e-03
9.092034e-03
9.343348e-03
9.580583e-03
9.803170e-03
1.001062e-02
1.020254e-02
1.037858e-02
1.053848e-02
1.068203e-02
1.080907e-02
1.091951e-02
1.101334e-02
1.109062e-02
1.115152e-02
1.119632e-02
1.122545e-02
1.123945e-02
1.123901e-02
1.122494e-02
1.119812e-02
1.115945e-02
1.110975e-02
1.104959e-02
1.097910e-02
1.089768e-02
1.089887e-02
-1.151080e-02
-1.147843e-02
-1.145570e-02
-1.141588e-02
-1.139749e-02
-1.141877e-02
-1.148196e-02
-1.157388e-02
-1.167104e-02
-1.174758e-02
-1.178309e-02
-1.176803e-02
-1.170503e-02
-1.160613e-02
-1.148755e-02
-1.136383e-02
-1.124371e-02
-1.112865e-02
-1.101411e-02
-1.089239e-02
-1.075598e-02
-1.059984e-02
-1.042232e-02
-1.022462e-02
-1.000943e-02
-9.779474e-03
-9.536532e-03
-9.281135e-03
-9.012891e-03
-8.731138e-03
-8.435573e-03
-8.126653e-03
-7.805641e-03
-7.474361e-03
-7.134769e-03
-6.788496e-03
-6.436478e-03
-6.078773e-03
-5.714592e-03
-5.342548e-03
-4.961061e-03
-4.568836e-03
-4.165307e-03
-3.750942e-03
-3.327322e-03
-2.896975e-03
-2.462984e-03
-2.028465e-03
-1.596026e-03
-1.167330e-03
-7.428754e-04
-3.220090e-04
9.677490e-05
5.154338e-04
9.359062e-04
1.359604e-03
1.787069e-03
2.217820e-03
2.650400e-03
3.082616e-03
3.511879e-03
3.935592e-03
4.351483e-03
4.757845e-03
5.153626e-03
5.538396e-03
5.912205e-03
6.275387e-03
6.628350e-03
6.971406e-03
7.304654e-03
7.627943e-03
7.940882e-03
8.242896e-03
8.533302e-03
8.811376e-03
9.076420e-03
9.327797e-03
9.564947e-03
9.787387e-03
9.994703e-03
1.018654e-02
1.036260e-02
1.052261e-02
1.066637e-02
1.079372e-02
1.090454e-02
1.099883e-02
1.107664e-02
1.113811e-02
1.118349e-02
1.121313e-02
1.122748e-02
1.122707e-02
1.121249e-02
1.118437e-02
1.114327e-02
1.108967e-02
1.102373e-02
1.094523e-02
1.085334e-02
1.085466e-02
-1.143333e-02
-1.137508e-02
-1.136137e-02
-1.135459e-02
-1.138322e-02
-1.145217e-02
-1.155066e-02
-1.165684e-02
-1.174542e-02
-1.179565e-02
-1.179699e-02
-1.175093e-02
-1.166855e-02
-1.156544e-02
-1.145596e-02
-1.134901e-02
-1.124644e-02
-1.114411e-02
-1.103479e-02
-1.091129e-02
-1.076875e-02
-1.060553e-02
-1.042264e-02
-1.022245e-02
-1.000732e-02
-9.778673e-03
-9.536813e-03
-9.281273e-03
-9.011457e-03
-8.727240e-03
-8.429288e-03
-8.119059e-03
-7.798503e-03
-7.469614e-03
-7.133962e-03
-6.792332e-03
-6.444565e-03
-6.089624e-03
-5.725890e-03
-5.351628e-03
-4.965522e-03
-4.567145e-03
-4.157257e-03
-3.737828e-03
-3.311778e-03
-2.882474e-03
-2.453117e-03
-2.026152e-03
-1.602850e-03
-1.183160e-03
-7.658475e-04
-3.488940e-04
6.992905e-05
4.925241e-04
9.200360e-04
1.352539e-03
1.788988e-03
2.227393e-03
2.665158e-03
3.099494e-03
3.527819e-03
3.948076e-03
4.358888e-03
4.759582e-03
5.150065e-03
5.530630e-03
5.901723e-03
6.263744e-03
6.616895e-03
6.961113e-03
7.296067e-03
7.621209e-03
7.935849e-03
8.239240e-03
8.530641e-03
8.809363e-03
9.074794e-03
9.326398e-03
9.563705e-03
9.786300e-03
9.993804e-03
1.018588e-02
1.036221e-02
1.052253e-02
1.066663e-02
1.079432e-02
1.090552e-02
1.100018e-02
1.107836e-02
1.114016e-02
1.118581e-02
1.121557e-02
1.122979e-02
1.122888e-02
1.121325e-02
1.118332e-02
1.113944e-02
1.108180e-02
1.101037e-02
1.092473e-02
1.082400e-02
1.082547e-02
-1.134398e-02
-1.127553e-02
-1.129529e-02
-1.133864e-02
-1.141824e-02
-1.152569e-02
-1.164126e-02
-1.174102e-02
-1.180475e-02
-1.182171e-02
-1.179268e-02
-1.172787e-02
-1.164203e-02
-1.154893e-02
-1.145711e-02
-1.136835e-02
-1.127876e-02
-1.118152e-02
-1.106997e-02
-1.093977e-02
-1.078959e-02
-1.062054e-02
-1.043481e-02
-1.023438e-02
-1.002024e-02
-9.792319e-03
-9.549916e-03
-9.292401e-03
-9.019769e-03
-8.732905e-03
-8.433489e-03
-8.123638e-03
-7.805412e-03
-7.480331e-03
-7.149028e-03
-6.811108e-03
-6.465273e-03
-6.109670e-03
-5.742431e-03
-5.362257e-03
-4.968917e-03
-4.563517e-03
-4.148454e-03
-3.727039e-03
-3.302882e-03
-2.879185e-03
-2.458122e-03
-2.040462e-03
-1.625528e-03
-1.211481e-03
-7.958578e-04
-3.762203e-04
4.920104e-05
4.811084e-04
9.189900e-04
1.361171e-03
1.805118e-03
2.247883e-03
2.686573e-03
3.118744e-03
3.542659e-03
3.957368e-03
4.362627e-03
4.758692e-03
5.146074e-03
5.525285e-03
5.896655e-03
6.260223e-03
6.615716e-03
6.962595e-03
7.300139e-03
7.627546e-03
7.944012e-03
8.248788e-03
8.541208e-03
8.820692e-03
9.086733e-03
9.338877e-03
9.576706e-03
9.799822e-03
1.000785e-02
1.020043e-02
1.037725e-02
1.053803e-02
1.068254e-02
1.081062e-02
1.092217e-02
1.101715e-02
1.109559e-02
1.115758e-02
1.120327e-02
1.123288e-02
1.124666e-02
1.124490e-02
1.122790e-02
1.119590e-02
1.114911e-02
1.108757e-02
1.101110e-02
1.091925e-02
1.081120e-02
1.081283e-02
-1.126780e-02
-1.120600e-02
-1.127438e-02
-1.137123e-02
-1.149242e-02
-1.162018e-02
-1.173228e-02
-1.180956e-02
-1.184172e-02
-1.182943e-02
-1.178241e-02
-1.171479e-02
-1.163960e-02
-1.156476e-02
-1.149165e-02
-1.141623e-02
-1.133187e-02
-1.123237e-02
-1.111399e-02
-1.097598e-02
-1.081980e-02
-1.064773e-02
-1.046152e-02
-1.026177e-02
-1.004797e-02
-9.819072e-03
-9.574292e-03
-9.313640e-03
-9.038150e-03
-8.749711e-03
-8.450623e-03
-8.143048e-03
-7.828492e-03
-7.507452e-03
-7.179311e-03
-6.842501e-03
-6.494938e-03
-6.134625e-03
-5.760306e-03
-5.371979e-03
-4.971136e-03
-4.560624e-03
-4.144144e-03
-3.725506e-03
-3.307842e-03
-2.892963e-03
-2.481054e-03
-2.070762e-03
-1.659639e-03
-1.244837e-03
-8.238449e-04
-3.951142e-04
4.153425e-05
4.848889e-04
9.326174e-04
1.381676e-03
1.828846e-03
2.271233e-03
2.706637e-03
3.133731e-03
3.552039e-03
3.961754e-03
4.363461e-03
4.757840e-03
5.145414e-03
5.526393e-03
5.900616e-03
6.267579e-03
6.626533e-03
6.976594e-03
7.316858e-03
7.646477e-03
7.964702e-03
8.270892e-03
8.564499e-03
8.845040e-03
9.112070e-03
9.365165e-03
9.603908e-03
9.827887e-03
1.003671e-02
1.023002e-02
1.040748e-02
1.056884e-02
1.071386e-02
1.084239e-02
1.095433e-02
1.104962e-02
1.112828e-02
1.119036e-02
1.123596e-02
1.126525e-02
1.127839e-02
1.127559e-02
1.125704e-02
1.122290e-02
1.117324e-02
1.110804e-02
1.102708e-02
1.092991e-02
1.081583e-02
1.081764e-02
-1.122756e-02
-1.118572e-02
-1.130511e-02
-1.144556e-02
-1.158979e-02
-1.171703e-02
-1.180932e-02
-1.185711e-02
-1.186143e-02
-1.183202e-02
-1.178273e-02
-1.172612e-02
-1.166953e-02
-1.161370e-02
-1.155418e-02
-1.148418e-02
-1.139771e-02
-1.129153e-02
-1.116549e-02
-1.102160e-02
-1.086245e-02
-1.068982e-02
-1.050406e-02
-1.030429e-02
-1.008909e-02
-9.857427e-03
-9.609197e-03
-9.345487e-03
-9.068325e-03
-8.780176e-03
-8.483315e-03
-8.179270e-03
-7.868445e-03
-7.550026e-03
-7.222200e-03
-6.882653e-03
-6.529267e-03
-6.160834e-03
-5.777599e-03
-5.381457e-03
-4.975713e-03
-4.564445e-03
-4.151625e-03
-3.740249e-03
-3.331696e-03
-2.925510e-03
-2.519636e-03
-2.111050e-03
-1.696590e-03
-1.273780e-03
-8.414420e-04
-3.999734e-04
4.870692e-05
5.015910e-04
9.551935e-04
1.406128e-03
1.851613e-03
2.289789e-03
2.719795e-03
3.141642e-03
3.555934e-03
3.963524e-03
4.365194e-03
4.761418e-03
5.152243e-03
5.537285e-03
5.915816e-03
6.286894e-03
6.649500e-03
7.002652e-03
7.345476e-03
7.677229e-03
7.997293e-03
8.305141e-03
8.600301e-03
8.882328e-03
9.150783e-03
9.405224e-03
9.645214e-03
9.870329e-03
1.008017e-02
1.027438e-02
1.045266e-02
1.061473e-02
1.076039e-02
1.088949e-02
1.100190e-02
1.109756e-02
1.117645e-02
1.123859e-02
1.128405e-02
1.131291e-02
1.132531e-02
1.132138e-02
1.130123e-02
1.126495e-02
1.121258e-02
1.114404e-02
1.105911e-02
1.095742e-02
1.083837e-02
1.084037e-02
-1.123819e-02
-1.122280e-02
-1.138336e-02
-1.154832e-02
-1.169420e-02
-1.180391e-02
-1.186865e-02
-1.188995e-02
-1.187792e-02
-1.184658e-02
-1.180842e-02
-1.177044e-02
-1.173286e-02
-1.169066e-02
-1.163663e-02
-1.156466e-02
-1.147173e-02
-1.135818e-02
-1.122659e-02
-1.107999e-02
-1.092039e-02
-1.074812e-02
-1.056209e-02
-1.036057e-02
-1.014223e-02
-9.906801e-03
-9.655300e-03
-9.389801e-03
-9.112869e-03
-8.826881e-03
-8.533403e-03
-8.232786e-03
-7.924067e-03
-7.605216e-03
-7.273715e-03
-6.927330e-03
-6.564906e-03
-6.186936e-03
-5.795716e-03
-5.394998e-03
-4.989212e-03
-4.582454e-03
-4.177527e-03
-3.775328e-03
-3.374722e-03
-2.972962e-03
-2.566495e-03
-2.151938e-03
-1.726960e-03
-1.290852e-03
-8.446896e-04
-3.910701e-04
6.640766e-05
5.238810e-04
9.779171e-04
1.425965e-03
1.866583e-03
2.299414e-03
2.724937e-03
3.144106e-03
3.557962e-03
3.967306e-03
4.372498e-03
4.773386e-03
5.169361e-03
5.559486e-03
5.942662e-03
6.317775e-03
6.683797e-03
7.039849e-03
7.385202e-03
7.719252e-03
8.041482e-03
8.351414e-03
8.648587e-03
8.932538e-03
9.202800e-03
9.458909e-03
9.700416e-03
9.926898e-03
1.013797e-02
1.033330e-02
1.051259e-02
1.067558e-02
1.082207e-02
1.095189e-02
1.106490e-02
1.116101e-02
1.124019e-02
1.130241e-02
1.134770e-02
1.137612e-02
1.138775e-02
1.138267e-02
1.136095e-02
1.132265e-02
1.126775e-02
1.119620e-02
1.110778e-02
1.100221e-02
1.087904e-02
1.088122e-02
-1.130384e-02
-1.131363e-02
-1.149715e-02
-1.166466e-02
-1.179438e-02
-1.187784e-02
-1.191698e-02
-1.192235e-02
-1.190842e-02
-1.188803e-02
-1.186823e-02
-1.184901e-02
-1.182484e-02
-1.178799e-02
-1.173197e-02
-1.165366e-02
-1.155363e-02
-1.143489e-02
-1.130093e-02
-1.115414e-02
-1.099499e-02
-1.082235e-02
-1.063433e-02
-1.042936e-02
-1.020696e-02
-9.968025e-03
-9.714569e-03
-9.449186e-03
-9.174305e-03
-8.891528e-03
-8.601180e-03
-8.302188e-03
-7.992352e-03
-7.668975e-03
-7.329728e-03
-6.973509e-03
-6.601050e-03
-6.215032e-03
-5.819635e-03
-5.419606e-03
-5.019115e-03
-4.620733e-03
-4.224832e-03
-3.829591e-03
-3.431597e-03
-3.026836e-03
-2.611802e-03
-2.184416e-03
-1.744529e-03
-1.293931e-03
-8.359138e-04
-3.745521e-04
8.606413e-05
5.425514e-04
9.926962e-04
1.435546e-03
1.871255e-03
2.300728e-03
2.725192e-03
3.145779e-03
3.563226e-03
3.977714e-03
4.388864e-03
4.795847e-03
5.197549e-03
5.592757e-03
5.980301e-03
6.359147e-03
6.728430e-03
7.087441e-03
7.435585e-03
7.772338e-03
8.097204e-03
8.409692e-03
8.709304e-03
8.995544e-03
9.267922e-03
9.525971e-03
9.769252e-03
9.997361e-03
1.020994e-02
1.040665e-02
1.058722e-02
1.075139e-02
1.089893e-02
1.102965e-02
1.114342e-02
1.124011e-02
1.131965e-02
1.138200e-02
1.142717e-02
1.145519e-02
1.146608e-02
1.145990e-02
1.143670e-02
1.139649e-02
1.133927e-02
1.126498e-02
1.117348e-02
1.106455e-02
1.093789e-02
1.094024e-02
-1.141822e-02
-1.144543e-02
-1.163119e-02
-1.178284e-02
-1.188675e-02
-1.194485e-02
-1.196794e-02
-1.197101e-02
-1.196752e-02
-1.196497e-02
-1.196347e-02
-1.195726e-02
-1.193812e-02
-1.189905e-02
-1.183660e-02
-1.175128e-02
-1.164631e-02
-1.152553e-02
-1.139170e-02
-1.124557e-02
-1.108610e-02
-1.091137e-02
-1.071969e-02
-1.051040e-02
-1.028424e-02
-1.004313e-02
-9.789599e-03
-9.526085e-03
-9.254200e-03
-8.974248e-03
-8.685078e-03
-8.384356e-03
-8.069243e-03
-7.737327e-03
-7.387566e-03
-7.020919e-03
-6.640429e-03
-6.250670e-03
-5.856667e-03
-5.462625e-03
-5.070839e-03
-4.681137e-03
-4.291017e-03
-3.896440e-03
-3.493012e-03
-3.077204e-03
-2.647289e-03
-2.203744e-03
-1.749096e-03
-1.287289e-03
-8.228119e-04
-3.598168e-04
9.851864e-05
5.503819e-04
9.953550e-04
1.434094e-03
1.867874e-03
2.298104e-03
2.725912e-03
3.151885e-03
3.575975e-03
3.997560e-03
4.415601e-03
4.828844e-03
5.236004e-03
5.635899e-03
6.027518e-03
6.410029e-03
6.782745e-03
7.145079e-03
7.496487e-03
7.836442e-03
8.164413e-03
8.479863e-03
8.782261e-03
9.071096e-03
9.345883e-03
9.606169e-03
9.851537e-03
1.008160e-02
1.029602e-02
1.049445e-02
1.067662e-02
1.084224e-02
1.099108e-02
1.112293e-02
1.123762e-02
1.133503e-02
1.141506e-02
1.147765e-02
1.152279e-02
1.155047e-02
1.156070e-02
1.155350e-02
1.152890e-02
1.148691e-02
1.142754e-02
1.135075e-02
1.125646e-02
1.114456e-02
1.101485e-02
1.101739e-02
-1.156770e-02
-1.160109e-02
-1.177182e-02
-1.189737e-02
-1.197550e-02
-1.201689e-02
-1.203688e-02
-1.204957e-02
-1.206321e-02
-1.207841e-02
-1.208947e-02
-1.208788e-02
-1.206616e-02
-1.202039e-02
-1.195080e-02
-1.186059e-02
-1.175379e-02
-1.163342e-02
-1.150050e-02
-1.135419e-02
-1.119266e-02
-1.101418e-02
-1.081799e-02
-1.060469e-02
-1.037609e-02
-1.013464e-02
-9.882721e-03
-9.621929e-03
-9.352545e-03
-9.073356e-03
-8.781919e-03
-8.475276e-03
-8.150950e-03
-7.807955e-03
-7.447462e-03
-7.072852e-03
-6.689055e-03
-6.301338e-03
-5.913903e-03
-5.528741e-03
-5.145123e-03
-4.759886e-03
-4.368420e-03
-3.966027e-03
-3.549254e-03
-3.116808e-03
-2.669845e-03
-2.211625e-03
-1.746687e-03
-1.279832e-03
-8.151841e-04
-3.555581e-04
9.774186e-05
5.448225e-04
9.868146e-04
1.425294e-03
1.861759e-03
2.297244e-03
2.732119e-03
3.166068e-03
3.598218e-03
4.027344e-03
4.452085e-03
4.871126e-03
5.283307e-03
5.687662e-03
6.083405e-03
6.469876e-03
6.846484e-03
7.212664e-03
7.567848e-03
7.911462e-03
8.242926e-03
8.561679e-03
8.867185e-03
9.158941e-03
9.436486e-03
9.699388e-03
9.947243e-03
1.017967e-02
1.039632e-02
1.059685e-02
1.078094e-02
1.094831e-02
1.109871e-02
1.123192e-02
1.134775e-02
1.144606e-02
1.152675e-02
1.158972e-02
1.163494e-02
1.166237e-02
1.167201e-02
1.166385e-02
1.163792e-02
1.159424e-02
1.153283e-02
1.145372e-02
1.135687e-02
1.124226e-02
1.110981e-02
1.111255e-02
-1.173609e-02
-1.176452e-02
-1.191064e-02
-1.200966e-02
-1.207011e-02
-1.210730e-02
-1.213591e-02
-1.216500e-02
-1.219590e-02
-1.222332e-02
-1.223870e-02
-1.223420e-02
-1.220543e-02
-1.215225e-02
-1.207762e-02
-1.198560e-02
-1.187936e-02
-1.176012e-02
-1.162725e-02
-1.147901e-02
-1.131372e-02
-1.113062e-02
-1.093022e-02
-1.071420e-02
-1.048494e-02
-1.024477e-02
-9.995236e-03
-9.736601e-03
-9.467591e-03
-9.185672e-03
-8.887779e-03
-8.571372e-03
-8.235510e-03
-7.881554e-03
-7.513192e-03
-7.135678e-03
-6.754489e-03
-6.373794e-03
-5.995266e-03
-5.617624e-03
-5.237072e-03
-4.848481e-03
-4.446931e-03
-4.029122e-03
-3.594265e-03
-3.144224e-03
-2.682975e-03
-2.215580e-03
-1.747047e-03
-1.281360e-03
-8.209099e-04
-3.663904e-04
8.286319e-05
5.283745e-04
9.719422e-04
1.415070e-03
1.858622e-03
2.302695e-03
2.746685e-03
3.189476e-03
3.629683e-03
4.065877e-03
4.496743e-03
4.921170e-03
5.338253e-03
5.747252e-03
6.147531e-03
6.538495e-03
6.919552e-03
7.290092e-03
7.649497e-03
7.997151e-03
8.332461e-03
8.654870e-03
8.963861e-03
9.258956e-03
9.539708e-03
9.805693e-03
1.005650e-02
1.029174e-02
1.051104e-02
1.071404e-02
1.090042e-02
1.106986e-02
1.122212e-02
1.135695e-02
1.147417e-02
1.157359e-02
1.165510e-02
1.171860e-02
1.176399e-02
1.179123e-02
1.180031e-02
1.179122e-02
1.176399e-02
1.171868e-02
1.165534e-02
1.157401e-02
1.147476e-02
1.135762e-02
1.122260e-02
1.122560e-02
-1.190953e-02
-1.192504e-02
-1.204615e-02
-1.212654e-02
-1.218168e-02
-1.222653e-02
-1.227091e-02
-1.231699e-02
-1.236006e-02
-1.239180e-02
-1.240417e-02
-1.239239e-02
-1.235590e-02
-1.229741e-02
-1.222084e-02
-1.212942e-02
-1.202447e-02
-1.190549e-02
-1.177087e-02
-1.161898e-02
-1.144906e-02
-1.126160e-02
-1.105821e-02
-1.084120e-02
-1.061284e-02
-1.037468e-02
-1.012695e-02
-9.868332e-03
-9.596209e-03
-9.307409e-03
-8.999318e-03
-8.671017e-03
-8.324025e-03
-7.962296e-03
-7.591380e-03
-7.216936e-03
-6.843091e-03
-6.471198e-03
-6.099442e-03
-5.723430e-03
-5.337572e-03
-4.936790e-03
-4.518006e-03
-4.080978e-03
-3.628289e-03
-3.164593e-03
-2.695401e-03
-2.225830e-03
-1.759621e-03
-1.298668e-03
-8.430625e-04
-3.915458e-04
5.777198e-05
5.067919e-04
9.569428e-04
1.408856e-03
1.862326e-03
2.316453e-03
2.769899e-03
3.221151e-03
3.668744e-03
4.111395e-03
4.548055e-03
4.977881e-03
5.400182e-03
5.814337e-03
6.219741e-03
6.615774e-03
7.001788e-03
7.377126e-03
7.741143e-03
8.093219e-03
8.432779e-03
8.759290e-03
9.072257e-03
9.371212e-03
9.655706e-03
9.925299e-03
1.017956e-02
1.041808e-02
1.064047e-02
1.084635e-02
1.103539e-02
1.120726e-02
1.136170e-02
1.149845e-02
1.161729e-02
1.171802e-02
1.180050e-02
1.186458e-02
1.191019e-02
1.193726e-02
1.194578e-02
1.193577e-02
1.190727e-02
1.186037e-02
1.179516e-02
1.171172e-02
1.161017e-02
1.149060e-02
1.135309e-02
1.135639e-02
-1.208000e-02
-1.207951e-02
-1.218303e-02
-1.225727e-02
-1.231933e-02
-1.237958e-02
-1.244101e-02
-1.249965e-02
-1.254751e-02
-1.257653e-02
-1.258166e-02
-1.256200e-02
-1.251997e-02
-1.245935e-02
-1.238333e-02
-1.229330e-02
-1.218881e-02
-1.206832e-02
-1.193023e-02
-1.177378e-02
-1.159943e-02
-1.140877e-02
-1.120407e-02
-1.098758e-02
-1.076086e-02
-1.052416e-02
-1.027613e-02
-1.001410e-02
-9.734777e-03
-9.435461e-03
-9.115211e-03
-8.775653e-03
-8.420967e-03
-8.056960e-03
-7.689459e-03
-7.322550e-03
-6.957286e-03
-6.591351e-03
-6.219798e-03
-5.836632e-03
-5.436671e-03
-5.017103e-03
-4.578256e-03
-4.123422e-03
-3.657885e-03
-3.187529e-03
-2.717485e-03
-2.251172e-03
-1.789935e-03
-1.333253e-03
-8.793535e-04
-4.259875e-04
2.880358e-05
4.862577e-04
9.467281e-04
1.409688e-03
1.873959e-03
2.338008e-03
2.800232e-03
3.259160e-03
3.713561e-03
4.162456e-03
4.605065e-03
5.040730e-03
5.468841e-03
5.888776e-03
6.299886e-03
6.701491e-03
7.092905e-03
7.473459e-03
7.842517e-03
8.199488e-03
8.543822e-03
8.875005e-03
9.192543e-03
9.495956e-03
9.784771e-03
1.005852e-02
1.031676e-02
1.055905e-02
1.078499e-02
1.099418e-02
1.118628e-02
1.136096e-02
1.151789e-02
1.165681e-02
1.177747e-02
1.187963e-02
1.196313e-02
1.202784e-02
1.207366e-02
1.210055e-02
1.210851e-02
1.209759e-02
1.206786e-02
1.201943e-02
1.195241e-02
1.186694e-02
1.176315e-02
1.164119e-02
1.150117e-02
1.150484e-02
-1.224669e-02
-1.223199e-02
-1.232970e-02
-1.241045e-02
-1.248786e-02
-1.256562e-02
-1.264047e-02
-1.270485e-02
-1.275078e-02
-1.277301e-02
-1.277039e-02
-1.274509e-02
-1.270080e-02
-1.264067e-02
-1.256614e-02
-1.247678e-02
-1.237104e-02
-1.224734e-02
-1.210486e-02
-1.194401e-02
-1.176634e-02
-1.157410e-02
-1.136958e-02
-1.115438e-02
-1.092880e-02
-1.069155e-02