# vtk DataFile Version 3.0
Scalar Field
ASCII
DATASET RECTILINEAR_GRID
DIMENSIONS 102 102 1
X_COORDINATES 102 double
0.000000 0.100000 0.200000 0.300000 0.400000 0.500000 0.600000 0.700000 0.800000 0.900000 1.000000 1.100000 1.200000 1.300000 1.400000 1.500000 1.600000 1.700000 1.800000 1.900000 2.000000 2.100000 2.200000 2.300000 2.400000 2.500000 2.600000 2.700000 2.800000 2.900000 3.000000 3.100000 3.200000 3.300000 3.400000 3.500000 3.600000 3.700000 3.800000 3.900000 4.000000 4.100000 4.200000 4.300000 4.400000 4.500000 4.600000 4.700000 4.800000 4.900000 5.000000 5.100000 5.200000 5.300000 5.400000 5.500000 5.600000 5.700000 5.800000 5.900000 6.000000 6.100000 6.200000 6.300000 6.400000 6.500000 6.600000 6.700000 6.800000 6.900000 7.000000 7.100000 7.200000 7.300000 7.400000 7.500000 7.600000 7.700000 7.800000 7.900000 8.000000 8.100000 8.200000 8.300000 8.400000 8.500000 8.600000 8.700000 8.800000 8.900000 9.000000 9.100000 9.200000 9.300000 9.400000 9.500000 9.600000 9.700000 9.800000 9.900000 10.000000 10.100000 
Y_COORDINATES 102 double
0.000000 0.100000 0.200000 0.300000 0.400000 0.500000 0.600000 0.700000 0.800000 0.900000 1.000000 1.100000 1.200000 1.300000 1.400000 1.500000 1.600000 1.700000 1.800000 1.900000 2.000000 2.100000 2.200000 2.300000 2.400000 2.500000 2.600000 2.700000 2.800000 2.900000 3.000000 3.100000 3.200000 3.300000 3.400000 3.500000 3.600000 3.700000 3.800000 3.900000 4.000000 4.100000 4.200000 4.300000 4.400000 4.500000 4.600000 4.700000 4.800000 4.900000 5.000000 5.100000 5.200000 5.300000 5.400000 5.500000 5.600000 5.700000 5.800000 5.900000 6.000000 6.100000 6.200000 6.300000 6.400000 6.500000 6.600000 6.700000 6.800000 6.900000 7.000000 7.100000 7.200000 7.300000 7.400000 7.500000 7.600000 7.700000 7.800000 7.900000 8.000000 8.100000 8.200000 8.300000 8.400000 8.500000 8.600000 8.700000 8.800000 8.900000 9.000000 9.100000 9.200000 9.300000 9.400000 9.500000 9.600000 9.700000 9.800000 9.900000 10.000000 10.100000 
Z_COORDINATES 1 double
0.0
POINT_DATA 10404
SCALARS Pressure double 1
LOOKUP_TABLE default
0.000000e+00
1.497380e-02
1.486028e-02
1.467549e-02
1.449248e-02
1.434309e-02
1.422022e-02
1.409781e-02
1.395691e-02
1.380013e-02
1.364741e-02
1.351922e-02
1.342064e-02
1.333718e-02
1.324446e-02
1.312477e-02
1.297963e-02
1.283088e-02
1.271019e-02
1.264363e-02
1.263994e-02
1.268841e-02
1.276632e-02
1.285099e-02
1.292974e-02
1.300341e-02
1.308275e-02
1.318089e-02
1.330630e-02
1.345968e-02
1.363527e-02
1.382533e-02
1.402464e-02
1.423293e-02
1.445441e-02
1.469495e-02
1.495887e-02
1.524665e-02
1.555468e-02
1.587666e-02
1.620593e-02
1.653766e-02
1.686989e-02
1.720345e-02
1.754074e-02
1.788428e-02
1.823533e-02
1.859332e-02
1.895579e-02
1.931917e-02
1.967960e-02
2.003368e-02
2.037886e-02
2.071348e-02
2.103654e-02
2.134734e-02
2.164511e-02
2.192881e-02
2.219705e-02
2.244822e-02
2.268065e-02
2.289280e-02
2.308339e-02
2.325153e-02
2.339662e-02
2.351837e-02
2.361661e-02
2.369129e-02
2.374238e-02
2.376986e-02
2.377383e-02
2.375448e-02
2.371219e-02
2.364758e-02
2.356148e-02
2.345495e-02
2.332923e-02
2.318573e-02
2.302598e-02
2.285161e-02
2.266439e-02
2.246617e-02
2.225893e-02
2.204477e-02
2.182594e-02
2.160479e-02
2.138380e-02
2.116557e-02
2.095279e-02
2.074825e-02
2.055480e-02
2.037537e-02
2.021292e-02
2.007042e-02
1.995071e-02
1.985642e-02
1.978963e-02
1.975136e-02
1.974044e-02
1.975161e-02
1.977193e-02
0.000000e+00
1.497380e-02
1.493496e-02
1.480929e-02
1.464267e-02
1.448788e-02
1.435753e-02
1.423753e-02
1.410829e-02
1.396325e-02
1.381298e-02
1.367523e-02
1.356003e-02
1.346129e-02
1.336040e-02
1.323899e-02
1.309211e-02
1.293368e-02
1.279088e-02
1.269135e-02
1.265053e-02
1.266580e-02
1.271994e-02
1.279080e-02
1.286185e-02
1.292812e-02
1.299570e-02
1.307610e-02
1.317934e-02
1.330937e-02
1.346355e-02
1.363562e-02
1.381994e-02
1.401458e-02
1.422195e-02
1.444698e-02
1.469423e-02
1.496539e-02
1.525826e-02
1.556758e-02
1.588699e-02
1.621114e-02
1.653719e-02
1.686506e-02
1.719668e-02
1.753460e-02
1.788060e-02
1.823480e-02
1.859553e-02
1.895962e-02
1.932330e-02
1.968299e-02
2.003581e-02
2.037977e-02
2.071359e-02
2.103643e-02
2.134750e-02
2.164580e-02
2.193001e-02
2.219856e-02
2.244973e-02
2.268187e-02
2.289357e-02
2.308371e-02
2.325151e-02
2.339648e-02
2.351830e-02
2.361677e-02
2.369174e-02
2.374309e-02
2.377075e-02
2.377478e-02
2.375539e-02
2.371301e-02
2.364828e-02
2.356209e-02
2.345550e-02
2.332977e-02
2.318629e-02
2.302657e-02
2.285223e-02
2.266501e-02
2.246677e-02
2.225950e-02
2.204529e-02
2.182641e-02
2.160522e-02
2.138420e-02
2.116595e-02
2.095316e-02
2.074862e-02
2.055517e-02
2.037574e-02
2.021330e-02
2.007079e-02
1.995108e-02
1.985679e-02
1.979000e-02
1.975173e-02
1.974082e-02
1.975198e-02
1.977231e-02
1.977193e-02
1.486825e-02
1.481676e-02
1.471261e-02
1.461104e-02
1.452714e-02
1.444328e-02
1.434112e-02
1.421704e-02
1.408378e-02
1.395924e-02
1.385238e-02
1.375633e-02
1.365331e-02
1.352741e-02
1.337663e-02
1.321652e-02
1.307363e-02
1.297281e-02
1.292601e-02
1.292828e-02
1.296234e-02
1.300839e-02
1.305342e-02
1.309558e-02
1.314232e-02
1.320451e-02
1.329020e-02
1.340123e-02
1.353381e-02
1.368188e-02
1.384110e-02
1.401106e-02
1.419513e-02
1.439827e-02
1.462411e-02
1.487310e-02
1.514208e-02
1.542557e-02
1.571779e-02
1.601459e-02
1.631442e-02
1.661814e-02
1.692803e-02
1.724640e-02
1.757441e-02
1.791154e-02
1.825563e-02
1.860353e-02
1.895171e-02
1.929706e-02
1.963724e-02
1.997073e-02
2.029651e-02
2.061377e-02
2.092161e-02
2.121882e-02
2.150391e-02
2.177518e-02
2.203091e-02
2.226949e-02
2.248959e-02
2.269014e-02
2.287038e-02
2.302974e-02
2.316779e-02
2.328414e-02
2.337846e-02
2.345043e-02
2.349985e-02
2.352661e-02
2.353081e-02
2.351275e-02
2.347295e-02
2.341214e-02
2.333121e-02
2.323122e-02
2.311335e-02
2.297889e-02
2.282927e-02
2.266601e-02
2.249077e-02
2.230533e-02
2.211159e-02
2.191161e-02
2.170751e-02
2.150155e-02
2.129607e-02
2.109350e-02
2.089634e-02
2.070714e-02
2.052850e-02
2.036305e-02
2.021341e-02
2.008213e-02
1.997158e-02
1.988382e-02
1.982034e-02
1.978166e-02
1.976677e-02
1.977240e-02
1.979280e-02
1.979242e-02
1.477090e-02
1.473698e-02
1.469031e-02
1.465418e-02
1.461179e-02
1.454045e-02
1.443783e-02
1.432072e-02
1.421019e-02
1.411537e-02
1.402720e-02
1.392576e-02
1.379541e-02
1.363727e-02
1.347127e-02
1.332683e-02
1.322835e-02
1.318402e-02
1.318387e-02
1.320703e-02
1.323341e-02
1.325298e-02
1.326850e-02
1.329134e-02
1.333387e-02
1.340302e-02
1.349796e-02
1.361238e-02
1.373920e-02
1.387479e-02
1.402066e-02
1.418201e-02
1.436457e-02
1.457139e-02
1.480134e-02
1.504954e-02
1.530954e-02
1.557574e-02
1.584519e-02
1.611810e-02
1.639693e-02
1.668488e-02
1.698427e-02
1.729557e-02
1.761726e-02
1.794630e-02
1.827908e-02
1.861226e-02
1.894320e-02
1.927018e-02
1.959235e-02
1.990915e-02
2.021994e-02
2.052369e-02
2.081895e-02
2.110395e-02
2.137680e-02
2.163571e-02
2.187911e-02
2.210578e-02
2.231479e-02
2.250541e-02
2.267707e-02
2.282921e-02
2.296130e-02
2.307277e-02
2.316314e-02
2.323200e-02
2.327912e-02
2.330449e-02
2.330830e-02
2.329099e-02
2.325316e-02
2.319554e-02
2.311903e-02
2.302460e-02
2.291336e-02
2.278652e-02
2.264541e-02
2.249150e-02
2.232639e-02
2.215182e-02
2.196962e-02
2.178175e-02
2.159025e-02
2.139726e-02
2.120495e-02
2.101561e-02
2.083153e-02
2.065507e-02
2.048861e-02
2.033452e-02
2.019514e-02
2.007269e-02
1.996923e-02
1.988651e-02
1.982582e-02
1.978777e-02
1.977216e-02
1.977799e-02
1.980420e-02
1.980381e-02
1.475228e-02
1.474614e-02
1.474958e-02
1.474503e-02
1.470575e-02
1.462667e-02
1.452656e-02
1.443014e-02
1.434842e-02
1.427118e-02
1.417571e-02
1.404467e-02
1.388047e-02
1.370698e-02
1.355794e-02
1.345973e-02
1.341886e-02
1.342089e-02
1.344022e-02
1.345427e-02
1.345394e-02
1.344561e-02
1.344486e-02
1.346686e-02
1.351880e-02
1.359806e-02
1.369593e-02
1.380375e-02
1.391797e-02
1.404152e-02
1.418137e-02
1.434432e-02
1.453323e-02
1.474563e-02
1.497495e-02
1.521348e-02
1.545548e-02
1.569898e-02
1.594582e-02
1.620017e-02
1.646633e-02
1.674688e-02
1.704177e-02
1.734849e-02
1.766307e-02
1.798132e-02
1.829988e-02
1.861666e-02
1.893060e-02
1.924134e-02
1.954882e-02
1.985258e-02
2.015156e-02
2.044407e-02
2.072807e-02
2.100148e-02
2.126242e-02
2.150937e-02
2.174122e-02
2.195716e-02
2.215654e-02
2.233878e-02
2.250322e-02
2.264916e-02
2.277588e-02
2.288266e-02
2.296896e-02
2.303441e-02
2.307888e-02
2.310250e-02
2.310558e-02
2.308863e-02
2.305228e-02
2.299723e-02
2.292430e-02
2.283441e-02
2.272857e-02
2.260795e-02
2.247384e-02
2.232767e-02
2.217101e-02
2.200553e-02
2.183302e-02
2.165534e-02
2.147441e-02
2.129225e-02
2.111090e-02
2.093247e-02
2.075913e-02
2.059303e-02
2.043637e-02
2.029130e-02
2.015994e-02
2.004428e-02
1.994617e-02
1.986720e-02
1.980865e-02
1.977144e-02
1.975612e-02
1.976321e-02
1.979386e-02
1.979348e-02
1.483102e-02
1.484318e-02
1.486168e-02
1.485058e-02
1.479500e-02
1.471215e-02
1.462882e-02
1.455868e-02
1.449207e-02
1.440443e-02
1.427600e-02
1.410856e-02
1.392818e-02
1.377253e-02
1.367125e-02
1.363141e-02
1.363605e-02
1.365539e-02
1.366336e-02
1.364984e-02
1.362288e-02
1.360131e-02
1.360323e-02
1.363721e-02
1.370014e-02
1.378178e-02
1.387213e-02
1.396728e-02
1.407086e-02
1.419111e-02
1.433570e-02
1.450745e-02
1.470296e-02
1.491430e-02
1.513273e-02
1.535226e-02
1.557164e-02
1.579405e-02
1.602512e-02
1.627016e-02
1.653209e-02
1.681049e-02
1.710212e-02
1.740220e-02
1.770607e-02
1.801028e-02
1.831311e-02
1.861425e-02
1.891390e-02
1.921211e-02
1.950864e-02
1.980236e-02
2.009143e-02
2.037362e-02
2.064668e-02
2.090869e-02
2.115820e-02
2.139418e-02
2.161592e-02
2.182282e-02
2.201427e-02
2.218954e-02
2.234779e-02
2.248810e-02
2.260962e-02
2.271165e-02
2.279371e-02
2.285556e-02
2.289725e-02
2.291899e-02
2.292118e-02
2.290433e-02
2.286901e-02
2.281589e-02
2.274569e-02
2.265929e-02
2.255767e-02
2.244198e-02
2.231348e-02
2.217360e-02
2.202386e-02
2.186587e-02
2.170133e-02
2.153200e-02
2.135973e-02
2.118638e-02
2.101389e-02
2.084425e-02
2.067946e-02
2.052155e-02
2.037253e-02
2.023439e-02
2.010905e-02
1.999835e-02
1.990398e-02
1.982747e-02
1.977015e-02
1.973319e-02
1.971767e-02
1.972485e-02
1.975669e-02
1.975630e-02
1.498394e-02
1.499716e-02
1.499498e-02
1.495793e-02
1.489056e-02
1.481882e-02
1.475785e-02
1.469929e-02
1.461813e-02
1.449285e-02
1.432396e-02
1.413811e-02
1.397547e-02
1.386869e-02
1.382653e-02
1.383136e-02
1.385083e-02
1.385585e-02
1.383441e-02
1.379460e-02
1.375681e-02
1.374120e-02
1.375776e-02
1.380382e-02
1.386875e-02
1.394201e-02
1.401955e-02
1.410539e-02
1.420831e-02
1.433629e-02
1.449193e-02
1.467101e-02
1.486471e-02
1.506364e-02
1.526185e-02
1.545878e-02
1.565869e-02
1.586824e-02
1.609346e-02
1.633741e-02
1.659938e-02
1.687555e-02
1.716067e-02
1.744981e-02
1.773959e-02
1.802863e-02
1.831709e-02
1.860584e-02
1.889522e-02
1.918461e-02
1.947286e-02
1.975798e-02
2.003764e-02
2.030955e-02
2.057182e-02
2.082307e-02
2.106237e-02
2.128907e-02
2.150259e-02
2.170225e-02
2.188722e-02
2.205651e-02
2.220907e-02
2.234393e-02
2.246025e-02
2.255748e-02
2.263530e-02
2.269365e-02
2.273266e-02
2.275259e-02
2.275381e-02
2.273679e-02
2.270204e-02
2.265015e-02
2.258184e-02
2.249795e-02
2.239948e-02
2.228756e-02
2.216346e-02
2.202855e-02
2.188431e-02
2.173228e-02
2.157409e-02
2.141140e-02
2.124595e-02
2.107953e-02
2.091397e-02
2.075113e-02
2.059291e-02
2.044118e-02
2.029784e-02
2.016471e-02
2.004357e-02
1.993611e-02
1.984395e-02
1.976855e-02
1.971130e-02
1.967350e-02
1.965649e-02
1.966183e-02
1.969154e-02
1.969115e-02
1.516813e-02
1.517198e-02
1.513346e-02
1.507544e-02
1.501208e-02
1.495766e-02
1.490409e-02
1.482632e-02
1.470205e-02
1.453095e-02
1.433980e-02
1.417017e-02
1.405673e-02
1.400974e-02
1.401174e-02
1.402919e-02
1.403117e-02
1.400418e-02
1.395570e-02
1.390639e-02
1.387711e-02
1.387854e-02
1.390842e-02
1.395639e-02
1.401232e-02
1.407272e-02
1.414215e-02
1.422967e-02
1.434301e-02
1.448399e-02
1.464746e-02
1.482381e-02
1.500349e-02
1.518098e-02
1.535663e-02
1.553572e-02
1.572565e-02
1.593272e-02
1.615981e-02
1.640574e-02
1.666624e-02
1.693582e-02
1.720959e-02
1.748452e-02
1.775966e-02
1.803560e-02
1.831347e-02
1.859402e-02
1.887664e-02
1.915943e-02
1.944031e-02
1.971690e-02
1.998698e-02
2.024880e-02
2.050111e-02
2.074310e-02
2.097416e-02
2.119364e-02
2.140078e-02
2.159459e-02
2.177396e-02
2.193771e-02
2.208476e-02
2.221423e-02
2.232547e-02
2.241812e-02
2.249202e-02
2.254720e-02
2.258379e-02
2.260202e-02
2.260217e-02
2.258467e-02
2.254998e-02
2.249867e-02
2.243146e-02
2.234923e-02
2.225296e-02
2.214380e-02
2.202298e-02
2.189183e-02
2.175177e-02
2.160427e-02
2.145087e-02
2.129318e-02
2.113286e-02
2.097160e-02
2.081117e-02
2.065332e-02
2.049982e-02
2.035246e-02
2.021297e-02
2.008307e-02
1.996442e-02
1.985861e-02
1.976714e-02
1.969147e-02
1.963296e-02
1.959299e-02
1.957295e-02
1.957440e-02
1.959919e-02
1.959881e-02
1.534926e-02
1.534767e-02
1.528106e-02
1.521913e-02
1.516726e-02
1.511567e-02
1.503817e-02
1.491166e-02
1.473554e-02
1.453717e-02
1.435940e-02
1.423832e-02
1.418503e-02
1.418203e-02
1.419500e-02
1.419210e-02
1.415921e-02
1.410357e-02
1.404580e-02
1.400654e-02
1.399610e-02
1.401193e-02
1.404385e-02
1.408253e-02
1.412574e-02
1.417920e-02
1.425241e-02
1.435263e-02
1.448051e-02
1.462954e-02
1.478924e-02
1.495002e-02
1.510717e-02
1.526226e-02
1.542173e-02
1.559361e-02
1.578416e-02
1.599572e-02
1.622637e-02
1.647134e-02
1.672499e-02
1.698279e-02
1.724229e-02
1.750319e-02
1.776652e-02
1.803362e-02
1.830514e-02
1.858065e-02
1.885815e-02
1.913467e-02
1.940783e-02
1.967558e-02
1.993638e-02
2.018922e-02
2.043340e-02
2.066834e-02
2.089332e-02
2.110740e-02
2.130944e-02
2.149816e-02
2.167228e-02
2.183066e-02
2.197236e-02
2.209673e-02
2.220334e-02
2.229196e-02
2.236250e-02
2.241497e-02
2.244942e-02
2.246600e-02
2.246492e-02
2.244658e-02
2.241146e-02
2.236014e-02
2.229339e-02
2.221207e-02
2.211720e-02
2.200989e-02
2.189132e-02
2.176279e-02
2.162564e-02
2.148130e-02
2.133125e-02
2.117703e-02
2.102026e-02
2.086256e-02
2.070560e-02
2.055105e-02
2.040059e-02
2.025588e-02
2.011856e-02
1.999024e-02
1.987247e-02
1.976675e-02
1.967453e-02
1.959719e-02
1.953608e-02
1.949252e-02
1.946788e-02
1.946361e-02
1.948127e-02
1.948090e-02
1.551933e-02
1.552689e-02
1.545115e-02
1.539451e-02
1.534071e-02
1.526057e-02
1.512884e-02
1.494429e-02
1.473523e-02
1.454644e-02
1.441572e-02
1.435480e-02
1.434553e-02
1.435240e-02
1.434267e-02
1.430214e-02
1.423858e-02
1.417304e-02
1.412592e-02
1.410652e-02
1.411113e-02
1.412908e-02
1.415159e-02
1.417789e-02
1.421539e-02
1.427457e-02
1.436244e-02
1.447836e-02
1.461419e-02
1.475828e-02
1.490091e-02
1.503825e-02
1.517336e-02
1.531401e-02
1.546895e-02
1.564427e-02
1.584149e-02
1.605776e-02
1.628761e-02
1.652531e-02
1.676678e-02
1.701038e-02
1.725661e-02
1.750707e-02
1.776326e-02
1.802567e-02
1.829352e-02
1.856496e-02
1.883710e-02
1.910663e-02
1.937171e-02
1.963110e-02
1.988405e-02
2.013005e-02
2.036850e-02
2.059860e-02
2.081923e-02
2.102903e-02
2.122657e-02
2.141047e-02
2.157953e-02
2.173283e-02
2.186968e-02
2.198964e-02
2.209239e-02
2.217775e-02
2.224556e-02
2.229572e-02
2.232822e-02
2.234312e-02
2.234062e-02
2.232113e-02
2.228517e-02
2.223340e-02
2.216656e-02
2.208555e-02
2.199134e-02
2.188503e-02
2.176775e-02
2.164074e-02
2.150532e-02
2.136286e-02
2.121482e-02
2.106270e-02
2.090803e-02
2.075240e-02
2.059738e-02
2.044457e-02
2.029555e-02
2.015191e-02
2.001518e-02
1.988688e-02
1.976848e-02
1.966141e-02
1.956704e-02
1.948668e-02
1.942162e-02
1.937311e-02
1.934243e-02
1.933087e-02
1.933971e-02
1.933934e-02
1.569424e-02
1.572454e-02
1.564967e-02
1.558636e-02
1.549946e-02
1.535964e-02
1.516351e-02
1.493989e-02
1.473594e-02
1.459209e-02
1.452122e-02
1.450442e-02
1.450430e-02
1.448652e-02
1.443660e-02
1.436324e-02
1.428870e-02
1.423375e-02
1.420684e-02
1.420264e-02
1.420914e-02
1.421744e-02
1.422793e-02
1.424975e-02
1.429484e-02
1.437047e-02
1.447495e-02
1.459848e-02
1.472806e-02
1.485357e-02
1.497198e-02
1.508782e-02
1.521034e-02
1.534907e-02
1.550998e-02
1.569374e-02
1.589639e-02
1.611166e-02
1.633365e-02
1.655877e-02
1.678625e-02
1.701751e-02
1.725478e-02
1.749976e-02
1.775276e-02
1.801260e-02
1.827705e-02
1.854356e-02
1.880933e-02
1.907153e-02
1.932927e-02
1.958208e-02
1.982961e-02
2.007131e-02
2.030623e-02
2.053305e-02
2.075023e-02
2.095618e-02
2.114941e-02
2.132872e-02
2.149318e-02
2.164211e-02
2.177505e-02
2.189160e-02
2.199145e-02
2.207431e-02
2.213992e-02
2.218808e-02
2.221872e-02
2.223189e-02
2.222781e-02
2.220696e-02
2.216991e-02
2.211733e-02
2.204998e-02
2.196872e-02
2.187452e-02
2.176841e-02
2.165150e-02
2.152502e-02
2.139024e-02
2.124852e-02
2.110128e-02
2.094996e-02
2.079607e-02
2.064111e-02
2.048661e-02
2.033407e-02
2.018503e-02
2.004096e-02
1.990335e-02
1.977364e-02
1.965321e-02
1.954342e-02
1.944557e-02
1.936089e-02
1.929060e-02
1.923588e-02
1.919787e-02
1.917770e-02
1.917645e-02
1.917609e-02
1.589517e-02
1.594929e-02
1.586368e-02
1.576308e-02
1.561105e-02
1.540010e-02
1.515810e-02
1.493436e-02
1.477263e-02
1.468803e-02
1.466144e-02
1.465327e-02
1.462674e-02
1.456622e-02
1.448113e-02
1.439535e-02
1.433093e-02
1.429612e-02
1.428414e-02
1.428122e-02
1.427751e-02
1.427388e-02
1.428094e-02
1.431209e-02
1.437532e-02
1.446836e-02
1.458001e-02
1.469591e-02
1.480538e-02
1.490595e-02
1.500347e-02
1.510860e-02
1.523173e-02
1.537875e-02
1.554954e-02
1.573905e-02
1.594017e-02
1.614680e-02
1.635579e-02
1.656723e-02
1.678345e-02
1.700732e-02
1.724074e-02
1.748386e-02
1.773512e-02
1.799194e-02
1.825160e-02
1.851193e-02
1.877111e-02
1.902705e-02
1.927957e-02
1.952847e-02
1.977319e-02
2.001266e-02
2.024537e-02
2.046959e-02
2.068358e-02
2.088582e-02
2.107508e-02
2.125045e-02
2.141127e-02
2.155701e-02
2.168723e-02
2.180148e-02
2.189931e-02
2.198030e-02
2.204409e-02
2.209045e-02
2.211932e-02
2.213078e-02
2.212511e-02
2.210281e-02
2.206452e-02
2.201089e-02
2.194266e-02
2.186068e-02
2.176585e-02
2.165922e-02
2.154187e-02
2.141501e-02
2.127990e-02
2.113787e-02
2.099031e-02
2.083864e-02
2.068428e-02
2.052871e-02
2.037339e-02
2.021978e-02
2.006934e-02
1.992349e-02
1.978365e-02
1.965117e-02
1.952740e-02
1.941360e-02
1.931100e-02
1.922077e-02
1.914406e-02
1.908194e-02
1.903547e-02
1.900563e-02
1.899331e-02
1.899295e-02
1.612691e-02
1.618966e-02
1.606316e-02
1.589258e-02
1.566248e-02
1.539806e-02
1.514972e-02
1.496469e-02
1.486129e-02
1.482117e-02
1.480286e-02
1.476655e-02
1.469451e-02
1.459605e-02
1.449668e-02
1.442024e-02
1.437568e-02
1.435534e-02
1.434372e-02
1.432958e-02
1.431353e-02
1.430709e-02
1.432494e-02
1.437577e-02
1.445721e-02
1.455704e-02
1.465970e-02
1.475397e-02
1.483775e-02
1.491799e-02
1.500661e-02
1.511475e-02
1.524829e-02
1.540638e-02
1.558296e-02
1.577018e-02
1.596174e-02
1.615490e-02
1.635056e-02
1.655188e-02
1.676230e-02
1.698389e-02
1.721662e-02
1.745861e-02
1.770698e-02
1.795894e-02
1.821245e-02
1.846654e-02
1.872054e-02
1.897267e-02
1.922283e-02
1.947041e-02
1.971418e-02
1.995247e-02
2.018338e-02
2.040510e-02
2.061606e-02
2.081506e-02
2.100122e-02
2.117386e-02
2.133241e-02
2.147634e-02
2.160505e-02
2.171795e-02
2.181445e-02
2.189403e-02
2.195633e-02
2.200113e-02
2.202842e-02
2.203835e-02
2.203121e-02
2.200751e-02
2.196791e-02
2.191304e-02
2.184362e-02
2.176046e-02
2.166447e-02
2.155667e-02
2.143816e-02
2.131013e-02
2.117382e-02
2.103055e-02
2.088166e-02
2.072854e-02
2.057259e-02
2.041523e-02
2.025787e-02
2.010194e-02
1.994884e-02
1.979995e-02
1.965660e-02
1.952012e-02
1.939175e-02
1.927270e-02
1.916416e-02
1.906722e-02
1.898296e-02
1.891238e-02
1.885644e-02
1.881603e-02
1.879190e-02
1.879154e-02
1.636763e-02
1.641409e-02
1.621471e-02
1.595985e-02
1.566835e-02
1.539047e-02
1.517651e-02
1.504851e-02
1.498991e-02
1.495804e-02
1.490997e-02
1.482509e-02
1.471176e-02
1.459658e-02
1.450536e-02
1.444839e-02
1.441785e-02
1.439687e-02
1.437271e-02
1.434526e-02
1.432639e-02
1.433168e-02
1.437051e-02
1.444035e-02
1.452831e-02
1.461793e-02
1.469751e-02
1.476528e-02
1.482915e-02
1.490211e-02
1.499593e-02
1.511641e-02
1.526200e-02
1.542574e-02
1.559913e-02
1.577577e-02
1.595335e-02
1.613354e-02
1.632022e-02
1.651727e-02
1.672685e-02
1.694873e-02
1.718072e-02
1.741976e-02
1.766304e-02
1.790878e-02
1.815635e-02
1.840593e-02
1.865754e-02
1.890881e-02
1.915906e-02
1.940688e-02
1.965043e-02
1.988768e-02
2.011679e-02
2.033621e-02
2.054478e-02
2.074166e-02
2.092616e-02
2.109764e-02
2.125544e-02
2.139883e-02
2.152704e-02
2.163932e-02
2.173501e-02
2.181362e-02
2.187480e-02
2.191842e-02
2.194450e-02
2.195322e-02
2.194486e-02
2.191987e-02
2.187895e-02
2.182270e-02
2.175182e-02
2.166712e-02
2.156952e-02
2.146003e-02
2.133975e-02
2.120985e-02
2.107158e-02
2.092622e-02
2.077508e-02
2.061954e-02
2.046095e-02
2.030072e-02
2.014022e-02
1.998083e-02
1.982391e-02
1.967079e-02
1.952275e-02
1.938105e-02
1.924689e-02
1.912144e-02
1.900579e-02
1.890104e-02
1.880818e-02
1.872816e-02
1.866189e-02
1.861014e-02
1.857361e-02
1.857325e-02
1.657633e-02
1.658495e-02
1.629892e-02
1.597541e-02
1.566308e-02
1.541475e-02
1.525637e-02
1.517387e-02
1.512412e-02
1.506132e-02
1.496159e-02
1.483160e-02
1.469846e-02
1.458983e-02
1.451763e-02
1.447441e-02
1.444238e-02
1.440742e-02
1.436854e-02
1.433761e-02
1.433082e-02
1.435803e-02
1.441657e-02
1.449278e-02
1.456950e-02
1.463469e-02
1.468692e-02
1.473504e-02
1.479300e-02
1.487309e-02
1.498093e-02
1.511424e-02
1.526522e-02
1.542480e-02
1.558657e-02
1.574872e-02
1.591366e-02
1.608593e-02
1.626975e-02
1.646724e-02
1.667788e-02
1.689920e-02
1.712800e-02
1.736160e-02
1.759854e-02
1.783861e-02
1.808235e-02
1.833038e-02
1.858253e-02
1.883519e-02
1.908675e-02
1.933518e-02
1.957839e-02
1.981453e-02
2.004212e-02
2.026010e-02
2.046765e-02
2.066406e-02
2.084863e-02
2.102053e-02
2.117888e-02
2.132273e-02
2.145119e-02
2.156346e-02
2.165891e-02
2.173709e-02
2.179773e-02
2.184073e-02
2.186612e-02
2.187405e-02
2.186478e-02
2.183868e-02
2.179648e-02
2.173877e-02
2.166626e-02
2.157977e-02
2.148021e-02
2.136860e-02
2.124604e-02
2.111369e-02
2.097278e-02
2.082457e-02
2.067037e-02
2.051152e-02
2.034938e-02
2.018531e-02
2.002065e-02
1.985675e-02
1.969492e-02
1.953645e-02
1.938257e-02
1.923451e-02
1.909341e-02
1.896042e-02
1.883659e-02
1.872297e-02
1.862054e-02
1.853019e-02
1.845277e-02
1.838904e-02
1.833960e-02
1.833924e-02
1.671343e-02
1.667796e-02
1.632086e-02
1.596965e-02
1.568207e-02
1.548807e-02
1.537661e-02
1.530467e-02
1.522383e-02
1.510676e-02
1.495796e-02
1.480462e-02
1.467608e-02
1.458601e-02
1.452761e-02
1.448246e-02
1.443517e-02
1.438388e-02
1.434036e-02
1.432129e-02
1.433693e-02
1.438443e-02
1.444929e-02
1.451343e-02
1.456453e-02
1.460151e-02
1.463418e-02
1.467746e-02
1.474417e-02
1.483971e-02
1.496100e-02
1.509937e-02
1.524520e-02
1.539212e-02
1.553890e-02
1.568869e-02
1.584669e-02
1.601734e-02
1.620264e-02
1.640173e-02
1.661178e-02
1.682953e-02
1.705247e-02
1.727956e-02
1.751108e-02
1.774796e-02
1.799100e-02
1.824028e-02
1.849488e-02
1.874973e-02
1.900259e-02
1.925131e-02
1.949406e-02
1.972951e-02
1.995668e-02
2.017481e-02
2.038317e-02
2.058096e-02
2.076719e-02
2.094080e-02
2.110068e-02
2.124578e-02
2.137517e-02
2.148810e-02
2.158402e-02
2.166254e-02
2.172342e-02
2.176652e-02
2.179185e-02
2.179949e-02
2.178966e-02
2.176269e-02
2.171930e-02
2.166015e-02
2.158594e-02
2.149749e-02
2.139575e-02
2.128170e-02
2.115646e-02
2.102117e-02
2.087705e-02
2.072535e-02
2.056738e-02
2.040447e-02
2.023794e-02
2.006913e-02
1.989937e-02
1.972996e-02
1.956217e-02
1.939727e-02
1.923646e-02
1.908092e-02
1.893180e-02
1.879020e-02
1.865716e-02
1.853370e-02
1.842077e-02
1.831925e-02
1.822995e-02
1.815361e-02
1.809082e-02
1.809046e-02
1.676181e-02
1.669551e-02
1.630766e-02
1.597656e-02
1.574241e-02
1.559765e-02
1.549984e-02
1.539808e-02
1.526135e-02
1.509160e-02
1.491581e-02
1.476495e-02
1.465460e-02
1.457883e-02
1.451863e-02
1.445736e-02
1.439218e-02
1.433482e-02
1.430253e-02
1.430609e-02
1.434250e-02
1.439640e-02
1.444857e-02
1.448601e-02
1.450804e-02
1.452537e-02
1.455402e-02
1.460741e-02
1.469076e-02
1.480023e-02
1.492618e-02
1.505841e-02
1.519058e-02
1.532201e-02
1.545668e-02
1.560040e-02
1.575784e-02
1.593080e-02
1.611800e-02
1.631627e-02
1.652222e-02
1.673360e-02
1.694984e-02
1.717174e-02
1.740065e-02
1.763757e-02
1.788256e-02
1.813459e-02
1.839183e-02
1.864854e-02
1.890219e-02
1.915107e-02
1.939396e-02
1.963003e-02
1.985858e-02
2.007885e-02
2.028991e-02
2.049064e-02
2.067977e-02
2.085603e-02
2.101823e-02
2.116533e-02
2.129647e-02
2.141098e-02
2.150835e-02
2.158818e-02
2.165020e-02
2.169421e-02
2.172015e-02
2.172804e-02
2.171806e-02
2.169053e-02
2.164617e-02
2.158571e-02
2.150985e-02
2.141943e-02
2.131538e-02
2.119869e-02
2.107047e-02
2.093186e-02
2.078406e-02
2.062835e-02
2.046601e-02
2.029834e-02
2.012666e-02
1.995229e-02
1.977652e-02
1.960064e-02
1.942590e-02
1.925353e-02
1.908474e-02
1.892070e-02
1.876252e-02
1.861129e-02
1.846806e-02
1.833382e-02
1.820951e-02
1.809601e-02
1.799413e-02
1.790459e-02
1.782801e-02
1.782766e-02
1.673641e-02
1.666611e-02
1.629463e-02
1.601586e-02
1.583379e-02
1.570698e-02
1.558208e-02
1.542400e-02
1.523159e-02
1.503130e-02
1.485579e-02
1.472293e-02
1.462787e-02
1.455110e-02
1.447449e-02
1.439402e-02
1.432128e-02
1.427428e-02
1.426463e-02
1.428944e-02
1.433252e-02
1.437333e-02
1.439787e-02
1.440537e-02
1.440749e-02
1.442139e-02
1.446126e-02
1.453232e-02
1.463001e-02
1.474372e-02
1.486257e-02
1.498015e-02
1.509633e-02
1.521586e-02
1.534520e-02
1.548926e-02
1.564962e-02
1.582456e-02
1.601052e-02
1.620401e-02
1.640303e-02
1.660748e-02
1.681873e-02
1.703853e-02
1.726810e-02
1.750745e-02
1.775540e-02
1.800999e-02
1.826900e-02
1.852688e-02
1.878125e-02
1.903106e-02
1.927562e-02
1.951430e-02
1.974629e-02
1.997056e-02
2.018581e-02
2.039061e-02
2.058353e-02
2.076326e-02
2.092863e-02
2.107870e-02
2.121268e-02
2.132994e-02
2.142992e-02
2.151217e-02
2.157631e-02
2.162208e-02
2.164933e-02
2.165807e-02
2.164846e-02
2.162082e-02
2.157584e-02
2.151432e-02
2.143701e-02
2.134471e-02
2.123835e-02
2.111893e-02
2.098755e-02
2.084535e-02
2.069353e-02
2.053336e-02
2.036610e-02
2.019306e-02
2.001553e-02
1.983481e-02
1.965218e-02
1.946892e-02
1.928629e-02
1.910550e-02
1.892775e-02
1.875420e-02
1.858599e-02
1.842417e-02
1.826981e-02
1.812388e-02
1.798734e-02
1.786107e-02
1.774591e-02
1.764259e-02
1.755176e-02
1.755141e-02
1.667685e-02
1.663047e-02
1.630745e-02
1.608315e-02
1.592376e-02
1.577355e-02
1.559280e-02
1.537646e-02
1.514991e-02
1.494753e-02
1.478986e-02
1.467366e-02
1.457902e-02
1.448609e-02
1.438926e-02
1.429970e-02
1.423631e-02
1.421190e-02
1.422409e-02
1.425609e-02
1.428596e-02
1.429840e-02
1.429208e-02
1.427923e-02
1.427826e-02
1.430429e-02
1.436276e-02
1.444856e-02
1.455013e-02
1.465582e-02
1.475907e-02
1.486014e-02
1.496454e-02
1.507937e-02
1.520979e-02
1.535721e-02
1.551946e-02
1.569259e-02
1.587299e-02
1.605890e-02
1.625070e-02
1.645031e-02
1.665989e-02
1.688083e-02
1.711311e-02
1.735542e-02
1.760564e-02
1.786157e-02
1.812140e-02
1.838044e-02
1.863648e-02
1.888895e-02
1.913727e-02
1.938063e-02
1.961784e-02
1.984747e-02
2.006792e-02
2.027763e-02
2.047516e-02
2.065929e-02
2.082896e-02
2.098328e-02
2.112147e-02
2.124282e-02
2.134667e-02
2.143247e-02
2.149974e-02
2.154815e-02
2.157752e-02
2.158783e-02
2.157926e-02
2.155211e-02
2.150699e-02
2.144485e-02
2.136639e-02
2.127244e-02
2.116390e-02
2.104179e-02
2.090717e-02
2.076121e-02
2.060511e-02
2.044011e-02
2.026747e-02
2.008848e-02
1.990444e-02
1.971665e-02
1.952638e-02
1.933492e-02
1.914352e-02
1.895341e-02
1.876579e-02
1.858182e-02
1.840263e-02
1.822930e-02
1.806288e-02
1.790437e-02
1.775476e-02
1.761494e-02
1.748578e-02
1.736806e-02
1.726249e-02
1.726214e-02
1.662760e-02
1.662154e-02
1.634989e-02
1.615254e-02
1.597359e-02
1.576826e-02
1.552658e-02
1.527200e-02
1.504034e-02
1.485523e-02
1.471563e-02
1.460161e-02
1.449144e-02
1.437741e-02
1.426986e-02
1.418842e-02
1.414744e-02
1.414559e-02
1.416582e-02
1.418484e-02
1.418577e-02
1.416641e-02
1.413906e-02
1.412318e-02
1.413504e-02
1.418055e-02
1.425422e-02
1.434365e-02
1.443640e-02
1.452557e-02
1.461173e-02
1.470105e-02
1.480125e-02
1.491778e-02
1.505187e-02
1.520095e-02
1.536071e-02
1.552740e-02
1.569949e-02
1.587783e-02
1.606486e-02
1.626313e-02
1.647418e-02
1.669794e-02
1.693296e-02
1.717703e-02
1.742797e-02
1.768416e-02
1.794473e-02
1.820605e-02
1.846562e-02
1.872290e-02
1.897702e-02
1.922668e-02
1.947029e-02
1.970614e-02
1.993255e-02
2.014801e-02
2.035121e-02
2.054102e-02
2.071644e-02
2.087653e-02
2.102042e-02
2.114725e-02
2.125626e-02
2.134676e-02
2.141822e-02
2.147025e-02
2.150268e-02
2.151546e-02
2.150876e-02
2.148287e-02
2.143829e-02
2.137609e-02
2.129695e-02
2.120170e-02
2.109124e-02
2.096656e-02
2.082876e-02
2.067896e-02
2.051838e-02
2.034824e-02
2.016982e-02
1.998440e-02
1.979328e-02
1.959777e-02
1.939917e-02
1.919877e-02
1.899782e-02
1.879756e-02
1.859921e-02
1.840392e-02
1.821285e-02
1.802709e-02
1.784771e-02
1.767574e-02
1.751219e-02
1.735801e-02
1.721412e-02
1.708135e-02
1.696048e-02
1.696013e-02
1.661634e-02
1.664908e-02
1.640273e-02
1.618942e-02
1.595585e-02
1.568634e-02
1.540126e-02
1.513734e-02
1.492142e-02
1.475535e-02
1.461967e-02
1.449084e-02
1.435860e-02
1.423188e-02
1.413077e-02
1.407130e-02
1.405364e-02
1.406097e-02
1.406881e-02
1.405852e-02
1.402662e-02
1.398528e-02
1.395459e-02
1.395199e-02
1.398414e-02
1.404542e-02
1.412267e-02
1.420261e-02
1.427795e-02
1.434941e-02
1.442372e-02
1.450920e-02
1.461158e-02
1.473197e-02
1.486744e-02
1.501329e-02
1.516567e-02
1.532325e-02
1.548736e-02
1.566090e-02
1.584680e-02
1.604671e-02
1.626050e-02
1.648658e-02
1.672267e-02
1.696665e-02
1.721713e-02
1.747356e-02
1.773594e-02
1.800153e-02
1.826678e-02
1.853076e-02
1.879208e-02
1.904901e-02
1.929972e-02
1.954247e-02
1.977570e-02
1.999805e-02
2.020833e-02
2.040541e-02
2.058822e-02
2.075569e-02
2.090678e-02
2.104049e-02
2.115593e-02
2.125235e-02
2.132918e-02
2.138601e-02
2.142263e-02
2.143898e-02
2.143518e-02
2.141149e-02
2.136833e-02
2.130675e-02
2.122753e-02
2.113147e-02
2.101945e-02
2.089247e-02
2.075161e-02
2.059800e-02
2.043283e-02
2.025736e-02
2.007284e-02
1.988060e-02
1.968193e-02
1.947818e-02
1.927064e-02
1.906062e-02
1.884940e-02
1.863823e-02
1.842832e-02
1.822087e-02
1.801703e-02
1.781793e-02
1.762469e-02
1.743837e-02
1.726002e-02
1.709065e-02
1.693123e-02
1.678270e-02
1.664589e-02
1.664554e-02
1.664146e-02
1.669594e-02
1.643342e-02
1.616608e-02
1.586462e-02
1.554538e-02