# vtk DataFile Version 3.0
Scalar Field
ASCII
DATASET RECTILINEAR_GRID
DIMENSIONS 102 102 1
X_COORDINATES 102 double
0.000000 0.100000 0.200000 0.300000 0.400000 0.500000 0.600000 0.700000 0.800000 0.900000 1.000000 1.100000 1.200000 1.300000 1.400000 1.500000 1.600000 1.700000 1.800000 1.900000 2.000000 2.100000 2.200000 2.300000 2.400000 2.500000 2.600000 2.700000 2.800000 2.900000 3.000000 3.100000 3.200000 3.300000 3.400000 3.500000 3.600000 3.700000 3.800000 3.900000 4.000000 4.100000 4.200000 4.300000 4.400000 4.500000 4.600000 4.700000 4.800000 4.900000 5.000000 5.100000 5.200000 5.300000 5.400000 5.500000 5.600000 5.700000 5.800000 5.900000 6.000000 6.100000 6.200000 6.300000 6.400000 6.500000 6.600000 6.700000 6.800000 6.900000 7.000000 7.100000 7.200000 7.300000 7.400000 7.500000 7.600000 7.700000 7.800000 7.900000 8.000000 8.100000 8.200000 8.300000 8.400000 8.500000 8.600000 8.700000 8.800000 8.900000 9.000000 9.100000 9.200000 9.300000 9.400000 9.500000 9.600000 9.700000 9.800000 9.900000 10.000000 10.100000 
Y_COORDINATES 102 double
0.000000 0.100000 0.200000 0.300000 0.400000 0.500000 0.600000 0.700000 0.800000 0.900000 1.000000 1.100000 1.200000 1.300000 1.400000 1.500000 1.600000 1.700000 1.800000 1.900000 2.000000 2.100000 2.200000 2.300000 2.400000 2.500000 2.600000 2.700000 2.800000 2.900000 3.000000 3.100000 3.200000 3.300000 3.400000 3.500000 3.600000 3.700000 3.800000 3.900000 4.000000 4.100000 4.200000 4.300000 4.400000 4.500000 4.600000 4.700000 4.800000 4.900000 5.000000 5.100000 5.200000 5.300000 5.400000 5.500000 5.600000 5.700000 5.800000 5.900000 6.000000 6.100000 6.200000 6.300000 6.400000 6.500000 6.600000 6.700000 6.800000 6.900000 7.000000 7.100000 7.200000 7.300000 7.400000 7.500000 7.600000 7.700000 7.800000 7.900000 8.000000 8.100000 8.200000 8.300000 8.400000 8.500000 8.600000 8.700000 8.800000 8.900000 9.000000 9.100000 9.200000 9.300000 9.400000 9.500000 9.600000 9.700000 9.800000 9.900000 10.000000 10.100000 
Z_COORDINATES 1 double
0.0
POINT_DATA 10404
SCALARS Pressure double 1
LOOKUP_TABLE default
0.000000e+00
-1.842806e-04
-1.960159e-04
-2.075790e-04
-2.189216e-04
-2.299964e-04
-2.407576e-04
-2.511613e-04
-2.611657e-04
-2.707313e-04
-2.798212e-04
-2.884013e-04
-2.964408e-04
-3.039118e-04
-3.107898e-04
-3.170538e-04
-3.226861e-04
-3.276728e-04
-3.320034e-04
-3.356709e-04
-3.386719e-04
-3.410062e-04
-3.426772e-04
-3.436911e-04
-3.440576e-04
-3.437888e-04
-3.428997e-04
-3.414079e-04
-3.393330e-04
-3.366969e-04
-3.335230e-04
-3.298366e-04
-3.256641e-04
-3.210331e-04
-3.159718e-04
-3.105093e-04
-3.046748e-04
-2.984977e-04
-2.920071e-04
-2.852321e-04
-2.782009e-04
-2.709411e-04
-2.634793e-04
-2.558409e-04
-2.480502e-04
-2.401300e-04
-2.321014e-04
-2.239842e-04
-2.157962e-04
-2.075534e-04
-1.992700e-04
-1.909585e-04
-1.826294e-04
-1.742912e-04
-1.659508e-04
-1.576132e-04
-1.492818e-04
-1.409585e-04
-1.326435e-04
-1.243359e-04
-1.160335e-04
-1.077333e-04
-9.943112e-05
-9.112258e-05
-8.280267e-05
-7.446627e-05
-6.610830e-05
-5.772396e-05
-4.930898e-05
-4.085982e-05
-3.237395e-05
-2.385002e-05
-1.528812e-05
-6.689960e-06
1.940922e-06
1.059899e-05
1.927657e-05
2.796368e-05
3.664793e-05
4.531445e-05
5.394580e-05
6.252194e-05
7.102021e-05
7.941538e-05
8.767964e-05
9.578271e-05
1.036919e-04
1.113724e-04
1.187870e-04
1.258968e-04
1.326611e-04
1.390376e-04
1.449825e-04
1.504513e-04
1.553983e-04
1.597773e-04
1.635419e-04
1.666455e-04
1.690415e-04
1.706839e-04
1.715274e-04
0.000000e+00
-1.842806e-04
-1.967497e-04
-2.090794e-04
-2.212184e-04
-2.331163e-04
-2.447239e-04
-2.559939e-04
-2.668807e-04
-2.773410e-04
-2.873339e-04
-2.968215e-04
-3.057686e-04
-3.141436e-04
-3.219177e-04
-3.290661e-04
-3.355672e-04
-3.414031e-04
-3.465599e-04
-3.510270e-04
-3.547977e-04
-3.578687e-04
-3.602406e-04
-3.619170e-04
-3.629051e-04
-3.632150e-04
-3.628600e-04
-3.618560e-04
-3.602215e-04
-3.579774e-04
-3.551465e-04
-3.517536e-04
-3.478252e-04
-3.433890e-04
-3.384736e-04
-3.331089e-04
-3.273250e-04
-3.211524e-04
-3.146217e-04
-3.077634e-04
-3.006075e-04
-2.931835e-04
-2.855198e-04
-2.776443e-04
-2.695832e-04
-2.613616e-04
-2.530031e-04
-2.445297e-04
-2.359616e-04
-2.273172e-04
-2.186131e-04
-2.098639e-04
-2.010823e-04
-1.922791e-04
-1.834631e-04
-1.746413e-04
-1.658187e-04
-1.569989e-04
-1.481837e-04
-1.393733e-04
-1.305667e-04
-1.217618e-04
-1.129553e-04
-1.041432e-04
-9.532099e-05
-8.648362e-05
-7.762600e-05
-6.874314e-05
-5.983035e-05
-5.088354e-05
-4.189944e-05
-3.287582e-05
-2.381178e-05
-1.470789e-05
-5.566471e-06
3.608251e-06
1.280995e-05
2.203003e-05
3.125752e-05
4.047894e-05
4.967819e-05
5.883653e-05
6.793253e-05
7.694204e-05
8.583823e-05
9.459166e-05
1.031703e-04
1.115398e-04
1.196632e-04
1.275017e-04
1.350144e-04
1.421585e-04
1.488898e-04
1.551626e-04
1.609304e-04
1.661454e-04
1.707597e-04
1.747248e-04
1.779923e-04
1.805137e-04
1.822415e-04
1.831285e-04
1.715274e-04
-2.018844e-04
-2.152437e-04
-2.284372e-04
-2.414103e-04
-2.541098e-04
-2.664838e-04
-2.784822e-04
-2.900572e-04
-3.011633e-04
-3.117578e-04
-3.218010e-04
-3.312565e-04
-3.400912e-04
-3.482757e-04
-3.557842e-04
-3.625949e-04
-3.686897e-04
-3.740545e-04
-3.786792e-04
-3.825573e-04
-3.856866e-04
-3.880681e-04
-3.897069e-04
-3.906110e-04
-3.907923e-04
-3.902653e-04
-3.890476e-04
-3.871595e-04
-3.846238e-04
-3.814651e-04
-3.777103e-04
-3.733877e-04
-3.685271e-04
-3.631593e-04
-3.573161e-04
-3.510295e-04
-3.443322e-04
-3.372565e-04
-3.298349e-04
-3.220991e-04
-3.140802e-04
-3.058084e-04
-2.973129e-04
-2.886213e-04
-2.797601e-04
-2.707538e-04
-2.616256e-04
-2.523965e-04
-2.430856e-04
-2.337102e-04
-2.242854e-04
-2.148243e-04
-2.053379e-04
-1.958352e-04
-1.863233e-04
-1.768073e-04
-1.672906e-04
-1.577748e-04
-1.482600e-04
-1.387450e-04
-1.292273e-04
-1.197035e-04
-1.101693e-04
-1.006198e-04
-9.105002e-05
-8.145461e-05
-7.182852e-05
-6.216708e-05
-5.246633e-05
-4.272321e-05
-3.293586e-05
-2.310384e-05
-1.322836e-05
-3.312495e-06
6.638587e-06
1.661747e-05
2.661431e-05
3.661672e-05
4.660962e-05
5.657517e-05
6.649273e-05
7.633879e-05
8.608699e-05
9.570818e-05
1.051704e-04
1.144391e-04
1.234771e-04
1.322448e-04
1.407004e-04
1.488002e-04
1.564984e-04
1.637478e-04
1.704997e-04
1.767046e-04
1.823118e-04
1.872704e-04
1.915290e-04
1.950364e-04
1.977417e-04
1.995944e-04
2.005450e-04
1.881099e-04
-2.258806e-04
-2.404299e-04
-2.547756e-04
-2.688590e-04
-2.826228e-04
-2.960115e-04
-3.089715e-04
-3.214519e-04
-3.334043e-04
-3.447837e-04
-3.555481e-04
-3.656592e-04
-3.750826e-04
-3.837877e-04
-3.917479e-04
-3.989410e-04
-4.053486e-04
-4.109570e-04
-4.157565e-04
-4.197416e-04
-4.229109e-04
-4.252670e-04
-4.268164e-04
-4.275691e-04
-4.275389e-04
-4.267427e-04
-4.252004e-04
-4.229348e-04
-4.199712e-04
-4.163372e-04
-4.120623e-04
-4.071776e-04
-4.017159e-04
-3.957108e-04
-3.891968e-04
-3.822089e-04
-3.747823e-04
-3.669522e-04
-3.587533e-04
-3.502199e-04
-3.413854e-04
-3.322822e-04
-3.229413e-04
-3.133924e-04
-3.036633e-04
-2.937804e-04
-2.837678e-04
-2.736478e-04
-2.634406e-04
-2.531641e-04
-2.428340e-04
-2.324639e-04
-2.220650e-04
-2.116466e-04
-2.012156e-04
-1.907770e-04
-1.803341e-04
-1.698881e-04
-1.594388e-04
-1.489845e-04
-1.385224e-04
-1.280483e-04
-1.175578e-04
-1.070455e-04
-9.650586e-05
-8.593343e-05
-7.532293e-05
-6.466961e-05
-5.396958e-05
-4.321999e-05
-3.241938e-05
-2.156787e-05
-1.066746e-05
2.778019e-07
1.126154e-05
2.227491e-05
3.330642e-05
4.434177e-05
5.536377e-05
6.635223e-05
7.728392e-05
8.813256e-05
9.886878e-05
1.094602e-04
1.198716e-04
1.300648e-04
1.399989e-04
1.496306e-04
1.589143e-04
1.678020e-04
1.762441e-04
1.841892e-04
1.915846e-04
1.983767e-04
2.045108e-04
2.099320e-04
2.145851e-04
2.184150e-04
2.213672e-04
2.233878e-04
2.244239e-04
2.108660e-04
-2.570617e-04
-2.731250e-04
-2.889341e-04
-3.044248e-04
-3.195350e-04
-3.342042e-04
-3.483747e-04
-3.619916e-04
-3.750030e-04
-3.873607e-04
-3.990202e-04
-4.099410e-04
-4.200867e-04
-4.294256e-04
-4.379302e-04
-4.455777e-04
-4.523500e-04
-4.582337e-04
-4.632199e-04
-4.673042e-04
-4.704870e-04
-4.727726e-04
-4.741699e-04
-4.746914e-04
-4.743535e-04
-4.731762e-04
-4.711826e-04
-4.683989e-04
-4.648538e-04
-4.605786e-04
-4.556064e-04
-4.499722e-04
-4.437123e-04
-4.368643e-04
-4.294661e-04
-4.215565e-04
-4.131742e-04
-4.043577e-04
-3.951452e-04
-3.855739e-04
-3.756801e-04
-3.654990e-04
-3.550642e-04
-3.444075e-04
-3.335590e-04
-3.225468e-04
-3.113968e-04
-3.001325e-04
-2.887753e-04
-2.773439e-04
-2.658549e-04
-2.543222e-04
-2.427573e-04
-2.311696e-04
-2.195660e-04
-2.079512e-04
-1.963279e-04
-1.846971e-04
-1.730580e-04
-1.614081e-04
-1.497440e-04
-1.380609e-04
-1.263536e-04
-1.146162e-04
-1.028426e-04
-9.102687e-05
-7.916343e-05
-6.724741e-05
-5.527492e-05
-4.324337e-05
-3.115172e-05
-1.900083e-05
-6.793635e-06
5.464558e-06
1.776586e-05
3.009960e-05
4.245216e-05
5.480682e-05
6.714366e-05
7.943946e-05
9.166766e-05
1.037984e-04
1.157984e-04
1.276312e-04
1.392571e-04
1.506335e-04
1.617148e-04
1.724527e-04
1.827964e-04
1.926931e-04
2.020877e-04
2.109237e-04
2.191432e-04
2.266872e-04
2.334959e-04
2.395092e-04
2.446672e-04
2.489098e-04
2.521780e-04
2.544133e-04
2.555588e-04
2.405660e-04
-2.963798e-04
-3.143095e-04
-3.319194e-04
-3.491390e-04
-3.658997e-04
-3.821355e-04
-3.977834e-04
-4.127836e-04
-4.270801e-04
-4.406210e-04
-4.533586e-04
-4.652497e-04
-4.762562e-04
-4.863446e-04
-4.954866e-04
-5.036592e-04
-5.108444e-04
-5.170295e-04
-5.222067e-04
-5.263735e-04
-5.295322e-04
-5.316899e-04
-5.328581e-04
-5.330529e-04
-5.322941e-04
-5.306057e-04
-5.280148e-04
-5.245519e-04
-5.202502e-04
-5.151456e-04
-5.092758e-04
-5.026807e-04
-4.954011e-04
-4.874793e-04
-4.789579e-04
-4.698802e-04
-4.602893e-04
-4.502278e-04
-4.397381e-04
-4.288611e-04
-4.176370e-04
-4.061040e-04
-3.942988e-04
-3.822563e-04
-3.700090e-04
-3.575870e-04
-3.450183e-04
-3.323281e-04
-3.195390e-04
-3.066708e-04
-2.937409e-04
-2.807635e-04
-2.677507e-04
-2.547115e-04
-2.416528e-04
-2.285789e-04
-2.154920e-04
-2.023923e-04
-1.892781e-04
-1.761463e-04
-1.629924e-04
-1.498109e-04
-1.365954e-04
-1.233394e-04
-1.100361e-04
-9.667881e-05
-8.326168e-05
-6.977956e-05
-5.622858e-05
-4.260643e-05
-2.891263e-05
-1.514889e-05
-1.319352e-06
1.256913e-05
2.650677e-05
4.048061e-05
5.447438e-05
6.846831e-05
8.243906e-05
9.635962e-05
1.101993e-04
1.239236e-04
1.374945e-04
1.508705e-04
1.640063e-04
1.768535e-04
1.893608e-04
2.014736e-04
2.131349e-04
2.242855e-04
2.348638e-04
2.448067e-04
2.540498e-04
2.625276e-04
2.701740e-04
2.769227e-04
2.827073e-04
2.874621e-04
2.911222e-04
2.936239e-04
2.949049e-04
2.781379e-04
-3.449632e-04
-3.651440e-04
-3.849224e-04
-4.042199e-04
-4.229607e-04
-4.410718e-04
-4.584840e-04
-4.751319e-04
-4.909546e-04
-5.058957e-04
-5.199040e-04
-5.329334e-04
-5.449434e-04
-5.558990e-04
-5.657712e-04
-5.745365e-04
-5.821775e-04
-5.886825e-04
-5.940454e-04
-5.982661e-04
-6.013495e-04
-6.033060e-04
-6.041509e-04
-6.039044e-04
-6.025909e-04
-6.002391e-04
-5.968814e-04
-5.925536e-04
-5.872944e-04
-5.811454e-04
-5.741500e-04
-5.663538e-04
-5.578037e-04
-5.485473e-04
-5.386333e-04
-5.281101e-04
-5.170262e-04
-5.054296e-04
-4.933672e-04
-4.808848e-04
-4.680267e-04
-4.548353e-04
-4.413510e-04
-4.276118e-04
-4.136533e-04
-3.995083e-04
-3.852070e-04
-3.707763e-04
-3.562405e-04
-3.416206e-04
-3.269345e-04
-3.121973e-04
-2.974210e-04
-2.826147e-04
-2.677848e-04
-2.529352e-04
-2.380671e-04
-2.231800e-04
-2.082711e-04
-1.933360e-04
-1.783693e-04
-1.633640e-04
-1.483130e-04
-1.332085e-04
-1.180427e-04
-1.028085e-04
-8.749927e-05
-7.210967e-05
-5.663584e-05
-4.107579e-05
-2.542976e-05
-9.700506e-06
6.106332e-06
2.198199e-05
3.791433e-05
5.388758e-05
6.988219e-05
8.587464e-05
1.018374e-04
1.177388e-04
1.335429e-04
1.492099e-04
1.646958e-04
1.799525e-04
1.949284e-04
2.095680e-04
2.238126e-04
2.376003e-04
2.508665e-04
2.635439e-04
2.755632e-04
2.868535e-04
2.973423e-04
3.069563e-04
3.156217e-04
3.232644e-04
3.298108e-04
3.351880e-04
3.393243e-04
3.421495e-04
3.435951e-04
3.246829e-04
-4.041342e-04
-4.269876e-04
-4.493361e-04
-4.710918e-04
-4.921703e-04
-5.124907e-04
-5.319764e-04
-5.505556e-04
-5.681616e-04
-5.847331e-04
-6.002148e-04
-6.145573e-04
-6.277177e-04
-6.396595e-04
-6.503526e-04
-6.597738e-04
-6.679063e-04
-6.747400e-04
-6.802712e-04
-6.845024e-04
-6.874422e-04
-6.891052e-04
-6.895114e-04
-6.886859e-04
-6.866590e-04
-6.834652e-04
-6.791432e-04
-6.737354e-04
-6.672871e-04
-6.598468e-04
-6.514650e-04
-6.421942e-04
-6.320881e-04
-6.212014e-04
-6.095893e-04
-5.973070e-04
-5.844093e-04
-5.709502e-04
-5.569825e-04
-5.425573e-04
-5.277241e-04
-5.125301e-04
-4.970197e-04
-4.812352e-04
-4.652153e-04
-4.489960e-04
-4.326099e-04
-4.160862e-04
-3.994507e-04
-3.827258e-04
-3.659303e-04
-3.490796e-04
-3.321860e-04
-3.152582e-04
-2.983021e-04
-2.813209e-04
-2.643148e-04
-2.472820e-04
-2.302185e-04
-2.131185e-04
-1.959749e-04
-1.787796e-04
-1.615239e-04
-1.441988e-04
-1.267954e-04
-1.093057e-04
-9.172252e-05
-7.404012e-05
-5.625473e-05
-3.836477e-05
-2.037134e-05
-2.278566e-06
1.590611e-05
3.417159e-05
5.250282e-05
7.088061e-05
8.928141e-05
1.076772e-04
1.260352e-04
1.443182e-04
1.624841e-04
1.804863e-04
1.982736e-04
2.157905e-04
2.329771e-04
2.497697e-04
2.661009e-04
2.818997e-04
2.970922e-04
3.116021e-04
3.253504e-04
3.382568e-04
3.502394e-04
3.612154e-04
3.711018e-04
3.798155e-04
3.872743e-04
3.933967e-04
3.981029e-04
4.013150e-04
4.029574e-04
3.814935e-04
-4.754293e-04
-5.014179e-04
-5.267759e-04
-5.514047e-04
-5.752099e-04
-5.981013e-04
-6.199940e-04
-6.408089e-04
-6.604726e-04
-6.789185e-04
-6.960865e-04
-7.119239e-04
-7.263849e-04
-7.394316e-04
-7.510334e-04
-7.611671e-04
-7.698174e-04
-7.769762e-04
-7.826426e-04
-7.868229e-04
-7.895304e-04
-7.907845e-04
-7.906110e-04
-7.890416e-04
-7.861131e-04
-7.818674e-04
-7.763507e-04
-7.696131e-04
-7.617083e-04
-7.526928e-04
-7.426254e-04
-7.315670e-04
-7.195794e-04
-7.067257e-04
-6.930688e-04
-6.786718e-04
-6.635969e-04
-6.479052e-04
-6.316563e-04
-6.149078e-04
-5.977149e-04
-5.801303e-04
-5.622036e-04
-5.439812e-04
-5.255060e-04
-5.068174e-04
-4.879507e-04
-4.689376e-04
-4.498058e-04
-4.305789e-04
-4.112766e-04
-3.919148e-04
-3.725056e-04
-3.530576e-04
-3.335758e-04
-3.140623e-04
-2.945161e-04
-2.749339e-04
-2.553100e-04
-2.356369e-04
-2.159058e-04
-1.961068e-04
-1.762295e-04
-1.562634e-04
-1.361985e-04
-1.160254e-04
-9.573646e-05
-7.532554e-05
-5.478895e-05
-3.412571e-05
-1.333801e-05
7.568407e-06
2.858383e-05
4.969430e-05
7.088126e-05
9.212137e-05
1.133862e-04
1.346424e-04
1.558509e-04
1.769677e-04
1.979434e-04
2.187233e-04
2.392476e-04
2.594518e-04
2.792664e-04
2.986177e-04
3.174279e-04
3.356155e-04
3.530956e-04
3.697808e-04
3.855812e-04
4.004049e-04
4.141590e-04
4.267499e-04
4.380834e-04
4.480662e-04
4.566055e-04
4.636101e-04
4.689908e-04
4.726607e-04
4.745359e-04
4.500738e-04
-5.606216e-04
-5.902536e-04
-6.191025e-04
-6.470575e-04
-6.740125e-04
-6.998669e-04
-7.245266e-04
-7.479037e-04
-7.699178e-04
-7.904961e-04
-8.095736e-04
-8.270937e-04
-8.430081e-04
-8.572772e-04
-8.698700e-04
-8.807643e-04
-8.899463e-04
-8.974107e-04
-9.031606e-04
-9.072070e-04
-9.095684e-04
-9.102708e-04
-9.093469e-04
-9.068360e-04
-9.027831e-04
-8.972388e-04
-8.902583e-04
-8.819011e-04
-8.722305e-04
-8.613126e-04
-8.492162e-04
-8.360118e-04
-8.217710e-04
-8.065663e-04
-7.904701e-04
-7.735544e-04
-7.558902e-04
-7.375467e-04
-7.185914e-04
-6.990893e-04
-6.791024e-04
-6.586897e-04
-6.379063e-04
-6.168038e-04
-5.954295e-04
-5.738266e-04
-5.520337e-04
-5.300850e-04
-5.080101e-04
-4.858342e-04
-4.635777e-04
-4.412569e-04
-4.188838e-04
-3.964661e-04
-3.740082e-04
-3.515106e-04
-3.289708e-04
-3.063836e-04
-2.837413e-04
-2.610342e-04
-2.382516e-04
-2.153813e-04
-1.924110e-04
-1.693285e-04
-1.461221e-04
-1.227815e-04
-9.929809e-05
-7.566540e-05
-5.187994e-05
-2.794146e-05
-3.853531e-06
2.037606e-05
4.473488e-05
6.920549e-05
9.376512e-05
1.183854e-04
1.430322e-04
1.676654e-04
1.922389e-04
2.167004e-04
2.409918e-04
2.650488e-04
2.888017e-04
3.121749e-04
3.350878e-04
3.574550e-04
3.791863e-04
4.001877e-04
4.203617e-04
4.396078e-04
4.578229e-04
4.749023e-04
4.907398e-04
5.052291e-04
5.182634e-04
5.297369e-04
5.395451e-04
5.475854e-04
5.537575e-04
5.579644e-04
5.601125e-04
5.321613e-04
-6.617451e-04
-6.955790e-04
-7.284464e-04
-7.602221e-04
-7.907873e-04
-8.200296e-04
-8.478440e-04
-8.741336e-04
-8.988097e-04
-9.217930e-04
-9.430130e-04
-9.624090e-04
-9.799304e-04
-9.955360e-04
-1.009195e-03
-1.020886e-03
-1.030598e-03
-1.038330e-03
-1.044089e-03
-1.047892e-03
-1.049764e-03
-1.049740e-03
-1.047859e-03
-1.044171e-03
-1.038731e-03
-1.031599e-03
-1.022841e-03
-1.012527e-03
-1.000733e-03
-9.875364e-04
-9.730164e-04
-9.572554e-04
-9.403365e-04
-9.223430e-04
-9.033583e-04
-8.834647e-04
-8.627431e-04
-8.412726e-04
-8.191295e-04
-7.963872e-04
-7.731154e-04
-7.493801e-04
-7.252431e-04
-7.007615e-04
-6.759877e-04
-6.509689e-04
-6.257475e-04
-6.003603e-04
-5.748391e-04
-5.492105e-04
-5.234957e-04
-4.977112e-04
-4.718685e-04
-4.459747e-04
-4.200327e-04
-3.940412e-04
-3.679960e-04
-3.418893e-04
-3.157111e-04
-2.894494e-04
-2.630906e-04
-2.366203e-04
-2.100239e-04
-1.832870e-04
-1.563963e-04
-1.293401e-04
-1.021089e-04
-7.469591e-05
-4.709798e-05
-1.931582e-05
8.645290e-06
3.677507e-05
6.505776e-05
9.347174e-05
1.219892e-04
1.505757e-04
1.791903e-04
2.077851e-04
2.363053e-04
2.646890e-04
2.928678e-04
3.207662e-04
3.483023e-04
3.753883e-04
4.019301e-04
4.278284e-04
4.529790e-04
4.772732e-04
5.005984e-04
5.228392e-04
5.438772e-04
5.635924e-04
5.818638e-04
5.985699e-04
6.135895e-04
6.268025e-04
6.380908e-04
6.473385e-04
6.544330e-04
6.592654e-04
6.617314e-04
6.297512e-04
-7.811219e-04
-8.197711e-04
-8.572344e-04
-8.933708e-04
-9.280467e-04
-9.611365e-04
-9.925235e-04
-1.022100e-03
-1.049770e-03
-1.075445e-03
-1.099049e-03
-1.120519e-03
-1.139800e-03
-1.156851e-03
-1.171641e-03
-1.184150e-03
-1.194372e-03
-1.202309e-03
-1.207975e-03
-1.211394e-03
-1.212600e-03
-1.211635e-03
-1.208550e-03
-1.203406e-03
-1.196268e-03
-1.187209e-03
-1.176308e-03
-1.163649e-03
-1.149319e-03
-1.133409e-03
-1.116013e-03
-1.097225e-03
-1.077142e-03
-1.055861e-03
-1.033476e-03
-1.010082e-03
-9.857726e-04
-9.606362e-04
-9.347599e-04
-9.082267e-04
-8.811150e-04
-8.534988e-04
-8.254472e-04
-7.970235e-04
-7.682856e-04
-7.392856e-04
-7.100694e-04
-6.806770e-04
-6.511424e-04
-6.214935e-04
-5.917522e-04
-5.619351e-04
-5.320530e-04
-5.021118e-04
-4.721127e-04
-4.420524e-04
-4.119239e-04
-3.817170e-04
-3.514187e-04
-3.210140e-04
-2.904863e-04
-2.598183e-04
-2.289928e-04
-1.979931e-04
-1.668038e-04
-1.354117e-04
-1.038064e-04
-7.198093e-05
-3.993249e-05
-7.663098e-06
2.481987e-05
5.750307e-05
9.036673e-05
1.233842e-04
1.565216e-04
1.897375e-04
2.229828e-04
2.562002e-04
2.893248e-04
3.222835e-04
3.549955e-04
3.873725e-04
4.193184e-04
4.507307e-04
4.814999e-04
5.115106e-04
5.406420e-04
5.687684e-04
5.957601e-04
6.214838e-04
6.458038e-04
6.685826e-04
6.896816e-04
7.089622e-04
7.262865e-04
7.415181e-04
7.545232e-04
7.651710e-04
7.733346e-04
7.788919e-04
7.817260e-04
7.451232e-04
-9.213905e-04
-9.655284e-04
-1.008219e-03
-1.049305e-03
-1.088635e-03
-1.126069e-03
-1.161478e-03
-1.194743e-03
-1.225756e-03
-1.254423e-03
-1.280663e-03
-1.304406e-03
-1.325597e-03
-1.344193e-03
-1.360165e-03
-1.373496e-03
-1.384184e-03
-1.392236e-03
-1.397675e-03
-1.400533e-03
-1.400853e-03
-1.398690e-03
-1.394106e-03
-1.387174e-03
-1.377975e-03
-1.366594e-03
-1.353126e-03
-1.337670e-03
-1.320327e-03
-1.301206e-03
-1.280414e-03
-1.258062e-03
-1.234261e-03
-1.209122e-03
-1.182755e-03
-1.155269e-03
-1.126768e-03
-1.097355e-03
-1.067129e-03
-1.036182e-03
-1.004603e-03
-9.724755e-04
-9.398760e-04
-9.068752e-04
-8.735368e-04
-8.399182e-04
-8.060693e-04
-7.720333e-04
-7.378463e-04
-7.035377e-04
-6.691300e-04
-6.346393e-04
-6.000757e-04
-5.654433e-04
-5.307411e-04
-4.959634e-04
-4.611002e-04
-4.261378e-04
-3.910599e-04
-3.558479e-04
-3.204817e-04
-2.849409e-04
-2.492050e-04
-2.132546e-04
-1.770721e-04
-1.406428e-04
-1.039551e-04
-6.700199e-05
-2.978127e-05
7.703427e-06
4.544209e-05
8.341770e-05
1.216057e-04
1.599733e-04
1.984796e-04
2.370747e-04
2.756998e-04
3.142870e-04
3.527592e-04
3.910303e-04
4.290051e-04
4.665800e-04
5.036428e-04
5.400736e-04
5.757452e-04
6.105235e-04
6.442684e-04
6.768348e-04
7.080727e-04
7.378289e-04
7.659474e-04
7.922704e-04
8.166395e-04
8.388964e-04
8.588840e-04
8.764475e-04
8.914350e-04
9.036988e-04
9.130959e-04
9.194890e-04
9.227475e-04
8.808705e-04
-1.085538e-03
-1.135902e-03
-1.184512e-03
-1.231187e-03
-1.275761e-03
-1.318076e-03
-1.357988e-03
-1.395366e-03
-1.430094e-03
-1.462068e-03
-1.491200e-03
-1.517417e-03
-1.540662e-03
-1.560892e-03
-1.578079e-03
-1.592212e-03
-1.603292e-03
-1.611337e-03
-1.616376e-03
-1.618452e-03
-1.617621e-03
-1.613950e-03
-1.607517e-03
-1.598408e-03
-1.586721e-03
-1.572559e-03
-1.556032e-03
-1.537257e-03
-1.516355e-03
-1.493449e-03
-1.468666e-03
-1.442135e-03
-1.413984e-03
-1.384341e-03
-1.353331e-03
-1.321078e-03
-1.287704e-03
-1.253323e-03
-1.218048e-03
-1.181984e-03
-1.145230e-03
-1.107879e-03
-1.070018e-03
-1.031724e-03
-9.930686e-04
-9.541136e-04
-9.149136e-04
-8.755152e-04
-8.359568e-04
-7.962688e-04
-7.564742e-04
-7.165884e-04
-6.766202e-04
-6.365716e-04
-5.964390e-04
-5.562132e-04
-5.158808e-04
-4.754243e-04
-4.348231e-04
-3.940546e-04
-3.530946e-04
-3.119189e-04
-2.705033e-04
-2.288256e-04
-1.868655e-04
-1.446066e-04
-1.020363e-04
-5.914742e-05
-1.593877e-05
2.758401e-05
7.140772e-05
1.155109e-04
1.598631e-04
2.044246e-04
2.491459e-04
2.939672e-04
3.388185e-04
3.836191e-04
4.282779e-04
4.726936e-04
5.167543e-04
5.603385e-04
6.033154e-04
6.455452e-04
6.868797e-04
7.271636e-04
7.662346e-04
8.039248e-04
8.400615e-04
8.744682e-04
9.069657e-04
9.373732e-04
9.655093e-04
9.911936e-04
1.014247e-03
1.034494e-03
1.051761e-03
1.065883e-03
1.076698e-03
1.084051e-03
1.087797e-03
1.039931e-03
-1.276934e-03
-1.334332e-03
-1.389612e-03
-1.442574e-03
-1.493028e-03
-1.540801e-03
-1.585733e-03
-1.627678e-03
-1.666510e-03
-1.702116e-03
-1.734402e-03
-1.763292e-03
-1.788725e-03
-1.810662e-03
-1.829077e-03
-1.843963e-03
-1.855329e-03
-1.863202e-03
-1.867623e-03
-1.868647e-03
-1.866344e-03
-1.860797e-03
-1.852100e-03
-1.840358e-03
-1.825687e-03
-1.808209e-03
-1.788055e-03
-1.765361e-03
-1.740269e-03
-1.712923e-03
-1.683471e-03
-1.652060e-03
-1.618839e-03
-1.583954e-03
-1.547551e-03
-1.509770e-03
-1.470748e-03
-1.430618e-03
-1.389506e-03
-1.347530e-03
-1.304802e-03
-1.261427e-03
-1.217499e-03
-1.173107e-03
-1.128327e-03
-1.083228e-03
-1.037869e-03
-9.923001e-04
-9.465615e-04
-9.006850e-04
-8.546934e-04
-8.086012e-04
-7.624152e-04
-7.161349e-04
-6.697533e-04
-6.232574e-04
-5.766293e-04
-5.298469e-04
-4.828848e-04
-4.357157e-04
-3.883107e-04
-3.406410e-04
-2.926786e-04
-2.443976e-04
-1.957752e-04
-1.467928e-04
-9.743693e-05
-4.770044e-05
2.416629e-06
5.290610e-05
1.037509e-04
1.549241e-04
2.063885e-04
2.580960e-04
3.099870e-04
3.619901e-04
4.140221e-04
4.659876e-04
5.177792e-04
5.692776e-04
6.203518e-04
6.708598e-04
7.206488e-04
7.695561e-04
8.174099e-04
8.640298e-04
9.092284e-04
9.528116e-04
9.945805e-04
1.034332e-03
1.071861e-03
1.106959e-03
1.139420e-03
1.169038e-03
1.195608e-03
1.218931e-03
1.238813e-03
1.255063e-03
1.267502e-03
1.275954e-03
1.280258e-03
1.225619e-03
-1.499365e-03
-1.564680e-03
-1.627451e-03
-1.687453e-03
-1.744477e-03
-1.798327e-03
-1.848828e-03
-1.895820e-03
-1.939163e-03
-1.978737e-03
-2.014441e-03
-2.046196e-03
-2.073941e-03
-2.097637e-03
-2.117263e-03
-2.132820e-03
-2.144325e-03
-2.151817e-03
-2.155348e-03
-2.154991e-03
-2.150832e-03
-2.142972e-03
-2.131524e-03
-2.116616e-03
-2.098383e-03
-2.076971e-03
-2.052535e-03
-2.025232e-03
-1.995230e-03
-1.962694e-03
-1.927797e-03
-1.890709e-03
-1.851600e-03
-1.810639e-03
-1.767991e-03
-1.723819e-03
-1.678276e-03
-1.631514e-03
-1.583675e-03
-1.534892e-03
-1.485291e-03
-1.434988e-03
-1.384090e-03
-1.332693e-03
-1.280882e-03
-1.228732e-03
-1.176307e-03
-1.123659e-03
-1.070832e-03
-1.017859e-03
-9.647604e-04
-9.115506e-04
-8.582337e-04
-8.048057e-04
-7.512555e-04
-6.975655e-04
-6.437125e-04
-5.896691e-04
-5.354043e-04
-4.808850e-04
-4.260771e-04
-3.709466e-04
-3.154611e-04
-2.595907e-04
-2.033094e-04
-1.465966e-04
-8.943790e-05
-3.182632e-05
2.623641e-05
8.473899e-05
1.436596e-04
2.029650e-04
2.626099e-04
3.225361e-04
3.826725e-04
4.429340e-04
5.032221e-04
5.634241e-04
6.234137e-04
6.830510e-04
7.421828e-04
8.006433e-04
8.582547e-04
9.148279e-04
9.701635e-04
1.024053e-03
1.076280e-03
1.126620e-03
1.174844e-03
1.220720e-03
1.264012e-03
1.304481e-03
1.341892e-03
1.376010e-03
1.406603e-03
1.433444e-03
1.456312e-03
1.474995e-03
1.489287e-03
1.498995e-03
1.503934e-03
1.441668e-03
-1.757078e-03
-1.831270e-03
-1.902423e-03
-1.970283e-03
-2.034617e-03
-2.095209e-03
-2.151863e-03
-2.204405e-03
-2.252684e-03
-2.296570e-03
-2.335956e-03
-2.370760e-03
-2.400921e-03
-2.426403e-03
-2.447191e-03
-2.463295e-03
-2.474743e-03
-2.481588e-03
-2.483898e-03
-2.481764e-03
-2.475291e-03
-2.464603e-03
-2.449835e-03
-2.431139e-03
-2.408677e-03
-2.382619e-03
-2.353146e-03
-2.320445e-03
-2.284707e-03
-2.246127e-03
-2.204902e-03
-2.161230e-03
-2.115306e-03
-2.067322e-03
-2.017469e-03
-1.965930e-03
-1.912881e-03
-1.858491e-03
-1.802923e-03
-1.746325e-03
-1.688840e-03
-1.630596e-03
-1.571712e-03
-1.512293e-03
-1.452433e-03
-1.392214e-03
-1.331704e-03
-1.270960e-03
-1.210027e-03
-1.148937e-03
-1.087713e-03
-1.026364e-03
-9.648916e-04
-9.032885e-04
-8.415381e-04
-7.796173e-04
-7.174968e-04
-6.551427e-04
-5.925175e-04
-5.295817e-04
-4.662948e-04
-4.026173e-04
-3.385113e-04
-2.739427e-04
-2.088821e-04
-1.433066e-04
-7.720091e-05
-1.055853e-05
5.661671e-05
1.243097e-04
1.924929e-04
2.611255e-04
3.301526e-04
3.995045e-04
4.690962e-04
5.388271e-04
6.085805e-04
6.782240e-04
7.476093e-04
8.165728e-04
8.849356e-04
9.525047e-04
1.019073e-03
1.084422e-03
1.148320e-03
1.210527e-03
1.270792e-03
1.328858e-03
1.384462e-03
1.437336e-03
1.487210e-03
1.533813e-03
1.576874e-03
1.616127e-03
1.651308e-03
1.682159e-03
1.708432e-03
1.729885e-03
1.746288e-03
1.757424e-03
1.763088e-03
1.692260e-03
-2.054817e-03
-2.138933e-03
-2.219431e-03
-2.296031e-03
-2.368471e-03
-2.436512e-03
-2.499939e-03
-2.558562e-03
-2.612216e-03
-2.660763e-03
-2.704089e-03
-2.742111e-03
-2.774769e-03
-2.802031e-03
-2.823892e-03
-2.840370e-03
-2.851509e-03
-2.857378e-03
-2.858064e-03
-2.853678e-03
-2.844351e-03
-2.830230e-03
-2.811479e-03
-2.788276e-03
-2.760812e-03
-2.729289e-03
-2.693916e-03
-2.654912e-03
-2.612498e-03
-2.566901e-03
-2.518347e-03
-2.467063e-03
-2.413273e-03
-2.357198e-03
-2.299054e-03
-2.239048e-03
-2.177382e-03
-2.114247e-03
-2.049822e-03
-1.984279e-03
-1.917774e-03
-1.850451e-03
-1.782440e-03
-1.713859e-03
-1.644811e-03
-1.575383e-03
-1.505649e-03
-1.435670e-03
-1.365491e-03
-1.295144e-03
-1.224652e-03
-1.154020e-03
-1.083246e-03
-1.012318e-03
-9.412121e-04
-8.698993e-04
-7.983430e-04
-7.265019e-04
-6.543308e-04
-5.817829e-04
-5.088104e-04
-4.353672e-04
-3.614097e-04
-2.868987e-04
-2.118013e-04
-1.360921e-04
-5.975476e-05
1.721617e-05
9.481426e-05
1.730197e-04
2.517983e-04
3.311002e-04
4.108593e-04
4.909922e-04
5.713982e-04
6.519580e-04
7.325346e-04
8.129724e-04
8.930979e-04
9.727200e-04
1.051630e-03
1.129605e-03
1.206404e-03
1.281773e-03
1.355445e-03
1.427144e-03
1.496580e-03
1.563457e-03
1.627474e-03
1.688324e-03
1.745698e-03
1.799286e-03
1.848781e-03
1.893878e-03
1.934279e-03
1.969691e-03
1.999834e-03
2.024436e-03
2.043238e-03
2.055995e-03
2.062481e-03
1.982075e-03
-2.397869e-03
-2.493043e-03
-2.583932e-03
-2.670220e-03
-2.751618e-03
-2.827862e-03
-2.898716e-03
-2.963971e-03
-3.023451e-03
-3.077008e-03
-3.124524e-03
-3.165912e-03
-3.201119e-03
-3.230117e-03
-3.252911e-03
-3.269533e-03
-3.280046e-03
-3.284534e-03
-3.283112e-03
-3.275913e-03
-3.263096e-03
-3.244837e-03
-3.221332e-03
-3.192790e-03
-3.159437e-03
-3.121508e-03
-3.079248e-03
-3.032910e-03
-2.982752e-03
-2.929033e-03
-2.872014e-03
-2.811956e-03
-2.749114e-03
-2.683741e-03
-2.616082e-03
-2.546374e-03
-2.474842e-03
-2.401703e-03
-2.327159e-03
-2.251401e-03
-2.174604e-03
-2.096928e-03
-2.018516e-03
-1.939499e-03
-1.859986e-03
-1.780075e-03
-1.699843e-03
-1.619355e-03
-1.538656e-03
-1.457780e-03
-1.376743e-03
-1.295551e-03
-1.214195e-03
-1.132655e-03
-1.050902e-03
-9.688994e-04
-8.866010e-04
-8.039571e-04
-7.209139e-04
-6.374158e-04
-5.534070e-04
-4.688339e-04
-3.836461e-04
-2.977993e-04
-2.112562e-04
-1.239889e-04
-3.598045e-05
5.277351e-05
1.422632e-04
2.324632e-04
3.233313e-04
4.148070e-04
5.068112e-04
5.992448e-04
6.919882e-04
7.849012e-04
8.778228e-04
9.705709e-04
1.062943e-03
1.154717e-03
1.245650e-03
1.335482e-03
1.423936e-03
1.510719e-03
1.595522e-03
1.678026e-03
1.757900e-03
1.834803e-03
1.908389e-03
1.978309e-03
2.044208e-03
2.105733e-03
2.162536e-03
2.214269e-03
2.260595e-03
2.301183e-03
2.335715e-03
2.363887e-03
2.385407e-03
2.400002e-03
2.407417e-03
2.316331e-03
-2.792111e-03
-2.899574e-03
-3.001978e-03
-3.098973e-03
-3.190238e-03
-3.275483e-03
-3.354449e-03
-3.426910e-03
-3.492675e-03
-3.551588e-03
-3.603527e-03
-3.648407e-03
-3.686175e-03
-3.716816e-03
-3.740346e-03
-3.756816e-03
-3.766305e-03
-3.768926e-03
-3.764816e-03
-3.754140e-03
-3.737089e-03
-3.713872e-03
-3.684722e-03
-3.649884e-03
-3.609624e-03
-3.564215e-03
-3.513943e-03
-3.459099e-03
-3.399982e-03
-3.336889e-03
-3.270122e-03
-3.199977e-03
-3.126747e-03
-3.050719e-03
-2.972171e-03
-2.891370e-03
-2.808572e-03
-2.724020e-03
-2.637942e-03
-2.550549e-03
-2.462038e-03
-2.372584e-03
-2.282347e-03
-2.191469e-03
-2.100070e-03
-2.008253e-03
-1.916103e-03
-1.823685e-03
-1.731046e-03
-1.638218e-03
-1.545216e-03
-1.452037e-03
-1.358669e-03
-1.265084e-03
-1.171244e-03
-1.077102e-03
-9.826036e-04
-8.876880e-04
-7.922915e-04
-6.963487e-04
-5.997947e-04
-5.025670e-04
-4.046081e-04
-3.058674e-04
-2.063033e-04
-1.058852e-04
-4.595489e-06
9.756856e-05
2.005930e-04
3.044459e-04
4.090752e-04
5.144085e-04
6.203510e-04
7.267854e-04
8.335707e-04
9.405423e-04
1.047512e-03
1.154266e-03
1.260570e-03
1.366165e-03
1.470771e-03
1.574085e-03
1.675788e-03
1.775542e-03
1.872992e-03
1.967769e-03
2.059495e-03
2.147780e-03
2.232227e-03
2.312435e-03
2.388003e-03
2.458529e-03
2.523614e-03
2.582867e-03
2.635903e-03
2.682351e-03
2.721851e-03
2.754060e-03
2.778654e-03
2.795327e-03
2.803793e-03