# vtk DataFile Version 3.0
Scalar Field
ASCII
DATASET RECTILINEAR_GRID
DIMENSIONS 102 102 1
X_COORDINATES 102 double
0.000000 0.100000 0.200000 0.300000 0.400000 0.500000 0.600000 0.700000 0.800000 0.900000 1.000000 1.100000 1.200000 1.300000 1.400000 1.500000 1.600000 1.700000 1.800000 1.900000 2.000000 2.100000 2.200000 2.300000 2.400000 2.500000 2.600000 2.700000 2.800000 2.900000 3.000000 3.100000 3.200000 3.300000 3.400000 3.500000 3.600000 3.700000 3.800000 3.900000 4.000000 4.100000 4.200000 4.300000 4.400000 4.500000 4.600000 4.700000 4.800000 4.900000 5.000000 5.100000 5.200000 5.300000 5.400000 5.500000 5.600000 5.700000 5.800000 5.900000 6.000000 6.100000 6.200000 6.300000 6.400000 6.500000 6.600000 6.700000 6.800000 6.900000 7.000000 7.100000 7.200000 7.300000 7.400000 7.500000 7.600000 7.700000 7.800000 7.900000 8.000000 8.100000 8.200000 8.300000 8.400000 8.500000 8.600000 8.700000 8.800000 8.900000 9.000000 9.100000 9.200000 9.300000 9.400000 9.500000 9.600000 9.700000 9.800000 9.900000 10.000000 10.100000 
Y_COORDINATES 102 double
0.000000 0.100000 0.200000 0.300000 0.400000 0.500000 0.600000 0.700000 0.800000 0.900000 1.000000 1.100000 1.200000 1.300000 1.400000 1.500000 1.600000 1.700000 1.800000 1.900000 2.000000 2.100000 2.200000 2.300000 2.400000 2.500000 2.600000 2.700000 2.800000 2.900000 3.000000 3.100000 3.200000 3.300000 3.400000 3.500000 3.600000 3.700000 3.800000 3.900000 4.000000 4.100000 4.200000 4.300000 4.400000 4.500000 4.600000 4.700000 4.800000 4.900000 5.000000 5.100000 5.200000 5.300000 5.400000 5.500000 5.600000 5.700000 5.800000 5.900000 6.000000 6.100000 6.200000 6.300000 6.400000 6.500000 6.600000 6.700000 6.800000 6.900000 7.000000 7.100000 7.200000 7.300000 7.400000 7.500000 7.600000 7.700000 7.800000 7.900000 8.000000 8.100000 8.200000 8.300000 8.400000 8.500000 8.600000 8.700000 8.800000 8.900000 9.000000 9.100000 9.200000 9.300000 9.400000 9.500000 9.600000 9.700000 9.800000 9.900000 10.000000 10.100000 
Z_COORDINATES 1 double
0.0
POINT_DATA 10404
SCALARS Pressure double 1
LOOKUP_TABLE default
0.000000e+00
5.962521e-03
5.784913e-03
5.682997e-03
5.664870e-03
5.701622e-03
5.751507e-03
5.773581e-03
5.739288e-03
5.639542e-03
5.485714e-03
5.304546e-03
5.128903e-03
4.987639e-03
4.897902e-03
4.862079e-03
4.869713e-03
4.903053e-03
4.943929e-03
4.979629e-03
5.006125e-03
5.028099e-03
5.056217e-03
5.102905e-03
5.178110e-03
5.286373e-03
5.425973e-03
5.590145e-03
5.769769e-03
5.956479e-03
6.145166e-03
6.335143e-03
6.529766e-03
6.734794e-03
6.956182e-03
7.198058e-03
7.461508e-03
7.744447e-03
8.042476e-03
8.350319e-03
8.663319e-03
8.978523e-03
9.295089e-03
9.613997e-03
9.937273e-03
1.026703e-02
1.060464e-02
1.095023e-02
1.130265e-02
1.165965e-02
1.201842e-02
1.237607e-02
1.273010e-02
1.307859e-02
1.342028e-02
1.375444e-02
1.408064e-02
1.439857e-02
1.470785e-02
1.500789e-02
1.529787e-02
1.557676e-02
1.584338e-02
1.609652e-02
1.633499e-02
1.655777e-02
1.676396e-02
1.695289e-02
1.712404e-02
1.727706e-02
1.741172e-02
1.752790e-02
1.762557e-02
1.770477e-02
1.776563e-02
1.780836e-02
1.783329e-02
1.784083e-02
1.783152e-02
1.780600e-02
1.776505e-02
1.770957e-02
1.764054e-02
1.755911e-02
1.746654e-02
1.736419e-02
1.725359e-02
1.713639e-02
1.701438e-02
1.688949e-02
1.676385e-02
1.663973e-02
1.651962e-02
1.640623e-02
1.630247e-02
1.621148e-02
1.613652e-02
1.608076e-02
1.604673e-02
1.603498e-02
1.604107e-02
0.000000e+00
5.962521e-03
5.797672e-03
5.699826e-03
5.684089e-03
5.735025e-03
5.809115e-03
5.860571e-03
5.854336e-03
5.774909e-03
5.629049e-03
5.441927e-03
5.248209e-03
5.081188e-03
4.963567e-03
4.902641e-03
4.890877e-03
4.910930e-03
4.942867e-03
4.971007e-03
4.988328e-03
4.997471e-03
5.008541e-03
5.034850e-03
5.088205e-03
5.175267e-03
5.295990e-03
5.444379e-03
5.611064e-03
5.786637e-03
5.964609e-03
6.143078e-03
6.324722e-03
6.515322e-03
6.721459e-03
6.948219e-03
7.197632e-03
7.468260e-03
7.755893e-03
8.055009e-03
8.360421e-03
8.668581e-03
8.978194e-03
9.290059e-03
9.606316e-03
9.929420e-03
1.026119e-02
1.060217e-02
1.095147e-02
1.130700e-02
1.166590e-02
1.202515e-02
1.238200e-02
1.273435e-02
1.308084e-02
1.342066e-02
1.375345e-02
1.407896e-02
1.439687e-02
1.470668e-02
1.500758e-02
1.529852e-02
1.557828e-02
1.584554e-02
1.609903e-02
1.633759e-02
1.656023e-02
1.676615e-02
1.695476e-02
1.712561e-02
1.727839e-02
1.741288e-02
1.752898e-02
1.762662e-02
1.770583e-02
1.776671e-02
1.780948e-02
1.783444e-02
1.784199e-02
1.783268e-02
1.780716e-02
1.776620e-02
1.771069e-02
1.764163e-02
1.756018e-02
1.746757e-02
1.736519e-02
1.725457e-02
1.713735e-02
1.701532e-02
1.689042e-02
1.676477e-02
1.664064e-02
1.652053e-02
1.640715e-02
1.630340e-02
1.621241e-02
1.613745e-02
1.608170e-02
1.604768e-02
1.603594e-02
1.604203e-02
1.604107e-02
5.793259e-03
5.708690e-03
5.732832e-03
5.814755e-03
5.907282e-03
5.968563e-03
5.969138e-03
5.898355e-03
5.765619e-03
5.596038e-03
5.421876e-03
5.272702e-03
5.167500e-03
5.111048e-03
5.095178e-03
5.103825e-03
5.119688e-03
5.130173e-03
5.130891e-03
5.126008e-03
5.125804e-03
5.142588e-03
5.186469e-03
5.262334e-03
5.368870e-03
5.499695e-03
5.646002e-03
5.799676e-03
5.955817e-03
6.113905e-03
6.277388e-03
6.452017e-03
6.643621e-03
6.856108e-03
7.090323e-03
7.344010e-03
7.612757e-03
7.891475e-03
8.175877e-03
8.463479e-03
8.753898e-03
9.048461e-03
9.349358e-03
9.658681e-03
9.977648e-03
1.030619e-02
1.064298e-02
1.098575e-02
1.133179e-02
1.167847e-02
1.202354e-02
1.236534e-02
1.270284e-02
1.303548e-02
1.336292e-02
1.368485e-02
1.400079e-02
1.431006e-02
1.461168e-02
1.490450e-02
1.518723e-02
1.545857e-02
1.571730e-02
1.596233e-02
1.619273e-02
1.640775e-02
1.660680e-02
1.678940e-02
1.695519e-02
1.710387e-02
1.723520e-02
1.734905e-02
1.744531e-02
1.752401e-02
1.758523e-02
1.762917e-02
1.765616e-02
1.766661e-02
1.766107e-02
1.764018e-02
1.760471e-02
1.755555e-02
1.749368e-02
1.742020e-02
1.733635e-02
1.724346e-02
1.714299e-02
1.703653e-02
1.692577e-02
1.681257e-02
1.669891e-02
1.658691e-02
1.647885e-02
1.637718e-02
1.628445e-02
1.620332e-02
1.613643e-02
1.608623e-02
1.605459e-02
1.604226e-02
1.604850e-02
1.604754e-02
5.758432e-03
5.761394e-03
5.876442e-03
5.995290e-03
6.067535e-03
6.069301e-03
5.996841e-03
5.865634e-03
5.704396e-03
5.545751e-03
5.416609e-03
5.331396e-03
5.290054e-03
5.280876e-03
5.286545e-03
5.290966e-03
5.284583e-03
5.266780e-03
5.245036e-03
5.231585e-03
5.238938e-03
5.275828e-03
5.344824e-03
5.442213e-03
5.559945e-03
5.688802e-03
5.821579e-03
5.955249e-03
6.091457e-03
6.235396e-03
6.393604e-03
6.571555e-03
6.771882e-03
6.993726e-03
7.233312e-03
7.485379e-03
7.744898e-03
8.008459e-03
8.274943e-03
8.545360e-03
8.822045e-03
9.107575e-03
9.403786e-03
9.711175e-03
1.002879e-02
1.035451e-02
1.068565e-02
1.101947e-02
1.135368e-02
1.168664e-02
1.201735e-02
1.234523e-02
1.267009e-02
1.299171e-02
1.330973e-02
1.362349e-02
1.393201e-02
1.423409e-02
1.452839e-02
1.481353e-02
1.508819e-02
1.535121e-02
1.560159e-02
1.583852e-02
1.606132e-02
1.626943e-02
1.646238e-02
1.663974e-02
1.680112e-02
1.694621e-02
1.707474e-02
1.718650e-02
1.728141e-02
1.735946e-02
1.742075e-02
1.746551e-02
1.749406e-02
1.750685e-02
1.750440e-02
1.748738e-02
1.745655e-02
1.741276e-02
1.735699e-02
1.729031e-02
1.721390e-02
1.712907e-02
1.703720e-02
1.693981e-02
1.683850e-02
1.673503e-02
1.663123e-02
1.652908e-02
1.643065e-02
1.633813e-02
1.625376e-02
1.617983e-02
1.611857e-02
1.607205e-02
1.604202e-02
1.602987e-02
1.603693e-02
1.603596e-02
5.863433e-03
5.937065e-03
6.076838e-03
6.167197e-03
6.173660e-03
6.097875e-03
5.961653e-03
5.799156e-03
5.646124e-03
5.529554e-03
5.461184e-03
5.436597e-03
5.439606e-03
5.449750e-03
5.449991e-03
5.432110e-03
5.398440e-03
5.359948e-03
5.331770e-03
5.327911e-03
5.356907e-03
5.419701e-03
5.510233e-03
5.618276e-03
5.733362e-03
5.848365e-03
5.961564e-03
6.076638e-03
6.200797e-03
6.341906e-03
6.505682e-03
6.693924e-03
6.904250e-03
7.131256e-03
7.368520e-03
7.610687e-03
7.854902e-03
8.101238e-03
8.352100e-03
8.610978e-03
8.881052e-03
9.164114e-03
9.460086e-03
9.767166e-03
1.008244e-02
1.040264e-02
1.072492e-02
1.104720e-02
1.136835e-02
1.168803e-02
1.200630e-02
1.232321e-02
1.263874e-02
1.295251e-02
1.326368e-02
1.357106e-02
1.387317e-02
1.416847e-02
1.445547e-02
1.473284e-02
1.499946e-02
1.525441e-02
1.549699e-02
1.572660e-02
1.594273e-02
1.614490e-02
1.633265e-02
1.650552e-02
1.666308e-02
1.680496e-02
1.693087e-02
1.704061e-02
1.713408e-02
1.721129e-02
1.727239e-02
1.731760e-02
1.734727e-02
1.736185e-02
1.736189e-02
1.734802e-02
1.732100e-02
1.728166e-02
1.723096e-02
1.716994e-02
1.709973e-02
1.702159e-02
1.693684e-02
1.684691e-02
1.675335e-02
1.665776e-02
1.656187e-02
1.646750e-02
1.637652e-02
1.629090e-02
1.621261e-02
1.614365e-02
1.608595e-02
1.604136e-02
1.601157e-02
1.599824e-02
1.600329e-02
1.600231e-02
6.067961e-03
6.179875e-03
6.281747e-03
6.297069e-03
6.219021e-03
6.074334e-03
5.902845e-03
5.745046e-03
5.630471e-03
5.570628e-03
5.558443e-03
5.573725e-03
5.592085e-03
5.593892e-03
5.570349e-03
5.525185e-03
5.472059e-03
5.429079e-03
5.412517e-03
5.431813e-03
5.487324e-03
5.571295e-03
5.671427e-03
5.775606e-03
5.876090e-03
5.971727e-03
6.067683e-03
6.172985e-03
6.296977e-03
6.446029e-03
6.621613e-03
6.820254e-03
7.035160e-03
7.258758e-03
7.485169e-03
7.711790e-03
7.939568e-03
8.172070e-03
8.413841e-03
8.668701e-03
8.938541e-03
9.222896e-03
9.519300e-03
9.824142e-03
1.013367e-02
1.044484e-02
1.075573e-02
1.106562e-02
1.137467e-02
1.168349e-02
1.199262e-02
1.230202e-02
1.261132e-02
1.291957e-02
1.322536e-02
1.352701e-02
1.382282e-02
1.411118e-02
1.439074e-02
1.466041e-02
1.491936e-02
1.516696e-02
1.540268e-02
1.562605e-02
1.583660e-02
1.603380e-02
1.621714e-02
1.638611e-02
1.654025e-02
1.667916e-02
1.680256e-02
1.691027e-02
1.700222e-02
1.707844e-02
1.713909e-02
1.718444e-02
1.721483e-02
1.723072e-02
1.723265e-02
1.722126e-02
1.719728e-02
1.716152e-02
1.711491e-02
1.705845e-02
1.699326e-02
1.692051e-02
1.684148e-02
1.675753e-02
1.667009e-02
1.658070e-02
1.649094e-02
1.640247e-02
1.631702e-02
1.623631e-02
1.616212e-02
1.609619e-02
1.604023e-02
1.599585e-02
1.596465e-02
1.594821e-02
1.594831e-02
1.594733e-02
6.316303e-03
6.429413e-03
6.449977e-03
6.371621e-03
6.217882e-03
6.032904e-03
5.862110e-03
5.739022e-03
5.677087e-03
5.668746e-03
5.691317e-03
5.716922e-03
5.722674e-03
5.697767e-03
5.645652e-03
5.581291e-03
5.525031e-03
5.495431e-03
5.503474e-03
5.549879e-03
5.626105e-03
5.718370e-03
5.813046e-03
5.901440e-03
5.982382e-03
6.061860e-03
6.150201e-03
6.257996e-03
6.392350e-03
6.554741e-03
6.741059e-03
6.943548e-03
7.153763e-03
7.365372e-03
7.575879e-03
7.786822e-03
8.002597e-03
8.228525e-03
8.468911e-03
8.725732e-03
8.998267e-03
9.283591e-03
9.577624e-03
9.876289e-03
1.017643e-02
1.047628e-02
1.077542e-02
1.107441e-02
1.137424e-02
1.167576e-02
1.197925e-02
1.228406e-02
1.258914e-02
1.289296e-02
1.319367e-02
1.348947e-02
1.377868e-02
1.405995e-02
1.433223e-02
1.459475e-02
1.484693e-02
1.508829e-02
1.531836e-02
1.553664e-02
1.574260e-02
1.593563e-02
1.611516e-02
1.628066e-02
1.643164e-02
1.656776e-02
1.668873e-02
1.679442e-02
1.688479e-02
1.695989e-02
1.701991e-02
1.706512e-02
1.709588e-02
1.711263e-02
1.711592e-02
1.710636e-02
1.708467e-02
1.705165e-02
1.700820e-02
1.695528e-02
1.689397e-02
1.682540e-02
1.675078e-02
1.667141e-02
1.658863e-02
1.650388e-02
1.641862e-02
1.633439e-02
1.625272e-02
1.617520e-02
1.610337e-02
1.603878e-02
1.598290e-02
1.593717e-02
1.590296e-02
1.588163e-02
1.587456e-02
1.587357e-02
6.553749e-03
6.636769e-03
6.559926e-03
6.397918e-03
6.198116e-03
6.009625e-03
5.870117e-03
5.796249e-03
5.781853e-03
5.803615e-03
5.831461e-03
5.839631e-03
5.814762e-03
5.758813e-03
5.686630e-03
5.619610e-03
5.577960e-03
5.574210e-03
5.609971e-03
5.676720e-03
5.759965e-03
5.845067e-03
5.922508e-03
5.990804e-03
6.056264e-03
6.129934e-03
6.223184e-03
6.343632e-03
6.492820e-03
6.666289e-03
6.855740e-03
7.052255e-03
7.249320e-03
7.444617e-03
7.640138e-03
7.840825e-03
8.052439e-03
8.279485e-03
8.523878e-03
8.784642e-03
9.058537e-03
9.341235e-03
9.628564e-03
9.917447e-03
1.020632e-02
1.049507e-02
1.078453e-02
1.107591e-02
1.137023e-02
1.166787e-02
1.196836e-02
1.227020e-02
1.257174e-02
1.287109e-02
1.316638e-02
1.345596e-02
1.373849e-02
1.401299e-02
1.427874e-02
1.453518e-02
1.478185e-02
1.501825e-02
1.524386e-02
1.545806e-02
1.566021e-02
1.584967e-02
1.602582e-02
1.618815e-02
1.633621e-02
1.646968e-02
1.658834e-02
1.669207e-02
1.678086e-02
1.685477e-02
1.691400e-02
1.695884e-02
1.698963e-02
1.700682e-02
1.701094e-02
1.700260e-02
1.698251e-02
1.695143e-02
1.691025e-02
1.685990e-02
1.680141e-02
1.673588e-02
1.666446e-02
1.658838e-02
1.650892e-02
1.642739e-02
1.634517e-02
1.626366e-02
1.618426e-02
1.610838e-02
1.603739e-02
1.597264e-02
1.591542e-02
1.586695e-02
1.582838e-02
1.580077e-02
1.578510e-02
1.578411e-02
6.739701e-03
6.774878e-03
6.611999e-03
6.397901e-03
6.190440e-03
6.030389e-03
5.937766e-03
5.908861e-03
5.921282e-03
5.944295e-03
5.950334e-03
5.923806e-03
5.864753e-03
5.786933e-03
5.711637e-03
5.659749e-03
5.644820e-03
5.669350e-03
5.725253e-03
5.797981e-03
5.872506e-03
5.938897e-03
5.995460e-03
6.048572e-03
6.109585e-03
6.190169e-03
6.298061e-03
6.434682e-03
6.595278e-03
6.771258e-03
6.953589e-03
7.135919e-03
7.316327e-03
7.497297e-03
7.684176e-03
7.882896e-03
8.097867e-03
8.330704e-03
8.580068e-03
8.842438e-03
9.113393e-03
9.388876e-03
9.666089e-03
9.943826e-03
1.022229e-02
1.050256e-02
1.078599e-02
1.107357e-02
1.136562e-02
1.166164e-02
1.196030e-02
1.225942e-02
1.255708e-02
1.285145e-02
1.314094e-02
1.342433e-02
1.370070e-02
1.396939e-02
1.422986e-02
1.448161e-02
1.472411e-02
1.495675e-02
1.517886e-02
1.538973e-02
1.558865e-02
1.577497e-02
1.594809e-02
1.610754e-02
1.625293e-02
1.638397e-02
1.650048e-02
1.660235e-02
1.668958e-02
1.676226e-02
1.682057e-02
1.686480e-02
1.689532e-02
1.691255e-02
1.691701e-02
1.690932e-02
1.689015e-02
1.686027e-02
1.682052e-02
1.677183e-02
1.671520e-02
1.665166e-02
1.658232e-02
1.650836e-02
1.643096e-02
1.635138e-02
1.627088e-02
1.619074e-02
1.611224e-02
1.603663e-02
1.596515e-02
1.589896e-02
1.583918e-02
1.578683e-02
1.574283e-02
1.570797e-02
1.568287e-02
1.568188e-02
6.855564e-03
6.841819e-03
6.624562e-03
6.398988e-03
6.217739e-03
6.103361e-03
6.054720e-03
6.051177e-03
6.062552e-03
6.060692e-03
6.028644e-03
5.964838e-03
5.881652e-03
5.799549e-03
5.739204e-03
5.714427e-03
5.728176e-03
5.772782e-03
5.833938e-03
5.896725e-03
5.951269e-03
5.995995e-03
6.037445e-03
6.087076e-03
6.156549e-03
6.253357e-03
6.378491e-03
6.526759e-03
6.689316e-03
6.857216e-03
7.024543e-03
7.190032e-03
7.356813e-03
7.530644e-03
7.717503e-03
7.921486e-03
8.143685e-03
8.382236e-03
8.633281e-03
8.892355e-03
9.155653e-03
9.420820e-03
9.687146e-03
9.955252e-03
1.022648e-02
1.050223e-02
1.078341e-02
1.107015e-02
1.136176e-02
1.165685e-02
1.195350e-02
1.224927e-02
1.254241e-02
1.283147e-02
1.311537e-02
1.339331e-02
1.366469e-02
1.392899e-02
1.418566e-02
1.443410e-02
1.467360e-02
1.490340e-02
1.512273e-02
1.533081e-02
1.552694e-02
1.571049e-02
1.588094e-02
1.603785e-02
1.618087e-02
1.630975e-02
1.642430e-02
1.652444e-02
1.661018e-02
1.668159e-02
1.673886e-02
1.678228e-02
1.681223e-02
1.682912e-02
1.683347e-02
1.682587e-02
1.680700e-02
1.677762e-02
1.673855e-02
1.669069e-02
1.663500e-02
1.657248e-02
1.650421e-02
1.643128e-02
1.635483e-02
1.627603e-02
1.619604e-02
1.611606e-02
1.603724e-02
1.596071e-02
1.588757e-02
1.581885e-02
1.575549e-02
1.569834e-02
1.564812e-02
1.560539e-02
1.557049e-02
1.556951e-02
6.905941e-03
6.856864e-03
6.625102e-03
6.424006e-03
6.288039e-03
6.217974e-03
6.194966e-03
6.189963e-03
6.175117e-03
6.133054e-03
6.061311e-03
5.971203e-03
5.882229e-03
5.814369e-03
5.781045e-03
5.785090e-03
5.818883e-03
5.868288e-03
5.918668e-03
5.960549e-03
5.992821e-03
6.022459e-03
6.061143e-03
6.120396e-03
6.207265e-03
6.322056e-03
6.458905e-03
6.608590e-03
6.762260e-03
6.914559e-03
7.065066e-03
7.217730e-03
7.378824e-03
7.554373e-03
7.748077e-03
7.960367e-03
8.188711e-03
8.428818e-03
8.676153e-03
8.927196e-03
9.180125e-03
9.434831e-03
9.692437e-03
9.954584e-03
1.022273e-02
1.049765e-02
1.077923e-02
1.106649e-02
1.135785e-02
1.165142e-02
1.194519e-02
1.223690e-02
1.252528e-02
1.280944e-02
1.308871e-02
1.336259e-02
1.363055e-02
1.389201e-02
1.414626e-02
1.439249e-02
1.462985e-02
1.485746e-02
1.507452e-02
1.528026e-02
1.547403e-02
1.565526e-02
1.582345e-02
1.597822e-02
1.611922e-02
1.624622e-02
1.635905e-02
1.645760e-02
1.654190e-02
1.661201e-02
1.666813e-02
1.671057e-02
1.673967e-02
1.675587e-02
1.675968e-02
1.675168e-02
1.673255e-02
1.670303e-02
1.666393e-02
1.661613e-02
1.656055e-02
1.649817e-02
1.643002e-02
1.635713e-02
1.628059e-02
1.620149e-02
1.612094e-02
1.604003e-02
1.595981e-02
1.588132e-02
1.580554e-02
1.573336e-02
1.566559e-02
1.560293e-02
1.554593e-02
1.549498e-02
1.545022e-02
1.544924e-02
6.913246e-03
6.850987e-03
6.639741e-03
6.483842e-03
6.393189e-03
6.350158e-03
6.326745e-03
6.295732e-03
6.239941e-03
6.156739e-03
6.057002e-03
5.959624e-03
5.883906e-03
5.842602e-03
5.837958e-03
5.861935e-03
5.900222e-03
5.938319e-03
5.967209e-03
5.986467e-03
6.003767e-03
6.031256e-03
6.080478e-03
6.157975e-03
6.263268e-03
6.389638e-03
6.527298e-03
6.667362e-03
6.805000e-03
6.940681e-03
7.079282e-03
7.227708e-03
7.392116e-03
7.575839e-03
7.778620e-03
7.997198e-03
8.226773e-03
8.462675e-03
8.701643e-03
8.942388e-03
9.185430e-03
9.432444e-03
9.685410e-03
9.945873e-03
1.021448e-02
1.049084e-02
1.077368e-02
1.106117e-02
1.135132e-02
1.164229e-02
1.193246e-02
1.222002e-02
1.250427e-02
1.278472e-02
1.306095e-02
1.333245e-02
1.359858e-02
1.385853e-02
1.411138e-02
1.435618e-02
1.459199e-02
1.481792e-02
1.503318e-02
1.523707e-02
1.542898e-02
1.560837e-02
1.577480e-02
1.592785e-02
1.606722e-02
1.619265e-02
1.630397e-02
1.640108e-02
1.648401e-02
1.655282e-02
1.660770e-02
1.664897e-02
1.667700e-02
1.669220e-02
1.669508e-02
1.668624e-02
1.666633e-02
1.663609e-02
1.659632e-02
1.654786e-02
1.649163e-02
1.642857e-02
1.635965e-02
1.628589e-02
1.620832e-02
1.612796e-02
1.604587e-02
1.596305e-02
1.588049e-02
1.579913e-02
1.571985e-02
1.564343e-02
1.557057e-02
1.550186e-02
1.543771e-02
1.537838e-02
1.532389e-02
1.532292e-02
6.907801e-03
6.855157e-03
6.684629e-03
6.574947e-03
6.513001e-03
6.471291e-03
6.423011e-03
6.351292e-03
6.253743e-03
6.141386e-03
6.033089e-03
5.947888e-03
5.898009e-03
5.884981e-03
5.900000e-03
5.928167e-03
5.954755e-03
5.970991e-03
5.977107e-03
5.981617e-03
5.997372e-03
6.036188e-03
6.104311e-03
6.200456e-03
6.317020e-03
6.443504e-03
6.570811e-03
6.694486e-03
6.815809e-03
6.940583e-03
7.076402e-03
7.229652e-03
7.403390e-03
7.596741e-03
7.805739e-03
8.025059e-03
8.249852e-03
8.477056e-03
8.705861e-03
8.937387e-03
9.173845e-03
9.417566e-03
9.670205e-03
9.932298e-03
1.020321e-02
1.048137e-02
1.076473e-02
1.105119e-02
1.133892e-02
1.162661e-02
1.191327e-02
1.219754e-02
1.247908e-02
1.275757e-02
1.303251e-02
1.330319e-02
1.356873e-02
1.382810e-02
1.408025e-02
1.432418e-02
1.455893e-02
1.478369e-02
1.499770e-02
1.520031e-02
1.539094e-02
1.556907e-02
1.573423e-02
1.588603e-02
1.602414e-02
1.614830e-02
1.625834e-02
1.635418e-02
1.643581e-02
1.650334e-02
1.655693e-02
1.659691e-02
1.662365e-02
1.663759e-02
1.663921e-02
1.662912e-02
1.660796e-02
1.657647e-02
1.653542e-02
1.648565e-02
1.642806e-02
1.636354e-02
1.629306e-02
1.621759e-02
1.613812e-02
1.605563e-02
1.597111e-02
1.588552e-02
1.579978e-02
1.571474e-02
1.563121e-02
1.554989e-02
1.547140e-02
1.539622e-02
1.532469e-02
1.525697e-02
1.519301e-02
1.519204e-02
6.916871e-03
6.890246e-03
6.761699e-03
6.681871e-03
6.622770e-03
6.557439e-03
6.468982e-03
6.355218e-03
6.227603e-03
6.105492e-03
6.008225e-03
5.947962e-03
5.925730e-03
5.931902e-03
5.950693e-03
5.966738e-03
5.971118e-03
5.964461e-03
5.956062e-03
5.959596e-03
5.987390e-03
6.045656e-03
6.132547e-03
6.239556e-03
6.355471e-03
6.470838e-03
6.581395e-03
6.689066e-03
6.800478e-03
6.923895e-03
7.065979e-03
7.229611e-03
7.413400e-03
7.612769e-03
7.821916e-03
8.035817e-03
8.251564e-03
8.468760e-03
8.689045e-03
8.915112e-03
9.149612e-03
9.394306e-03
9.649640e-03
9.914759e-03
1.018785e-02
1.046668e-02
1.074904e-02
1.103318e-02
1.131792e-02
1.160262e-02
1.188686e-02
1.216947e-02
1.245016e-02
1.272846e-02
1.300360e-02
1.327461e-02
1.354038e-02
1.379980e-02
1.405177e-02
1.429533e-02
1.452960e-02
1.475379e-02
1.496721e-02
1.516920e-02
1.535919e-02
1.553662e-02
1.570104e-02
1.585203e-02
1.598926e-02
1.611247e-02
1.622148e-02
1.631622e-02
1.639669e-02
1.646297e-02
1.651525e-02
1.655385e-02
1.657915e-02
1.659158e-02
1.659164e-02
1.657993e-02
1.655709e-02
1.652384e-02
1.648096e-02
1.642928e-02
1.636965e-02
1.630298e-02
1.623020e-02
1.615225e-02
1.607009e-02
1.598467e-02
1.589694e-02
1.580779e-02
1.571810e-02
1.562867e-02
1.554025e-02
1.545347e-02
1.536888e-02
1.528693e-02
1.520788e-02
1.513184e-02
1.505873e-02
1.505777e-02
6.956193e-03
6.961503e-03
6.859560e-03
6.783277e-03
6.701210e-03
6.595841e-03
6.464791e-03
6.319847e-03
6.181094e-03
6.068666e-03
5.995228e-03
5.961775e-03
5.958093e-03
5.967449e-03
5.973540e-03
5.966872e-03
5.948075e-03
5.926970e-03
5.918009e-03
5.934170e-03
5.981885e-03
6.059001e-03
6.156344e-03
6.261929e-03
6.365937e-03
6.464143e-03
6.558934e-03
6.657602e-03
6.768989e-03
6.900019e-03
7.053452e-03
7.227487e-03
7.417044e-03
7.615936e-03
7.819007e-03
8.023499e-03
8.229377e-03
8.438728e-03
8.654642e-03
8.880025e-03
9.116712e-03
9.365056e-03
9.624015e-03
9.891577e-03
1.016535e-02
1.044312e-02
1.072321e-02
1.100460e-02
1.128686e-02
1.156988e-02
1.185351e-02
1.213637e-02
1.241796e-02
1.269746e-02
1.297381e-02
1.324586e-02
1.351243e-02
1.377239e-02
1.402474e-02
1.426856e-02
1.450303e-02
1.472739e-02
1.494094e-02
1.514301e-02
1.533298e-02
1.551031e-02
1.567450e-02
1.582514e-02
1.596189e-02
1.608450e-02
1.619278e-02
1.628665e-02
1.636609e-02
1.643121e-02
1.648218e-02
1.651932e-02
1.654304e-02
1.655376e-02
1.655199e-02
1.653832e-02
1.651340e-02
1.647794e-02
1.643272e-02
1.637855e-02
1.631628e-02
1.624681e-02
1.617104e-02
1.608991e-02
1.600434e-02
1.591526e-02
1.582358e-02
1.573016e-02
1.563584e-02
1.554139e-02
1.544749e-02
1.535475e-02
1.526370e-02
1.517472e-02
1.508807e-02
1.500383e-02
1.492190e-02
1.492095e-02
7.026310e-03
7.058700e-03
6.958447e-03
6.858967e-03
6.736227e-03
6.587036e-03
6.423100e-03
6.265138e-03
6.134330e-03
6.044332e-03
5.996668e-03
5.980965e-03
5.979731e-03
5.975619e-03
5.958234e-03
5.927786e-03
5.894261e-03
5.872695e-03
5.876720e-03
5.913155e-03
5.979786e-03
6.066987e-03
6.162189e-03
6.255088e-03
6.341468e-03
6.424028e-03
6.510563e-03
6.610369e-03
6.730574e-03
6.873821e-03
7.037963e-03
7.217507e-03
7.405976e-03
7.598151e-03
7.791454e-03
7.986193e-03
8.184848e-03
8.390833e-03
8.607234e-03
8.835901e-03
9.077072e-03
9.329518e-03
9.591065e-03
9.859237e-03
1.013184e-02
1.040734e-02
1.068490e-02
1.096431e-02
1.124561e-02
1.152888e-02
1.181384e-02
1.209862e-02
1.238235e-02
1.266392e-02
1.294210e-02
1.321569e-02
1.348356e-02
1.374467e-02
1.399809e-02
1.424294e-02
1.447842e-02
1.470374e-02
1.491816e-02
1.512099e-02
1.531159e-02
1.548940e-02
1.565391e-02
1.580470e-02
1.594143e-02
1.606382e-02
1.617168e-02
1.626492e-02
1.634351e-02
1.640756e-02
1.645724e-02
1.649288e-02
1.651491e-02
1.652374e-02
1.651991e-02
1.650398e-02
1.647661e-02
1.643852e-02
1.639048e-02
1.633331e-02
1.626784e-02
1.619496e-02
1.611558e-02
1.603061e-02
1.594096e-02
1.584754e-02
1.575124e-02
1.565290e-02
1.555331e-02
1.545324e-02
1.535335e-02
1.525423e-02
1.515637e-02
1.506017e-02
1.496585e-02
1.487354e-02
1.478314e-02
1.478219e-02
7.114179e-03
7.161058e-03
7.037083e-03
6.895573e-03
6.727051e-03
6.542556e-03
6.363080e-03
6.210818e-03
6.100706e-03
6.035271e-03
6.004486e-03
5.990449e-03
5.974864e-03
5.946273e-03
5.904132e-03
5.858226e-03
5.823898e-03
5.815330e-03
5.839789e-03
5.895168e-03
5.971587e-03
6.056032e-03
6.137826e-03
6.212596e-03
6.283316e-03
6.358164e-03
6.446777e-03
6.556411e-03
6.689569e-03
6.843771e-03
7.013166e-03
7.191051e-03
7.372206e-03
7.554274e-03
7.737920e-03
7.925994e-03
8.122187e-03
8.329702e-03
8.550341e-03
8.784184e-03
9.029807e-03
9.284884e-03
9.546899e-03
9.813742e-03
1.008405e-02
1.035725e-02
1.063332e-02
1.091247e-02
1.119484e-02
1.148025e-02
1.176807e-02
1.205586e-02
1.234244e-02
1.262658e-02
1.290705e-02
1.318272e-02
1.345255e-02
1.371558e-02
1.397091e-02
1.421766e-02
1.445497e-02
1.468204e-02
1.489808e-02
1.510238e-02
1.529428e-02
1.547320e-02
1.563863e-02
1.579012e-02
1.592731e-02
1.604989e-02
1.615767e-02
1.625053e-02
1.632846e-02
1.639155e-02
1.644000e-02
1.647412e-02
1.649437e-02
1.650118e-02
1.649506e-02
1.647660e-02
1.644647e-02
1.640537e-02
1.635408e-02
1.629341e-02
1.622423e-02
1.614739e-02
1.606381e-02
1.597439e-02
1.588003e-02
1.578164e-02
1.568008e-02
1.557619e-02
1.547076e-02
1.536453e-02
1.525816e-02
1.515225e-02
1.504729e-02
1.494366e-02
1.484165e-02
1.474137e-02
1.464278e-02
1.464185e-02
7.198731e-03
7.244716e-03
7.079023e-03
6.889371e-03
6.682617e-03
6.479525e-03
6.303051e-03
6.169467e-03
6.082618e-03
6.033263e-03
6.003484e-03
5.974270e-03
5.933100e-03
5.878484e-03
5.819714e-03
5.772175e-03
5.750443e-03
5.762212e-03
5.805570e-03
5.870509e-03
5.943684e-03
6.014098e-03
6.077257e-03
6.136228e-03
6.199566e-03
6.277180e-03
6.376402e-03
6.499561e-03
6.643837e-03
6.803028e-03
6.970230e-03
7.140252e-03
7.310990e-03
7.483487e-03
7.660967e-03
7.847378e-03
8.046004e-03
8.258557e-03
8.484911e-03
8.723423e-03
8.971617e-03
9.226955e-03
9.487456e-03
9.751987e-03
1.002023e-02
1.029241e-02
1.056889e-02
1.084985e-02
1.113510e-02
1.142399e-02
1.171556e-02
1.200691e-02
1.229678e-02
1.258393e-02
1.286725e-02
1.314572e-02
1.341836e-02
1.368421e-02
1.394235e-02
1.419186e-02
1.443185e-02
1.466146e-02
1.487989e-02
1.508641e-02
1.528034e-02
1.546108e-02
1.562807e-02
1.578083e-02
1.591896e-02
1.604216e-02
1.615019e-02
1.624295e-02
1.632043e-02
1.638272e-02
1.643001e-02
1.646264e-02
1.648106e-02
1.648573e-02
1.647716e-02
1.645594e-02
1.642274e-02
1.637828e-02
1.632335e-02
1.625876e-02
1.618536e-02
1.610405e-02
1.601571e-02
1.592126e-02
1.582160e-02
1.571762e-02
1.561021e-02
1.550019e-02
1.538835e-02
1.527546e-02
1.516216e-02
1.504908e-02
1.493671e-02
1.482549e-02
1.471571e-02
1.460753e-02
1.450100e-02
1.450009e-02
7.258062e-03
7.290056e-03
7.076652e-03
6.845785e-03
6.617170e-03
6.414150e-03
6.254213e-03
6.142656e-03
6.071326e-03
6.022648e-03
5.977157e-03
5.921378e-03
5.852811e-03
5.780083e-03
5.718430e-03
5.682685e-03
5.680923e-03
5.711457e-03
5.764213e-03
5.825559e-03
5.884196e-03
5.935494e-03
5.982614e-03
6.034329e-03
6.100871e-03
6.189637e-03
6.302779e-03
6.437123e-03
6.586103e-03
6.742592e-03
6.901424e-03
7.060745e-03
7.221986e-03
7.388759e-03
7.565276e-03
7.754891e-03
7.959203e-03
8.177856e-03
8.408961e-03
8.649880e-03
8.898068e-03
9.151687e-03
9.409861e-03
9.672562e-03
9.940254e-03
1.021346e-02
1.049240e-02
1.077686e-02
1.106614e-02
1.135921e-02
1.165489e-02
1.195016e-02
1.224374e-02
1.253451e-02
1.282147e-02
1.310362e-02
1.337999e-02
1.364960e-02
1.391146e-02
1.416461e-02
1.440812e-02
1.464113e-02
1.486281e-02
1.507238e-02
1.526913e-02
1.545239e-02
1.562159e-02
1.577619e-02
1.591578e-02
1.604001e-02
1.614866e-02
1.624164e-02
1.631891e-02
1.638059e-02
1.642686e-02
1.645805e-02
1.647466e-02
1.647711e-02
1.646595e-02
1.644176e-02
1.640524e-02
1.635710e-02
1.629815e-02
1.622922e-02
1.615116e-02
1.606487e-02
1.597125e-02
1.587122e-02
1.576569e-02
1.565556e-02
1.554172e-02
1.542501e-02
1.530624e-02
1.518618e-02
1.506552e-02
1.494488e-02
1.482481e-02
1.470579e-02
1.458814e-02
1.447210e-02
1.435778e-02
1.435690e-02
7.275835e-03
7.286728e-03
7.031985e-03
6.776193e-03
6.544781e-03
6.356233e-03
6.217304e-03
6.121103e-03
6.050643e-03
5.986235e-03
5.913575e-03
5.829167e-03
5.740903e-03
5.663775e-03
5.612807e-03
5.596446e-03
5.613248e-03
5.653096e-03
5.702064e-03
5.748502e-03
5.787585e-03
5.822530e-03
5.862339e-03
5.917467e-03
5.995487e-03
6.098407e-03
6.222712e-03
6.361449e-03
6.507232e-03
6.654870e-03
6.802726e-03
6.952605e-03
7.108508e-03
7.274925e-03
7.455295e-03
7.651107e-03
7.861766e-03
8.085125e-03
8.318378e-03
8.558967e-03
8.805205e-03
9.056480e-03
9.313062e-03
9.575656e-03
9.844933e-03
1.012117e-02
1.040409e-02
1.069297e-02
1.098675e-02
1.128424e-02
1.158428e-02
1.188391e-02
1.218183e-02
1.247704e-02
1.276855e-02
1.305535e-02
1.333641e-02
1.361069e-02
1.387719e-02
1.413490e-02
1.438289e-02
1.462023e-02
1.484606e-02
1.505954e-02
1.525990e-02
1.544643e-02
1.561847e-02
1.577549e-02
1.591704e-02
1.604278e-02
1.615249e-02
1.624604e-02
1.632343e-02
1.638475e-02
1.643018e-02
1.646003e-02
1.647483e-02
1.647502e-02
1.646116e-02
1.643383e-02
1.639375e-02
1.634166e-02
1.627836e-02
1.620469e-02
1.612154e-02
1.602981e-02
1.593040e-02
1.582427e-02
1.571232e-02
1.559548e-02
1.547467e-02
1.535073e-02
1.522451e-02
1.509680e-02
1.496833e-02
1.483976e-02
1.471168e-02
1.458460e-02
1.445895e-02
1.433501e-02
1.421298e-02
1.421211e-02
7.245117e-03
7.235215e-03
6.954468e-03
6.693302e-03
6.474516e-03
6.306257e-03
6.182986e-03
6.088461e-03
6.002914e-03
5.911296e-03
5.809132e-03
5.703552e-03
5.609286e-03
5.541570e-03
5.509275e-03
5.511265e-03
5.537408e-03
5.573448e-03
5.607289e-03
5.633794e-03
5.656152e-03
5.683585e-03
5.726820e-03
5.793573e-03
5.885854e-03
5.999855e-03
6.128233e-03
6.263297e-03
6.399762e-03
6.536143e-03
6.674575e-03
6.819435e-03
6.975497e-03
7.146309e-03
7.333269e-03
7.535558e-03
7.750776e-03
7.975945e-03
8.208491e-03
8.446874e-03
8.690739e-03
8.940640e-03
9.197519e-03
9.462181e-03
9.734939e-03
1.001551e-02
1.030312e-02
1.059668e-02
1.089505e-02
1.119714e-02
1.150194e-02
1.180659e-02
1.210970e-02
1.241028e-02
1.270731e-02
1.299971e-02
1.328641e-02
1.356635e-02
1.383848e-02
1.410177e-02
1.435523e-02
1.459789e-02
1.482879e-02
1.504704e-02
1.525180e-02
1.544229e-02
1.561785e-02
1.577791e-02
1.592201e-02
1.604980e-02
1.616106e-02
1.625564e-02
1.633351e-02
1.639476e-02
1.643956e-02
1.646820e-02
1.648126e-02
1.647918e-02
1.646253e-02
1.643193e-02
1.638810e-02
1.633179e-02
1.626383e-02
1.618508e-02
1.609643e-02
1.599881e-02
1.589314e-02
1.578039e-02
1.566151e-02
1.553743e-02
1.540911e-02
1.527742e-02
1.514324e-02
1.500741e-02
1.487067e-02
1.473376e-02
1.459731e-02
1.446191e-02
1.432803e-02
1.419607e-02
1.406630e-02
1.406545e-02
7.168920e-03
7.144969e-03
6.856821e-03
6.606642e-03
6.407663e-03
6.255748e-03