# vtk DataFile Version 3.0
Scalar Field
ASCII
DATASET RECTILINEAR_GRID
DIMENSIONS 102 102 1
X_COORDINATES 102 double
0.000000 0.100000 0.200000 0.300000 0.400000 0.500000 0.600000 0.700000 0.800000 0.900000 1.000000 1.100000 1.200000 1.300000 1.400000 1.500000 1.600000 1.700000 1.800000 1.900000 2.000000 2.100000 2.200000 2.300000 2.400000 2.500000 2.600000 2.700000 2.800000 2.900000 3.000000 3.100000 3.200000 3.300000 3.400000 3.500000 3.600000 3.700000 3.800000 3.900000 4.000000 4.100000 4.200000 4.300000 4.400000 4.500000 4.600000 4.700000 4.800000 4.900000 5.000000 5.100000 5.200000 5.300000 5.400000 5.500000 5.600000 5.700000 5.800000 5.900000 6.000000 6.100000 6.200000 6.300000 6.400000 6.500000 6.600000 6.700000 6.800000 6.900000 7.000000 7.100000 7.200000 7.300000 7.400000 7.500000 7.600000 7.700000 7.800000 7.900000 8.000000 8.100000 8.200000 8.300000 8.400000 8.500000 8.600000 8.700000 8.800000 8.900000 9.000000 9.100000 9.200000 9.300000 9.400000 9.500000 9.600000 9.700000 9.800000 9.900000 10.000000 10.100000 
Y_COORDINATES 102 double
0.000000 0.100000 0.200000 0.300000 0.400000 0.500000 0.600000 0.700000 0.800000 0.900000 1.000000 1.100000 1.200000 1.300000 1.400000 1.500000 1.600000 1.700000 1.800000 1.900000 2.000000 2.100000 2.200000 2.300000 2.400000 2.500000 2.600000 2.700000 2.800000 2.900000 3.000000 3.100000 3.200000 3.300000 3.400000 3.500000 3.600000 3.700000 3.800000 3.900000 4.000000 4.100000 4.200000 4.300000 4.400000 4.500000 4.600000 4.700000 4.800000 4.900000 5.000000 5.100000 5.200000 5.300000 5.400000 5.500000 5.600000 5.700000 5.800000 5.900000 6.000000 6.100000 6.200000 6.300000 6.400000 6.500000 6.600000 6.700000 6.800000 6.900000 7.000000 7.100000 7.200000 7.300000 7.400000 7.500000 7.600000 7.700000 7.800000 7.900000 8.000000 8.100000 8.200000 8.300000 8.400000 8.500000 8.600000 8.700000 8.800000 8.900000 9.000000 9.100000 9.200000 9.300000 9.400000 9.500000 9.600000 9.700000 9.800000 9.900000 10.000000 10.100000 
Z_COORDINATES 1 double
0.0
POINT_DATA 10404
SCALARS Pressure double 1
LOOKUP_TABLE default
0.000000e+00
-1.529485e-02
-1.531603e-02
-1.536553e-02
-1.542657e-02
-1.548705e-02
-1.553864e-02
-1.557592e-02
-1.559556e-02
-1.559563e-02
-1.557518e-02
-1.553384e-02
-1.547164e-02
-1.538885e-02
-1.528582e-02
-1.516299e-02
-1.502079e-02
-1.485965e-02
-1.468001e-02
-1.448227e-02
-1.426686e-02
-1.403419e-02
-1.378468e-02
-1.351875e-02
-1.323683e-02
-1.293937e-02
-1.262679e-02
-1.229954e-02
-1.195805e-02
-1.160279e-02
-1.123417e-02
-1.085265e-02
-1.045867e-02
-1.005269e-02
-9.635186e-03
-9.206634e-03
-8.767541e-03
-8.318434e-03
-7.859862e-03
-7.392399e-03
-6.916639e-03
-6.433200e-03
-5.942712e-03
-5.445822e-03
-4.943183e-03
-4.435456e-03
-3.923304e-03
-3.407391e-03
-2.888384e-03
-2.366949e-03
-1.843756e-03
-1.319483e-03
-7.948159e-04
-2.704442e-04
2.529395e-04
7.746396e-04
1.293957e-03
1.810189e-03
2.322633e-03
2.830588e-03
3.333353e-03
3.830236e-03
4.320548e-03
4.803607e-03
5.278741e-03
5.745286e-03
6.202587e-03
6.650000e-03
7.086890e-03
7.512633e-03
7.926621e-03
8.328253e-03
8.716946e-03
9.092129e-03
9.453246e-03
9.799755e-03
1.013113e-02
1.044687e-02
1.074648e-02
1.102948e-02
1.129541e-02
1.154381e-02
1.177422e-02
1.198619e-02
1.217926e-02
1.235295e-02
1.250678e-02
1.264025e-02
1.275286e-02
1.284413e-02
1.291363e-02
1.296107e-02
1.298638e-02
1.298992e-02
1.297269e-02
1.293663e-02
1.288515e-02
1.282376e-02
1.276091e-02
1.270879e-02
1.268301e-02
0.000000e+00
-1.529485e-02
-1.528517e-02
-1.530650e-02
-1.535618e-02
-1.541743e-02
-1.547814e-02
-1.552995e-02
-1.556745e-02
-1.558728e-02
-1.558752e-02
-1.556720e-02
-1.552595e-02
-1.546380e-02
-1.538102e-02
-1.527797e-02
-1.515509e-02
-1.501281e-02
-1.485160e-02
-1.467189e-02
-1.447410e-02
-1.425867e-02
-1.402601e-02
-1.377656e-02
-1.351075e-02
-1.322900e-02
-1.293175e-02
-1.261942e-02
-1.229246e-02
-1.195129e-02
-1.159633e-02
-1.122801e-02
-1.084678e-02
-1.045306e-02
-1.004732e-02
-9.630017e-03
-9.201637e-03
-8.762692e-03
-8.313715e-03
-7.855263e-03
-7.387919e-03
-6.912285e-03
-6.428982e-03
-5.938648e-03
-5.441927e-03
-4.939473e-03
-4.431943e-03
-3.919993e-03
-3.404285e-03
-2.885479e-03
-2.364238e-03
-1.841231e-03
-1.317134e-03
-7.926346e-04
-2.684253e-04
2.547990e-04
7.763395e-04
1.295494e-03
1.811559e-03
2.323829e-03
2.831603e-03
3.334183e-03
3.830874e-03
4.320989e-03
4.803851e-03
5.278786e-03
5.745131e-03
6.202234e-03
6.649450e-03
7.086144e-03
7.511695e-03
7.925491e-03
8.326936e-03
8.715444e-03
9.090444e-03
9.451382e-03
9.797717e-03
1.012893e-02
1.044450e-02
1.074396e-02
1.102682e-02
1.129260e-02
1.154087e-02
1.177116e-02
1.198301e-02
1.217597e-02
1.234956e-02
1.250330e-02
1.263668e-02
1.274921e-02
1.284040e-02
1.290982e-02
1.295718e-02
1.298243e-02
1.298592e-02
1.296863e-02
1.293253e-02
1.288103e-02
1.281963e-02
1.275678e-02
1.270466e-02
1.267888e-02
1.268301e-02
-1.526462e-02
-1.525510e-02
-1.527843e-02
-1.531945e-02
-1.536769e-02
-1.541485e-02
-1.545445e-02
-1.548178e-02
-1.549364e-02
-1.548793e-02
-1.546341e-02
-1.541941e-02
-1.535566e-02
-1.527217e-02
-1.516910e-02
-1.504671e-02
-1.490534e-02
-1.474535e-02
-1.456712e-02
-1.437105e-02
-1.415754e-02
-1.392698e-02
-1.367981e-02
-1.341642e-02
-1.313723e-02
-1.284266e-02
-1.253311e-02
-1.220900e-02
-1.187074e-02
-1.151874e-02
-1.115343e-02
-1.077522e-02
-1.038456e-02
-9.981911e-03
-9.567736e-03
-9.142534e-03
-8.706826e-03
-8.261155e-03
-7.806087e-03
-7.342208e-03
-6.870122e-03
-6.390448e-03
-5.903813e-03
-5.410854e-03
-4.912209e-03
-4.408523e-03
-3.900440e-03
-3.388612e-03
-2.873690e-03
-2.356336e-03
-1.837215e-03
-1.317003e-03
-7.963910e-04
-2.760744e-04
2.432519e-04
7.608895e-04
1.276139e-03
1.788299e-03
2.296672e-03
2.800562e-03
3.299278e-03
3.792134e-03
4.278450e-03
4.757553e-03
5.228777e-03
5.691464e-03
6.144964e-03
6.588639e-03
7.021856e-03
7.444000e-03
7.854462e-03
8.252650e-03
8.637982e-03
9.009894e-03
9.367833e-03
9.711266e-03
1.003967e-02
1.035256e-02
1.064942e-02
1.092981e-02
1.119324e-02
1.143928e-02
1.166749e-02
1.187742e-02
1.206865e-02
1.224075e-02
1.239331e-02
1.252593e-02
1.263825e-02
1.272995e-02
1.280083e-02
1.285086e-02
1.288030e-02
1.288983e-02
1.288071e-02
1.285506e-02
1.281617e-02
1.276883e-02
1.271965e-02
1.267711e-02
1.265093e-02
1.265504e-02
-1.521086e-02
-1.520151e-02
-1.523518e-02
-1.527688e-02
-1.532036e-02
-1.536040e-02
-1.539240e-02
-1.541269e-02
-1.541855e-02
-1.540804e-02
-1.537988e-02
-1.533330e-02
-1.526787e-02
-1.518344e-02
-1.508003e-02
-1.495780e-02
-1.481699e-02
-1.465788e-02
-1.448082e-02
-1.428615e-02
-1.407425e-02
-1.384550e-02
-1.360028e-02
-1.333898e-02
-1.306200e-02
-1.276972e-02
-1.246253e-02
-1.214082e-02
-1.180499e-02
-1.145545e-02
-1.109260e-02
-1.071687e-02
-1.032871e-02
-9.928577e-03
-9.516957e-03
-9.094360e-03
-8.661316e-03
-8.218379e-03
-7.766120e-03
-7.305127e-03
-6.836002e-03
-6.359353e-03
-5.875800e-03
-5.385963e-03
-4.890470e-03
-4.389951e-03
-3.885044e-03
-3.376390e-03
-2.864642e-03
-2.350459e-03
-1.834508e-03
-1.317468e-03
-8.000367e-04
-2.829122e-04
2.332107e-04
7.476362e-04
1.259668e-03
1.768612e-03
2.273774e-03
2.774468e-03
3.270008e-03
3.759715e-03
4.242914e-03
4.718936e-03
5.187120e-03
5.646811e-03
6.097363e-03
6.538138e-03
6.968511e-03
7.387866e-03
7.795602e-03
8.191129e-03
8.573870e-03
8.943263e-03
9.298764e-03
9.639841e-03
9.965981e-03
1.027669e-02
1.057147e-02
1.084987e-02
1.111144e-02
1.135572e-02
1.158230e-02
1.179076e-02
1.198070e-02
1.215175e-02
1.230355e-02
1.243579e-02
1.254821e-02
1.264062e-02
1.271299e-02
1.276545e-02
1.279843e-02
1.281273e-02
1.280966e-02
1.279120e-02
1.276015e-02
1.272027e-02
1.267629e-02
1.263359e-02
1.259754e-02
1.260165e-02
-1.514684e-02
-1.513766e-02
-1.518526e-02
-1.523270e-02
-1.527661e-02
-1.531406e-02
-1.534205e-02
-1.535796e-02
-1.535968e-02
-1.534559e-02
-1.531453e-02
-1.526573e-02
-1.519874e-02
-1.511333e-02
-1.500945e-02
-1.488717e-02
-1.474667e-02
-1.458820e-02
-1.441204e-02
-1.421851e-02
-1.400794e-02
-1.378069e-02
-1.353712e-02
-1.327757e-02
-1.300242e-02
-1.271203e-02
-1.240677e-02
-1.208701e-02
-1.175314e-02
-1.140555e-02
-1.104466e-02
-1.067090e-02
-1.028471e-02
-9.886576e-03
-9.476992e-03
-9.056479e-03
-8.625577e-03
-8.184847e-03
-7.734861e-03
-7.276204e-03
-6.809471e-03
-6.335260e-03
-5.854176e-03
-5.366829e-03
-4.873835e-03
-4.375818e-03
-3.873409e-03
-3.367249e-03
-2.857992e-03
-2.346300e-03
-1.832845e-03
-1.318307e-03
-8.033901e-04
-2.887951e-04
2.247862e-04
7.366619e-04
1.246141e-03
1.752535e-03
2.255157e-03
2.753325e-03
3.246359e-03
3.733583e-03
4.214327e-03
4.687925e-03
5.153716e-03
5.611049e-03
6.059279e-03
6.497774e-03
6.925911e-03
7.343077e-03
7.748675e-03
8.142118e-03
8.522834e-03
8.890265e-03
9.243868e-03
9.583118e-03
9.907504e-03
1.021653e-02
1.050972e-02
1.078660e-02
1.104674e-02
1.128970e-02
1.151507e-02
1.172245e-02
1.191149e-02
1.208183e-02
1.223319e-02
1.236530e-02
1.247799e-02
1.257116e-02
1.264487e-02
1.269934e-02
1.273506e-02
1.275284e-02
1.275386e-02
1.273979e-02
1.271284e-02
1.267573e-02
1.263155e-02
1.258336e-02
1.253348e-02
1.253760e-02
-1.508399e-02
-1.507498e-02
-1.513682e-02
-1.519216e-02
-1.523940e-02
-1.527716e-02
-1.530371e-02
-1.531733e-02
-1.531647e-02
-1.529990e-02
-1.526667e-02
-1.521610e-02
-1.514778e-02
-1.506146e-02
-1.495706e-02
-1.483463e-02
-1.469430e-02
-1.453627e-02
-1.436079e-02
-1.416815e-02
-1.395865e-02
-1.373261e-02
-1.349035e-02
-1.323220e-02
-1.295850e-02
-1.266958e-02
-1.236581e-02
-1.204753e-02
-1.171514e-02
-1.136902e-02
-1.100958e-02
-1.063728e-02
-1.025257e-02
-9.855928e-03
-9.447877e-03
-9.028942e-03
-8.599672e-03
-8.160626e-03
-7.712376e-03
-7.255498e-03
-6.790576e-03
-6.318199e-03
-5.838960e-03
-5.353460e-03
-4.862308e-03
-4.366125e-03
-3.865543e-03
-3.361207e-03
-2.853774e-03
-2.343911e-03
-1.832293e-03
-1.319602e-03
-8.065463e-04
-2.938252e-04
2.178730e-04
7.278616e-04
1.235455e-03
1.739969e-03
2.240722e-03
2.737036e-03
3.228233e-03
3.713640e-03
4.192587e-03
4.664410e-03
5.128452e-03
5.584061e-03
6.030598e-03
6.467431e-03
6.893941e-03
7.309519e-03
7.713571e-03
8.105512e-03
8.484773e-03
8.850799e-03
9.203049e-03
9.541000e-03
9.864141e-03
1.017198e-02
1.046404e-02
1.073986e-02
1.099900e-02
1.124105e-02
1.146559e-02
1.167226e-02
1.186072e-02
1.203065e-02
1.218181e-02
1.231397e-02
1.242700e-02
1.252088e-02
1.259570e-02
1.265172e-02
1.268940e-02
1.270948e-02
1.271294e-02
1.270109e-02
1.267556e-02
1.263817e-02
1.259073e-02
1.253471e-02
1.247061e-02
1.247474e-02
-1.503028e-02
-1.502141e-02
-1.509614e-02
-1.515977e-02
-1.521165e-02
-1.525142e-02
-1.527822e-02
-1.529101e-02
-1.528880e-02
-1.527068e-02
-1.523595e-02
-1.518407e-02
-1.511468e-02
-1.502758e-02
-1.492270e-02
-1.480007e-02
-1.465980e-02
-1.450206e-02
-1.432709e-02
-1.413512e-02
-1.392642e-02
-1.370129e-02
-1.346001e-02
-1.320288e-02
-1.293023e-02
-1.264236e-02
-1.233962e-02
-1.202237e-02
-1.169097e-02
-1.134583e-02
-1.098737e-02
-1.061604e-02
-1.023231e-02
-9.836684e-03
-9.429675e-03
-9.011822e-03
-8.583674e-03
-8.145786e-03
-7.698724e-03
-7.243054e-03
-6.779350e-03
-6.308190e-03
-5.830161e-03
-5.345859e-03
-4.855892e-03
-4.360884e-03
-3.861471e-03
-3.358304e-03
-2.852043e-03
-2.343361e-03
-1.832934e-03
-1.321445e-03
-8.095999e-04
-2.980978e-04
2.123784e-04
7.211461e-04
1.227524e-03
1.730831e-03
2.230389e-03
2.725519e-03
3.215545e-03
3.699795e-03
4.177601e-03
4.648299e-03
5.111232e-03
5.565754e-03
6.011225e-03
6.447018e-03
6.872515e-03
7.287112e-03
7.690214e-03
8.081239e-03
8.459619e-03
8.824799e-03
9.176238e-03
9.513412e-03
9.835813e-03
1.014295e-02
1.043434e-02
1.070953e-02
1.096809e-02
1.120960e-02
1.143368e-02
1.163996e-02
1.182813e-02
1.199790e-02
1.214904e-02
1.228137e-02
1.239479e-02
1.248928e-02
1.256496e-02
1.262208e-02
1.266104e-02
1.268244e-02
1.268707e-02
1.267587e-02
1.264998e-02
1.261051e-02
1.255839e-02
1.249407e-02
1.241706e-02
1.242123e-02
-1.499090e-02
-1.498212e-02
-1.506775e-02
-1.513909e-02
-1.519596e-02
-1.523855e-02
-1.526659e-02
-1.527957e-02
-1.527688e-02
-1.525794e-02
-1.522227e-02
-1.516947e-02
-1.509929e-02
-1.501158e-02
-1.490628e-02
-1.478345e-02
-1.464317e-02
-1.448561e-02
-1.431095e-02
-1.411943e-02
-1.391128e-02
-1.368675e-02
-1.344610e-02
-1.318963e-02
-1.291761e-02
-1.263036e-02
-1.232822e-02
-1.201152e-02
-1.168065e-02
-1.133602e-02
-1.097806e-02
-1.060723e-02
-1.022401e-02
-9.828915e-03
-9.422464e-03
-9.005195e-03
-8.577652e-03
-8.140385e-03
-7.693949e-03
-7.238902e-03
-6.775808e-03
-6.305239e-03
-5.827782e-03
-5.344032e-03
-4.854603e-03
-4.360123e-03
-3.861235e-03
-3.358595e-03
-2.852868e-03
-2.344728e-03
-1.834851e-03
-1.323917e-03
-8.126315e-04
-3.016887e-04
2.082315e-04
7.164494e-04
1.222285e-03
1.725060e-03
2.224093e-03
2.718708e-03
3.208228e-03
3.691981e-03
4.169299e-03
4.639519e-03
5.101989e-03
5.556062e-03
6.001102e-03
6.436483e-03
6.861590e-03
7.275818e-03
7.678572e-03
8.069270e-03
8.447341e-03
8.812230e-03
9.163395e-03
9.500308e-03
9.822459e-03
1.012935e-02
1.042052e-02
1.069550e-02
1.095387e-02
1.119521e-02
1.141915e-02
1.162535e-02
1.181349e-02
1.198332e-02
1.213461e-02
1.226720e-02
1.238100e-02
1.247601e-02
1.255233e-02
1.261016e-02
1.264984e-02
1.267182e-02
1.267669e-02
1.266510e-02
1.263778e-02
1.259534e-02
1.253814e-02
1.246603e-02
1.237810e-02
1.238232e-02
-1.496902e-02
-1.496029e-02
-1.505474e-02
-1.513280e-02
-1.519442e-02
-1.524009e-02
-1.526989e-02
-1.528365e-02
-1.528109e-02
-1.526187e-02
-1.522570e-02
-1.517233e-02
-1.510160e-02
-1.501344e-02
-1.490781e-02
-1.478477e-02
-1.464443e-02
-1.448693e-02
-1.431243e-02
-1.412113e-02
-1.391324e-02
-1.368900e-02
-1.344864e-02
-1.319243e-02
-1.292064e-02
-1.263358e-02
-1.233158e-02
-1.201499e-02
-1.168420e-02
-1.133962e-02
-1.098170e-02
-1.061091e-02
-1.022774e-02
-9.832700e-03
-9.426319e-03
-9.009128e-03
-8.581662e-03
-8.144463e-03
-7.698075e-03
-7.243052e-03
-6.779951e-03
-6.309347e-03
-5.831827e-03
-5.347994e-03
-4.858467e-03
-4.363883e-03
-3.864889e-03
-3.362146e-03
-2.856321e-03
-2.348086e-03
-1.838115e-03
-1.327086e-03
-8.157005e-04
-3.046509e-04
2.053846e-04
7.137268e-04
1.219695e-03
1.722610e-03
2.221790e-03
2.716557e-03
3.206234e-03
3.690149e-03
4.167636e-03
4.638034e-03
5.100691e-03
5.554963e-03
6.000215e-03
6.435821e-03
6.861166e-03
7.275641e-03
7.678651e-03
8.069608e-03
8.447941e-03
8.813087e-03
9.164502e-03
9.501656e-03
9.824035e-03
1.013114e-02
1.042251e-02
1.069767e-02
1.095622e-02
1.119773e-02
1.142185e-02
1.162824e-02
1.181661e-02
1.198669e-02
1.213827e-02
1.227121e-02
1.238541e-02
1.248086e-02
1.255763e-02
1.261588e-02
1.265586e-02
1.267790e-02
1.268240e-02
1.266977e-02
1.264047e-02
1.259476e-02
1.253263e-02
1.245370e-02
1.235691e-02
1.236119e-02
-1.496650e-02
-1.495777e-02
-1.505914e-02
-1.514280e-02
-1.520867e-02
-1.525733e-02
-1.528908e-02
-1.530396e-02
-1.530191e-02
-1.528278e-02
-1.524644e-02
-1.519278e-02
-1.512172e-02
-1.503323e-02
-1.492734e-02
-1.480411e-02
-1.466364e-02
-1.450607e-02
-1.433154e-02
-1.414023e-02
-1.393233e-02
-1.370805e-02
-1.346762e-02
-1.321128e-02
-1.293932e-02
-1.265203e-02
-1.234974e-02
-1.203282e-02
-1.170166e-02
-1.135669e-02
-1.099836e-02
-1.062716e-02
-1.024357e-02
-9.848115e-03
-9.441308e-03
-9.023674e-03
-8.595741e-03
-8.158041e-03
-7.711114e-03
-7.255508e-03
-6.791785e-03
-6.320524e-03
-5.842317e-03
-5.357778e-03
-4.867532e-03
-4.372222e-03
-3.872500e-03
-3.369027e-03
-2.862469e-03
-2.353496e-03
-1.842781e-03
-1.330997e-03
-8.188456e-04
-3.070176e-04
2.038078e-04
7.129495e-04
1.219725e-03
1.723452e-03
2.223449e-03
2.719036e-03
3.209537e-03
3.694281e-03
4.172602e-03
4.643841e-03
5.107347e-03
5.562476e-03
6.008592e-03
6.445066e-03
6.871280e-03
7.286620e-03
7.690486e-03
8.082284e-03
8.461436e-03
8.827376e-03
9.179553e-03
9.517433e-03
9.840500e-03
1.014826e-02
1.044023e-02
1.071596e-02
1.097504e-02
1.121706e-02
1.144166e-02
1.164852e-02
1.183733e-02
1.200786e-02
1.215989e-02
1.229327e-02
1.240790e-02
1.250374e-02
1.258084e-02
1.263930e-02
1.267929e-02
1.270104e-02
1.270480e-02
1.269080e-02
1.265931e-02
1.261036e-02
1.254379e-02
1.245910e-02
1.235532e-02
1.235968e-02
-1.498427e-02
-1.497548e-02
-1.508219e-02
-1.517041e-02
-1.523992e-02
-1.529133e-02
-1.532501e-02
-1.534115e-02
-1.533983e-02
-1.532104e-02
-1.528478e-02
-1.523103e-02
-1.515979e-02
-1.507109e-02
-1.496498e-02
-1.484154e-02
-1.470087e-02
-1.454308e-02
-1.436833e-02
-1.417676e-02
-1.396855e-02
-1.374391e-02
-1.350304e-02
-1.324620e-02
-1.297365e-02
-1.268571e-02
-1.238272e-02
-1.206504e-02
-1.173309e-02
-1.138729e-02
-1.102812e-02
-1.065606e-02
-1.027159e-02
-9.875231e-03
-9.467487e-03
-9.048875e-03
-8.619916e-03
-8.181136e-03
-7.733074e-03
-7.276282e-03
-6.811328e-03
-6.338797e-03
-5.859293e-03
-5.373436e-03
-4.881859e-03
-4.385208e-03
-3.884135e-03
-3.379300e-03
-2.871368e-03
-2.361007e-03
-1.848887e-03
-1.335681e-03
-8.220911e-04
-3.088095e-04
2.034818e-04
7.140986e-04
1.222356e-03
1.727570e-03
2.229058e-03
2.726140e-03
3.218141e-03
3.704390e-03
4.184222e-03
4.656979e-03
5.122006e-03
5.578659e-03
6.026296e-03
6.464285e-03
6.891997e-03
7.308814e-03
7.714127e-03
8.107334e-03
8.487851e-03
8.855104e-03
9.208539e-03
9.547615e-03
9.871815e-03
1.018064e-02
1.047362e-02
1.075030e-02
1.101026e-02
1.125311e-02
1.147849e-02
1.168608e-02
1.187558e-02
1.204675e-02
1.219939e-02
1.233331e-02
1.244842e-02
1.254466e-02
1.262202e-02
1.268057e-02
1.272040e-02
1.274166e-02
1.274448e-02
1.272898e-02
1.269530e-02
1.264335e-02
1.257291e-02
1.248348e-02
1.237425e-02
1.237870e-02
-1.502271e-02
-1.501382e-02
-1.512462e-02
-1.521649e-02
-1.528906e-02
-1.534291e-02
-1.537841e-02
-1.539583e-02
-1.539534e-02
-1.537705e-02
-1.534103e-02
-1.528734e-02
-1.521604e-02
-1.512719e-02
-1.502088e-02
-1.489717e-02
-1.475618e-02
-1.459803e-02
-1.442283e-02
-1.423074e-02
-1.402193e-02
-1.379659e-02
-1.355493e-02
-1.329720e-02
-1.302368e-02
-1.273469e-02
-1.243059e-02
-1.211174e-02
-1.177857e-02
-1.143153e-02
-1.107108e-02
-1.069770e-02
-1.031187e-02
-9.914109e-03
-9.504903e-03
-9.084765e-03
-8.654211e-03
-8.213768e-03
-7.763979e-03
-7.305404e-03
-6.838619e-03
-6.364219e-03
-5.882818e-03
-5.395040e-03
-4.901522e-03
-4.402910e-03
-3.899857e-03
-3.393020e-03
-2.883064e-03
-2.370653e-03
-1.856459e-03
-1.341159e-03
-8.254546e-04
-3.100424e-04
2.043922e-04
7.171622e-04
1.227581e-03
1.734963e-03
2.238625e-03
2.737889e-03
3.232079e-03
3.720524e-03
4.202558e-03
4.677518e-03
5.144749e-03
5.603597e-03
6.053414e-03
6.493557e-03
6.923391e-03
7.342286e-03
7.749623e-03
8.144793e-03
8.527202e-03
8.896273e-03
9.251444e-03
9.592174e-03
9.917941e-03
1.022825e-02
1.052262e-02
1.080062e-02
1.106182e-02
1.130583e-02
1.153229e-02
1.174089e-02
1.193133e-02
1.210336e-02
1.225677e-02
1.239137e-02
1.250704e-02
1.260369e-02
1.268131e-02
1.273989e-02
1.277948e-02
1.280015e-02
1.280197e-02
1.278497e-02
1.274922e-02
1.269458e-02
1.262082e-02
1.252754e-02
1.241409e-02
1.241863e-02
-1.508190e-02
-1.507285e-02
-1.518679e-02
-1.528159e-02
-1.535673e-02
-1.541269e-02
-1.544986e-02
-1.546854e-02
-1.546893e-02
-1.545122e-02
-1.541554e-02
-1.536200e-02
-1.529070e-02
-1.520172e-02
-1.509516e-02
-1.497111e-02
-1.482968e-02
-1.467096e-02
-1.449509e-02
-1.430221e-02
-1.409249e-02
-1.386611e-02
-1.362331e-02
-1.336433e-02
-1.308946e-02
-1.279904e-02
-1.249342e-02
-1.217301e-02
-1.183822e-02
-1.148951e-02
-1.112733e-02
-1.075216e-02
-1.036450e-02
-9.964810e-03
-9.553604e-03
-9.131382e-03
-8.698663e-03
-8.255977e-03
-7.803877e-03
-7.342931e-03
-6.873727e-03
-6.396868e-03
-5.912972e-03
-5.422668e-03
-4.926594e-03
-4.425395e-03
-3.919723e-03
-3.410234e-03
-2.897591e-03
-2.382463e-03
-1.865523e-03
-1.347451e-03
-8.289540e-04
-3.107313e-04
2.065285e-04
7.221364e-04
1.235405e-03
1.745648e-03
2.252183e-03
2.754330e-03
3.251414e-03
3.742759e-03
4.227696e-03
4.705556e-03
5.175673e-03
5.637385e-03
6.090033e-03
6.532963e-03
6.965527e-03
7.387085e-03
7.797006e-03
8.194675e-03
8.579491e-03
8.950870e-03
9.308247e-03
9.651081e-03
9.978848e-03
1.029105e-02
1.058722e-02
1.086692e-02
1.112971e-02
1.137522e-02
1.160309e-02
1.181299e-02
1.200463e-02
1.217774e-02
1.233210e-02
1.246753e-02
1.258387e-02
1.268101e-02
1.275890e-02
1.281752e-02
1.285685e-02
1.287691e-02
1.287774e-02
1.285932e-02
1.282167e-02
1.276465e-02
1.268808e-02
1.259163e-02
1.247487e-02
1.247951e-02
-1.516171e-02
-1.515247e-02
-1.526889e-02
-1.536608e-02
-1.544338e-02
-1.550120e-02
-1.553989e-02
-1.555975e-02
-1.556103e-02
-1.554394e-02
-1.550865e-02
-1.545530e-02
-1.538400e-02
-1.529487e-02
-1.518800e-02
-1.506349e-02
-1.492144e-02
-1.476196e-02
-1.458517e-02
-1.439122e-02
-1.418028e-02
-1.395255e-02
-1.370825e-02
-1.344766e-02
-1.317108e-02
-1.287885e-02
-1.257134e-02
-1.224896e-02
-1.191214e-02
-1.156133e-02
-1.119697e-02
-1.081955e-02
-1.042953e-02
-1.002740e-02
-9.613648e-03
-9.188785e-03
-8.753332e-03
-8.307831e-03
-7.852844e-03
-7.388950e-03
-6.916744e-03
-6.436836e-03
-5.949847e-03
-5.456406e-03
-4.957151e-03
-4.452727e-03
-3.943785e-03
-3.430984e-03
-2.914987e-03
-2.396469e-03
-1.876105e-03
-1.354582e-03
-8.326092e-04
-3.108896e-04
2.098866e-04
7.290294e-04
1.245851e-03
1.759665e-03
2.269788e-03
2.775537e-03
3.276233e-03
3.771193e-03
4.259740e-03
4.741194e-03
5.214877e-03
5.680114e-03
6.136232e-03
6.582564e-03
7.018449e-03
7.443236e-03
7.856286e-03
8.256977e-03
8.644701e-03
9.018874e-03
9.378927e-03
9.724319e-03
1.005453e-02
1.036906e-02
1.066744e-02
1.094922e-02
1.121399e-02
1.146136e-02
1.169097e-02
1.190247e-02
1.209558e-02
1.227001e-02
1.242553e-02
1.256194e-02
1.267908e-02
1.277680e-02
1.285503e-02
1.291372e-02
1.295282e-02
1.297232e-02
1.297221e-02
1.295248e-02
1.291311e-02
1.285400e-02
1.277501e-02
1.267593e-02
1.255648e-02
1.256124e-02
-1.526199e-02
-1.525251e-02
-1.537098e-02
-1.547019e-02
-1.554936e-02
-1.560882e-02
-1.564890e-02
-1.566989e-02
-1.567204e-02
-1.565558e-02
-1.562069e-02
-1.556751e-02
-1.549619e-02
-1.540684e-02
-1.529956e-02
-1.517444e-02
-1.503158e-02
-1.487111e-02
-1.469315e-02
-1.449785e-02
-1.428539e-02
-1.405598e-02
-1.380986e-02
-1.354731e-02
-1.326866e-02
-1.297426e-02
-1.266448e-02
-1.233975e-02
-1.200048e-02
-1.164712e-02
-1.128013e-02
-1.089995e-02
-1.050707e-02
-1.010196e-02
-9.685117e-03
-9.257056e-03
-8.818310e-03
-8.369430e-03
-7.910988e-03
-7.443571e-03
-6.967781e-03
-6.484229e-03
-5.993538e-03
-5.496338e-03
-4.993266e-03
-4.484968e-03
-3.972097e-03
-3.455316e-03
-2.935295e-03
-2.412708e-03
-1.888241e-03
-1.362580e-03
-8.364399e-04
-3.105251e-04
2.144735e-04
7.378657e-04
1.258962e-03
1.777076e-03
2.291518e-03
2.801601e-03
3.306635e-03
3.805928e-03
4.298790e-03
4.784525e-03
5.262441e-03
5.731847e-03
6.192056e-03
6.642387e-03
7.082167e-03
7.510737e-03
7.927451e-03
8.331680e-03
8.722817e-03
9.100272e-03
9.463481e-03
9.811900e-03
1.014501e-02
1.046231e-02
1.076333e-02
1.104763e-02
1.131477e-02
1.156437e-02
1.179606e-02
1.200948e-02
1.220434e-02
1.238034e-02
1.253724e-02
1.267481e-02
1.279288e-02
1.289129e-02
1.296995e-02
1.302877e-02
1.306770e-02
1.308669e-02
1.308574e-02
1.306481e-02
1.302390e-02
1.296293e-02
1.288184e-02
1.278050e-02
1.265875e-02
1.266363e-02
-1.538256e-02
-1.537282e-02
-1.549309e-02
-1.559410e-02
-1.567495e-02
-1.573591e-02
-1.577729e-02
-1.579935e-02
-1.580234e-02
-1.578648e-02
-1.575196e-02
-1.569892e-02
-1.562751e-02
-1.553783e-02
-1.542999e-02
-1.530409e-02
-1.516023e-02
-1.499854e-02
-1.481915e-02
-1.462222e-02
-1.440794e-02
-1.417654e-02
-1.392827e-02
-1.366344e-02
-1.338237e-02
-1.308543e-02
-1.277301e-02
-1.244552e-02
-1.210338e-02
-1.174703e-02
-1.137691e-02
-1.099348e-02
-1.059722e-02
-1.018859e-02
-9.768118e-03
-9.336312e-03
-8.893719e-03
-8.440901e-03
-7.978438e-03
-7.506921e-03
-7.026956e-03
-6.539156e-03
-6.044143e-03
-5.542549e-03
-5.035012e-03
-4.522183e-03
-4.004720e-03
-3.483288e-03
-2.958564e-03
-2.431229e-03
-1.901969e-03
-1.371473e-03
-8.404603e-04
-3.096346e-04
2.203119e-04
7.486876e-04
1.274801e-03
1.797958e-03
2.317462e-03
2.832616e-03
3.342716e-03
3.847055e-03
4.344925e-03
4.835614e-03
5.318413e-03
5.792614e-03
6.257517e-03
6.712429e-03
7.156667e-03
7.589566e-03
8.010477e-03
8.418768e-03
8.813831e-03
9.195079e-03
9.561945e-03
9.913884e-03
1.025038e-02
1.057092e-02
1.087504e-02
1.116228e-02
1.143222e-02
1.168443e-02
1.191855e-02
1.213422e-02
1.233112e-02
1.250894e-02
1.266743e-02
1.280634e-02
1.292550e-02
1.302473e-02
1.310392e-02
1.316296e-02
1.320180e-02
1.322037e-02
1.321866e-02
1.319665e-02
1.315434e-02
1.309170e-02
1.300871e-02
1.290534e-02
1.278154e-02
1.278655e-02
-1.552332e-02
-1.551329e-02
-1.563526e-02
-1.573796e-02
-1.582038e-02
-1.588277e-02
-1.592539e-02
-1.594847e-02
-1.595226e-02
-1.593696e-02
-1.590275e-02
-1.584978e-02
-1.577817e-02
-1.568803e-02
-1.557948e-02
-1.545261e-02
-1.530754e-02
-1.514439e-02
-1.496332e-02
-1.476448e-02
-1.454810e-02
-1.431440e-02
-1.406368e-02
-1.379622e-02
-1.351240e-02
-1.321256e-02
-1.289711e-02
-1.256645e-02
-1.222099e-02
-1.186119e-02
-1.148746e-02
-1.110028e-02
-1.070011e-02
-1.028744e-02
-9.862794e-03
-9.426699e-03
-8.979709e-03
-8.522394e-03
-8.055338e-03
-7.579136e-03
-7.094395e-03
-6.601728e-03
-6.101761e-03
-5.595128e-03
-5.082472e-03
-4.564449e-03
-4.041723e-03
-3.514966e-03
-2.984858e-03
-2.452083e-03
-1.917328e-03
-1.381284e-03
-8.446731e-04
-3.082002e-04
2.274403e-04
7.615526e-04
1.293438e-03
1.822392e-03
2.347707e-03
2.868667e-03
3.384552e-03
3.894636e-03
4.398190e-03
4.894487e-03
5.382798e-03
5.862404e-03
6.332590e-03
6.792656e-03
7.241915e-03
7.679697e-03
8.105351e-03
8.518247e-03
8.917777e-03
9.303353e-03
9.674406e-03
1.003039e-02
1.037078e-02
1.069506e-02
1.100276e-02
1.129340e-02
1.156654e-02
1.182176e-02
1.205868e-02
1.227692e-02
1.247614e-02
1.265604e-02
1.281634e-02
1.295679e-02
1.307720e-02
1.317738e-02
1.325721e-02
1.331658e-02
1.335541e-02
1.337365e-02
1.337127e-02
1.334828e-02
1.330468e-02
1.324049e-02
1.315574e-02
1.305047e-02
1.292471e-02
1.292987e-02
-1.568423e-02
-1.567389e-02
-1.579757e-02
-1.590193e-02
-1.598589e-02
-1.604968e-02
-1.609349e-02
-1.611757e-02
-1.612212e-02
-1.610732e-02
-1.607335e-02
-1.602034e-02
-1.594841e-02
-1.585768e-02
-1.574824e-02
-1.562021e-02
-1.547371e-02
-1.530887e-02
-1.512585e-02
-1.492485e-02
-1.470607e-02
-1.446979e-02
-1.421629e-02
-1.394589e-02
-1.365896e-02
-1.335585e-02
-1.303697e-02
-1.270271e-02
-1.235350e-02
-1.198976e-02
-1.161194e-02
-1.122049e-02
-1.081590e-02
-1.039866e-02
-9.969312e-03
-9.528387e-03
-9.076449e-03
-8.614071e-03
-8.141841e-03
-7.660355e-03
-7.170223e-03
-6.672060e-03
-6.166497e-03
-5.654174e-03
-5.135739e-03
-4.611856e-03
-4.083193e-03
-3.550427e-03
-3.014240e-03
-2.475318e-03
-1.934349e-03
-1.392024e-03
-8.490671e-04
-3.061897e-04
2.359088e-04
7.765239e-04
1.314944e-03
1.850451e-03
2.382317e-03
2.909807e-03
3.432179e-03
3.948688e-03
4.458584e-03
4.961123e-03
5.455563e-03
5.941172e-03
6.417229e-03
6.883029e-03
7.337883e-03
7.781121e-03
8.212094e-03
8.630170e-03
9.034741e-03
9.425215e-03
9.801019e-03
1.016160e-02
1.050642e-02
1.083495e-02
1.114671e-02
1.144120e-02
1.171798e-02
1.197661e-02
1.221668e-02
1.243781e-02
1.263965e-02
1.282188e-02
1.298422e-02
1.312641e-02
1.324824e-02
1.334952e-02
1.343012e-02
1.348992e-02
1.352884e-02
1.354683e-02
1.354387e-02
1.351998e-02
1.347518e-02
1.340952e-02
1.332308e-02
1.321595e-02
1.308823e-02
1.309355e-02
-1.586530e-02
-1.585466e-02
-1.598013e-02
-1.608619e-02
-1.617172e-02
-1.623690e-02
-1.628191e-02
-1.630695e-02
-1.631221e-02
-1.629785e-02
-1.626403e-02
-1.621087e-02
-1.613850e-02
-1.604701e-02
-1.593651e-02
-1.580712e-02
-1.565897e-02
-1.549221e-02
-1.530700e-02
-1.510355e-02
-1.488211e-02
-1.464294e-02
-1.438636e-02
-1.411268e-02
-1.382228e-02
-1.351553e-02
-1.319281e-02
-1.285453e-02
-1.250109e-02
-1.213294e-02
-1.175052e-02
-1.135431e-02
-1.094478e-02
-1.052245e-02
-1.008787e-02
-9.641568e-03
-9.184120e-03
-8.716102e-03
-8.238103e-03
-7.750723e-03
-7.254573e-03
-6.750277e-03
-6.238470e-03
-5.719799e-03
-5.194921e-03
-4.664504e-03
-4.129220e-03
-3.589749e-03
-3.046773e-03
-2.500978e-03
-1.953053e-03
-1.403689e-03
-8.536193e-04
-3.035635e-04
2.457684e-04
7.936573e-04
1.339374e-03
1.882180e-03
2.421324e-03
2.956048e-03
3.485590e-03
4.009182e-03
4.526060e-03
5.035464e-03
5.536643e-03
6.028858e-03
6.511386e-03
6.983522e-03
7.444575e-03
7.893878e-03
8.330781e-03
8.754650e-03
9.164873e-03
9.560849e-03
9.941995e-03
1.030774e-02
1.065754e-02
1.099085e-02
1.130716e-02
1.160597e-02
1.188681e-02
1.214923e-02
1.239280e-02
1.261715e-02
1.282190e-02
1.300672e-02
1.317133e-02
1.331546e-02
1.343889e-02
1.354142e-02
1.362292e-02
1.368327e-02
1.372238e-02
1.374020e-02
1.373674e-02
1.371201e-02
1.366606e-02
1.359898e-02
1.351086e-02
1.340186e-02
1.327211e-02
1.327760e-02
-1.606666e-02
-1.605571e-02
-1.618310e-02
-1.629096e-02
-1.637812e-02
-1.644472e-02
-1.649093e-02
-1.651691e-02
-1.652284e-02
-1.650885e-02
-1.647509e-02
-1.642167e-02
-1.634871e-02
-1.625630e-02
-1.614457e-02
-1.601362e-02
-1.586360e-02
-1.569468e-02
-1.550703e-02
-1.530088e-02
-1.507649e-02
-1.483414e-02
-1.457415e-02
-1.429686e-02
-1.400263e-02
-1.369183e-02
-1.336485e-02
-1.302209e-02
-1.266398e-02
-1.229094e-02
-1.190343e-02
-1.150194e-02
-1.108697e-02
-1.065903e-02
-1.021867e-02
-9.766440e-03
-9.302910e-03
-8.828662e-03
-8.344287e-03
-7.850390e-03
-7.347589e-03
-6.836516e-03
-6.317812e-03
-5.792132e-03
-5.260138e-03
-4.722502e-03
-4.179898e-03
-3.633007e-03
-3.082510e-03
-2.529093e-03
-1.973447e-03
-1.416269e-03
-8.583035e-04
-3.002864e-04
2.570560e-04
8.129845e-04
1.366747e-03
1.917580e-03
2.464708e-03
3.007352e-03
3.544726e-03
4.076047e-03
4.600538e-03
5.117430e-03
5.625969e-03
6.125414e-03
6.615042e-03
7.094149e-03
7.562048e-03
8.018067e-03
8.461554e-03
8.891869e-03
9.308386e-03
9.710494e-03
1.009759e-02
1.046909e-02
1.082442e-02
1.116303e-02
1.148438e-02
1.178795e-02
1.207327e-02
1.233987e-02
1.258731e-02
1.281519e-02
1.302315e-02
1.321083e-02
1.337795e-02
1.352423e-02
1.364944e-02
1.375339e-02
1.383593e-02
1.389693e-02
1.393633e-02
1.395408e-02
1.395018e-02
1.392466e-02
1.387759e-02
1.380909e-02
1.371928e-02
1.360834e-02
1.347645e-02
1.348214e-02
-1.628847e-02
-1.627721e-02
-1.640669e-02
-1.651647e-02
-1.660535e-02
-1.667343e-02
-1.672085e-02
-1.674777e-02
-1.675433e-02
-1.674064e-02
-1.670685e-02
-1.665305e-02
-1.657935e-02
-1.648587e-02
-1.637272e-02
-1.624002e-02
-1.608792e-02
-1.591659e-02
-1.572625e-02
-1.551713e-02
-1.528951e-02
-1.504367e-02
-1.477995e-02