# vtk DataFile Version 3.0
Scalar Field
ASCII
DATASET RECTILINEAR_GRID
DIMENSIONS 102 102 1
X_COORDINATES 102 double
0.000000 0.100000 0.200000 0.300000 0.400000 0.500000 0.600000 0.700000 0.800000 0.900000 1.000000 1.100000 1.200000 1.300000 1.400000 1.500000 1.600000 1.700000 1.800000 1.900000 2.000000 2.100000 2.200000 2.300000 2.400000 2.500000 2.600000 2.700000 2.800000 2.900000 3.000000 3.100000 3.200000 3.300000 3.400000 3.500000 3.600000 3.700000 3.800000 3.900000 4.000000 4.100000 4.200000 4.300000 4.400000 4.500000 4.600000 4.700000 4.800000 4.900000 5.000000 5.100000 5.200000 5.300000 5.400000 5.500000 5.600000 5.700000 5.800000 5.900000 6.000000 6.100000 6.200000 6.300000 6.400000 6.500000 6.600000 6.700000 6.800000 6.900000 7.000000 7.100000 7.200000 7.300000 7.400000 7.500000 7.600000 7.700000 7.800000 7.900000 8.000000 8.100000 8.200000 8.300000 8.400000 8.500000 8.600000 8.700000 8.800000 8.900000 9.000000 9.100000 9.200000 9.300000 9.400000 9.500000 9.600000 9.700000 9.800000 9.900000 10.000000 10.100000 
Y_COORDINATES 102 double
0.000000 0.100000 0.200000 0.300000 0.400000 0.500000 0.600000 0.700000 0.800000 0.900000 1.000000 1.100000 1.200000 1.300000 1.400000 1.500000 1.600000 1.700000 1.800000 1.900000 2.000000 2.100000 2.200000 2.300000 2.400000 2.500000 2.600000 2.700000 2.800000 2.900000 3.000000 3.100000 3.200000 3.300000 3.400000 3.500000 3.600000 3.700000 3.800000 3.900000 4.000000 4.100000 4.200000 4.300000 4.400000 4.500000 4.600000 4.700000 4.800000 4.900000 5.000000 5.100000 5.200000 5.300000 5.400000 5.500000 5.600000 5.700000 5.800000 5.900000 6.000000 6.100000 6.200000 6.300000 6.400000 6.500000 6.600000 6.700000 6.800000 6.900000 7.000000 7.100000 7.200000 7.300000 7.400000 7.500000 7.600000 7.700000 7.800000 7.900000 8.000000 8.100000 8.200000 8.300000 8.400000 8.500000 8.600000 8.700000 8.800000 8.900000 9.000000 9.100000 9.200000 9.300000 9.400000 9.500000 9.600000 9.700000 9.800000 9.900000 10.000000 10.100000 
Z_COORDINATES 1 double
0.0
POINT_DATA 10404
SCALARS Pressure double 1
LOOKUP_TABLE default
0.000000e+00
-9.192409e-03
-9.327005e-03
-9.461864e-03
-9.553239e-03
-9.588571e-03
-9.572567e-03
-9.521804e-03
-9.458143e-03
-9.402699e-03
-9.371295e-03
-9.371733e-03
-9.402813e-03
-9.454956e-03
-9.512223e-03
-9.555426e-03
-9.565836e-03
-9.528785e-03
-9.436416e-03
-9.288973e-03
-9.094384e-03
-8.866301e-03
-8.621129e-03
-8.374727e-03
-8.139506e-03
-7.922402e-03
-7.724045e-03
-7.539131e-03
-7.357845e-03
-7.168022e-03
-6.957617e-03
-6.717047e-03
-6.440961e-03
-6.129131e-03
-5.786279e-03
-5.420945e-03
-5.043629e-03
-4.664662e-03
-4.292258e-03
-3.931155e-03
-3.582097e-03
-3.242177e-03
-2.905883e-03
-2.566551e-03
-2.217861e-03
-1.855067e-03
-1.475754e-03
-1.080029e-03
-6.702224e-04
-2.502144e-04
1.753922e-04
6.020856e-04
1.026083e-03
1.444713e-03
1.856539e-03
2.261232e-03
2.659273e-03
3.051600e-03
3.439257e-03
3.823118e-03
4.203717e-03
4.581174e-03
4.955208e-03
5.325201e-03
5.690291e-03
6.049459e-03
6.401616e-03
6.745671e-03
7.080587e-03
7.405425e-03
7.719372e-03
8.021762e-03
8.312066e-03
8.589879e-03
8.854879e-03
9.106784e-03
9.345307e-03
9.570117e-03
9.780815e-03
9.976926e-03
1.015791e-02
1.032317e-02
1.047211e-02
1.060415e-02
1.071874e-02
1.081544e-02
1.089388e-02
1.095383e-02
1.099522e-02
1.101813e-02
1.102291e-02
1.101018e-02
1.098095e-02
1.093675e-02
1.087979e-02
1.081317e-02
1.074122e-02
1.066978e-02
1.060665e-02
1.056155e-02
1.054446e-02
0.000000e+00
-9.192409e-03
-9.259839e-03
-9.369141e-03
-9.470103e-03
-9.526768e-03
-9.533622e-03
-9.500292e-03
-9.445576e-03
-9.390910e-03
-9.354773e-03
-9.348777e-03
-9.375685e-03
-9.429278e-03
-9.495857e-03
-9.557035e-03
-9.593323e-03
-9.587874e-03
-9.529627e-03
-9.415241e-03
-9.249396e-03
-9.043482e-03
-8.813020e-03
-8.574452e-03
-8.341973e-03
-8.125051e-03
-7.927026e-03
-7.744953e-03
-7.570638e-03
-7.392568e-03
-7.198359e-03
-6.977236e-03
-6.722085e-03
-6.430694e-03
-6.105963e-03
-5.755102e-03
-5.387987e-03
-5.015106e-03
-4.645513e-03
-4.285251e-03
-3.936528e-03
-3.597753e-03
-3.264337e-03
-2.930005e-03
-2.588280e-03
-2.233815e-03
-1.863319e-03
-1.475961e-03
-1.073240e-03
-6.584631e-04
-2.359674e-04
1.896910e-04
6.144418e-04
1.035179e-03
1.449973e-03
1.858057e-03
2.259599e-03
2.655373e-03
3.046409e-03
3.433683e-03
3.817901e-03
4.199374e-03
4.577995e-03
4.953274e-03
5.324425e-03
5.690456e-03
6.050272e-03
6.402750e-03
6.746816e-03
7.081489e-03
7.405914e-03
7.719386e-03
8.021339e-03
8.311330e-03
8.589007e-03
8.854065e-03
9.106201e-03
9.345077e-03
9.570298e-03
9.781395e-03
9.977834e-03
1.015903e-02
1.032438e-02
1.047328e-02
1.060517e-02
1.071955e-02
1.081597e-02
1.089414e-02
1.095382e-02
1.099498e-02
1.101771e-02
1.102234e-02
1.100951e-02
1.098022e-02
1.093599e-02
1.087901e-02
1.081239e-02
1.074043e-02
1.066899e-02
1.060587e-02
1.056077e-02
1.054368e-02
1.054446e-02
-9.289716e-03
-9.331935e-03
-9.389981e-03
-9.418464e-03
-9.410202e-03
-9.374375e-03
-9.326491e-03
-9.283733e-03
-9.260574e-03
-9.265612e-03
-9.299955e-03
-9.357125e-03
-9.424366e-03
-9.485076e-03
-9.521954e-03
-9.520276e-03
-9.470631e-03
-9.370539e-03
-9.224602e-03
-9.043213e-03
-8.840176e-03
-8.629811e-03
-8.424172e-03
-8.230920e-03
-8.052201e-03
-7.884655e-03
-7.720456e-03
-7.549149e-03
-7.359891e-03
-7.143663e-03
-6.895018e-03
-6.613048e-03
-6.301372e-03
-5.967202e-03
-5.619716e-03
-5.268120e-03
-4.919863e-03
-4.579357e-03
-4.247466e-03
-3.921785e-03
-3.597568e-03
-3.269031e-03
-2.930693e-03
-2.578479e-03
-2.210379e-03
-1.826604e-03
-1.429296e-03
-1.021922e-03
-6.085351e-04
-1.930676e-04
2.212134e-04
6.320216e-04
1.038124e-03
1.439209e-03
1.835662e-03
2.228240e-03
2.617775e-03
3.004940e-03
3.390100e-03
3.773250e-03
4.154028e-03
4.531767e-03
4.905586e-03
5.274472e-03
5.637364e-03
5.993218e-03
6.341062e-03
6.680034e-03
7.009396e-03
7.328543e-03
7.636986e-03
7.934328e-03
8.220223e-03
8.494340e-03
8.756324e-03
9.005774e-03
9.242226e-03
9.465158e-03
9.674004e-03
9.868180e-03
1.004710e-02
1.021023e-02
1.035706e-02
1.048717e-02
1.060020e-02
1.069591e-02
1.077413e-02
1.083482e-02
1.087807e-02
1.090414e-02
1.091349e-02
1.090687e-02
1.088540e-02
1.085064e-02
1.080476e-02
1.075067e-02
1.069219e-02
1.063423e-02
1.058280e-02
1.054483e-02
1.052748e-02
1.052821e-02
-9.331484e-03
-9.340621e-03
-9.340957e-03
-9.312048e-03
-9.265620e-03
-9.217809e-03
-9.183702e-03
-9.174253e-03
-9.194291e-03
-9.241762e-03
-9.308167e-03
-9.380056e-03
-9.441403e-03
-9.476512e-03
-9.472920e-03
-9.423683e-03
-9.328516e-03
-9.193508e-03
-9.029533e-03
-8.849759e-03
-8.666865e-03
-8.490568e-03
-8.325930e-03
-8.172705e-03
-8.025751e-03
-7.876366e-03
-7.714246e-03
-7.529670e-03
-7.315505e-03
-7.068608e-03
-6.790367e-03
-6.486259e-03
-6.164549e-03
-5.834453e-03
-5.504193e-03
-5.179412e-03
-4.862275e-03
-4.551425e-03
-4.242714e-03
-3.930463e-03
-3.608902e-03
-3.273445e-03
-2.921533e-03
-2.552940e-03
-2.169545e-03
-1.774727e-03
-1.372582e-03
-9.671332e-04
-5.617269e-04
-1.586762e-04
2.408284e-04
6.365792e-04
1.029060e-03
1.419098e-03
1.807581e-03
2.195193e-03
2.582265e-03
2.968721e-03
3.354111e-03
3.737683e-03
4.118483e-03
4.495451e-03
4.867504e-03
5.233602e-03
5.592792e-03
5.944243e-03
6.287249e-03
6.621236e-03
6.945744e-03
7.260391e-03
7.564842e-03
7.858765e-03
8.141790e-03
8.413490e-03
8.673368e-03
8.920861e-03
9.155364e-03
9.376255e-03
9.582926e-03
9.774812e-03
9.951407e-03
1.011228e-02
1.025708e-02
1.038553e-02
1.049742e-02
1.059264e-02
1.067114e-02
1.073297e-02
1.077831e-02
1.080747e-02
1.082099e-02
1.081964e-02
1.080452e-02
1.077714e-02
1.073948e-02
1.069411e-02
1.064422e-02
1.059370e-02
1.054701e-02
1.050899e-02
1.048442e-02
1.048508e-02
-9.295918e-03
-9.272046e-03
-9.231711e-03
-9.174480e-03
-9.122696e-03
-9.092096e-03
-9.092268e-03
-9.125494e-03
-9.186860e-03
-9.265389e-03
-9.345991e-03
-9.412054e-03
-9.448363e-03
-9.443861e-03
-9.393646e-03
-9.299705e-03
-9.170178e-03
-9.017330e-03
-8.854751e-03
-8.694464e-03
-8.544560e-03
-8.407811e-03
-8.281449e-03
-8.158040e-03
-8.027237e-03
-7.878023e-03
-7.701023e-03
-7.490438e-03
-7.245198e-03
-6.969100e-03
-6.669884e-03
-6.357467e-03
-6.041747e-03
-5.730513e-03
-5.427953e-03
-5.134081e-03
-4.845172e-03
-4.555002e-03
-4.256537e-03
-3.943616e-03
-3.612235e-03
-3.261188e-03
-2.892013e-03
-2.508369e-03
-2.115069e-03
-1.717049e-03
-1.318502e-03
-9.223354e-04
-5.299851e-04
-1.415620e-04
2.437853e-04
6.274066e-04
1.010691e-03
1.394708e-03
1.780058e-03
2.166767e-03
2.554340e-03
2.941873e-03
3.328207e-03
3.712071e-03
4.092201e-03
4.467424e-03
4.836712e-03
5.199203e-03
5.554206e-03
5.901189e-03
6.239746e-03
6.569563e-03
6.890367e-03
7.201876e-03
7.503756e-03
7.795587e-03
8.076852e-03
8.346948e-03
8.605205e-03
8.850930e-03
9.083445e-03
9.302123e-03
9.506414e-03
9.695859e-03
9.870088e-03
1.002882e-02
1.017183e-02
1.029896e-02
1.041011e-02
1.050522e-02
1.058430e-02
1.064743e-02
1.069480e-02
1.072676e-02
1.074381e-02
1.074670e-02
1.073647e-02
1.071449e-02
1.068248e-02
1.064259e-02
1.059739e-02
1.054981e-02
1.050302e-02
1.046015e-02
1.042395e-02
1.042453e-02
-9.192065e-03
-9.141893e-03
-9.086424e-03
-9.031779e-03
-9.002653e-03
-9.009398e-03
-9.053505e-03
-9.128271e-03
-9.220569e-03
-9.313350e-03
-9.388641e-03
-9.430704e-03
-9.428875e-03
-9.379480e-03
-9.286328e-03
-9.159603e-03
-9.013402e-03
-8.862522e-03
-8.719281e-03
-8.591072e-03
-8.479090e-03
-8.378416e-03
-8.279314e-03
-8.169419e-03
-8.036375e-03
-7.870412e-03
-7.666355e-03
-7.424660e-03
-7.151237e-03
-6.856080e-03
-6.551003e-03
-6.247025e-03
-5.952021e-03
-5.669219e-03
-5.396862e-03
-5.129058e-03
-4.857524e-03
-4.573723e-03
-4.270838e-03
-3.945130e-03
-3.596444e-03
-3.227848e-03
-2.844632e-03
-2.452994e-03
-2.058757e-03
-1.666399e-03
-1.278539e-03
-8.959001e-04
-5.176574e-04
-1.420088e-04
2.331925e-04
6.098854e-04
9.894014e-04
1.372268e-03
1.758280e-03
2.146582e-03
2.535874e-03
2.924627e-03
3.311272e-03
3.694350e-03
4.072598e-03
4.444994e-03
4.810762e-03
5.169346e-03
5.520375e-03
5.863600e-03
6.198835e-03
6.525890e-03
6.844512e-03
7.154341e-03
7.454890e-03
7.745546e-03
8.025599e-03
8.294284e-03
8.550836e-03
8.794538e-03
9.024760e-03
9.240979e-03
9.442784e-03
9.629867e-03
9.801996e-03
9.959001e-03
1.010075e-02
1.022713e-02
1.033806e-02
1.043348e-02
1.051341e-02
1.057792e-02
1.062718e-02
1.066150e-02
1.068137e-02
1.068747e-02
1.068075e-02
1.066238e-02
1.063383e-02
1.059682e-02
1.055335e-02
1.050553e-02
1.045548e-02
1.040504e-02
1.035545e-02
1.035598e-02
-9.041454e-03
-8.975785e-03
-8.931932e-03
-8.906273e-03
-8.918945e-03
-8.972399e-03
-9.059621e-03
-9.166267e-03
-9.273644e-03
-9.362172e-03
-9.414923e-03
-9.420731e-03
-9.376221e-03
-9.286259e-03
-9.162622e-03
-9.021190e-03
-8.878328e-03
-8.747347e-03
-8.635801e-03
-8.544182e-03
-8.466120e-03
-8.389977e-03
-8.301430e-03
-8.186513e-03
-8.034533e-03
-7.840283e-03
-7.605090e-03
-7.336437e-03
-7.046235e-03
-6.748104e-03
-6.454324e-03
-6.173194e-03
-5.907430e-03
-5.653977e-03
-5.405194e-03
-5.151030e-03
-4.881573e-03
-4.589308e-03
-4.270578e-03
-3.925988e-03
-3.559802e-03
-3.178627e-03
-2.789800e-03
-2.399889e-03
-2.013629e-03
-1.633433e-03
-1.259473e-03
-8.901916e-04
-5.230414e-04
-1.552499e-04
2.155451e-04
5.908857e-04
9.713086e-04
1.356380e-03
1.744973e-03
2.135483e-03
2.526091e-03
2.915003e-03
3.300607e-03
3.681577e-03
4.056907e-03
4.425904e-03
4.788135e-03
5.143363e-03
5.491462e-03
5.832337e-03
6.165837e-03
6.491701e-03
6.809514e-03
7.118702e-03
7.418555e-03
7.708268e-03
7.987007e-03
8.253965e-03
8.508418e-03
8.749758e-03
8.977507e-03
9.191307e-03
9.390903e-03
9.576106e-03
9.746769e-03
9.902760e-03
1.004395e-02
1.017021e-02
1.028143e-02
1.037752e-02
1.045845e-02
1.052426e-02
1.057511e-02
1.061128e-02
1.063322e-02
1.064153e-02
1.063705e-02
1.062077e-02
1.059390e-02
1.055780e-02
1.051393e-02
1.046376e-02
1.040860e-02
1.034938e-02
1.028635e-02
1.028686e-02
-8.871711e-03
-8.802624e-03
-8.792631e-03
-8.813600e-03
-8.876573e-03
-8.975706e-03
-9.096696e-03
-9.220014e-03
-9.324747e-03
-9.392556e-03
-9.411171e-03
-9.376705e-03
-9.294232e-03
-9.176416e-03
-9.040498e-03
-8.904356e-03
-8.782606e-03
-8.683595e-03
-8.607893e-03
-8.548481e-03
-8.492480e-03
-8.424007e-03
-8.327569e-03
-8.191333e-03
-8.009605e-03
-7.783991e-03
-7.522944e-03
-7.239777e-03
-6.949573e-03
-6.665751e-03
-6.397124e-03
-6.146184e-03
-5.908991e-03
-5.676621e-03
-5.437691e-03
-5.181242e-03
-4.899236e-03
-4.588090e-03
-4.248993e-03
-3.887104e-03
-3.509982e-03
-3.125744e-03
-2.741421e-03
-2.361840e-03
-1.989178e-03
-1.623154e-03
-1.261668e-03
-9.016599e-04
-5.399658e-04
-1.739901e-04
1.978809e-04
5.761414e-04
9.602326e-04
1.348769e-03
1.739941e-03
2.131754e-03
2.522281e-03
2.909844e-03
3.293107e-03
3.671111e-03
4.043247e-03
4.409189e-03
4.768800e-03
5.122032e-03
5.468821e-03
5.809008e-03
6.142272e-03
6.468113e-03
6.785856e-03
7.094695e-03
7.393755e-03
7.682165e-03
7.959117e-03
8.223919e-03
8.476015e-03
8.714988e-03
8.940541e-03
9.152458e-03
9.350578e-03
9.534751e-03
9.704823e-03
9.860621e-03
1.000196e-02
1.012864e-02
1.024050e-02
1.033740e-02
1.041929e-02
1.048619e-02
1.053823e-02
1.057567e-02
1.059892e-02
1.060853e-02
1.060521e-02
1.058980e-02
1.056325e-02
1.052659e-02
1.048090e-02
1.042710e-02
1.036593e-02
1.029771e-02
1.022211e-02
1.022264e-02
-8.710389e-03
-8.648852e-03
-8.686836e-03
-8.761572e-03
-8.873090e-03
-9.008387e-03
-9.148169e-03
-9.270869e-03
-9.356953e-03
-9.392824e-03
-9.373525e-03
-9.303596e-03
-9.195830e-03
-9.068204e-03
-8.939740e-03
-8.826317e-03
-8.737364e-03
-8.674092e-03
-8.629538e-03
-8.590298e-03
-8.539515e-03
-8.460527e-03
-8.340437e-03
-8.172869e-03
-7.959301e-03
-7.708633e-03
-7.435039e-03
-7.154608e-03
-6.881587e-03
-6.625193e-03
-6.387778e-03
-6.164787e-03
-5.946399e-03
-5.720337e-03
-5.475010e-03
-5.202166e-03
-4.898446e-03
-4.565600e-03
-4.209486e-03
-3.838303e-03
-3.460586e-03
-3.083484e-03
-2.711659e-03
-2.346922e-03
-1.988545e-03
-1.634009e-03
-1.279946e-03
-9.230344e-04
-5.606668e-04
-1.913272e-04
1.853164e-04
5.685492e-04
9.568566e-04
1.348243e-03
1.740647e-03
2.132126e-03
2.521031e-03
2.906096e-03
3.286456e-03
3.661600e-03
4.031294e-03
4.395463e-03
4.754079e-03
5.107054e-03
5.454155e-03
5.794958e-03
6.128846e-03
6.455033e-03
6.772632e-03
7.080728e-03
7.378450e-03
7.665033e-03
7.939853e-03
8.202437e-03
8.452443e-03
8.689628e-03
8.913812e-03
9.124830e-03
9.322508e-03
9.506642e-03
9.676993e-03
9.833296e-03
9.975278e-03
1.010268e-02
1.021529e-02
1.031295e-02
1.039558e-02
1.046322e-02
1.051598e-02
1.055413e-02
1.057803e-02
1.058818e-02
1.058516e-02
1.056967e-02
1.054245e-02
1.050428e-02
1.045586e-02
1.039777e-02
1.033034e-02
1.025350e-02
1.016660e-02
1.016720e-02
-8.580196e-03
-8.534404e-03
-8.625023e-03
-8.750618e-03
-8.900569e-03
-9.056878e-03
-9.198218e-03
-9.304411e-03
-9.360676e-03
-9.360749e-03
-9.308121e-03
-9.215054e-03
-9.099598e-03
-8.981391e-03
-8.877279e-03
-8.797751e-03
-8.744929e-03
-8.712402e-03
-8.686848e-03
-8.651047e-03
-8.587657e-03
-8.483004e-03
-8.330073e-03
-8.130034e-03
-7.891875e-03
-7.630185e-03
-7.361609e-03
-7.100849e-03
-6.857283e-03
-6.633054e-03
-6.423081e-03
-6.216898e-03
-6.001679e-03
-5.765579e-03
-5.500476e-03
-5.203480e-03
-4.876993e-03
-4.527514e-03
-4.163678e-03
-3.794146e-03
-3.425869e-03
-3.063066e-03
-2.706996e-03
-2.356408e-03
-2.008408e-03
-1.659457e-03
-1.306264e-03
-9.464095e-04
-5.786537e-04
-2.029533e-04
1.797325e-04
5.677540e-04
9.590798e-04
1.351599e-03
1.743458e-03
2.133141e-03
2.519537e-03
2.901930e-03
3.279933e-03
3.653390e-03
4.022252e-03
4.386458e-03
4.745830e-03
5.100008e-03
5.448423e-03
5.790318e-03
6.124800e-03
6.450921e-03
6.767759e-03
7.074486e-03
7.370419e-03
7.655035e-03
7.927960e-03
8.188932e-03
8.437759e-03
8.674271e-03
8.898281e-03
9.109561e-03
9.307834e-03
9.492775e-03
9.664031e-03
9.821243e-03
9.964072e-03
1.009222e-02
1.020546e-02
1.030364e-02
1.038671e-02
1.045471e-02
1.050777e-02
1.054615e-02
1.057016e-02
1.058026e-02
1.057692e-02
1.056070e-02
1.053216e-02
1.049185e-02
1.044024e-02
1.037763e-02
1.030408e-02
1.021929e-02
1.012251e-02
1.012320e-02
-8.496231e-03
-8.470683e-03
-8.609743e-03
-8.775215e-03
-8.947975e-03
-9.107816e-03
-9.234638e-03
-9.312899e-03
-9.335099e-03
-9.303441e-03
-9.229185e-03
-9.129891e-03
-9.025263e-03
-8.932684e-03
-8.863482e-03
-8.820694e-03
-8.798699e-03
-8.784675e-03
-8.761533e-03
-8.711735e-03
-8.621202e-03
-8.482488e-03
-8.296461e-03
-8.072034e-03
-7.823924e-03
-7.568981e-03
-7.322027e-03
-7.092331e-03
-6.881659e-03
-6.684378e-03
-6.489468e-03
-6.283761e-03
-6.055431e-03
-5.796772e-03
-5.505608e-03
-5.185154e-03
-4.842585e-03
-4.486893e-03
-4.126687e-03
-3.768489e-03
-3.415844e-03
-3.069270e-03
-2.726886e-03
-2.385396e-03
-2.041151e-03
-1.691005e-03
-1.332874e-03
-9.659402e-04
-5.905711e-04
-2.080493e-04
1.797814e-04
5.708684e-04
9.632064e-04
1.355040e-03
1.745074e-03
2.132426e-03
2.516585e-03
2.897312e-03
3.274525e-03
3.648167e-03
4.018090e-03
4.383977e-03
4.745294e-03
5.101296e-03
5.451081e-03
5.793661e-03
6.128057e-03
6.453377e-03
6.768876e-03
7.073986e-03
7.368303e-03
7.651557e-03
7.923563e-03
8.184158e-03
8.433162e-03
8.670339e-03
8.895383e-03
9.107923e-03
9.307538e-03
9.493778e-03
9.666200e-03
9.824387e-03
9.967980e-03
1.009669e-02
1.021032e-02
1.030874e-02
1.039194e-02
1.045998e-02
1.051301e-02
1.055127e-02
1.057505e-02
1.058470e-02
1.058064e-02
1.056328e-02
1.053303e-02
1.049028e-02
1.043529e-02
1.036819e-02
1.028888e-02
1.019696e-02
1.009167e-02
1.009248e-02
-8.465156e-03
-8.460377e-03
-8.636733e-03
-8.825888e-03
-9.003594e-03
-9.150529e-03
-9.250948e-03
-9.296422e-03
-9.287877e-03
-9.235345e-03
-9.155494e-03
-9.067634e-03
-8.989252e-03
-8.932189e-03
-8.900233e-03
-8.888572e-03
-8.885075e-03
-8.873112e-03
-8.835313e-03
-8.757542e-03
-8.632175e-03
-8.459909e-03
-8.249572e-03
-8.015888e-03
-7.775714e-03
-7.543761e-03
-7.328972e-03
-7.132569e-03
-6.948265e-03
-6.764469e-03
-6.567739e-03
-6.346403e-03
-6.093349e-03
-5.807297e-03
-5.492420e-03
-5.156658e-03
-4.809370e-03
-4.459047e-03
-4.111666e-03
-3.769952e-03
-3.433547e-03
-3.099833e-03
-2.765066e-03
-2.425478e-03
-2.078118e-03
-1.721314e-03
-1.354759e-03
-9.793171e-04
-5.966642e-04
-2.088779e-04
1.819290e-04
5.738823e-04
9.654705e-04
1.355606e-03
1.743691e-03
2.129456e-03
2.512830e-03
2.893793e-03
3.272252e-03
3.647936e-03
4.020345e-03
4.388742e-03
4.752198e-03
5.109672e-03
5.460108e-03
5.802532e-03
6.136121e-03
6.460248e-03
6.774477e-03
7.078533e-03
7.372242e-03
7.655472e-03
7.928066e-03
8.189804e-03
8.440375e-03
8.679377e-03
8.906330e-03
9.120710e-03
9.321974e-03
9.509598e-03
9.683103e-03
9.842080e-03
9.986198e-03
1.011522e-02
1.022898e-02
1.032742e-02
1.041056e-02
1.047847e-02
1.053131e-02
1.056928e-02
1.059262e-02
1.060164e-02
1.059663e-02
1.057791e-02
1.054576e-02
1.050043e-02
1.044206e-02
1.037067e-02
1.028607e-02
1.018784e-02
1.007528e-02
1.007622e-02
-8.485798e-03
-8.498608e-03
-8.696792e-03
-8.891468e-03
-9.057332e-03
-9.178967e-03
-9.247423e-03
-9.262559e-03
-9.233160e-03
-9.174807e-03
-9.106098e-03
-9.044275e-03
-9.001367e-03
-8.981679e-03
-8.981088e-03
-8.988170e-03
-8.986879e-03
-8.960235e-03
-8.894274e-03
-8.781408e-03
-8.622317e-03
-8.425826e-03
-8.206668e-03
-7.981658e-03
-7.765302e-03
-7.566110e-03
-7.384646e-03
-7.213873e-03
-7.041560e-03
-6.853955e-03
-6.639553e-03
-6.391882e-03
-6.110636e-03
-5.801037e-03
-5.471871e-03
-5.132911e-03
-4.792553e-03
-4.456208e-03
-4.125739e-03
-3.799853e-03
-3.475142e-03
-3.147360e-03
-2.812597e-03
-2.468088e-03
-2.112586e-03
-1.746322e-03
-1.370697e-03
-9.878124e-04
-6.000084e-04
-2.094716e-04
1.820231e-04
5.732312e-04
9.633950e-04
1.352157e-03
1.739504e-03
2.125529e-03
2.510262e-03
2.893544e-03
3.274954e-03
3.653785e-03
4.029089e-03
4.399760e-03
4.764646e-03
5.122661e-03
5.472878e-03
5.814583e-03
6.147286e-03
6.470695e-03
6.784652e-03
7.089060e-03
7.383807e-03
7.668708e-03
7.943472e-03
8.207689e-03
8.460844e-03
8.702345e-03
8.931566e-03
9.147878e-03
9.350693e-03
9.539485e-03
9.713807e-03
9.873306e-03
1.001772e-02
1.014687e-02
1.026066e-02
1.035906e-02
1.044211e-02
1.050989e-02
1.056254e-02
1.060020e-02
1.062308e-02
1.063139e-02
1.062534e-02
1.060515e-02
1.057102e-02
1.052311e-02
1.046145e-02
1.038603e-02
1.029662e-02
1.019285e-02
1.007410e-02
1.007519e-02
-8.550658e-03
-8.574952e-03
-8.778070e-03
-8.961371e-03
-9.102629e-03
-9.192762e-03
-9.230846e-03
-9.224559e-03
-9.188376e-03
-9.140035e-03
-9.096313e-03
-9.069178e-03
-9.063230e-03
-9.074868e-03
-9.093282e-03
-9.102996e-03
-9.087468e-03
-9.033013e-03
-8.932183e-03
-8.785744e-03
-8.602606e-03
-8.397582e-03
-8.187497e-03
-7.986691e-03
-7.803254e-03
-7.637082e-03
-7.480345e-03
-7.320105e-03
-7.142218e-03
-6.935264e-03
-6.693352e-03
-6.417119e-03
-6.112841e-03
-5.790177e-03
-5.459373e-03
-5.128781e-03
-4.803300e-03
-4.483971e-03
-4.168591e-03
-3.852961e-03
-3.532328e-03
-3.202613e-03
-2.861208e-03
-2.507257e-03
-2.141512e-03
-1.765890e-03
-1.382917e-03
-9.951940e-04
-6.049848e-04
-2.139672e-04
1.768429e-04
5.670261e-04
9.565536e-04
1.345587e-03
1.734358e-03
2.122919e-03
2.511019e-03
2.898060e-03
3.283126e-03
3.665067e-03
4.042631e-03
4.414599e-03
4.779903e-03
5.137707e-03
5.487436e-03
5.828756e-03
6.161510e-03
6.485637e-03
6.801077e-03
7.107703e-03
7.405262e-03
7.693362e-03
7.971472e-03
8.238955e-03
8.495110e-03
8.739218e-03
8.970582e-03
9.188565e-03
9.392612e-03
9.582263e-03
9.757154e-03
9.917013e-03
1.006165e-02
1.019096e-02
1.030486e-02
1.040337e-02
1.048649e-02
1.055430e-02
1.060688e-02
1.064433e-02
1.066678e-02
1.067437e-02
1.066725e-02
1.064556e-02
1.060943e-02
1.055896e-02
1.049417e-02
1.041499e-02
1.032125e-02
1.021260e-02
1.008856e-02
1.008982e-02
-8.647942e-03
-8.675922e-03
-8.868521e-03
-9.027648e-03
-9.137690e-03
-9.197203e-03
-9.212962e-03
-9.198433e-03
-9.170502e-03
-9.145392e-03
-9.134885e-03
-9.143720e-03
-9.168676e-03
-9.199433e-03
-9.220998e-03
-9.217206e-03
-9.174614e-03
-9.085909e-03
-8.951948e-03
-8.781757e-03
-8.590299e-03
-8.394509e-03
-8.208687e-03
-8.040625e-03
-7.889651e-03
-7.747182e-03
-7.599552e-03
-7.432145e-03
-7.233500e-03
-6.998173e-03
-6.727624e-03
-6.429101e-03
-6.113108e-03
-5.790378e-03
-5.469280e-03
-5.154287e-03
-4.845711e-03
-4.540520e-03
-4.233793e-03
-3.920296e-03
-3.595785e-03
-3.257781e-03
-2.905777e-03
-2.540986e-03
-2.165793e-03
-1.783102e-03
-1.395747e-03
-1.006047e-03
-6.155775e-04
-2.251324e-04
1.651501e-04
5.555543e-04
9.464708e-04
1.338158e-03
1.730644e-03
2.123552e-03
2.516094e-03
2.907148e-03
3.295394e-03
3.679481e-03
4.058178e-03
4.430491e-03
4.795718e-03
5.153451e-03
5.503511e-03
5.845861e-03
6.180497e-03
6.507360e-03
6.826257e-03
7.136832e-03
7.438562e-03
7.730782e-03
8.012731e-03
8.283607e-03
8.542614e-03
8.789010e-03
9.022132e-03
9.241418e-03
9.446409e-03
9.636747e-03
9.812163e-03
9.972465e-03
1.011752e-02
1.024724e-02
1.036157e-02
1.046049e-02
1.054398e-02
1.061206e-02
1.066475e-02
1.070210e-02
1.072418e-02
1.073106e-02
1.072284e-02
1.069962e-02
1.066150e-02
1.060854e-02
1.054075e-02
1.045810e-02
1.036042e-02
1.024748e-02
1.011888e-02
1.012033e-02
-8.763930e-03
-8.787638e-03
-8.958197e-03
-9.086494e-03
-9.165764e-03
-9.202044e-03
-9.207944e-03
-9.199589e-03
-9.192691e-03
-9.198828e-03
-9.222829e-03
-9.261779e-03
-9.305763e-03
-9.340170e-03
-9.349104e-03
-9.319245e-03
-9.243299e-03
-9.122122e-03
-8.964797e-03
-8.786449e-03
-8.604216e-03
-8.432517e-03
-8.279044e-03
-8.142740e-03
-8.014406e-03
-7.879694e-03
-7.723466e-03
-7.534098e-03
-7.306423e-03
-7.042548e-03
-6.750549e-03
-6.441683e-03
-6.127146e-03
-5.815360e-03
-5.510456e-03
-5.212130e-03
-4.916641e-03
-4.618444e-03
-4.311900e-03
-3.992629e-03
-3.658273e-03
-3.308633e-03
-2.945324e-03
-2.571125e-03
-2.189252e-03
-1.802710e-03
-1.413839e-03
-1.024086e-03
-6.340234e-04
-2.435306e-04
1.479068e-04
5.408704e-04
9.356773e-04
1.332205e-03
1.729912e-03
2.127806e-03
2.524574e-03
2.918768e-03
3.308994e-03
3.694078e-03
4.073154e-03
4.445700e-03
4.811485e-03
5.170479e-03
5.522734e-03
5.868263e-03
6.206954e-03
6.538508e-03
6.862427e-03
7.178038e-03
7.484533e-03
7.781035e-03
8.066656e-03
8.340548e-03
8.601944e-03
8.850182e-03
9.084713e-03
9.305097e-03
9.510994e-03
9.702145e-03
9.878355e-03
1.003947e-02
1.018538e-02
1.031598e-02
1.043118e-02
1.053090e-02
1.061508e-02
1.068367e-02
1.073663e-02
1.077396e-02
1.079568e-02
1.080184e-02
1.079249e-02
1.076772e-02
1.072761e-02
1.067224e-02
1.060161e-02
1.051572e-02
1.041447e-02
1.029769e-02
1.016512e-02
1.016678e-02
-8.885498e-03
-8.898380e-03
-9.041081e-03
-9.138884e-03
-9.194364e-03
-9.219383e-03
-9.229429e-03
-9.239808e-03
-9.261977e-03
-9.300904e-03
-9.353996e-03
-9.411728e-03
-9.459818e-03
-9.482543e-03
-9.466563e-03
-9.404423e-03
-9.296795e-03
-9.152685e-03
-8.987304e-03
-8.818030e-03
-8.659549e-03
-8.519675e-03
-8.397211e-03
-8.282545e-03
-8.160764e-03
-8.016214e-03
-7.837010e-03
-7.618094e-03
-7.362024e-03
-7.077522e-03
-6.776467e-03
-6.470454e-03
-6.167968e-03
-5.872862e-03
-5.584322e-03
-5.298022e-03
-5.007911e-03
-4.708034e-03
-4.393932e-03
-4.063380e-03
-3.716467e-03
-3.355155e-03
-2.982550e-03
-2.602105e-03
-2.216927e-03
-1.829312e-03
-1.440548e-03
-1.050972e-03
-6.602213e-04
-2.675949e-04
1.275753e-04
5.256178e-04
9.262926e-04
1.328778e-03
1.731863e-03
2.134066e-03
2.533856e-03
2.929864e-03
3.321034e-03
3.706689e-03
4.086514e-03
4.460464e-03
4.828640e-03
5.191142e-03
5.547953e-03
5.898859e-03
6.243412e-03
6.580946e-03
6.910622e-03
7.231495e-03
7.542582e-03
7.842933e-03
8.131673e-03
8.408040e-03
8.671394e-03
8.921218e-03
9.157107e-03
9.378745e-03
9.585886e-03
9.778329e-03
9.955903e-03
1.011845e-02
1.026581e-02
1.039783e-02
1.051436e-02
1.061525e-02
1.070038e-02
1.076964e-02
1.082295e-02
1.086027e-02
1.088161e-02
1.088699e-02
1.087647e-02
1.085014e-02
1.080807e-02
1.075036e-02
1.067704e-02
1.058814e-02
1.048361e-02
1.036337e-02
1.022724e-02
1.022913e-02
-9.002494e-03
-9.000651e-03
-9.116083e-03
-9.190208e-03
-9.233577e-03
-9.261115e-03
-9.287840e-03
-9.325214e-03
-9.378468e-03
-9.445431e-03
-9.517037e-03
-9.579357e-03
-9.616797e-03
-9.615883e-03
-9.568817e-03
-9.475861e-03
-9.345726e-03
-9.193570e-03
-9.036973e-03
-8.890979e-03
-8.763732e-03
-8.654156e-03
-8.552475e-03
-8.443382e-03
-8.310769e-03
-8.142434e-03
-7.933278e-03
-7.686124e-03
-7.410150e-03
-7.117710e-03
-6.820714e-03
-6.527690e-03
-6.242258e-03
-5.963180e-03
-5.685652e-03
-5.403226e-03
-5.109726e-03
-4.800675e-03
-4.474012e-03
-4.130108e-03
-3.771240e-03
-3.400787e-03
-3.022369e-03
-2.639127e-03
-2.253253e-03
-1.865828e-03
-1.476934e-03
-1.085972e-03
-6.920887e-04
-2.945873e-04
1.067607e-04
5.115623e-04
9.187717e-04
1.326875e-03
1.734242e-03
2.139308e-03
2.540789e-03
2.937813e-03
3.329934e-03
3.717068e-03
4.099355e-03
4.476994e-03
4.850092e-03
5.218551e-03
5.582009e-03
5.939834e-03
6.291174e-03
6.635022e-03
6.970303e-03
7.295955e-03
7.610990e-03
7.914536e-03
8.205862e-03
8.484372e-03
8.749597e-03
9.001175e-03
9.238815e-03
9.462282e-03
9.671363e-03
9.865854e-03
1.004554e-02
1.021022e-02
1.035964e-02
1.049357e-02
1.061180e-02
1.071411e-02
1.080032e-02
1.087030e-02
1.092395e-02
1.096123e-02
1.098213e-02
1.098669e-02
1.097499e-02
1.094710e-02
1.090312e-02
1.084317e-02
1.076730e-02
1.067557e-02
1.056800e-02
1.044456e-02
1.030518e-02
1.030731e-02
-9.109573e-03
-9.092398e-03
-9.187016e-03
-9.248957e-03
-9.293876e-03
-9.336558e-03
-9.388591e-03
-9.455615e-03
-9.536038e-03
-9.621396e-03
-9.698213e-03
-9.751065e-03
-9.766295e-03
-9.735615e-03
-9.658660e-03
-9.543595e-03
-9.405318e-03
-9.261506e-03
-9.127588e-03
-9.012197e-03
-8.914624e-03
-8.825190e-03
-8.728399e-03
-8.607790e-03
-8.450827e-03
-8.252261e-03
-8.015009e-03
-7.748532e-03
-7.465518e-03
-7.178102e-03
-6.894826e-03
-6.619106e-03
-6.349342e-03
-6.080337e-03
-5.805334e-03
-5.518008e-03
-5.213924e-03
-4.891217e-03
-4.550544e-03
-4.194484e-03
-3.826653e-03
-3.450793e-03
-3.070021e-03
-2.686372e-03
-2.300673e-03
-1.912724e-03
-1.521690e-03
-1.126590e-03
-7.267423e-04
-3.220750e-04
8.676781e-05
4.985124e-04
9.114381e-04
1.323707e-03
1.733767e-03
2.140478e-03
2.543198e-03
2.941751e-03
3.336294e-03
3.727132e-03
4.114531e-03
4.498556e-03
4.878981e-03
5.255255e-03
5.626540e-03
5.991785e-03
6.349826e-03
6.699480e-03
7.039631e-03
7.369286e-03
7.687605e-03
7.993911e-03
8.287672e-03
8.568478e-03
8.836007e-03
9.089996e-03
9.330207e-03
9.556404e-03
9.768338e-03
9.965735e-03
1.014830e-02
1.031572e-02
1.046767e-02
1.060385e-02
1.072397e-02
1.082779e-02
1.091510e-02
1.098578e-02
1.103973e-02
1.107692e-02
1.109736e-02
1.110110e-02
1.108823e-02
1.105883e-02
1.101302e-02
1.095093e-02
1.087263e-02
1.077822e-02
1.066778e-02
1.054132e-02
1.039887e-02
1.040125e-02
-9.207047e-03
-9.177104e-03
-9.261544e-03
-9.324809e-03
-9.383984e-03
-9.450830e-03
-9.531515e-03
-9.625195e-03
-9.724188e-03
-9.815640e-03
-9.884415e-03
-9.916703e-03
-9.903657e-03
-9.844104e-03
-9.745424e-03
-9.622010e-03
-9.491480e-03
-9.369613e-03
-9.265629e-03
-9.179394e-03
-9.101571e-03
-9.016690e-03
-8.908059e-03
-8.762826e-03
-8.575511e-03
-8.348987e-03
-8.092848e-03
-7.819990e-03
-7.542700e-03
-7.269513e-03
-7.003656e-03
-6.743221e-03
-6.482675e-03
-6.215013e-03
-5.933813e-03
-5.634716e-03
-5.316076e-03
-4.978846e-03
-4.625899e-03
-4.261075e-03
-3.888209e-03
-3.510362e-03
-3.129371e-03
-2.745776e-03
-2.359071e-03
-1.968179e-03
-1.572004e-03
-1.169914e-03
-7.620318e-04
-3.492880e-04
6.674503e-05
4.841726e-04
9.010855e-04
1.315897e-03
1.727655e-03
2.135990e-03
2.541012e-03
2.943117e-03
3.342751e-03
3.740201e-03
4.135446e-03
4.528086e-03
4.917354e-03
5.302190e-03
5.681350e-03
6.053527e-03
6.417460e-03
6.772012e-03
7.116219e-03
7.449302e-03
7.770658e-03
8.079830e-03
8.376470e-03
8.660297e-03
8.931060e-03
9.188507e-03
9.432362e-03
9.662314e-03
9.878013e-03
1.007908e-02
1.026510e-02
1.043568e-02
1.059043e-02
1.072899e-02
1.085105e-02
1.095637e-02
1.104476e-02
1.111610e-02
1.117034e-02
1.120745e-02
1.122745e-02
1.123042e-02
1.121644e-02
1.118560e-02
1.113805e-02
1.107390e-02
1.099327e-02
1.089630e-02
1.078308e-02
1.065372e-02
1.050830e-02
1.051092e-02
-9.300536e-03
-9.262747e-03
-9.349362e-03
-9.426583e-03
-9.509304e-03
-9.604267e-03
-9.711500e-03
-9.824278e-03
-9.930572e-03
-1.001571e-02
-1.006584e-02
-1.007157e-02
-1.003080e-02
-9.949932e-03
-9.842613e-03
-9.726199e-03
-9.616739e-03
-9.524085e-03
-9.448832e-03
-9.382204e-03
-9.308959e-03
-9.212308e-03
-9.079113e-03
-8.903603e-03
-8.688494e-03
-8.443391e-03
-8.181302e-03
-7.914609e-03
-7.651835e-03