# vtk DataFile Version 3.0
Scalar Field
ASCII
DATASET RECTILINEAR_GRID
DIMENSIONS 102 102 1
X_COORDINATES 102 double
0.000000 0.100000 0.200000 0.300000 0.400000 0.500000 0.600000 0.700000 0.800000 0.900000 1.000000 1.100000 1.200000 1.300000 1.400000 1.500000 1.600000 1.700000 1.800000 1.900000 2.000000 2.100000 2.200000 2.300000 2.400000 2.500000 2.600000 2.700000 2.800000 2.900000 3.000000 3.100000 3.200000 3.300000 3.400000 3.500000 3.600000 3.700000 3.800000 3.900000 4.000000 4.100000 4.200000 4.300000 4.400000 4.500000 4.600000 4.700000 4.800000 4.900000 5.000000 5.100000 5.200000 5.300000 5.400000 5.500000 5.600000 5.700000 5.800000 5.900000 6.000000 6.100000 6.200000 6.300000 6.400000 6.500000 6.600000 6.700000 6.800000 6.900000 7.000000 7.100000 7.200000 7.300000 7.400000 7.500000 7.600000 7.700000 7.800000 7.900000 8.000000 8.100000 8.200000 8.300000 8.400000 8.500000 8.600000 8.700000 8.800000 8.900000 9.000000 9.100000 9.200000 9.300000 9.400000 9.500000 9.600000 9.700000 9.800000 9.900000 10.000000 10.100000 
Y_COORDINATES 102 double
0.000000 0.100000 0.200000 0.300000 0.400000 0.500000 0.600000 0.700000 0.800000 0.900000 1.000000 1.100000 1.200000 1.300000 1.400000 1.500000 1.600000 1.700000 1.800000 1.900000 2.000000 2.100000 2.200000 2.300000 2.400000 2.500000 2.600000 2.700000 2.800000 2.900000 3.000000 3.100000 3.200000 3.300000 3.400000 3.500000 3.600000 3.700000 3.800000 3.900000 4.000000 4.100000 4.200000 4.300000 4.400000 4.500000 4.600000 4.700000 4.800000 4.900000 5.000000 5.100000 5.200000 5.300000 5.400000 5.500000 5.600000 5.700000 5.800000 5.900000 6.000000 6.100000 6.200000 6.300000 6.400000 6.500000 6.600000 6.700000 6.800000 6.900000 7.000000 7.100000 7.200000 7.300000 7.400000 7.500000 7.600000 7.700000 7.800000 7.900000 8.000000 8.100000 8.200000 8.300000 8.400000 8.500000 8.600000 8.700000 8.800000 8.900000 9.000000 9.100000 9.200000 9.300000 9.400000 9.500000 9.600000 9.700000 9.800000 9.900000 10.000000 10.100000 
Z_COORDINATES 1 double
0.0
POINT_DATA 10404
SCALARS Pressure double 1
LOOKUP_TABLE default
0.000000e+00
-3.264738e-03
-3.107890e-03
-3.064666e-03
-3.145287e-03
-3.326912e-03
-3.565750e-03
-3.808969e-03
-4.008088e-03
-4.130537e-03
-4.166342e-03
-4.128261e-03
-4.045653e-03
-3.954192e-03
-3.884735e-03
-3.854734e-03
-3.864569e-03
-3.899473e-03
-3.935863e-03
-3.949574e-03
-3.923159e-03
-3.850041e-03
-3.734620e-03
-3.588928e-03
-3.427475e-03
-3.262286e-03
-3.099745e-03
-2.939932e-03
-2.778197e-03
-2.607948e-03
-2.423460e-03
-2.221720e-03
-2.002891e-03
-1.769557e-03
-1.525293e-03
-1.273232e-03
-1.015131e-03
-7.511549e-04
-4.802858e-04
-2.010679e-04
8.764538e-05
3.861964e-04
6.939886e-04
1.009673e-03
1.331525e-03
1.657847e-03
1.987280e-03
2.318954e-03
2.652466e-03
2.987756e-03
3.324921e-03
3.664033e-03
4.005009e-03
4.347530e-03
4.691055e-03
5.034850e-03
5.378040e-03
5.719672e-03
6.058772e-03
6.394389e-03
6.725624e-03
7.051650e-03
7.371702e-03
7.685077e-03
7.991113e-03
8.289178e-03
8.578653e-03
8.858923e-03
9.129378e-03
9.389408e-03
9.638414e-03
9.875803e-03
1.010100e-02
1.031345e-02
1.051261e-02
1.069796e-02
1.086900e-02
1.102527e-02
1.116632e-02
1.129177e-02
1.140127e-02
1.149455e-02
1.157142e-02
1.163178e-02
1.167562e-02
1.170308e-02
1.171442e-02
1.171006e-02
1.169061e-02
1.165690e-02
1.161002e-02
1.155137e-02
1.148275e-02
1.140642e-02
1.132521e-02
1.124266e-02
1.116319e-02
1.109217e-02
1.103595e-02
1.100120e-02
1.099251e-02
0.000000e+00
-3.264738e-03
-3.091946e-03
-3.000983e-03
-3.040789e-03
-3.200206e-03
-3.437204e-03
-3.696013e-03
-3.921889e-03
-4.074483e-03
-4.136583e-03
-4.116060e-03
-4.040791e-03
-3.948413e-03
-3.874229e-03
-3.840996e-03
-3.853525e-03
-3.899312e-03
-3.954378e-03
-3.991925e-03
-3.990721e-03
-3.940567e-03
-3.843504e-03
-3.710988e-03
-3.558601e-03
-3.400435e-03
-3.245065e-03
-3.094154e-03
-2.943624e-03
-2.786485e-03
-2.615990e-03
-2.427974e-03
-2.221738e-03
-1.999514e-03
-1.765022e-03
-1.521850e-03
-1.272271e-03
-1.016822e-03
-7.546043e-04
-4.840450e-04
-2.037390e-04
8.693374e-05
3.875731e-04
6.968989e-04
1.013134e-03
1.334458e-03
1.659376e-03
1.986918e-03
2.316651e-03
2.648552e-03
2.982805e-03
3.319597e-03
3.658952e-03
4.000643e-03
4.344163e-03
4.688781e-03
5.033599e-03
5.377631e-03
5.719860e-03
6.059299e-03
6.395021e-03
6.726179e-03
7.051999e-03
7.371778e-03
7.684861e-03
7.990620e-03
8.288444e-03
8.577724e-03
8.857851e-03
9.128212e-03
9.388197e-03
9.637203e-03
9.874638e-03
1.009992e-02
1.031250e-02
1.051180e-02
1.069732e-02
1.086853e-02
1.102496e-02
1.116615e-02
1.129172e-02
1.140131e-02
1.149467e-02
1.157159e-02
1.163200e-02
1.167590e-02
1.170341e-02
1.171480e-02
1.171050e-02
1.169111e-02
1.165745e-02
1.161063e-02
1.155203e-02
1.148346e-02
1.140716e-02
1.132599e-02
1.124347e-02
1.116402e-02
1.109303e-02
1.103683e-02
1.100209e-02
1.099341e-02
1.099251e-02
-3.089163e-03
-2.981697e-03
-3.003749e-03
-3.137977e-03
-3.340775e-03
-3.562480e-03
-3.754997e-03
-3.883828e-03
-3.935575e-03
-3.919060e-03
-3.860100e-03
-3.791859e-03
-3.743988e-03
-3.733920e-03
-3.762842e-03
-3.817147e-03
-3.874334e-03
-3.910961e-03
-3.909833e-03
-3.864169e-03
-3.777834e-03
-3.662144e-03
-3.530857e-03
-3.395351e-03
-3.261554e-03
-3.129341e-03
-2.994106e-03
-2.849502e-03
-2.690150e-03
-2.513364e-03
-2.319511e-03
-2.111191e-03
-1.891810e-03
-1.664211e-03
-1.429843e-03
-1.188639e-03
-9.394877e-04
-6.809917e-04
-4.121693e-04
-1.328766e-04
1.561337e-04
4.534534e-04
7.574133e-04
1.066471e-03
1.379478e-03
1.695781e-03
2.015164e-03
2.337690e-03
2.663517e-03
2.992721e-03
3.325188e-03
3.660559e-03
3.998238e-03
4.337418e-03
4.677188e-03
5.016588e-03
5.354662e-03
5.690498e-03
6.023248e-03
6.352135e-03
6.676447e-03
6.995519e-03
7.308723e-03
7.615443e-03
7.915070e-03
8.206993e-03
8.490598e-03
8.765273e-03
9.030407e-03
9.285401e-03
9.529664e-03
9.762620e-03
9.983703e-03
1.019236e-02
1.038807e-02
1.057030e-02
1.073858e-02
1.089247e-02
1.103156e-02
1.115551e-02
1.126405e-02
1.135699e-02
1.143420e-02
1.149566e-02
1.154145e-02
1.157176e-02
1.158692e-02
1.158741e-02
1.157388e-02
1.154721e-02
1.150851e-02
1.145919e-02
1.140101e-02
1.133613e-02
1.126720e-02
1.119740e-02
1.113052e-02
1.107096e-02
1.102360e-02
1.099342e-02
1.098490e-02
1.098404e-02
-2.974882e-03
-2.949669e-03
-3.075497e-03
-3.266020e-03
-3.462968e-03
-3.623842e-03
-3.721398e-03
-3.749456e-03
-3.722249e-03
-3.667837e-03
-3.617918e-03
-3.597444e-03
-3.617337e-03
-3.672367e-03
-3.744445e-03
-3.809677e-03
-3.846467e-03
-3.841811e-03
-3.793923e-03
-3.710792e-03
-3.605771e-03
-3.492182e-03
-3.378960e-03
-3.268657e-03
-3.158068e-03
-3.040738e-03
-2.910069e-03
-2.761782e-03
-2.594983e-03
-2.411743e-03
-2.215694e-03
-2.010369e-03
-1.797976e-03
-1.578955e-03
-1.352309e-03
-1.116396e-03
-8.698028e-04
-6.119572e-04
-3.433207e-04
-6.519616e-05
2.206986e-04
5.126953e-04
8.095212e-04
1.110451e-03
1.415265e-03
1.724087e-03
2.037158e-03
2.354649e-03
2.676520e-03
3.002467e-03
3.331933e-03
3.664153e-03
3.998236e-03
4.333188e-03
4.668064e-03
5.001974e-03
5.334098e-03
5.663693e-03
5.990080e-03
6.312626e-03
6.630729e-03
6.943790e-03
7.251211e-03
7.552382e-03
7.846684e-03
8.133493e-03
8.412186e-03
8.682149e-03
8.942776e-03
9.193473e-03
9.433656e-03
9.662753e-03
9.880203e-03
1.008546e-02
1.027800e-02
1.045734e-02
1.062303e-02
1.077466e-02
1.091189e-02
1.103444e-02
1.114210e-02
1.123473e-02
1.131226e-02
1.137473e-02
1.142225e-02
1.145505e-02
1.147351e-02
1.147813e-02
1.146958e-02
1.144875e-02
1.141675e-02
1.137494e-02
1.132498e-02
1.126888e-02
1.120900e-02
1.114812e-02
1.108941e-02
1.103642e-02
1.099293e-02
1.096283e-02
1.094994e-02
1.094913e-02
-2.942016e-03
-2.995092e-03
-3.182518e-03
-3.375237e-03
-3.519760e-03
-3.593662e-03
-3.597312e-03
-3.551667e-03
-3.489919e-03
-3.445926e-03
-3.443280e-03
-3.488524e-03
-3.570471e-03
-3.665361e-03
-3.745637e-03
-3.789002e-03
-3.784649e-03
-3.734868e-03
-3.652061e-03
-3.552837e-03
-3.451690e-03
-3.356536e-03
-3.267381e-03
-3.178031e-03
-3.079660e-03
-2.964585e-03
-2.828826e-03
-2.672763e-03
-2.500034e-03
-2.315491e-03
-2.123156e-03
-1.924970e-03
-1.720607e-03
-1.508203e-03
-1.285498e-03
-1.050900e-03
-8.040830e-04
-5.460078e-04
-2.785047e-04
-3.648034e-06
2.768110e-04
5.617848e-04
8.509119e-04
1.144392e-03
1.442702e-03
1.746304e-03
2.055427e-03
2.369954e-03
2.689414e-03
3.013049e-03
3.339916e-03
3.668994e-03
3.999272e-03
4.329741e-03
4.659560e-03
4.988000e-03
5.314422e-03
5.638250e-03
5.958937e-03
6.275943e-03
6.588712e-03
6.896661e-03
7.199183e-03
7.495653e-03
7.785436e-03
8.067899e-03
8.342418e-03
8.608378e-03
8.865174e-03
9.112211e-03
9.348902e-03
9.574669e-03
9.788954e-03
9.991221e-03
1.018097e-02
1.035774e-02
1.052112e-02
1.067078e-02
1.080641e-02
1.092779e-02
1.103474e-02
1.112717e-02
1.120506e-02
1.126845e-02
1.131749e-02
1.135245e-02
1.137369e-02
1.138175e-02
1.137730e-02
1.136121e-02
1.133454e-02
1.129859e-02
1.125488e-02
1.120520e-02
1.115163e-02
1.109651e-02
1.104244e-02
1.099223e-02
1.094875e-02
1.091489e-02
1.089336e-02
1.089261e-02
-2.981868e-03
-3.090407e-03
-3.286152e-03
-3.431676e-03
-3.494992e-03
-3.480716e-03
-3.415780e-03
-3.339547e-03
-3.290531e-03
-3.294172e-03
-3.355639e-03
-3.459760e-03
-3.577605e-03
-3.676981e-03
-3.732917e-03
-3.734540e-03
-3.686381e-03
-3.604348e-03
-3.508465e-03
-3.415405e-03
-3.333479e-03
-3.261449e-03
-3.190944e-03
-3.110933e-03
-3.012248e-03
-2.890482e-03
-2.746538e-03
-2.585097e-03
-2.412038e-03
-2.232002e-03
-2.046983e-03
-1.856254e-03
-1.657350e-03
-1.447504e-03
-1.224895e-03
-9.892854e-04
-7.419589e-04
-4.851312e-04
-2.211691e-04
4.807674e-05
3.216300e-04
5.993978e-04
8.819142e-04
1.169962e-03
1.464211e-03
1.764973e-03
2.072091e-03
2.384971e-03
2.702691e-03
3.024148e-03
3.348196e-03
3.673757e-03
3.999885e-03
4.325685e-03
4.650503e-03
4.973796e-03
5.295079e-03
5.613891e-03
5.929752e-03
6.242144e-03
6.550506e-03
6.854237e-03
7.152708e-03
7.445279e-03
7.731307e-03
8.010155e-03
8.281198e-03
8.543814e-03
8.797392e-03
9.041324e-03
9.275016e-03
9.497890e-03
9.709396e-03
9.909021e-03
1.009630e-02
1.027082e-02
1.043223e-02
1.058021e-02
1.071451e-02
1.083495e-02
1.094136e-02
1.103369e-02
1.111191e-02
1.117609e-02
1.122641e-02
1.126313e-02
1.128663e-02
1.129745e-02
1.129624e-02
1.128385e-02
1.126127e-02
1.122968e-02
1.119046e-02
1.114518e-02
1.109561e-02
1.104368e-02
1.099148e-02
1.094115e-02
1.089483e-02
1.085448e-02
1.082176e-02
1.082107e-02
-3.064196e-03
-3.193405e-03
-3.348667e-03
-3.415937e-03
-3.394771e-03
-3.315876e-03
-3.224048e-03
-3.163342e-03
-3.163246e-03
-3.230391e-03
-3.348270e-03
-3.484529e-03
-3.602792e-03
-3.674578e-03
-3.687231e-03
-3.645538e-03
-3.567284e-03
-3.475080e-03
-3.387877e-03
-3.315239e-03
-3.255921e-03
-3.200537e-03
-3.136601e-03
-3.053640e-03
-2.946485e-03
-2.815918e-03
-2.666977e-03
-2.506074e-03
-2.338275e-03
-2.165736e-03
-1.987627e-03
-1.801236e-03
-1.603554e-03
-1.392640e-03
-1.168299e-03
-9.319751e-04
-6.860775e-04
-4.331128e-04
-1.749580e-04
8.750722e-05
3.543785e-04
6.264161e-04
9.046096e-04
1.189774e-03
1.482282e-03
1.781959e-03
2.088129e-03
2.399757e-03
2.715622e-03
3.034490e-03
3.355229e-03
3.676886e-03
3.998701e-03
4.319957e-03
4.640189e-03
4.958991e-03
5.275969e-03
5.590695e-03
5.902687e-03
6.211402e-03
6.516249e-03
6.816601e-03
7.111814e-03
7.401240e-03
7.684231e-03
7.960147e-03
8.228350e-03
8.488205e-03
8.739084e-03
8.980371e-03
9.211471e-03
9.431820e-03
9.640897e-03
9.838230e-03
1.002340e-02
1.019602e-02
1.035579e-02
1.050242e-02
1.063569e-02
1.075539e-02
1.086141e-02
1.095366e-02
1.103215e-02
1.109696e-02
1.114827e-02
1.118636e-02
1.121162e-02
1.122456e-02
1.122582e-02
1.121618e-02
1.119657e-02
1.116804e-02
1.113181e-02
1.108921e-02
1.104174e-02
1.099095e-02
1.093848e-02
1.088593e-02
1.083479e-02
1.078631e-02
1.074130e-02
1.074068e-02
-3.147506e-03
-3.260428e-03
-3.344328e-03
-3.328630e-03
-3.245214e-03
-3.142298e-03
-3.068832e-03
-3.059147e-03
-3.123264e-03
-3.245780e-03
-3.393171e-03
-3.526338e-03
-3.613657e-03
-3.639966e-03
-3.608863e-03
-3.538341e-03
-3.452224e-03
-3.371044e-03
-3.305688e-03
-3.255620e-03
-3.211487e-03
-3.160337e-03
-3.091033e-03
-2.997810e-03
-2.881046e-03
-2.745586e-03
-2.597785e-03
-2.442707e-03
-2.282507e-03
-2.116357e-03
-1.941563e-03
-1.755184e-03
-1.555388e-03
-1.342107e-03
-1.116885e-03
-8.821720e-04
-6.404332e-04
-3.934346e-04
-1.419010e-04
1.144266e-04
3.764495e-04
6.452557e-04
9.217095e-04
1.206184e-03
1.498471e-03
1.797836e-03
2.103176e-03
2.413212e-03
2.726663e-03
3.042384e-03
3.359432e-03
3.677087e-03
3.994811e-03
4.312044e-03
4.628442e-03
4.943658e-03
5.257301e-03
5.568912e-03
5.877966e-03
6.183879e-03
6.486030e-03
6.783779e-03
7.076472e-03
7.363455e-03
7.644072e-03
7.917664e-03
8.183574e-03
8.441151e-03
8.689758e-03
8.928784e-03
9.157657e-03
9.375847e-03
9.582875e-03
9.778310e-03
9.961767e-03
1.013290e-02
1.029140e-02
1.043700e-02
1.056947e-02
1.068861e-02
1.079430e-02
1.088647e-02
1.096514e-02
1.103040e-02
1.108244e-02
1.112154e-02
1.114810e-02
1.116260e-02
1.116564e-02
1.115794e-02
1.114032e-02
1.111372e-02
1.107919e-02
1.103786e-02
1.099095e-02
1.093971e-02
1.088538e-02
1.082913e-02
1.077194e-02
1.071452e-02
1.065708e-02
1.065654e-02
-3.192096e-03
-3.259561e-03
-3.266759e-03
-3.189754e-03
-3.084190e-03
-3.002194e-03
-2.982440e-03
-3.039045e-03
-3.159336e-03
-3.310619e-03
-3.452895e-03
-3.552563e-03
-3.592248e-03
-3.573791e-03
-3.514249e-03
-3.437341e-03
-3.364082e-03
-3.306113e-03
-3.263644e-03
-3.227910e-03
-3.186330e-03
-3.127900e-03
-3.046786e-03
-2.943113e-03
-2.821320e-03
-2.687273e-03
-2.545565e-03
-2.398009e-03
-2.243646e-03
-2.079885e-03
-1.904062e-03
-1.714699e-03
-1.512026e-03
-1.297748e-03
-1.074293e-03
-8.439577e-04
-6.082515e-04
-3.676410e-04
-1.216673e-04
1.306797e-04
3.905081e-04
6.586371e-04
9.353630e-04
1.220396e-03
1.512936e-03
1.811841e-03
2.115815e-03
2.423589e-03
2.734045e-03
3.046287e-03
3.359645e-03
3.673641e-03
3.987907e-03
4.301964e-03
4.615491e-03
4.928115e-03
5.239389e-03
5.548795e-03
5.855758e-03
6.159663e-03
6.459872e-03
6.755735e-03
7.046588e-03
7.331762e-03
7.610577e-03
7.882353e-03
8.146418e-03
8.402117e-03
8.648827e-03
8.885969e-03
9.113009e-03
9.329462e-03
9.534886e-03
9.728878e-03
9.911066e-03
1.008111e-02
1.023869e-02
1.038353e-02
1.051539e-02
1.063408e-02
1.073949e-02
1.083155e-02
1.091030e-02
1.097585e-02
1.102840e-02
1.106823e-02
1.109570e-02
1.111127e-02
1.111549e-02
1.110899e-02
1.109252e-02
1.106689e-02
1.103299e-02
1.099177e-02
1.094422e-02
1.089132e-02
1.083399e-02
1.077307e-02
1.070916e-02
1.064255e-02
1.057313e-02
1.057266e-02
-3.171857e-03
-3.179799e-03
-3.130347e-03
-3.032294e-03
-2.949792e-03
-2.924499e-03
-2.974265e-03
-3.089724e-03
-3.240275e-03
-3.386562e-03
-3.494407e-03
-3.545150e-03
-3.539147e-03
-3.492159e-03
-3.426983e-03
-3.364134e-03
-3.315159e-03
-3.280537e-03
-3.252063e-03
-3.217901e-03
-3.167813e-03
-3.096513e-03
-3.004314e-03
-2.895407e-03
-2.775050e-03
-2.647058e-03
-2.512555e-03
-2.370181e-03
-2.217328e-03
-2.051654e-03
-1.872174e-03
-1.679589e-03
-1.475886e-03
-1.263521e-03
-1.044578e-03
-8.202243e-04
-5.905693e-04
-3.548848e-04
-1.120308e-04
1.390934e-04
3.992024e-04
6.684465e-04
9.463981e-04
1.232163e-03
1.524557e-03
1.822296e-03
2.124160e-03
2.429107e-03
2.736320e-03
3.045207e-03
3.355353e-03
3.666446e-03
3.978186e-03
4.290073e-03
4.601732e-03
4.912713e-03
5.222496e-03
5.530510e-03
5.836144e-03
6.138767e-03
6.437727e-03
6.732355e-03
7.021965e-03
7.305861e-03
7.583342e-03
7.853717e-03
8.116319e-03
8.370519e-03
8.615733e-03
8.851425e-03
9.077106e-03
9.292319e-03
9.496639e-03
9.689662e-03
9.871007e-03
1.004031e-02
1.019726e-02
1.034155e-02
1.047294e-02
1.059128e-02
1.069644e-02
1.078839e-02
1.086718e-02
1.093293e-02
1.098582e-02
1.102613e-02
1.105418e-02
1.107039e-02
1.107525e-02
1.106933e-02
1.105328e-02
1.102779e-02
1.099363e-02
1.095159e-02
1.090247e-02
1.084703e-02
1.078594e-02
1.071978e-02
1.064886e-02
1.057323e-02
1.049254e-02
1.049216e-02
-3.081500e-03
-3.033608e-03
-2.965396e-03
-2.892148e-03
-2.869318e-03
-2.917476e-03
-3.030271e-03
-3.179581e-03
-3.327560e-03
-3.440563e-03
-3.499694e-03
-3.504596e-03
-3.470065e-03
-3.417840e-03
-3.367431e-03
-3.329589e-03
-3.304390e-03
-3.283747e-03
-3.256456e-03
-3.213251e-03
-3.149851e-03
-3.067243e-03
-2.969764e-03
-2.862251e-03
-2.747720e-03
-2.626407e-03
-2.496296e-03
-2.354542e-03
-2.198996e-03
-2.029158e-03
-1.846278e-03
-1.652741e-03
-1.451122e-03
-1.243349e-03
-1.030237e-03
-8.114944e-04
-5.860646e-04
-3.526319e-04
-1.100850e-04
1.421735e-04
4.041129e-04
6.751262e-04
9.541882e-04
1.240056e-03
1.531458e-03
1.827247e-03
2.126481e-03
2.428460e-03
2.732694e-03
3.038845e-03
3.346649e-03
3.655846e-03
3.966099e-03
4.276814e-03
4.587525e-03
4.897702e-03
5.206770e-03
5.514122e-03
5.819124e-03
6.121126e-03
6.419449e-03
6.713395e-03
7.002250e-03
7.285297e-03
7.561832e-03
7.831184e-03
8.092721e-03
8.345860e-03
8.590064e-03
8.824835e-03
9.049702e-03
9.264211e-03
9.467924e-03
9.660417e-03
9.841284e-03
1.001015e-02
1.016668e-02
1.031060e-02
1.044168e-02
1.055976e-02
1.066476e-02
1.075665e-02
1.083548e-02
1.090136e-02
1.095448e-02
1.099505e-02
1.102338e-02
1.103984e-02
1.104487e-02
1.103897e-02
1.102271e-02
1.099669e-02
1.096157e-02
1.091799e-02
1.086661e-02
1.080800e-02
1.074267e-02
1.067097e-02
1.059305e-02
1.050878e-02
1.041769e-02
1.041741e-02
-2.937274e-03
-2.852400e-03
-2.808722e-03
-2.797739e-03
-2.852362e-03
-2.968504e-03
-3.120211e-03
-3.271285e-03
-3.389111e-03
-3.455304e-03
-3.469610e-03
-3.446562e-03
-3.407280e-03
-3.370340e-03
-3.345424e-03
-3.331694e-03
-3.320612e-03
-3.301158e-03
-3.264840e-03
-3.208464e-03
-3.134032e-03
-3.046430e-03
-2.950450e-03
-2.848530e-03
-2.740067e-03
-2.622272e-03
-2.491861e-03
-2.346678e-03
-2.186569e-03
-2.013282e-03
-1.829633e-03
-1.638403e-03
-1.441449e-03
-1.239301e-03
-1.031290e-03
-8.160195e-04
-5.919647e-04
-3.579667e-04
-1.135205e-04
1.411678e-04
4.053004e-04
6.777001e-04
9.570443e-04
1.242064e-03
1.531678e-03
1.825064e-03
2.121650e-03
2.421069e-03
2.723077e-03
3.027466e-03
3.333997e-03
3.642354e-03
3.952102e-03
4.262531e-03
4.573094e-03
4.883206e-03
5.192255e-03
5.499606e-03
5.804600e-03
6.106550e-03
6.404743e-03
6.698449e-03
6.986942e-03
7.269514e-03
7.545491e-03
7.814248e-03
8.075207e-03
8.327828e-03
8.571604e-03
8.806041e-03
9.030657e-03
9.244972e-03
9.448519e-03
9.640847e-03
9.821537e-03
9.990214e-03
1.014655e-02
1.029030e-02
1.042124e-02
1.053923e-02
1.064420e-02
1.073612e-02
1.081502e-02
1.088101e-02
1.093422e-02
1.097485e-02
1.100319e-02
1.101955e-02
1.102432e-02
1.101796e-02
1.100097e-02
1.097388e-02
1.093723e-02
1.089158e-02
1.083744e-02
1.077527e-02
1.070541e-02
1.062809e-02
1.054334e-02
1.045094e-02
1.035036e-02
1.035018e-02
-2.771252e-03
-2.676584e-03
-2.692847e-03
-2.762668e-03
-2.890090e-03
-3.050710e-03
-3.209575e-03
-3.334979e-03
-3.409249e-03
-3.432735e-03
-3.420402e-03
-3.393450e-03
-3.370056e-03
-3.359048e-03
-3.358537e-03
-3.359119e-03
-3.349431e-03
-3.321295e-03
-3.272360e-03
-3.205651e-03
-3.126888e-03
-3.041175e-03
-2.950731e-03
-2.854357e-03
-2.748568e-03
-2.629566e-03
-2.495016e-03
-2.344919e-03
-2.181378e-03
-2.007573e-03
-1.826506e-03
-1.640033e-03
-1.448495e-03
-1.250920e-03
-1.045617e-03
-8.308552e-04
-6.054043e-04
-3.688146e-04
-1.214329e-04
1.357728e-04
4.014785e-04
6.742743e-04
9.528783e-04
1.236269e-03
1.523729e-03
1.814822e-03
2.109306e-03
2.407039e-03
2.707880e-03
3.011618e-03
3.317937e-03
3.626415e-03
3.936506e-03
4.247410e-03
4.558527e-03
4.869236e-03
5.178892e-03
5.486825e-03
5.792332e-03
6.094686e-03
6.393147e-03
6.686981e-03
6.975483e-03
7.257988e-03
7.533881e-03
7.802588e-03
8.063570e-03
8.316303e-03
8.560270e-03
8.794951e-03
9.019827e-03
9.234386e-03
9.438133e-03
9.630611e-03
9.811406e-03
9.980159e-03
1.013657e-02
1.028039e-02
1.041143e-02
1.052954e-02
1.063464e-02
1.072669e-02
1.080569e-02
1.087172e-02
1.092490e-02
1.096540e-02
1.099348e-02
1.100942e-02
1.101358e-02
1.100638e-02
1.098824e-02
1.095965e-02
1.092106e-02
1.087294e-02
1.081572e-02
1.074973e-02
1.067522e-02
1.059235e-02
1.050105e-02
1.040107e-02
1.029189e-02
1.029180e-02
-2.621218e-03
-2.543544e-03
-2.637287e-03
-2.783644e-03
-2.960553e-03
-3.133702e-03
-3.271756e-03
-3.357429e-03
-3.391691e-03
-3.390318e-03
-3.375245e-03
-3.364963e-03
-3.368021e-03
-3.381746e-03
-3.395769e-03
-3.398004e-03
-3.380083e-03
-3.340051e-03
-3.281714e-03
-3.211611e-03
-3.135419e-03
-3.055460e-03
-2.970265e-03
-2.875885e-03
-2.768082e-03
-2.644283e-03
-2.504492e-03
-2.350994e-03
-2.187200e-03
-2.016270e-03
-1.840078e-03
-1.658841e-03
-1.471379e-03
-1.275785e-03
-1.070169e-03
-8.532360e-04
-6.245675e-04
-3.846102e-04
-1.344615e-04
1.244373e-04
3.906014e-04
6.627341e-04
9.398592e-04
1.221354e-03
1.506897e-03
1.796369e-03
2.089727e-03
2.386898e-03
2.687707e-03
2.991844e-03
3.298879e-03
3.608289e-03
3.919448e-03
4.231496e-03
4.543796e-03
4.855691e-03
5.166490e-03
5.475475e-03
5.781902e-03
6.085022e-03
6.384101e-03
6.678445e-03
6.967401e-03
7.250369e-03
7.526782e-03
7.796096e-03
8.057768e-03
8.311253e-03
8.555992e-03
8.791423e-03
9.016992e-03
9.232166e-03
9.436451e-03
9.629400e-03
9.810621e-03
9.979776e-03
1.013658e-02
1.028078e-02
1.041218e-02
1.053063e-02
1.063601e-02
1.072825e-02
1.080734e-02
1.087335e-02
1.092636e-02
1.096656e-02
1.099415e-02
1.100941e-02
1.101269e-02
1.100433e-02
1.098475e-02
1.095434e-02
1.091351e-02
1.086265e-02
1.080211e-02
1.073217e-02
1.065301e-02
1.056471e-02
1.046719e-02
1.036019e-02
1.024323e-02
1.024322e-02
-2.519512e-03
-2.477396e-03
-2.644595e-03
-2.843980e-03
-3.037769e-03
-3.194336e-03
-3.296121e-03
-3.344283e-03
-3.355360e-03
-3.352372e-03
-3.354764e-03
-3.371509e-03
-3.399684e-03
-3.428186e-03
-3.444089e-03
-3.438469e-03
-3.409301e-03
-3.360779e-03
-3.300058e-03
-3.233381e-03
-3.163411e-03
-3.088682e-03
-3.005055e-03
-2.908043e-03
-2.794894e-03
-2.665562e-03
-2.522386e-03
-2.368869e-03
-2.208220e-03
-2.042288e-03
-1.871184e-03
-1.693587e-03
-1.507454e-03
-1.310807e-03
-1.102324e-03
-8.816197e-04
-6.492147e-04
-4.062940e-04
-1.543750e-04
1.050127e-04
3.705708e-04
6.413657e-04
9.168529e-04
1.196811e-03
1.481223e-03
1.770132e-03
2.063529e-03
2.361276e-03
2.663078e-03
2.968505e-03
3.277029e-03
3.588059e-03
3.900924e-03
4.214712e-03
4.528745e-03
4.842314e-03
5.154677e-03
5.465076e-03
5.772755e-03
6.076988e-03
6.377094e-03
6.672441e-03
6.962442e-03
7.246536e-03
7.524172e-03
7.794787e-03
8.057799e-03
8.312611e-03
8.558619e-03
8.795231e-03
9.021878e-03
9.238036e-03
9.443230e-03
9.637034e-03
9.819075e-03
9.989018e-03
1.014657e-02
1.029147e-02
1.042349e-02
1.054244e-02
1.064820e-02
1.074066e-02
1.081982e-02
1.088572e-02
1.093847e-02
1.097820e-02
1.100515e-02
1.101956e-02
1.102173e-02
1.101201e-02
1.099074e-02
1.095828e-02
1.091500e-02
1.086121e-02
1.079723e-02
1.072327e-02
1.063949e-02
1.054595e-02
1.044255e-02
1.032906e-02
1.020507e-02
1.020514e-02
-2.484411e-03
-2.483660e-03
-2.702052e-03
-2.921012e-03
-3.101096e-03
-3.223740e-03
-3.289573e-03
-3.315464e-03
-3.325499e-03
-3.340449e-03
-3.370315e-03
-3.412547e-03
-3.455743e-03
-3.486283e-03
-3.494538e-03
-3.478078e-03
-3.441091e-03
-3.391037e-03
-3.334575e-03
-3.274712e-03
-3.210183e-03
-3.136860e-03
-3.050219e-03
-2.947468e-03
-2.828557e-03
-2.695844e-03
-2.552828e-03
-2.402670e-03
-2.247113e-03
-2.086139e-03
-1.918301e-03
-1.741474e-03
-1.553654e-03
-1.353545e-03
-1.140822e-03
-9.160746e-04
-6.805508e-04
-4.358068e-04
-1.833808e-04
7.545203e-05
3.398100e-04
6.092215e-04
8.835488e-04
1.162854e-03
1.447251e-03
1.736782e-03
2.031340e-03
2.330652e-03
2.634294e-03
2.941743e-03
3.252410e-03
3.565668e-03
3.880801e-03
4.196838e-03
4.513046e-03
4.828661e-03
5.142910e-03
5.455039e-03
5.764330e-03
6.070122e-03
6.371806e-03
6.668808e-03
6.960571e-03
7.246532e-03
7.526102e-03
7.798663e-03
8.063578e-03
8.320206e-03
8.567919e-03
8.806120e-03
9.034259e-03
9.251832e-03
9.458385e-03
9.653502e-03
9.836803e-03
1.000794e-02
1.016658e-02
1.031244e-02
1.044527e-02
1.056486e-02
1.067105e-02
1.076376e-02
1.084296e-02
1.090872e-02
1.096112e-02
1.100032e-02
1.102652e-02
1.103995e-02
1.104089e-02
1.102963e-02
1.100651e-02
1.097183e-02
1.092592e-02
1.086908e-02
1.080157e-02
1.072359e-02
1.063527e-02
1.053668e-02
1.042774e-02
1.030825e-02
1.017787e-02
1.017802e-02
-2.516571e-03
-2.550147e-03
-2.787946e-03
-2.994513e-03
-3.141590e-03
-3.228506e-03
-3.271787e-03
-3.296237e-03
-3.324012e-03
-3.366518e-03
-3.422113e-03
-3.479582e-03
-3.524911e-03
-3.547823e-03
-3.545331e-03
-3.521346e-03
-3.483341e-03
-3.438166e-03
-3.389062e-03
-3.334955e-03
-3.271873e-03
-3.195374e-03
-3.102773e-03
-2.994122e-03
-2.871838e-03
-2.739409e-03
-2.599893e-03
-2.454869e-03
-2.304133e-03
-2.146093e-03
-1.978553e-03
-1.799515e-03
-1.607749e-03
-1.403024e-03
-1.186018e-03
-9.580340e-04
-7.206480e-04
-4.753779e-04
-2.234493e-04
3.432530e-05
2.975515e-04
5.661665e-04
8.402973e-04
1.120109e-03
1.405678e-03
1.696923e-03
1.993586e-03
2.295260e-03
2.601432e-03
2.911523e-03
3.224908e-03
3.540920e-03
3.858789e-03
4.177469e-03
4.496178e-03
4.814134e-03
5.130583e-03
5.444827e-03
5.756225e-03
6.064191e-03
6.368163e-03
6.667586e-03
6.961876e-03
7.250416e-03
7.532552e-03
7.807611e-03
8.074915e-03
8.333808e-03
8.583671e-03
8.823930e-03
9.054055e-03
9.273558e-03
9.481983e-03
9.678898e-03
9.863891e-03
1.003658e-02
1.019659e-02
1.034362e-02
1.047740e-02
1.059771e-02
1.070440e-02
1.079739e-02
1.087666e-02
1.094229e-02
1.099435e-02
1.103299e-02
1.105838e-02
1.107075e-02
1.107035e-02
1.105744e-02
1.103233e-02
1.099529e-02
1.094664e-02
1.088665e-02
1.081556e-02
1.073358e-02
1.064082e-02
1.053738e-02
1.042321e-02
1.029815e-02
1.016194e-02
1.016215e-02
-2.601271e-03
-2.653205e-03
-2.879869e-03
-3.053131e-03
-3.163467e-03
-3.226317e-03
-3.266657e-03
-3.307812e-03
-3.362722e-03
-3.430995e-03
-3.502015e-03
-3.561699e-03
-3.599303e-03
-3.611291e-03
-3.601182e-03
-3.576281e-03
-3.543440e-03
-3.505978e-03
-3.462916e-03
-3.410392e-03
-3.344124e-03
-3.261592e-03
-3.163043e-03
-3.051046e-03
-2.929133e-03
-2.800279e-03
-2.665880e-03
-2.525514e-03
-2.377405e-03
-2.219258e-03
-2.049076e-03
-1.865711e-03
-1.669045e-03
-1.459864e-03
-1.239540e-03
-1.009667e-03
-7.717294e-04
-5.268860e-04
-2.758634e-04
-1.896890e-05
2.438102e-04
5.126582e-04
7.877776e-04
1.069268e-03
1.357061e-03
1.650912e-03
1.950427e-03
2.255110e-03
2.564397e-03
2.877670e-03
3.194260e-03
3.513448e-03
3.834399e-03
4.156012e-03
4.477500e-03
4.798121e-03
5.117194e-03
5.434106e-03
5.748290e-03
6.059195e-03
6.366257e-03
6.668874e-03
6.966394e-03
7.258131e-03
7.543373e-03
7.821418e-03
8.091587e-03
8.353240e-03
8.605782e-03
8.848660e-03
9.081347e-03
9.303341e-03
9.514153e-03
9.713311e-03
9.900362e-03
1.007488e-02
1.023649e-02
1.038485e-02
1.051971e-02
1.064086e-02
1.074815e-02
1.084152e-02
1.092095e-02
1.098650e-02
1.103826e-02
1.107634e-02
1.110091e-02
1.111217e-02
1.111033e-02
1.109567e-02
1.106845e-02
1.102895e-02
1.097747e-02
1.091426e-02
1.083957e-02
1.075362e-02
1.065653e-02
1.054842e-02
1.042928e-02
1.029902e-02
1.015744e-02
1.015771e-02
-2.715156e-03
-2.766753e-03
-2.962046e-03
-3.096852e-03
-3.180764e-03
-3.238305e-03
-3.293587e-03
-3.361001e-03
-3.441553e-03
-3.525485e-03
-3.598911e-03
-3.650806e-03
-3.677183e-03
-3.681185e-03
-3.669906e-03
-3.650114e-03
-3.625094e-03
-3.593843e-03
-3.552497e-03
-3.496852e-03
-3.424568e-03
-3.336108e-03
-3.234264e-03
-3.122704e-03
-3.004397e-03
-2.880599e-03
-2.750672e-03
-2.612636e-03
-2.464058e-03
-2.302911e-03
-2.128104e-03
-1.939631e-03
-1.738395e-03
-1.525853e-03
-1.303624e-03
-1.073169e-03
-8.355739e-04
-5.914726e-04
-3.410771e-04
-8.429377e-05
1.791192e-04
4.493974e-04
7.266553e-04
1.010831e-03
1.301686e-03
1.598838e-03
1.901809e-03
2.210048e-03
2.522950e-03
2.839848e-03
3.160016e-03
3.482679e-03
3.806974e-03
4.131793e-03
4.456409e-03
4.780167e-03
5.102480e-03
5.422800e-03
5.740582e-03
6.055249e-03
6.366173e-03
6.672671e-03
6.974021e-03
7.269486e-03
7.558339e-03
7.839885e-03
8.113469e-03
8.378477e-03
8.634325e-03
8.880448e-03
9.116291e-03
9.341307e-03
9.554957e-03
9.756724e-03
9.946123e-03
1.012271e-02
1.028611e-02
1.043599e-02
1.057210e-02
1.069426e-02
1.080233e-02
1.089623e-02
1.097594e-02
1.104153e-02
1.109303e-02
1.113058e-02
1.115430e-02
1.116438e-02
1.116104e-02
1.114452e-02
1.111510e-02
1.107305e-02
1.101866e-02
1.095219e-02
1.087391e-02
1.078402e-02
1.068270e-02
1.057008e-02
1.044620e-02
1.031103e-02
1.016445e-02
1.016477e-02
-2.834795e-03
-2.870824e-03
-3.029364e-03
-3.135195e-03
-3.211054e-03
-3.281386e-03
-3.361819e-03
-3.454753e-03
-3.551401e-03
-3.638219e-03
-3.704024e-03
-3.744477e-03
-3.762422e-03
-3.764805e-03
-3.758345e-03
-3.746285e-03
-3.727525e-03
-3.698083e-03
-3.653694e-03
-3.592090e-03
-3.513931e-03
-3.422241e-03
-3.320894e-03
-3.212954e-03
-3.099624e-03
-2.980109e-03
-2.852231e-03
-2.713401e-03
-2.561516e-03
-2.395503e-03
-2.215438e-03
-2.022328e-03
-1.817716e-03
-1.603265e-03
-1.380423e-03
-1.150217e-03
-9.131924e-04
-6.694659e-04
-4.188591e-04
-1.610690e-04
1.041751e-04
3.770031e-04
6.573572e-04
9.450021e-04
1.239565e-03
1.540580e-03
1.847512e-03
2.159765e-03
2.476678e-03
2.797524e-03
3.121529e-03
3.447904e-03
3.775821e-03
4.104228e-03
4.432499e-03
4.760075e-03
5.086424e-03
5.410999e-03
5.733209e-03
6.052398e-03
6.367850e-03
6.678813e-03
6.984527e-03
7.284250e-03
7.577277e-03
7.862938e-03
8.140599e-03
8.409644e-03
8.669463e-03
8.919446e-03
9.158982e-03
9.387468e-03
9.604323e-03
9.809003e-03
1.000101e-02
1.017991e-02
1.034534e-02
1.049699e-02
1.063461e-02
1.075802e-02
1.086708e-02
1.096170e-02
1.104184e-02
1.110754e-02
1.115885e-02
1.119586e-02
1.121870e-02
1.122755e-02
1.122264e-02
1.120419e-02
1.117249e-02
1.112782e-02
1.107046e-02
1.100071e-02
1.091882e-02
1.082504e-02
1.071957e-02
1.060257e-02
1.047413e-02
1.033429e-02
1.018299e-02
1.018335e-02
-2.944045e-03
-2.956859e-03
-3.087205e-03
-3.182417e-03
-3.268940e-03
-3.363370e-03
-3.469412e-03
-3.579261e-03
-3.679741e-03
-3.759539e-03
-3.813994e-03
-3.845714e-03
-3.861603e-03
-3.868459e-03
-3.869575e-03
-3.863782e-03
-3.846916e-03
-3.814522e-03
-3.764243e-03
-3.696823e-03
-3.615497e-03
-3.524361e-03
-3.426652e-03
-3.323628e-03
-3.214423e-03
-3.096716e-03
-2.967766e-03
-2.825368e-03
-2.668420e-03
-2.497034e-03
-2.312290e-03
-2.115807e-03
-1.909292e-03
-1.694197e-03
-1.471510e-03
-1.241703e-03
-1.004808e-03
-7.605648e-04
-5.086068e-04
-2.486231e-04
1.953656e-05
2.958228e-04
5.800056e-04
8.717196e-04