# vtk DataFile Version 3.0
Scalar Field
ASCII
DATASET RECTILINEAR_GRID
DIMENSIONS 102 102 1
X_COORDINATES 102 double
0.000000 0.100000 0.200000 0.300000 0.400000 0.500000 0.600000 0.700000 0.800000 0.900000 1.000000 1.100000 1.200000 1.300000 1.400000 1.500000 1.600000 1.700000 1.800000 1.900000 2.000000 2.100000 2.200000 2.300000 2.400000 2.500000 2.600000 2.700000 2.800000 2.900000 3.000000 3.100000 3.200000 3.300000 3.400000 3.500000 3.600000 3.700000 3.800000 3.900000 4.000000 4.100000 4.200000 4.300000 4.400000 4.500000 4.600000 4.700000 4.800000 4.900000 5.000000 5.100000 5.200000 5.300000 5.400000 5.500000 5.600000 5.700000 5.800000 5.900000 6.000000 6.100000 6.200000 6.300000 6.400000 6.500000 6.600000 6.700000 6.800000 6.900000 7.000000 7.100000 7.200000 7.300000 7.400000 7.500000 7.600000 7.700000 7.800000 7.900000 8.000000 8.100000 8.200000 8.300000 8.400000 8.500000 8.600000 8.700000 8.800000 8.900000 9.000000 9.100000 9.200000 9.300000 9.400000 9.500000 9.600000 9.700000 9.800000 9.900000 10.000000 10.100000 
Y_COORDINATES 102 double
0.000000 0.100000 0.200000 0.300000 0.400000 0.500000 0.600000 0.700000 0.800000 0.900000 1.000000 1.100000 1.200000 1.300000 1.400000 1.500000 1.600000 1.700000 1.800000 1.900000 2.000000 2.100000 2.200000 2.300000 2.400000 2.500000 2.600000 2.700000 2.800000 2.900000 3.000000 3.100000 3.200000 3.300000 3.400000 3.500000 3.600000 3.700000 3.800000 3.900000 4.000000 4.100000 4.200000 4.300000 4.400000 4.500000 4.600000 4.700000 4.800000 4.900000 5.000000 5.100000 5.200000 5.300000 5.400000 5.500000 5.600000 5.700000 5.800000 5.900000 6.000000 6.100000 6.200000 6.300000 6.400000 6.500000 6.600000 6.700000 6.800000 6.900000 7.000000 7.100000 7.200000 7.300000 7.400000 7.500000 7.600000 7.700000 7.800000 7.900000 8.000000 8.100000 8.200000 8.300000 8.400000 8.500000 8.600000 8.700000 8.800000 8.900000 9.000000 9.100000 9.200000 9.300000 9.400000 9.500000 9.600000 9.700000 9.800000 9.900000 10.000000 10.100000 
Z_COORDINATES 1 double
0.0
POINT_DATA 10404
SCALARS Pressure double 1
LOOKUP_TABLE default
0.000000e+00
9.619376e-03
9.775846e-03
9.712529e-03
9.478344e-03
9.179882e-03
8.919751e-03
8.754687e-03
8.684143e-03
8.666813e-03
8.650674e-03
8.599568e-03
8.505313e-03
8.383935e-03
8.262250e-03
8.163644e-03
8.099655e-03
8.069314e-03
8.064079e-03
8.074378e-03
8.094346e-03
8.123306e-03
8.164459e-03
8.222336e-03
8.300539e-03
8.400624e-03
8.522137e-03
8.663349e-03
8.822074e-03
8.996212e-03
9.183971e-03
9.383904e-03
9.594975e-03
9.816701e-03
1.004932e-02
1.029379e-02
1.055155e-02
1.082398e-02
1.111183e-02
1.141473e-02
1.173109e-02
1.205834e-02
1.239350e-02
1.273387e-02
1.307747e-02
1.342331e-02
1.377120e-02
1.412134e-02
1.447384e-02
1.482828e-02
1.518352e-02
1.553783e-02
1.588903e-02
1.623488e-02
1.657328e-02
1.690247e-02
1.722110e-02
1.752814e-02
1.782276e-02
1.810421e-02
1.837170e-02
1.862435e-02
1.886116e-02
1.908109e-02
1.928310e-02
1.946624e-02
1.962971e-02
1.977292e-02
1.989551e-02
1.999735e-02
2.007847e-02
2.013909e-02
2.017952e-02
2.020017e-02
2.020151e-02
2.018409e-02
2.014856e-02
2.009564e-02
2.002620e-02
1.994123e-02
1.984187e-02
1.972940e-02
1.960524e-02
1.947097e-02
1.932828e-02
1.917902e-02
1.902513e-02
1.886867e-02
1.871183e-02
1.855688e-02
1.840620e-02
1.826230e-02
1.812779e-02
1.800539e-02
1.789791e-02
1.780818e-02
1.773886e-02
1.769213e-02
1.766891e-02
1.766731e-02
1.767951e-02
0.000000e+00
9.619376e-03
9.827843e-03
9.833870e-03
9.630576e-03
9.323626e-03
9.034706e-03
8.842699e-03
8.761171e-03
8.750580e-03
8.750846e-03
8.714307e-03
8.624096e-03
8.493631e-03
8.352764e-03
8.230693e-03
8.144255e-03
8.095208e-03
8.074892e-03
8.071840e-03
8.078017e-03
8.091406e-03
8.115060e-03
8.154267e-03
8.213703e-03
8.295791e-03
8.400490e-03
8.526033e-03
8.669919e-03
8.829659e-03
9.003128e-03
9.188663e-03
9.385128e-03
9.592053e-03
9.809797e-03
1.003956e-02
1.028310e-02
1.054219e-02
1.081789e-02
1.111004e-02
1.141702e-02
1.173611e-02
1.206407e-02
1.239791e-02
1.273551e-02
1.307589e-02
1.341906e-02
1.376553e-02
1.411572e-02
1.446951e-02
1.482589e-02
1.518308e-02
1.553879e-02
1.589059e-02
1.623622e-02
1.657383e-02
1.690202e-02
1.721975e-02
1.752625e-02
1.782077e-02
1.810254e-02
1.837061e-02
1.862392e-02
1.886130e-02
1.908159e-02
1.928368e-02
1.946664e-02
1.962974e-02
1.977249e-02
1.989466e-02
1.999619e-02
2.007717e-02
2.013783e-02
2.017844e-02
2.019937e-02
2.020102e-02
2.018388e-02
2.014855e-02
2.009574e-02
2.002631e-02
1.994125e-02
1.984172e-02
1.972904e-02
1.960466e-02
1.947017e-02
1.932731e-02
1.917793e-02
1.902397e-02
1.886751e-02
1.871069e-02
1.855578e-02
1.840516e-02
1.826130e-02
1.812682e-02
1.800444e-02
1.789697e-02
1.780723e-02
1.773791e-02
1.769118e-02
1.766797e-02
1.766638e-02
1.767858e-02
1.767951e-02
9.789392e-03
9.847420e-03
9.680254e-03
9.418963e-03
9.185828e-03
9.043605e-03
8.994538e-03
8.996142e-03
8.993111e-03
8.946539e-03
8.847720e-03
8.714393e-03
8.576109e-03
8.458569e-03
8.374363e-03
8.322368e-03
8.293318e-03
8.277071e-03
8.267756e-03
8.265234e-03
8.273507e-03
8.297848e-03
8.342353e-03
8.408789e-03
8.496712e-03
8.604288e-03
8.729172e-03
8.869098e-03
9.022136e-03
9.186800e-03
9.362170e-03
9.548074e-03
9.745212e-03
9.955058e-03
1.017945e-02
1.041995e-02
1.067719e-02
1.095050e-02
1.123789e-02
1.153652e-02
1.184345e-02
1.215625e-02
1.247352e-02
1.279488e-02
1.312068e-02
1.345150e-02
1.378756e-02
1.412837e-02
1.447266e-02
1.481849e-02
1.516353e-02
1.550559e-02
1.584271e-02
1.617339e-02
1.649647e-02
1.681106e-02
1.711638e-02
1.741161e-02
1.769581e-02
1.796791e-02
1.822673e-02
1.847105e-02
1.869966e-02
1.891150e-02
1.910565e-02
1.928141e-02
1.943829e-02
1.957598e-02
1.969434e-02
1.979334e-02
1.987303e-02
1.993354e-02
1.997504e-02
1.999780e-02
2.000215e-02
1.998856e-02
1.995760e-02
1.991001e-02
1.984667e-02
1.976859e-02
1.967695e-02
1.957305e-02
1.945833e-02
1.933433e-02
1.920272e-02
1.906523e-02
1.892370e-02
1.878005e-02
1.863628e-02
1.849450e-02
1.835687e-02
1.822569e-02
1.810331e-02
1.799214e-02
1.789461e-02
1.781306e-02
1.774959e-02
1.770577e-02
1.768220e-02
1.767793e-02
1.769012e-02
1.769102e-02
9.806923e-03
9.722313e-03
9.487827e-03
9.291762e-03
9.202167e-03
9.201986e-03
9.234111e-03
9.238783e-03
9.182595e-03
9.067591e-03
8.921473e-03
8.778743e-03
8.664153e-03
8.585507e-03
8.536307e-03
8.503954e-03
8.477957e-03
8.454390e-03
8.435850e-03
8.428471e-03
8.438391e-03
8.469408e-03
8.522395e-03
8.596019e-03
8.687913e-03
8.795601e-03
8.916952e-03
9.050296e-03
9.194461e-03
9.348917e-03
9.513982e-03
9.690895e-03
9.881576e-03
1.008804e-02
1.031163e-02
1.055240e-02
1.080888e-02
1.107843e-02
1.135789e-02
1.164451e-02
1.193652e-02
1.223344e-02
1.253576e-02
1.284439e-02
1.316005e-02
1.348270e-02
1.381137e-02
1.414429e-02
1.447923e-02
1.481384e-02
1.514602e-02
1.547421e-02
1.579734e-02
1.611461e-02
1.642533e-02
1.672875e-02
1.702394e-02
1.730979e-02
1.758503e-02
1.784833e-02
1.809837e-02
1.833394e-02
1.855399e-02
1.875768e-02
1.894436e-02
1.911356e-02
1.926495e-02
1.939831e-02
1.951349e-02
1.961039e-02
1.968895e-02
1.974917e-02
1.979116e-02
1.981510e-02
1.982134e-02
1.981034e-02
1.978273e-02
1.973927e-02
1.968090e-02
1.960865e-02
1.952370e-02
1.942735e-02
1.932098e-02
1.920605e-02
1.908413e-02
1.895684e-02
1.882589e-02
1.869304e-02
1.856017e-02
1.842923e-02
1.830224e-02
1.818129e-02
1.806854e-02
1.796614e-02
1.787622e-02
1.780078e-02
1.774160e-02
1.770008e-02
1.767711e-02
1.767300e-02
1.768805e-02
1.768890e-02
9.711094e-03
9.548956e-03
9.368550e-03
9.308475e-03
9.352912e-03
9.426666e-03
9.456663e-03
9.405848e-03
9.281652e-03
9.121506e-03
8.968390e-03
8.850712e-03
8.774763e-03
8.729545e-03
8.697955e-03
8.667109e-03
8.633311e-03
8.601150e-03
8.579132e-03
8.575027e-03
8.593112e-03
8.633801e-03
8.694891e-03
8.773203e-03
8.865780e-03
8.970357e-03
9.085399e-03
9.210069e-03
9.344327e-03
9.489106e-03
9.646296e-03
9.818358e-03
1.000755e-02
1.021506e-02
1.044037e-02
1.068123e-02
1.093422e-02
1.119581e-02
1.146331e-02
1.173555e-02
1.201288e-02
1.229668e-02
1.258849e-02
1.288921e-02
1.319862e-02
1.351534e-02
1.383709e-02
1.416131e-02
1.448562e-02
1.480812e-02
1.512746e-02
1.544294e-02
1.575413e-02
1.606057e-02
1.636153e-02
1.665602e-02
1.694276e-02
1.722030e-02
1.748715e-02
1.774192e-02
1.798336e-02
1.821046e-02
1.842243e-02
1.861868e-02
1.879877e-02
1.896236e-02
1.910918e-02
1.923895e-02
1.935143e-02
1.944639e-02
1.952368e-02
1.958323e-02
1.962509e-02
1.964950e-02
1.965681e-02
1.964756e-02
1.962243e-02
1.958224e-02
1.952794e-02
1.946060e-02
1.938136e-02
1.929146e-02
1.919221e-02
1.908498e-02
1.897121e-02
1.885240e-02
1.873016e-02
1.860614e-02
1.848210e-02
1.835988e-02
1.824136e-02
1.812849e-02
1.802322e-02
1.792750e-02
1.784320e-02
1.777212e-02
1.771584e-02
1.767577e-02
1.765307e-02
1.764884e-02
1.766463e-02
1.766541e-02
9.592250e-03
9.436049e-03
9.378484e-03
9.448602e-03
9.561676e-03
9.627904e-03
9.598636e-03
9.478745e-03
9.310886e-03
9.146475e-03
9.020755e-03
8.942537e-03
8.899169e-03
8.869782e-03
8.838064e-03
8.798756e-03
8.756925e-03
8.722780e-03
8.705903e-03
8.711702e-03
8.740806e-03
8.790520e-03
8.856889e-03
8.936247e-03
9.025919e-03
9.124312e-03
9.230852e-03
9.346026e-03
9.471458e-03
9.609756e-03
9.763949e-03
9.936556e-03
1.012861e-02
1.033907e-02
1.056497e-02
1.080222e-02
1.104690e-02
1.129640e-02
1.155003e-02
1.180888e-02
1.207506e-02
1.235065e-02
1.263675e-02
1.293301e-02
1.323769e-02
1.354815e-02
1.386158e-02
1.417556e-02
1.448842e-02
1.479916e-02
1.510720e-02
1.541237e-02
1.571437e-02
1.601255e-02
1.630582e-02
1.659280e-02
1.687188e-02
1.714148e-02
1.740012e-02
1.764655e-02
1.787978e-02
1.809907e-02
1.830386e-02
1.849375e-02
1.866837e-02
1.882739e-02
1.897043e-02
1.909712e-02
1.920708e-02
1.930000e-02
1.937567e-02
1.943402e-02
1.947515e-02
1.949937e-02
1.950711e-02
1.949896e-02
1.947568e-02
1.943811e-02
1.938719e-02
1.932397e-02
1.924953e-02
1.916501e-02
1.907164e-02
1.897067e-02
1.886346e-02
1.875143e-02
1.863609e-02
1.851903e-02
1.840194e-02
1.828653e-02
1.817458e-02
1.806787e-02
1.796820e-02
1.787731e-02
1.779691e-02
1.772858e-02
1.767383e-02
1.763403e-02
1.761049e-02
1.760460e-02
1.761815e-02
1.761886e-02
9.541075e-03
9.453794e-03
9.515050e-03
9.650816e-03
9.750760e-03
9.751681e-03
9.649121e-03
9.484309e-03
9.313415e-03
9.178542e-03
9.093690e-03
9.047893e-03
9.018866e-03
8.987482e-03
8.946065e-03
8.898674e-03
8.855936e-03
8.828652e-03
8.823462e-03
8.841716e-03
8.880779e-03
8.936252e-03
9.003822e-03
9.080253e-03
9.163702e-03
9.253716e-03
9.351251e-03
9.458623e-03
9.579171e-03
9.716490e-03
9.873326e-03
1.005055e-02
1.024662e-02
1.045793e-02
1.067987e-02
1.090827e-02
1.114064e-02
1.137675e-02
1.161831e-02
1.186800e-02
1.212825e-02
1.240024e-02
1.268349e-02
1.297600e-02
1.327490e-02
1.357727e-02
1.388075e-02
1.418386e-02
1.448601e-02
1.478695e-02
1.508635e-02
1.538401e-02
1.567927e-02
1.597100e-02
1.625769e-02
1.653769e-02
1.680932e-02
1.707110e-02
1.732178e-02
1.756042e-02
1.778629e-02
1.799887e-02
1.819775e-02
1.838252e-02
1.855278e-02
1.870805e-02
1.884783e-02
1.897162e-02
1.907896e-02
1.916954e-02
1.924317e-02
1.929985e-02
1.933979e-02
1.936337e-02
1.937112e-02
1.936368e-02
1.934181e-02
1.930636e-02
1.925822e-02
1.919835e-02
1.912775e-02
1.904747e-02
1.895865e-02
1.886249e-02
1.876027e-02
1.865338e-02
1.854329e-02
1.843153e-02
1.831969e-02
1.820941e-02
1.810233e-02
1.800010e-02
1.790433e-02
1.781662e-02
1.773851e-02
1.767145e-02
1.761683e-02
1.757598e-02
1.755020e-02
1.754087e-02
1.754959e-02
1.755021e-02
9.608023e-03
9.610092e-03
9.729362e-03
9.847239e-03
9.874065e-03
9.793779e-03
9.640765e-03
9.470620e-03
9.329346e-03
9.236103e-03
9.183665e-03
9.150942e-03
9.117853e-03
9.074826e-03
9.024270e-03
8.976061e-03
8.941169e-03
8.926935e-03
8.935445e-03
8.964485e-03
9.009647e-03
9.066271e-03
9.130662e-03
9.200630e-03
9.275717e-03
9.357217e-03
9.448045e-03
9.552217e-03
9.673845e-03
9.815867e-03
9.978957e-03
1.016110e-02
1.035813e-02
1.056502e-02
1.077749e-02
1.099333e-02
1.121279e-02
1.143813e-02
1.167246e-02
1.191836e-02
1.217696e-02
1.244753e-02
1.272785e-02
1.301494e-02
1.330591e-02
1.359861e-02
1.389184e-02
1.418526e-02
1.447899e-02
1.477296e-02
1.506651e-02
1.535890e-02
1.564891e-02
1.593497e-02
1.621537e-02
1.648845e-02
1.675275e-02
1.700708e-02
1.725053e-02
1.748243e-02
1.770225e-02
1.790954e-02
1.810384e-02
1.828464e-02
1.845136e-02
1.860337e-02
1.874005e-02
1.886085e-02
1.896534e-02
1.905325e-02
1.912453e-02
1.917927e-02
1.921779e-02
1.924055e-02
1.924813e-02
1.924117e-02
1.922040e-02
1.918659e-02
1.914056e-02
1.908317e-02
1.901535e-02
1.893809e-02
1.885249e-02
1.875972e-02
1.866105e-02
1.855785e-02
1.845154e-02
1.834361e-02
1.823555e-02
1.812889e-02
1.802515e-02
1.792583e-02
1.783241e-02
1.774636e-02
1.766905e-02
1.760185e-02
1.754602e-02
1.750280e-02
1.747339e-02
1.745902e-02
1.746098e-02
1.746152e-02
9.788112e-03
9.858377e-03
9.955948e-03
9.992985e-03
9.928375e-03
9.788136e-03
9.623220e-03
9.479381e-03
9.378501e-03
9.316900e-03
9.276134e-03
9.237143e-03
9.189937e-03
9.135759e-03
9.083305e-03
9.042815e-03
9.021469e-03
9.021598e-03
9.041359e-03
9.076584e-03
9.122620e-03
9.175587e-03
9.233082e-03
9.294560e-03
9.361535e-03
9.437374e-03
9.526628e-03
9.633836e-03
9.762070e-03
9.911790e-03
1.008052e-02
1.026359e-02
1.045565e-02
1.065248e-02
1.085221e-02
1.105567e-02
1.126565e-02
1.148557e-02
1.171806e-02
1.196401e-02
1.222238e-02
1.249067e-02
1.276585e-02
1.304517e-02
1.332680e-02
1.360992e-02
1.389449e-02
1.418083e-02
1.446909e-02
1.475876e-02
1.504840e-02
1.533666e-02
1.562188e-02
1.590234e-02
1.617642e-02
1.644275e-02
1.670024e-02
1.694804e-02
1.718554e-02
1.741219e-02
1.762749e-02
1.783089e-02
1.802175e-02
1.819936e-02
1.836297e-02
1.851185e-02
1.864535e-02
1.876299e-02
1.886444e-02
1.894956e-02
1.901842e-02
1.907124e-02
1.910838e-02
1.913035e-02
1.913771e-02
1.913103e-02
1.911097e-02
1.907821e-02
1.903349e-02
1.897760e-02
1.891145e-02
1.883601e-02
1.875238e-02
1.866175e-02
1.856539e-02
1.846463e-02
1.836084e-02
1.825543e-02
1.814980e-02
1.804537e-02
1.794353e-02
1.784567e-02
1.775317e-02
1.766734e-02
1.758949e-02
1.752084e-02
1.746255e-02
1.741575e-02
1.738149e-02
1.736080e-02
1.735464e-02
1.735510e-02
1.003312e-02
1.012756e-02
1.014296e-02
1.007850e-02
9.942636e-03
9.780820e-03
9.635638e-03
9.528462e-03
9.457048e-03
9.405186e-03
9.355796e-03
9.299980e-03
9.239052e-03
9.181015e-03
9.135119e-03
9.107683e-03
9.100557e-03
9.111810e-03
9.137432e-03
9.172970e-03
9.214664e-03
9.260139e-03
9.308884e-03
9.362524e-03
9.424736e-03
9.500440e-03
9.594453e-03
9.709898e-03
9.847004e-03
1.000286e-02
1.017234e-02
1.034988e-02
1.053135e-02
1.071534e-02
1.090328e-02
1.109853e-02
1.130479e-02
1.152462e-02
1.175859e-02
1.200526e-02
1.226182e-02
1.252515e-02
1.279273e-02
1.306309e-02
1.333588e-02
1.361142e-02
1.389021e-02
1.417244e-02
1.445771e-02
1.474471e-02
1.503124e-02
1.531552e-02
1.559581e-02
1.587059e-02
1.613859e-02
1.639886e-02
1.665067e-02
1.689344e-02
1.712664e-02
1.734968e-02
1.756188e-02
1.776248e-02
1.795060e-02
1.812537e-02
1.828596e-02
1.843165e-02
1.856189e-02
1.867633e-02
1.877480e-02
1.885731e-02
1.892400e-02
1.897515e-02
1.901111e-02
1.903238e-02
1.903940e-02
1.903270e-02
1.901282e-02
1.898037e-02
1.893606e-02
1.888068e-02
1.881514e-02
1.874047e-02
1.865777e-02
1.856824e-02
1.847312e-02
1.837371e-02
1.827130e-02
1.816719e-02
1.806272e-02
1.795918e-02
1.785789e-02
1.776015e-02
1.766722e-02
1.758034e-02
1.750069e-02
1.742941e-02
1.736755e-02
1.731610e-02
1.727597e-02
1.724798e-02
1.723285e-02
1.723322e-02
1.028016e-02
1.035608e-02
1.026929e-02
1.012310e-02
9.955338e-03
9.805065e-03
9.691056e-03
9.609892e-03
9.545685e-03
9.482751e-03
9.413907e-03
9.341751e-03
9.274686e-03
9.221477e-03
9.187433e-03
9.173357e-03
9.176609e-03
9.192931e-03
9.217989e-03
9.248308e-03
9.281801e-03
9.318181e-03
9.359256e-03
9.408855e-03
9.472116e-03
9.553980e-03
9.657515e-03
9.782686e-03
9.926177e-03
1.008248e-02
1.024585e-02
1.041231e-02
1.058094e-02
1.075381e-02
1.093481e-02
1.112792e-02
1.133562e-02
1.155813e-02
1.179352e-02
1.203866e-02
1.229034e-02
1.254623e-02
1.280527e-02
1.306758e-02
1.333388e-02
1.360491e-02
1.388088e-02
1.416127e-02
1.444482e-02
1.472959e-02
1.501285e-02
1.529284e-02
1.556811e-02
1.583754e-02
1.610035e-02
1.635592e-02
1.660376e-02
1.684331e-02
1.707390e-02
1.729472e-02
1.750484e-02
1.770322e-02
1.788886e-02
1.806084e-02
1.821838e-02
1.836091e-02
1.848803e-02
1.859957e-02
1.869547e-02
1.877581e-02
1.884078e-02
1.889061e-02
1.892558e-02
1.894610e-02
1.895253e-02
1.894531e-02
1.892493e-02
1.889200e-02
1.884724e-02
1.879149e-02
1.872572e-02
1.865097e-02
1.856835e-02
1.847904e-02
1.838424e-02
1.828515e-02
1.818300e-02
1.807904e-02
1.797448e-02
1.787059e-02
1.776860e-02
1.766972e-02
1.757515e-02
1.748604e-02
1.740349e-02
1.732853e-02
1.726211e-02
1.720509e-02
1.715827e-02
1.712228e-02
1.709763e-02
1.709792e-02
1.048023e-02
1.051404e-02
1.034406e-02
1.015721e-02
9.993362e-03
9.868612e-03
9.776774e-03
9.700060e-03
9.622418e-03
9.537724e-03
9.450302e-03
9.369990e-03
9.306056e-03
9.263299e-03
9.241394e-03
9.236530e-03
9.243681e-03
9.258297e-03
9.277120e-03
9.298487e-03
9.322523e-03
9.351342e-03
9.388951e-03
9.440519e-03
9.510998e-03
9.603303e-03
9.717095e-03
9.848674e-03
9.992193e-03
1.014178e-02
1.029366e-02
1.044736e-02
1.060558e-02
1.077274e-02
1.095309e-02
1.114902e-02
1.136037e-02
1.158478e-02
1.181875e-02
1.205898e-02
1.230331e-02
1.255108e-02
1.280286e-02
1.305979e-02
1.332283e-02
1.359224e-02
1.386739e-02
1.414685e-02
1.442876e-02
1.471088e-02
1.499043e-02
1.526605e-02
1.553676e-02
1.580195e-02
1.606116e-02
1.631393e-02
1.655971e-02
1.679773e-02
1.702704e-02
1.724652e-02
1.745500e-02
1.765133e-02
1.783453e-02
1.800376e-02
1.815843e-02
1.829814e-02
1.842266e-02
1.853192e-02
1.862591e-02
1.870470e-02
1.876841e-02
1.881717e-02
1.885116e-02
1.887069e-02
1.887608e-02
1.886775e-02
1.884619e-02
1.881208e-02
1.876620e-02
1.870943e-02
1.864277e-02
1.856727e-02
1.848401e-02
1.839411e-02
1.829870e-02
1.819894e-02
1.809599e-02
1.799102e-02
1.788524e-02
1.777983e-02
1.767597e-02
1.757483e-02
1.747752e-02
1.738513e-02
1.729866e-02
1.721908e-02
1.714722e-02
1.708387e-02
1.702969e-02
1.698520e-02
1.695075e-02
1.695095e-02
1.061410e-02
1.060623e-02
1.039298e-02
1.020440e-02
1.006174e-02
9.956072e-03
9.866352e-03
9.774178e-03
9.672890e-03
9.567914e-03
9.470894e-03
9.392510e-03
9.337934e-03
9.306177e-03
9.292222e-03
9.289912e-03
9.294060e-03
9.301359e-03
9.310499e-03
9.322098e-03
9.338687e-03
9.364513e-03
9.404796e-03
9.464323e-03
9.545827e-03
9.648638e-03
9.768675e-03
9.899790e-03
1.003601e-02
1.017375e-02
1.031299e-02
1.045701e-02
1.061072e-02
1.077861e-02
1.096300e-02
1.116338e-02
1.137695e-02
1.159989e-02
1.182880e-02
1.206170e-02
1.229830e-02
1.253958e-02
1.278706e-02
1.304191e-02
1.330445e-02
1.357396e-02
1.384885e-02
1.412712e-02
1.440670e-02
1.468563e-02
1.496143e-02
1.523331e-02
1.550079e-02
1.576355e-02
1.602120e-02
1.627315e-02
1.651853e-02
1.675623e-02
1.698497e-02
1.720342e-02
1.741035e-02
1.760468e-02
1.778557e-02
1.795240e-02
1.810477e-02
1.824241e-02
1.836518e-02
1.847300e-02
1.856581e-02
1.864358e-02
1.870631e-02
1.875403e-02
1.878684e-02
1.880501e-02
1.880888e-02
1.879890e-02
1.877566e-02
1.873988e-02
1.869241e-02
1.863415e-02
1.856609e-02
1.848924e-02
1.840463e-02
1.831332e-02
1.821641e-02
1.811499e-02
1.801020e-02
1.790319e-02
1.779511e-02
1.768712e-02
1.758035e-02
1.747591e-02
1.737486e-02
1.727822e-02
1.718693e-02
1.710186e-02
1.702381e-02
1.695346e-02
1.689139e-02
1.683804e-02
1.679366e-02
1.679377e-02
1.069137e-02
1.065940e-02
1.044120e-02
1.027142e-02
1.014621e-02
1.004128e-02
9.934626e-03
9.817276e-03
9.694370e-03
9.578839e-03
9.483121e-03
9.413554e-03
9.369248e-03
9.344389e-03
9.331686e-03
9.325049e-03
9.320788e-03
9.317717e-03
9.316856e-03
9.321165e-03
9.335177e-03
9.364205e-03
9.412939e-03
9.483797e-03
9.575835e-03
9.684607e-03
9.803668e-03
9.926947e-03
1.005102e-02
1.017629e-02
1.030655e-02
1.044719e-02
1.060290e-02
1.077592e-02
1.096541e-02
1.116819e-02
1.138013e-02
1.159778e-02
1.181932e-02
1.204481e-02
1.227563e-02
1.251362e-02
1.276014e-02
1.301553e-02
1.327899e-02
1.354879e-02
1.382280e-02
1.409894e-02
1.437556e-02
1.465133e-02
1.492421e-02
1.519389e-02
1.546017e-02
1.572267e-02
1.598076e-02
1.623345e-02
1.647946e-02
1.671737e-02
1.694571e-02
1.716317e-02
1.736864e-02
1.756125e-02
1.774039e-02
1.790563e-02
1.805667e-02
1.819328e-02
1.831527e-02
1.842246e-02
1.851466e-02
1.859173e-02
1.865355e-02
1.870008e-02
1.873142e-02
1.874786e-02
1.874984e-02
1.873789e-02
1.871266e-02
1.867494e-02
1.862557e-02
1.856545e-02
1.849550e-02
1.841670e-02
1.833002e-02
1.823650e-02
1.813720e-02
1.803320e-02
1.792562e-02
1.781560e-02
1.770426e-02
1.759272e-02
1.748208e-02
1.737339e-02
1.726767e-02
1.716588e-02
1.706892e-02
1.697760e-02
1.689266e-02
1.681473e-02
1.674435e-02
1.668188e-02
1.662754e-02
1.662755e-02
1.073733e-02
1.070350e-02
1.050124e-02
1.034883e-02
1.022404e-02
1.010128e-02
9.968088e-03
9.827781e-03
9.693426e-03
9.578828e-03
9.491806e-03
9.432235e-03
9.394133e-03
9.369428e-03
9.351145e-03
9.335019e-03
9.319718e-03
9.306446e-03
9.298461e-03
9.300554e-03
9.318154e-03
9.355918e-03
9.416089e-03
9.497351e-03
9.595006e-03
9.702317e-03
9.813078e-03
9.923977e-03
1.003577e-02
1.015271e-02
1.028062e-02
1.042440e-02
1.058618e-02
1.076485e-02
1.095683e-02
1.115775e-02
1.136410e-02
1.157427e-02
1.178865e-02
1.200902e-02
1.223748e-02
1.247553e-02
1.272352e-02
1.298052e-02
1.324470e-02
1.351382e-02
1.378583e-02
1.405916e-02
1.433292e-02
1.460657e-02
1.487832e-02
1.514803e-02
1.541535e-02
1.567955e-02
1.593949e-02
1.619374e-02
1.644071e-02
1.667887e-02
1.690682e-02
1.712346e-02
1.732794e-02
1.751962e-02
1.769806e-02
1.786290e-02
1.801380e-02
1.815045e-02
1.827252e-02
1.837967e-02
1.847159e-02
1.854805e-02
1.860887e-02
1.865403e-02
1.868369e-02
1.869821e-02
1.869817e-02
1.868414e-02
1.865683e-02
1.861701e-02
1.856548e-02
1.850311e-02
1.843076e-02
1.834937e-02
1.825991e-02
1.816340e-02
1.806089e-02
1.795347e-02
1.784225e-02
1.772834e-02
1.761285e-02
1.749687e-02
1.738146e-02
1.726763e-02
1.715637e-02
1.704859e-02
1.694517e-02
1.684688e-02
1.675443e-02
1.666843e-02
1.658936e-02
1.651757e-02
1.645327e-02
1.645320e-02
1.077662e-02
1.075675e-02
1.057010e-02
1.041884e-02
1.027582e-02
1.012513e-02
9.967251e-03
9.814148e-03
9.680080e-03
9.574057e-03
9.496973e-03
9.443203e-03
9.404388e-03
9.372964e-03
9.344128e-03
9.316253e-03
9.290491e-03
9.270184e-03
9.260231e-03
9.266139e-03
9.292579e-03
9.341724e-03
9.412084e-03
9.498606e-03
9.594373e-03
9.693000e-03
9.791201e-03
9.889989e-03
9.994035e-03
1.010953e-02
1.024157e-02
1.039224e-02
1.056012e-02
1.074128e-02
1.093113e-02
1.112612e-02
1.132485e-02
1.152807e-02
1.173791e-02
1.195674e-02
1.218618e-02
1.242651e-02
1.267668e-02
1.293470e-02
1.319829e-02
1.346542e-02
1.373470e-02
1.400546e-02
1.427759e-02
1.455116e-02
1.482416e-02
1.509620e-02
1.536642e-02
1.563351e-02
1.589588e-02
1.615181e-02
1.639968e-02
1.663811e-02
1.686599e-02
1.708249e-02
1.728701e-02
1.747904e-02
1.765815e-02
1.782389e-02
1.797579e-02
1.811336e-02
1.823610e-02
1.834356e-02
1.843534e-02
1.851117e-02
1.857093e-02
1.861469e-02
1.864267e-02
1.865535e-02
1.865336e-02
1.863731e-02
1.860789e-02
1.856582e-02
1.851186e-02
1.844680e-02
1.837153e-02
1.828695e-02
1.819403e-02
1.809382e-02
1.798737e-02
1.787578e-02
1.776013e-02
1.764153e-02
1.752107e-02
1.739980e-02
1.727876e-02
1.715894e-02
1.704131e-02
1.692676e-02
1.681614e-02
1.671022e-02
1.660968e-02
1.651512e-02
1.642703e-02
1.634576e-02
1.627151e-02
1.627136e-02
1.082186e-02
1.082023e-02
1.063420e-02
1.046493e-02
1.029260e-02
1.011498e-02
9.942167e-03
9.787961e-03
9.661872e-03
9.565572e-03
9.493955e-03
9.438751e-03
9.392183e-03
9.349150e-03
9.307779e-03
9.269045e-03
9.236165e-03
9.213937e-03
9.207814e-03
9.222468e-03
9.260089e-03
9.319149e-03
9.394441e-03
9.478723e-03
9.565499e-03
9.651417e-03
9.737637e-03
9.829152e-03
9.932494e-03
1.005296e-02
1.019258e-02
1.034968e-02
1.052002e-02
1.069875e-02
1.088231e-02
1.106950e-02
1.126145e-02
1.146063e-02
1.166968e-02
1.189029e-02
1.212268e-02
1.236561e-02
1.261697e-02
1.287438e-02
1.313589e-02
1.340031e-02
1.366727e-02
1.393695e-02
1.420969e-02
1.448564e-02
1.476219e-02
1.503824e-02
1.531231e-02
1.558261e-02
1.584732e-02
1.610479e-02
1.635364e-02
1.659282e-02
1.682154e-02
1.703919e-02
1.724523e-02
1.743912e-02
1.762029e-02
1.778810e-02
1.794188e-02
1.808097e-02
1.820475e-02
1.831269e-02
1.840442e-02
1.847973e-02
1.853858e-02
1.858114e-02
1.860772e-02
1.861880e-02
1.861508e-02
1.859712e-02
1.856555e-02
1.852103e-02
1.846429e-02
1.839614e-02
1.831743e-02
1.822910e-02
1.813215e-02
1.802762e-02
1.791658e-02
1.780012e-02
1.767932e-02
1.755526e-02
1.742902e-02
1.730165e-02
1.717417e-02
1.704756e-02
1.692277e-02
1.680071e-02
1.668220e-02
1.656801e-02
1.645883e-02
1.635527e-02
1.625783e-02
1.616688e-02
1.608267e-02
1.608245e-02
1.087086e-02
1.088161e-02
1.067780e-02
1.047823e-02
1.027653e-02
1.008114e-02
9.904971e-03
9.757397e-03
9.640357e-03
9.549021e-03
9.475262e-03
9.411333e-03
9.352116e-03
9.295692e-03
9.242911e-03
9.196758e-03
9.161747e-03
9.143101e-03
9.145402e-03
9.170884e-03
9.218091e-03
9.281795e-03
9.354580e-03
9.429634e-03
9.503559e-03
9.577549e-03
9.656817e-03
9.748191e-03
9.857164e-03
9.985758e-03
1.013208e-02
1.029157e-02
1.045914e-02
1.063121e-02
1.080679e-02
1.098732e-02
1.117567e-02
1.137472e-02
1.158624e-02
1.181033e-02
1.204561e-02
1.228975e-02
1.254033e-02
1.279549e-02
1.305426e-02
1.331657e-02
1.358295e-02
1.385397e-02
1.412991e-02
1.441037e-02
1.469194e-02
1.497267e-02
1.525061e-02
1.552386e-02
1.579073e-02
1.604991e-02
1.630041e-02
1.654150e-02
1.677257e-02
1.699302e-02
1.720222e-02
1.739942e-02
1.758381e-02
1.775455e-02
1.791079e-02
1.805177e-02
1.817684e-02
1.828550e-02
1.837744e-02
1.845256e-02
1.851092e-02
1.855275e-02
1.857838e-02
1.858823e-02
1.858299e-02
1.856318e-02
1.852935e-02
1.848216e-02
1.842233e-02
1.835069e-02
1.826811e-02
1.817556e-02
1.807407e-02
1.796467e-02
1.784844e-02
1.772646e-02
1.759981e-02
1.746957e-02
1.733681e-02
1.720257e-02
1.706787e-02
1.693370e-02
1.680101e-02
1.667071e-02
1.654363e-02
1.642056e-02
1.630220e-02
1.618918e-02
1.608205e-02
1.598121e-02
1.588699e-02
1.588671e-02
1.091119e-02
1.092381e-02
1.069001e-02
1.045896e-02
1.023651e-02
1.003496e-02
9.863422e-03
9.723703e-03
9.610839e-03
9.516576e-03
9.433153e-03
9.355576e-03
9.282099e-03
9.213620e-03
9.152942e-03
9.104212e-03
9.072271e-03
9.061487e-03
9.074096e-03
9.108772e-03
9.160367e-03
9.221385e-03
9.284770e-03
9.346823e-03
9.408774e-03
9.475960e-03
9.555452e-03
9.652939e-03
9.770466e-03
9.905957e-03
1.005456e-02
1.021094e-02
1.037147e-02
1.053534e-02
1.070432e-02
1.088165e-02
1.107043e-02
1.127252e-02
1.148793e-02
1.171506e-02
1.195142e-02
1.219452e-02
1.244258e-02
1.269490e-02
1.295174e-02
1.321393e-02
1.348233e-02
1.375729e-02
1.403841e-02
1.432450e-02
1.461142e-02
1.489657e-02
1.517797e-02
1.545397e-02
1.572331e-02
1.598509e-02
1.623864e-02
1.648335e-02
1.671856e-02
1.694351e-02
1.715730e-02
1.735894e-02
1.754738e-02
1.772163e-02
1.788075e-02
1.802398e-02
1.815070e-02
1.826052e-02
1.835323e-02
1.842880e-02
1.848734e-02
1.852906e-02
1.855423e-02
1.856320e-02
1.855661e-02
1.853493e-02
1.849873e-02
1.844867e-02
1.838549e-02
1.831005e-02
1.822326e-02
1.812611e-02
1.801962e-02
1.790486e-02
1.778288e-02
1.765478e-02
1.752163e-02
1.738451e-02
1.724450e-02
1.710266e-02
1.696001e-02
1.681754e-02
1.667623e-02
1.653698e-02
1.640067e-02
1.626810e-02
1.614002e-02
1.601708e-02
1.589988e-02
1.578890e-02
1.568451e-02
1.568419e-02
1.092804e-02
1.093349e-02
1.066796e-02
1.041354e-02
1.018214e-02
9.983012e-03
9.817857e-03
9.681333e-03
9.564692e-03
9.459862e-03
9.361870e-03
9.269224e-03
9.183055e-03
9.106135e-03
9.042293e-03
8.995926e-03
8.971080e-03
8.969927e-03
8.991270e-03
9.030102e-03
9.078908e-03
9.130428e-03
9.180659e-03
9.230592e-03
9.285710e-03
9.353278e-03
9.439182e-03
9.545519e-03
9.670067e-03
9.807700e-03
9.952848e-03
1.010180e-02
1.025388e-02
1.041118e-02
1.057726e-02
1.075549e-02
1.094779e-02
1.115406e-02
1.137251e-02
1.160049e-02
1.183544e-02
1.207568e-02
1.232075e-02
1.257127e-02
1.282839e-02
1.309320e-02
1.336616e-02
1.364682e-02
1.393390e-02
1.422553e-02
1.451728e-02
1.480630e-02
1.509099e-02
1.537018e-02
1.564309e-02
1.590909e-02
1.616756e-02
1.641778e-02
1.665886e-02
1.688972e-02
1.710918e-02
1.731604e-02
1.750911e-02
1.768733e-02
1.784979e-02
1.799578e-02
1.812480e-02
1.823655e-02
1.833088e-02
1.840777e-02
1.846727e-02
1.850952e-02
1.853470e-02
1.854308e-02
1.853523e-02
1.851170e-02
1.847306e-02
1.842000e-02
1.835330e-02
1.827385e-02
1.818259e-02
1.808051e-02
1.796865e-02
1.784806e-02
1.771982e-02
1.758502e-02
1.744475e-02
1.730010e-02
1.715217e-02
1.700203e-02
1.685071e-02
1.669923e-02
1.654859e-02
1.639972e-02
1.625352e-02
1.611084e-02
1.597245e-02
1.583910e-02
1.571141e-02
1.558995e-02
1.547518e-02
1.547481e-02
1.091099e-02
1.090554e-02
1.061561e-02
1.034986e-02
1.011888e-02
9.924764e-03
9.761885e-03
9.620807e-03
9.492787e-03
9.372574e-03
9.258814e-03
9.152931e-03
9.057830e-03
8.977147e-03
8.914881e-03
8.874718e-03
8.858711e-03
8.865772e-03
8.891060e-03
8.927077e-03
8.966362e-03
9.004595e-03
9.042478e-03
9.085390e-03
9.140853e-03
9.214958e-03
9.309889e-03
9.423319e-03
9.549866e-03
9.683707e-03
9.821021e-03
9.961229e-03
1.010670e-02
1.026132e-02
1.042869e-02
1.061080e-02
1.080746e-02
1.101669e-02
1.123566e-02
1.146177e-02
1.169344e-02
1.193047e-02
1.217382e-02
1.242496e-02
1.268519e-02
1.295505e-02
1.323405e-02
1.352080e-02
1.381335e-02
1.410966e-02
1.440558e-02
1.469836e-02
1.498695e-02
1.527067e-02
1.554894e-02
1.582114e-02
1.608647e-02
1.634389e-02
1.659216e-02
1.682994e-02
1.705582e-02
1.726847e-02
1.746669e-02
1.764945e-02
1.781595e-02
1.796556e-02
1.809788e-02
1.821263e-02
1.830963e-02
1.838877e-02
1.845002e-02
1.849338e-02
1.851897e-02
1.852700e-02
1.851805e-02
1.849273e-02
1.845167e-02
1.839559e-02
1.832532e-02
1.824175e-02
1.814583e-02
1.803855e-02
1.792097e-02
1.779415e-02
1.765917e-02
1.751715e-02
1.736919e-02
1.721640e-02
1.705990e-02
1.690078e-02
1.674011e-02
1.657893e-02
1.641826e-02
1.625909e-02
1.610233e-02
1.594890e-02
1.579962e-02
1.565528e-02
1.551662e-02
1.538427e-02
1.525879e-02
1.525838e-02
1.085709e-02
1.084296e-02
1.054006e-02
1.027307e-02
1.004606e-02
9.853595e-03