# vtk DataFile Version 3.0
Scalar Field
ASCII
DATASET RECTILINEAR_GRID
DIMENSIONS 102 102 1
X_COORDINATES 102 double
0.000000 0.100000 0.200000 0.300000 0.400000 0.500000 0.600000 0.700000 0.800000 0.900000 1.000000 1.100000 1.200000 1.300000 1.400000 1.500000 1.600000 1.700000 1.800000 1.900000 2.000000 2.100000 2.200000 2.300000 2.400000 2.500000 2.600000 2.700000 2.800000 2.900000 3.000000 3.100000 3.200000 3.300000 3.400000 3.500000 3.600000 3.700000 3.800000 3.900000 4.000000 4.100000 4.200000 4.300000 4.400000 4.500000 4.600000 4.700000 4.800000 4.900000 5.000000 5.100000 5.200000 5.300000 5.400000 5.500000 5.600000 5.700000 5.800000 5.900000 6.000000 6.100000 6.200000 6.300000 6.400000 6.500000 6.600000 6.700000 6.800000 6.900000 7.000000 7.100000 7.200000 7.300000 7.400000 7.500000 7.600000 7.700000 7.800000 7.900000 8.000000 8.100000 8.200000 8.300000 8.400000 8.500000 8.600000 8.700000 8.800000 8.900000 9.000000 9.100000 9.200000 9.300000 9.400000 9.500000 9.600000 9.700000 9.800000 9.900000 10.000000 10.100000 
Y_COORDINATES 102 double
0.000000 0.100000 0.200000 0.300000 0.400000 0.500000 0.600000 0.700000 0.800000 0.900000 1.000000 1.100000 1.200000 1.300000 1.400000 1.500000 1.600000 1.700000 1.800000 1.900000 2.000000 2.100000 2.200000 2.300000 2.400000 2.500000 2.600000 2.700000 2.800000 2.900000 3.000000 3.100000 3.200000 3.300000 3.400000 3.500000 3.600000 3.700000 3.800000 3.900000 4.000000 4.100000 4.200000 4.300000 4.400000 4.500000 4.600000 4.700000 4.800000 4.900000 5.000000 5.100000 5.200000 5.300000 5.400000 5.500000 5.600000 5.700000 5.800000 5.900000 6.000000 6.100000 6.200000 6.300000 6.400000 6.500000 6.600000 6.700000 6.800000 6.900000 7.000000 7.100000 7.200000 7.300000 7.400000 7.500000 7.600000 7.700000 7.800000 7.900000 8.000000 8.100000 8.200000 8.300000 8.400000 8.500000 8.600000 8.700000 8.800000 8.900000 9.000000 9.100000 9.200000 9.300000 9.400000 9.500000 9.600000 9.700000 9.800000 9.900000 10.000000 10.100000 
Z_COORDINATES 1 double
0.0
POINT_DATA 10404
SCALARS Pressure double 1
LOOKUP_TABLE default
0.000000e+00
1.416961e-03
1.647545e-03
1.760111e-03
1.697958e-03
1.496774e-03
1.234954e-03
9.955502e-04
8.346751e-04
7.671311e-04
7.710027e-04
8.050290e-04
8.290318e-04
8.189158e-04
7.720055e-04
7.032187e-04
6.358344e-04
5.915725e-04
5.836792e-04
6.146515e-04
6.781720e-04
7.634809e-04
8.600619e-04
9.609800e-04
1.064128e-03
1.171550e-03
1.287607e-03
1.416935e-03
1.562917e-03
1.726993e-03
1.908759e-03
2.106535e-03
2.318065e-03
2.541096e-03
2.773738e-03
3.014629e-03
3.262983e-03
3.518579e-03
3.781700e-03
4.053016e-03
4.333394e-03
4.623636e-03
4.924203e-03
5.234970e-03
5.555100e-03
5.883054e-03
6.216764e-03
6.553922e-03
6.892324e-03
7.230190e-03
7.566387e-03
7.900493e-03
8.232689e-03
8.563539e-03
8.893664e-03
9.223406e-03
9.552580e-03
9.880372e-03
1.020540e-02
1.052590e-02
1.083998e-02
1.114587e-02
1.144212e-02
1.172764e-02
1.200170e-02
1.226382e-02
1.251364e-02
1.275081e-02
1.297491e-02
1.318545e-02
1.338184e-02
1.356353e-02
1.372998e-02
1.388074e-02
1.401550e-02
1.413401e-02
1.423616e-02
1.432188e-02
1.439120e-02
1.444418e-02
1.448096e-02
1.450178e-02
1.450696e-02
1.449697e-02
1.447240e-02
1.443400e-02
1.438270e-02
1.431959e-02
1.424596e-02
1.416329e-02
1.407329e-02
1.397793e-02
1.387947e-02
1.378052e-02
1.368410e-02
1.359369e-02
1.351329e-02
1.344735e-02
1.340048e-02
1.337641e-02
1.337519e-02
0.000000e+00
1.416961e-03
1.597372e-03
1.762953e-03
1.774725e-03
1.619941e-03
1.367616e-03
1.107361e-03
9.112078e-04
8.108702e-04
7.955926e-04
8.266408e-04
8.589160e-04
8.597261e-04
8.183445e-04
7.451206e-04
6.631255e-04
5.972760e-04
5.654766e-04
5.743844e-04
6.200703e-04
6.920703e-04
7.785526e-04
8.705557e-04
9.641281e-04
1.060231e-03
1.163066e-03
1.277827e-03
1.408791e-03
1.558249e-03
1.726361e-03
1.911652e-03
2.111778e-03
2.324243e-03
2.546876e-03
2.778086e-03
3.016937e-03
3.263132e-03
3.516952e-03
3.779125e-03
4.050630e-03
4.332428e-03
4.625156e-03
4.928860e-03
5.242824e-03
5.565562e-03
5.894986e-03
6.228700e-03
6.564378e-03
6.900120e-03
7.234706e-03
7.567689e-03
7.899306e-03
8.230206e-03
8.561139e-03
8.892597e-03
9.224531e-03
9.556220e-03
9.886313e-03
1.021301e-02
1.053432e-02
1.084838e-02
1.115358e-02
1.144875e-02
1.173310e-02
1.200610e-02
1.226742e-02
1.251671e-02
1.275358e-02
1.297753e-02
1.318796e-02
1.338425e-02
1.356582e-02
1.373215e-02
1.388282e-02
1.401753e-02
1.413607e-02
1.423829e-02
1.432412e-02
1.439354e-02
1.444659e-02
1.448339e-02
1.450417e-02
1.450924e-02
1.449910e-02
1.447434e-02
1.443576e-02
1.438427e-02
1.432100e-02
1.424723e-02
1.416445e-02
1.407436e-02
1.397893e-02
1.388041e-02
1.378141e-02
1.368494e-02
1.359449e-02
1.351404e-02
1.344807e-02
1.340116e-02
1.337707e-02
1.337584e-02
1.337519e-02
1.661704e-03
1.776887e-03
1.790109e-03
1.656389e-03
1.440159e-03
1.222812e-03
1.065419e-03
9.910049e-04
9.852743e-04
1.011495e-03
1.030373e-03
1.016024e-03
9.629561e-04
8.837254e-04
8.005327e-04
7.354010e-04
7.028334e-04
7.069107e-04
7.426866e-04
8.002687e-04
8.694746e-04
9.433260e-04
1.019508e-03
1.099867e-03
1.188667e-03
1.290539e-03
1.408913e-03
1.545288e-03
1.699307e-03
1.869351e-03
2.053250e-03
2.248879e-03
2.454508e-03
2.668935e-03
2.891509e-03
3.122104e-03
3.361055e-03
3.609056e-03
3.866977e-03
4.135607e-03
4.415369e-03
4.706084e-03
5.006845e-03
5.316066e-03
5.631690e-03
5.951510e-03
6.273531e-03
6.596275e-03
6.918949e-03
7.241451e-03
7.564199e-03
7.887844e-03
8.212903e-03
8.539514e-03
8.867256e-03
9.195102e-03
9.521536e-03
9.844767e-03
1.016298e-02
1.047457e-02
1.077824e-02
1.107308e-02
1.135844e-02
1.163389e-02
1.189903e-02
1.215344e-02
1.239658e-02
1.262785e-02
1.284661e-02
1.305219e-02
1.324400e-02
1.342153e-02
1.358438e-02
1.373220e-02
1.386475e-02
1.398182e-02
1.408325e-02
1.416895e-02
1.423888e-02
1.429310e-02
1.433175e-02
1.435510e-02
1.436354e-02
1.435761e-02
1.433798e-02
1.430544e-02
1.426096e-02
1.420562e-02
1.414069e-02
1.406761e-02
1.398801e-02
1.390374e-02
1.381694e-02
1.373000e-02
1.364565e-02
1.356693e-02
1.349720e-02
1.344002e-02
1.339889e-02
1.337676e-02
1.337552e-02
1.337484e-02
1.840776e-03
1.854186e-03
1.713759e-03
1.502251e-03
1.309815e-03
1.189587e-03
1.151991e-03
1.171446e-03
1.205535e-03
1.216095e-03
1.183500e-03
1.110292e-03
1.015521e-03
9.243117e-04
8.577963e-04
8.269671e-04
8.316472e-04
8.635872e-04
9.115189e-04
9.658870e-04
1.021714e-03
1.079112e-03
1.141907e-03
1.215374e-03
1.304113e-03
1.410749e-03
1.535661e-03
1.677500e-03
1.834050e-03
2.003036e-03
2.182618e-03
2.371567e-03
2.569224e-03
2.775400e-03
2.990289e-03
3.214408e-03
3.448501e-03
3.693370e-03
3.949628e-03
4.217421e-03
4.496228e-03
4.784801e-03
5.081298e-03
5.383578e-03
5.689576e-03
5.997672e-03
6.306926e-03
6.617145e-03
6.928741e-03
7.242449e-03
7.558964e-03
7.878606e-03
8.201043e-03
8.525313e-03
8.849931e-03
9.173089e-03
9.492934e-03
9.807815e-03
1.011644e-02
1.041791e-02
1.071166e-02
1.099730e-02
1.127449e-02
1.154281e-02
1.180172e-02
1.205054e-02
1.228853e-02
1.251493e-02
1.272903e-02
1.293025e-02
1.311808e-02
1.329210e-02
1.345198e-02
1.359742e-02
1.372815e-02
1.384392e-02
1.394457e-02
1.402997e-02
1.410011e-02
1.415509e-02
1.419512e-02
1.422053e-02
1.423179e-02
1.422946e-02
1.421424e-02
1.418694e-02
1.414848e-02
1.409993e-02
1.404248e-02
1.397750e-02
1.390653e-02
1.383132e-02
1.375382e-02
1.367621e-02
1.360092e-02
1.353058e-02
1.346801e-02
1.341613e-02
1.337781e-02
1.335578e-02
1.335270e-02
1.335198e-02
1.889049e-03
1.808327e-03
1.589731e-03
1.394999e-03
1.292112e-03
1.283388e-03
1.331563e-03
1.384143e-03
1.398204e-03
1.355524e-03
1.264450e-03
1.151098e-03
1.045985e-03
9.723154e-04
9.398196e-04
9.449532e-04
9.757136e-04
1.018155e-03
1.061861e-03
1.102736e-03
1.142852e-03
1.188183e-03
1.245594e-03
1.320333e-03
1.414755e-03
1.528370e-03
1.658804e-03
1.803037e-03
1.958412e-03
2.123142e-03
2.296364e-03
2.477918e-03
2.668107e-03
2.867515e-03
3.076922e-03
3.297209e-03
3.529190e-03
3.773358e-03
4.029613e-03
4.297085e-03
4.574140e-03
4.858610e-03
5.148188e-03
5.440886e-03
5.735418e-03
6.031378e-03
6.329194e-03
6.629837e-03
6.934404e-03
7.243675e-03
7.557773e-03
7.876005e-03
8.196846e-03
8.518303e-03
8.838263e-03
9.154786e-03
9.466358e-03
9.771981e-03
1.007112e-02
1.036356e-02
1.064914e-02
1.092766e-02
1.119866e-02
1.146152e-02
1.171542e-02
1.195948e-02
1.219286e-02
1.241481e-02
1.262470e-02
1.282205e-02
1.300642e-02
1.317747e-02
1.333483e-02
1.347817e-02
1.360719e-02
1.372161e-02
1.382126e-02
1.390607e-02
1.397608e-02
1.403146e-02
1.407250e-02
1.409959e-02
1.411322e-02
1.411397e-02
1.410253e-02
1.407967e-02
1.404627e-02
1.400334e-02
1.395201e-02
1.389358e-02
1.382949e-02
1.376136e-02
1.369097e-02
1.362028e-02
1.355141e-02
1.348664e-02
1.342832e-02
1.337887e-02
1.334067e-02
1.331607e-02
1.330747e-02
1.330673e-02
1.829200e-03
1.696215e-03
1.491308e-03
1.382159e-03
1.385899e-03
1.457189e-03
1.532784e-03
1.560928e-03
1.519541e-03
1.418527e-03
1.289170e-03
1.167948e-03
1.082346e-03
1.043453e-03
1.046335e-03
1.076023e-03
1.115514e-03
1.152408e-03
1.182205e-03
1.207958e-03
1.237372e-03
1.279029e-03
1.339302e-03
1.420857e-03
1.522802e-03
1.641970e-03
1.774541e-03
1.917318e-03
2.068353e-03
2.226951e-03
2.393332e-03
2.568232e-03
2.752635e-03
2.947626e-03
3.154281e-03
3.373487e-03
3.605681e-03
3.850567e-03
4.106958e-03
4.372848e-03
4.645733e-03
4.923119e-03
5.203060e-03
5.484562e-03
5.767715e-03
6.053522e-03
6.343477e-03
6.639012e-03
6.940981e-03
7.249323e-03
7.562976e-03
7.880055e-03
8.198099e-03
8.514692e-03
8.827843e-03
9.136163e-03
9.438911e-03
9.735858e-03
1.002705e-02
1.031253e-02
1.059217e-02
1.086552e-02
1.113188e-02
1.139032e-02
1.163989e-02
1.187967e-02
1.210887e-02
1.232684e-02
1.253309e-02
1.272715e-02
1.290863e-02
1.307711e-02
1.323220e-02
1.337351e-02
1.350073e-02
1.361361e-02
1.371204e-02
1.379601e-02
1.386567e-02
1.392125e-02
1.396309e-02
1.399158e-02
1.400722e-02
1.401056e-02
1.400225e-02
1.398302e-02
1.395370e-02
1.391525e-02
1.386875e-02
1.381540e-02
1.375657e-02
1.369374e-02
1.362851e-02
1.356265e-02
1.349798e-02
1.343643e-02
1.337997e-02
1.333057e-02
1.329015e-02
1.326056e-02
1.324359e-02
1.324281e-02
1.728381e-03
1.597219e-03
1.472649e-03
1.469077e-03
1.549970e-03
1.644527e-03
1.691483e-03
1.661287e-03
1.560802e-03
1.422815e-03
1.288155e-03
1.189105e-03
1.140042e-03
1.136914e-03
1.163495e-03
1.200402e-03
1.232929e-03
1.255208e-03
1.270170e-03
1.286410e-03
1.313862e-03
1.360128e-03
1.428580e-03
1.518415e-03
1.626081e-03
1.747164e-03
1.877948e-03
2.016206e-03
2.161243e-03
2.313492e-03
2.474014e-03
2.644134e-03
2.825231e-03
3.018594e-03
3.225223e-03
3.445541e-03
3.679105e-03
3.924464e-03
4.179284e-03
4.440766e-03
4.706260e-03
4.973874e-03
5.242893e-03
5.513856e-03
5.788273e-03
6.068067e-03
6.354914e-03
6.649678e-03
6.952091e-03
7.260757e-03
7.573436e-03
7.887514e-03
8.200346e-03
8.509903e-03
8.814956e-03
9.114989e-03
9.409997e-03
9.700198e-03
9.985744e-03
1.026652e-02
1.054206e-02
1.081159e-02
1.107415e-02
1.132874e-02
1.157441e-02
1.181036e-02
1.203593e-02
1.225057e-02
1.245379e-02
1.264511e-02
1.282406e-02
1.299017e-02
1.314301e-02
1.328219e-02
1.340746e-02
1.351866e-02
1.361576e-02
1.369885e-02
1.376812e-02
1.382385e-02
1.386635e-02
1.389601e-02
1.391328e-02
1.391869e-02
1.391282e-02
1.389639e-02
1.387018e-02
1.383511e-02
1.379221e-02
1.374263e-02
1.368761e-02
1.362852e-02
1.356679e-02
1.350396e-02
1.344160e-02
1.338134e-02
1.332479e-02
1.327353e-02
1.322904e-02
1.319267e-02
1.316558e-02
1.316475e-02
1.661687e-03
1.575858e-03
1.550649e-03
1.624597e-03
1.726554e-03
1.788643e-03
1.773361e-03
1.681544e-03
1.543650e-03
1.401779e-03
1.291641e-03
1.231295e-03
1.219152e-03
1.239614e-03
1.272353e-03
1.300935e-03
1.317867e-03
1.325166e-03
1.331394e-03
1.347128e-03
1.380877e-03
1.436790e-03
1.514468e-03
1.610377e-03
1.719857e-03
1.838863e-03
1.964920e-03
2.097249e-03
2.236359e-03
2.383497e-03
2.540224e-03
2.708150e-03
2.888755e-03
3.083152e-03
3.291774e-03
3.514066e-03
3.748361e-03
3.992057e-03
4.242131e-03
4.495839e-03
4.751394e-03
5.008381e-03
5.267763e-03
5.531484e-03
5.801784e-03
6.080456e-03
6.368269e-03
6.664693e-03
6.968009e-03
7.275703e-03
7.585016e-03
7.893480e-03
8.199086e-03
8.500746e-03
8.798162e-03
9.091492e-03
9.381026e-03
9.666911e-03
9.948976e-03
1.022669e-02
1.049923e-02
1.076561e-02
1.102484e-02
1.127599e-02
1.151828e-02
1.175103e-02
1.197365e-02
1.218558e-02
1.238627e-02
1.257516e-02
1.275171e-02
1.291544e-02
1.306594e-02
1.320293e-02
1.332624e-02
1.343582e-02
1.353170e-02
1.361402e-02
1.368298e-02
1.373883e-02
1.378185e-02
1.381239e-02
1.383086e-02
1.383774e-02
1.383361e-02
1.381916e-02
1.379515e-02
1.376248e-02
1.372211e-02
1.367512e-02
1.362266e-02
1.356595e-02
1.350627e-02
1.344495e-02
1.338333e-02
1.332276e-02
1.326456e-02
1.320994e-02
1.316003e-02
1.311572e-02
1.307766e-02
1.307679e-02
1.679668e-03
1.657819e-03
1.704676e-03
1.799678e-03
1.866224e-03
1.861454e-03
1.780004e-03
1.647732e-03
1.504973e-03
1.388348e-03
1.318400e-03
1.296218e-03
1.308024e-03
1.334025e-03
1.357222e-03
1.369002e-03
1.370298e-03
1.369027e-03
1.375664e-03
1.399033e-03
1.443767e-03
1.509897e-03
1.594134e-03
1.691892e-03
1.799088e-03
1.913173e-03
2.033328e-03
2.160079e-03
2.294751e-03
2.439017e-03
2.594617e-03
2.763154e-03
2.945820e-03
3.143049e-03
3.354196e-03
3.577413e-03
3.809894e-03
4.048462e-03
4.290364e-03
4.533991e-03
4.779271e-03
5.027589e-03
5.281262e-03
5.542741e-03
5.813810e-03
6.095017e-03
6.385499e-03
6.683204e-03
6.985404e-03
7.289313e-03
7.592613e-03
7.893770e-03
8.191831e-03
8.486639e-03
8.778471e-03
9.067610e-03
9.354109e-03
9.637663e-03
9.917626e-03
1.019312e-02
1.046315e-02
1.072677e-02
1.098311e-02
1.123142e-02
1.147103e-02
1.170129e-02
1.192157e-02
1.213122e-02
1.232962e-02
1.251614e-02
1.269028e-02
1.285161e-02
1.299983e-02
1.313476e-02
1.325633e-02
1.336455e-02
1.345947e-02
1.354121e-02
1.360992e-02
1.366581e-02
1.370912e-02
1.374017e-02
1.375933e-02
1.376709e-02
1.376403e-02
1.375082e-02
1.372822e-02
1.369707e-02
1.365830e-02
1.361289e-02
1.356189e-02
1.350639e-02
1.344751e-02
1.338641e-02
1.332421e-02
1.326205e-02
1.320095e-02
1.314188e-02
1.308562e-02
1.303274e-02
1.298349e-02
1.298257e-02
1.792207e-03
1.826201e-03
1.890821e-03
1.948752e-03
1.943957e-03
1.867161e-03
1.739780e-03
1.598817e-03
1.479493e-03
1.402801e-03
1.371425e-03
1.373418e-03
1.390337e-03
1.405733e-03
1.410800e-03
1.405841e-03
1.398058e-03
1.397382e-03
1.412373e-03
1.447652e-03
1.503404e-03
1.576559e-03
1.662746e-03
1.758087e-03
1.860201e-03
1.968384e-03
2.083239e-03
2.206131e-03
2.338753e-03
2.482867e-03
2.640096e-03
2.811640e-03
2.997900e-03
3.198131e-03
3.410333e-03
3.631543e-03
3.858504e-03
4.088537e-03
4.320288e-03
4.554080e-03
4.791731e-03
5.035891e-03
5.289135e-03
5.553118e-03
5.828065e-03
6.112701e-03
6.404628e-03
6.700948e-03
6.998933e-03
7.296528e-03
7.592568e-03
7.886710e-03
8.178855e-03
8.469269e-03
8.758180e-03
9.045479e-03
9.330679e-03
9.612986e-03
9.891441e-03
1.016507e-02
1.043295e-02
1.069431e-02
1.094843e-02
1.119464e-02
1.143226e-02
1.166058e-02
1.187888e-02
1.208642e-02
1.228257e-02
1.246675e-02
1.263855e-02
1.279766e-02
1.294390e-02
1.307716e-02
1.319741e-02
1.330463e-02
1.339885e-02
1.348012e-02
1.354854e-02
1.360428e-02
1.364756e-02
1.367869e-02
1.369806e-02
1.370617e-02
1.370360e-02
1.369101e-02
1.366914e-02
1.363877e-02
1.360078e-02
1.355605e-02
1.350554e-02
1.345021e-02
1.339106e-02
1.332907e-02
1.326522e-02
1.320042e-02
1.313551e-02
1.307120e-02
1.300804e-02
1.294633e-02
1.288606e-02
1.288510e-02
1.971693e-03
2.035119e-03
2.061979e-03
2.044934e-03
1.962203e-03
1.832773e-03
1.690756e-03
1.569001e-03
1.487232e-03
1.448059e-03
1.440347e-03
1.446830e-03
1.452113e-03
1.448021e-03
1.434981e-03
1.419905e-03
1.412208e-03
1.419889e-03
1.447113e-03
1.493794e-03
1.556815e-03
1.631951e-03
1.715593e-03
1.805707e-03
1.901909e-03
2.005017e-03
2.116494e-03
2.238036e-03
2.371346e-03
2.517968e-03
2.679019e-03
2.854799e-03
3.044435e-03
3.245777e-03
3.455742e-03
3.671054e-03
3.889177e-03
4.109082e-03
4.331542e-03
4.558820e-03
4.793870e-03
5.039322e-03
5.296617e-03
5.565566e-03
5.844433e-03
6.130460e-03
6.420619e-03
6.712308e-03
7.003806e-03
7.294383e-03
7.584091e-03
7.873390e-03
8.162391e-03
8.451120e-03
8.739285e-03
9.026188e-03
9.310877e-03
9.592316e-03
9.869523e-03
1.014165e-02
1.040795e-02
1.066776e-02
1.092041e-02
1.116518e-02
1.140130e-02
1.162796e-02
1.184438e-02
1.204987e-02
1.224385e-02
1.242590e-02
1.259571e-02
1.275308e-02
1.289788e-02
1.303000e-02
1.314936e-02
1.325589e-02
1.334954e-02
1.343031e-02
1.349827e-02
1.355360e-02
1.359652e-02
1.362737e-02
1.364655e-02
1.365458e-02
1.365203e-02
1.363954e-02
1.361780e-02
1.358756e-02
1.354960e-02
1.350474e-02
1.345384e-02
1.339778e-02
1.333741e-02
1.327362e-02
1.320722e-02
1.313899e-02
1.306958e-02
1.299953e-02
1.292918e-02
1.285866e-02
1.278778e-02
1.278679e-02
2.169964e-03
2.231549e-03
2.184762e-03
2.084791e-03
1.942988e-03
1.792373e-03
1.664057e-03
1.575943e-03
1.529278e-03
1.512332e-03
1.508039e-03
1.501746e-03
1.486195e-03
1.462557e-03
1.438101e-03
1.422144e-03
1.422228e-03
1.441873e-03
1.480379e-03
1.534212e-03
1.599028e-03
1.671391e-03
1.749626e-03
1.833799e-03
1.925111e-03
2.025249e-03
2.135963e-03
2.258885e-03
2.395417e-03
2.546506e-03
2.712277e-03
2.891674e-03
3.082386e-03
3.281221e-03
3.484927e-03
3.691165e-03
3.899288e-03
4.110550e-03
4.327676e-03
4.553899e-03
4.791853e-03
5.042702e-03
5.305788e-03
5.578885e-03
5.858886e-03
6.142666e-03
6.427805e-03
6.712964e-03
6.997871e-03
7.282980e-03
7.568995e-03
7.856427e-03
8.144934e-03
8.433907e-03
8.722453e-03
9.009474e-03
9.293868e-03
9.574654e-03
9.851017e-03
1.012226e-02
1.038773e-02
1.064674e-02
1.089852e-02
1.114225e-02
1.137705e-02
1.160213e-02
1.181677e-02
1.202040e-02
1.221259e-02
1.239303e-02
1.256150e-02
1.271780e-02
1.286177e-02
1.299323e-02
1.311202e-02
1.321798e-02
1.331105e-02
1.339119e-02
1.345850e-02
1.351317e-02
1.355548e-02
1.358576e-02
1.360446e-02
1.361207e-02
1.360915e-02
1.359629e-02
1.357415e-02
1.354340e-02
1.350478e-02
1.345905e-02
1.340699e-02
1.334938e-02
1.328702e-02
1.322066e-02
1.315103e-02
1.307875e-02
1.300436e-02
1.292826e-02
1.285064e-02
1.277151e-02
1.269057e-02
1.268956e-02
2.339400e-03
2.375206e-03
2.247660e-03
2.083474e-03
1.914772e-03
1.772578e-03
1.673707e-03
1.617737e-03
1.591325e-03
1.576379e-03
1.558057e-03
1.529636e-03
1.493193e-03
1.456853e-03
1.430415e-03
1.421383e-03
1.432786e-03
1.463195e-03
1.508378e-03
1.563545e-03
1.625182e-03
1.691860e-03
1.764073e-03
1.843506e-03
1.932206e-03
2.032084e-03
2.144748e-03
2.271450e-03
2.412917e-03
2.569034e-03
2.738512e-03
2.918844e-03
3.106731e-03
3.298958e-03
3.493420e-03
3.689879e-03
3.890096e-03
4.097251e-03
4.314836e-03
4.545454e-03
4.789946e-03
5.047165e-03
5.314388e-03
5.588188e-03
5.865391e-03
6.143799e-03
6.422487e-03
6.701640e-03
6.982085e-03
7.264731e-03
7.550115e-03
7.838170e-03
8.127809e-03
8.417836e-03
8.707045e-03
8.994294e-03
9.278615e-03
9.559219e-03
9.835423e-03
1.010656e-02
1.037188e-02
1.063059e-02
1.088179e-02
1.112459e-02
1.135818e-02
1.158186e-02
1.179508e-02
1.199740e-02
1.218851e-02
1.236813e-02
1.253603e-02
1.269192e-02
1.283555e-02
1.296664e-02
1.308497e-02
1.319038e-02
1.328276e-02
1.336215e-02
1.342866e-02
1.348253e-02
1.352407e-02
1.355362e-02
1.357161e-02
1.357851e-02
1.357484e-02
1.356116e-02
1.353808e-02
1.350623e-02
1.346632e-02
1.341903e-02
1.336511e-02
1.330529e-02
1.324027e-02
1.317075e-02
1.309734e-02
1.302057e-02
1.294089e-02
1.285857e-02
1.277374e-02
1.268630e-02
1.259593e-02
1.259489e-02
2.449225e-03
2.449482e-03
2.259540e-03
2.064412e-03
1.900206e-03
1.784201e-03
1.715047e-03
1.677591e-03
1.651853e-03
1.621712e-03
1.580112e-03
1.529653e-03
1.479426e-03
1.440153e-03
1.419831e-03
1.421411e-03
1.442908e-03
1.479317e-03
1.525166e-03
1.576568e-03
1.632108e-03
1.692603e-03
1.760176e-03
1.837317e-03
1.926211e-03
2.028529e-03
2.145412e-03
2.277368e-03
2.424012e-03
2.583783e-03
2.753948e-03
2.931087e-03
3.112021e-03
3.294887e-03
3.479863e-03
3.669216e-03
3.866569e-03
4.075647e-03
4.298986e-03
4.537088e-03
4.788308e-03
5.049451e-03
5.316812e-03
5.587220e-03
5.858747e-03
6.130893e-03
6.404280e-03
6.680065e-03
6.959308e-03
7.242524e-03
7.529519e-03
7.819482e-03
8.110761e-03
8.401939e-03
8.691875e-03
8.979628e-03
9.264430e-03
9.545586e-03
9.822378e-03
1.009400e-02
1.035958e-02
1.061817e-02
1.086888e-02
1.111091e-02
1.134360e-02
1.156642e-02
1.177895e-02
1.198084e-02
1.217178e-02
1.235142e-02
1.251941e-02
1.267536e-02
1.281891e-02
1.294976e-02
1.306765e-02
1.317244e-02
1.326411e-02
1.334270e-02
1.340837e-02
1.346141e-02
1.350210e-02
1.353078e-02
1.354785e-02
1.355374e-02
1.354894e-02
1.353398e-02
1.350944e-02
1.347594e-02
1.343414e-02
1.338472e-02
1.332837e-02
1.326576e-02
1.319757e-02
1.312440e-02
1.304679e-02
1.296522e-02
1.288004e-02
1.279146e-02
1.269954e-02
1.260417e-02
1.250499e-02
1.250393e-02
2.492127e-03
2.461522e-03
2.241398e-03
2.048654e-03
1.908989e-03
1.821576e-03
1.770148e-03
1.732664e-03
1.690952e-03
1.636655e-03
1.572120e-03
1.507067e-03
1.453242e-03
1.419547e-03
1.409345e-03
1.420474e-03
1.447323e-03
1.483681e-03
1.525080e-03
1.569865e-03
1.618966e-03
1.674860e-03
1.740420e-03
1.818178e-03
1.909957e-03
2.016860e-03
2.139218e-03
2.276385e-03
2.426520e-03
2.586650e-03
2.753212e-03
2.923058e-03
3.094549e-03
3.268269e-03
3.446968e-03
3.634685e-03
3.835346e-03
4.051397e-03
4.282986e-03
4.527981e-03
4.782758e-03
5.043385e-03
5.306752e-03
5.571240e-03
5.836783e-03
6.104418e-03
6.375572e-03
6.651392e-03
6.932327e-03
7.218038e-03
7.507572e-03
7.799675e-03
8.092562e-03
8.384962e-03
8.675986e-03
8.964883e-03
9.250930e-03
9.533336e-03
9.811214e-03
1.008360e-02
1.034953e-02
1.060811e-02
1.085858e-02
1.110032e-02
1.133284e-02
1.155573e-02
1.176860e-02
1.197106e-02
1.216268e-02
1.234298e-02
1.251148e-02
1.266772e-02
1.281131e-02
1.294195e-02
1.305943e-02
1.316367e-02
1.325468e-02
1.333255e-02
1.339746e-02
1.344967e-02
1.348944e-02
1.351709e-02
1.353298e-02
1.353753e-02
1.353120e-02
1.351451e-02
1.348804e-02
1.345239e-02
1.340822e-02
1.335617e-02
1.329691e-02
1.323108e-02
1.315928e-02
1.308207e-02
1.299996e-02
1.291334e-02
1.282253e-02
1.272770e-02
1.262889e-02
1.252596e-02
1.241859e-02
1.241751e-02
2.481125e-03
2.434024e-03
2.215910e-03
2.047694e-03
1.937023e-03
1.867826e-03
1.816611e-03
1.762981e-03
1.696582e-03
1.618662e-03
1.538914e-03
1.469843e-03
1.421370e-03
1.397642e-03
1.396756e-03
1.412824e-03
1.439035e-03
1.470285e-03
1.504502e-03
1.542514e-03
1.586975e-03
1.641084e-03
1.707646e-03
1.788708e-03
1.885406e-03
1.997957e-03
2.125499e-03
2.265935e-03
2.416056e-03
2.572156e-03
2.731096e-03
2.891441e-03
3.054149e-03
3.222417e-03
3.400659e-03
3.592968e-03
3.801677e-03
4.026574e-03
4.265068e-03
4.513141e-03
4.766702e-03
5.022754e-03
5.280024e-03
5.538886e-03
5.800757e-03
6.067286e-03
6.339645e-03
6.618172e-03
6.902363e-03
7.191141e-03
7.483207e-03
7.777338e-03
8.071952e-03
8.366039e-03
8.658868e-03
8.949675e-03
9.237588e-03
9.521625e-03
9.800752e-03
1.007398e-02
1.034042e-02
1.059938e-02
1.085027e-02
1.109265e-02
1.132610e-02
1.155019e-02
1.176444e-02
1.196830e-02
1.216119e-02
1.234253e-02
1.251175e-02
1.266840e-02
1.281212e-02
1.294266e-02
1.305989e-02
1.316375e-02
1.325429e-02
1.333159e-02
1.339580e-02
1.344715e-02
1.348589e-02
1.351230e-02
1.352673e-02
1.352959e-02
1.352135e-02
1.350254e-02
1.347373e-02
1.343554e-02
1.338859e-02
1.333352e-02
1.327095e-02
1.320150e-02
1.312574e-02
1.304418e-02
1.295729e-02
1.286545e-02
1.276893e-02
1.266791e-02
1.256241e-02
1.245231e-02
1.233732e-02
1.233623e-02
2.440155e-03
2.393620e-03
2.198966e-03
2.061359e-03
1.970571e-03
1.902784e-03
1.835880e-03
1.757338e-03
1.666708e-03
1.572947e-03
1.488795e-03
1.424996e-03
1.386603e-03
1.372292e-03
1.376260e-03
1.391355e-03
1.411943e-03
1.435478e-03
1.462538e-03
1.495787e-03
1.538609e-03
1.594049e-03
1.664296e-03
1.750592e-03
1.853094e-03
1.970788e-03
2.101367e-03
2.241417e-03
2.387097e-03
2.535268e-03
2.684671e-03
2.836595e-03
2.994640e-03
3.163549e-03
3.347546e-03
3.548829e-03
3.766831e-03
3.998521e-03
4.239543e-03
4.485693e-03
4.734144e-03
4.983996e-03
5.236061e-03
5.492111e-03
5.753963e-03
6.022769e-03
6.298717e-03
6.581127e-03
6.868809e-03
7.160453e-03
7.454905e-03
7.751258e-03
8.048168e-03
8.344714e-03
8.640086e-03
8.933327e-03
9.223367e-03
9.509116e-03
9.789568e-03
1.006388e-02
1.033139e-02
1.059159e-02
1.084404e-02
1.108830e-02
1.132389e-02
1.155021e-02
1.176662e-02
1.197240e-02
1.216689e-02
1.234945e-02
1.251954e-02
1.267677e-02
1.282084e-02
1.295155e-02
1.306881e-02
1.317257e-02
1.326284e-02
1.333969e-02
1.340321e-02
1.345362e-02
1.349115e-02
1.351608e-02
1.352876e-02
1.352963e-02
1.351918e-02
1.349793e-02
1.346647e-02
1.342540e-02
1.337534e-02
1.331690e-02
1.325069e-02
1.317728e-02
1.309724e-02
1.301106e-02
1.291917e-02
1.282196e-02
1.271970e-02
1.261255e-02
1.250057e-02
1.238365e-02
1.226156e-02
1.226046e-02
2.393193e-03
2.360700e-03
2.195550e-03
2.080198e-03
1.992734e-03
1.910221e-03
1.818370e-03
1.714895e-03
1.607538e-03
1.508720e-03
1.429612e-03
1.376033e-03
1.347344e-03
1.338074e-03
1.341001e-03
1.350150e-03
1.362568e-03
1.378540e-03
1.400626e-03
1.432266e-03
1.476649e-03
1.536092e-03
1.611849e-03
1.704096e-03
1.811711e-03
1.932235e-03
2.062092e-03
2.197330e-03
2.334813e-03
2.473429e-03
2.614758e-03
2.762747e-03
2.922427e-03
3.098117e-03
3.291864e-03
3.502753e-03
3.727343e-03
3.960974e-03
4.199385e-03
4.439955e-03
4.682175e-03
4.927293e-03
5.177403e-03
5.434454e-03
5.699538e-03
5.972671e-03
6.252995e-03
6.539220e-03
6.830046e-03
7.124414e-03
7.421537e-03
7.720770e-03
8.020774e-03
8.320458e-03
8.618783e-03
8.914608e-03
9.206807e-03
9.494387e-03
9.776553e-03
1.005270e-02
1.032236e-02
1.058510e-02
1.084044e-02
1.108780e-02
1.132650e-02
1.155576e-02
1.177478e-02
1.198278e-02
1.217906e-02
1.236305e-02
1.253428e-02
1.269242e-02
1.283721e-02
1.296849e-02
1.308613e-02
1.319005e-02
1.328021e-02
1.335664e-02
1.341941e-02
1.346874e-02
1.350488e-02
1.352811e-02
1.353884e-02
1.353749e-02
1.352459e-02
1.350066e-02
1.346629e-02
1.342206e-02
1.336859e-02
1.330646e-02
1.323629e-02
1.315862e-02
1.307401e-02
1.298295e-02
1.288588e-02
1.278318e-02
1.267514e-02
1.256194e-02
1.244366e-02
1.232025e-02
1.219151e-02
1.219041e-02
2.355979e-03
2.343754e-03
2.200270e-03
2.090432e-03
1.989506e-03
1.882109e-03
1.764427e-03
1.642910e-03
1.529325e-03
1.434873e-03
1.365849e-03
1.322190e-03
1.298822e-03
1.288616e-03
1.285434e-03
1.286045e-03
1.290484e-03
1.301173e-03
1.321540e-03
1.354828e-03
1.403414e-03
1.468575e-03
1.550401e-03
1.647738e-03
1.758013e-03
1.877533e-03
2.002267e-03
2.129085e-03
2.257009e-03
2.387864e-03
2.525904e-03
2.676400e-03
2.843739e-03
3.029811e-03
3.233363e-03
3.450566e-03
3.676499e-03
3.906874e-03
4.139300e-03
4.373675e-03
4.611664e-03
4.855660e-03
5.107710e-03
5.368822e-03
5.638829e-03
5.916703e-03
6.201071e-03
6.490663e-03
6.784529e-03
7.082002e-03
7.382520e-03
7.685415e-03
7.989106e-03
8.292214e-03
8.593546e-03
8.891971e-03
9.186536e-03
9.476510e-03
9.761350e-03
1.004061e-02
1.031385e-02
1.058052e-02
1.083994e-02
1.109131e-02
1.133373e-02
1.156631e-02
1.178820e-02
1.199864e-02
1.219701e-02
1.238281e-02
1.255564e-02
1.271519e-02
1.286119e-02
1.299344e-02
1.311176e-02
1.321601e-02
1.330612e-02
1.338210e-02
1.344404e-02
1.349218e-02
1.352679e-02
1.354820e-02
1.355682e-02
1.355311e-02
1.353759e-02
1.351078e-02
1.347326e-02
1.342562e-02
1.336845e-02
1.330234e-02
1.322788e-02
1.314566e-02
1.305621e-02
1.296004e-02
1.285762e-02
1.274932e-02
1.263547e-02
1.251628e-02
1.239187e-02
1.226223e-02
1.212724e-02
1.212614e-02
2.332449e-03
2.339014e-03
2.201218e-03
2.079211e-03
1.953496e-03
1.819208e-03
1.681757e-03
1.552255e-03
1.441741e-03
1.356730e-03
1.297527e-03
1.259348e-03
1.235168e-03
1.218764e-03
1.206725e-03
1.198915e-03
1.197658e-03
1.206362e-03
1.228286e-03
1.265821e-03
1.320217e-03
1.391501e-03
1.478379e-03
1.578232e-03
1.687276e-03
1.801423e-03
1.917558e-03
2.034819e-03
2.155249e-03
2.283364e-03
2.424643e-03
2.583525e-03
2.761741e-03
2.957716e-03
3.167264e-03
3.385224e-03
3.607303e-03
3.831357e-03
4.057677e-03
4.288335e-03
4.525995e-03
4.772777e-03
5.029589e-03
5.296085e-03
5.571081e-03
5.853144e-03
6.141052e-03
6.433967e-03
6.731343e-03
7.032685e-03
7.337334e-03
7.644364e-03
7.951901e-03
8.258412e-03
8.562789e-03
8.864146e-03
9.161834e-03
9.455373e-03
9.744335e-03
1.002823e-02
1.030644e-02
1.057815e-02
1.084245e-02
1.109834e-02
1.134482e-02
1.158099e-02
1.180606e-02
1.201935e-02
1.222032e-02
1.240852e-02
1.258355e-02
1.274506e-02
1.289273e-02
1.302627e-02
1.314546e-02
1.325014e-02
1.334022e-02
1.341573e-02
1.347679e-02
1.352370e-02
1.355674e-02
1.357627e-02
1.358272e-02
1.357655e-02
1.355826e-02
1.352838e-02
1.348748e-02
1.343615e-02
1.337499e-02
1.330459e-02
1.322557e-02
1.313850e-02
1.304396e-02
1.294247e-02
1.283452e-02
1.272051e-02
1.260081e-02
1.247567e-02
1.234525e-02
1.220961e-02
1.206869e-02
1.206759e-02
2.315909e-03
2.334220e-03
2.185080e-03
2.038365e-03
1.884643e-03
1.728626e-03
1.580999e-03
1.452721e-03
1.350463e-03
1.274746e-03
1.220918e-03
1.181935e-03
1.151439e-03
1.125849e-03
1.104903e-03
1.090881e-03
1.087214e-03
1.097200e-03
1.123236e-03
1.166527e-03
1.227007e-03
1.303263e-03
1.392518e-03
1.490949e-03
1.594417e-03
1.699819e-03
1.806391e-03
1.916368e-03
2.034493e-03
2.166434e-03
2.316674e-03
2.486799e-03
2.674935e-03
2.876564e-03
3.086305e-03
3.299868e-03
3.515348e-03
3.733418e-03
3.956528e-03
4.187591e-03
4.428780e-03
4.680902e-03
4.943437e-03
5.215069e-03
5.494327e-03
5.780054e-03
6.071529e-03
6.368316e-03
6.669977e-03
6.975845e-03
7.284959e-03
7.596151e-03
7.907463e-03
8.217469e-03
8.525375e-03
8.830626e-03
9.132806e-03
9.431493e-03
9.726142e-03
1.001602e-02
1.030021e-02
1.057766e-02
1.084726e-02
1.110797e-02
1.135882e-02
1.159898e-02
1.182776e-02
1.204456e-02
1.224885e-02
1.244014e-02
1.261799e-02
1.278194e-02
1.293162e-02
1.306667e-02
1.318687e-02
1.329204e-02
1.338215e-02
1.345725e-02
1.351750e-02
1.356323e-02
1.359474e-02
1.361240e-02
1.361664e-02
1.360789e-02
1.358668e-02
1.355352e-02
1.350900e-02
1.345371e-02
1.338826e-02
1.331327e-02
1.322939e-02
1.313721e-02
1.303733e-02
1.293031e-02
1.281666e-02
1.269683e-02
1.257122e-02
1.244013e-02
1.230379e-02
1.216231e-02
1.201570e-02
1.201461e-02
2.293394e-03
2.314296e-03
2.141552e-03
1.965802e-03
1.788387e-03
1.619848e-03