# vtk DataFile Version 3.0
Scalar Field
ASCII
DATASET RECTILINEAR_GRID
DIMENSIONS 102 102 1
X_COORDINATES 102 double
0.000000 0.100000 0.200000 0.300000 0.400000 0.500000 0.600000 0.700000 0.800000 0.900000 1.000000 1.100000 1.200000 1.300000 1.400000 1.500000 1.600000 1.700000 1.800000 1.900000 2.000000 2.100000 2.200000 2.300000 2.400000 2.500000 2.600000 2.700000 2.800000 2.900000 3.000000 3.100000 3.200000 3.300000 3.400000 3.500000 3.600000 3.700000 3.800000 3.900000 4.000000 4.100000 4.200000 4.300000 4.400000 4.500000 4.600000 4.700000 4.800000 4.900000 5.000000 5.100000 5.200000 5.300000 5.400000 5.500000 5.600000 5.700000 5.800000 5.900000 6.000000 6.100000 6.200000 6.300000 6.400000 6.500000 6.600000 6.700000 6.800000 6.900000 7.000000 7.100000 7.200000 7.300000 7.400000 7.500000 7.600000 7.700000 7.800000 7.900000 8.000000 8.100000 8.200000 8.300000 8.400000 8.500000 8.600000 8.700000 8.800000 8.900000 9.000000 9.100000 9.200000 9.300000 9.400000 9.500000 9.600000 9.700000 9.800000 9.900000 10.000000 10.100000 
Y_COORDINATES 102 double
0.000000 0.100000 0.200000 0.300000 0.400000 0.500000 0.600000 0.700000 0.800000 0.900000 1.000000 1.100000 1.200000 1.300000 1.400000 1.500000 1.600000 1.700000 1.800000 1.900000 2.000000 2.100000 2.200000 2.300000 2.400000 2.500000 2.600000 2.700000 2.800000 2.900000 3.000000 3.100000 3.200000 3.300000 3.400000 3.500000 3.600000 3.700000 3.800000 3.900000 4.000000 4.100000 4.200000 4.300000 4.400000 4.500000 4.600000 4.700000 4.800000 4.900000 5.000000 5.100000 5.200000 5.300000 5.400000 5.500000 5.600000 5.700000 5.800000 5.900000 6.000000 6.100000 6.200000 6.300000 6.400000 6.500000 6.600000 6.700000 6.800000 6.900000 7.000000 7.100000 7.200000 7.300000 7.400000 7.500000 7.600000 7.700000 7.800000 7.900000 8.000000 8.100000 8.200000 8.300000 8.400000 8.500000 8.600000 8.700000 8.800000 8.900000 9.000000 9.100000 9.200000 9.300000 9.400000 9.500000 9.600000 9.700000 9.800000 9.900000 10.000000 10.100000 
Z_COORDINATES 1 double
0.0
POINT_DATA 10404
SCALARS Pressure double 1
LOOKUP_TABLE default
0.000000e+00
8.116305e-03
8.333669e-03
8.501046e-03
8.534357e-03
8.424868e-03
8.208123e-03
7.944837e-03
7.697935e-03
7.512963e-03
7.407198e-03
7.369460e-03
7.369128e-03
7.370196e-03
7.345096e-03
7.283624e-03
7.194529e-03
7.100126e-03
7.026787e-03
6.995260e-03
7.014349e-03
7.079707e-03
7.177410e-03
7.290266e-03
7.404207e-03
7.512516e-03
7.616807e-03
7.725017e-03
7.847628e-03
7.993711e-03
8.168152e-03
8.370750e-03
8.597122e-03
8.840775e-03
9.095427e-03
9.356777e-03
9.623260e-03
9.895759e-03
1.017658e-02
1.046822e-02
1.077231e-02
1.108908e-02
1.141742e-02
1.175524e-02
1.210009e-02
1.244963e-02
1.280201e-02
1.315588e-02
1.351029e-02
1.386447e-02
1.421763e-02
1.456888e-02
1.491719e-02
1.526139e-02
1.560019e-02
1.593222e-02
1.625610e-02
1.657041e-02
1.687378e-02
1.716483e-02
1.744227e-02
1.770490e-02
1.795166e-02
1.818164e-02
1.839412e-02
1.858851e-02
1.876435e-02
1.892128e-02
1.905901e-02
1.917732e-02
1.927605e-02
1.935509e-02
1.941447e-02
1.945430e-02
1.947486e-02
1.947655e-02
1.945995e-02
1.942576e-02
1.937484e-02
1.930816e-02
1.922681e-02
1.913200e-02
1.902506e-02
1.890740e-02
1.878058e-02
1.864625e-02
1.850620e-02
1.836231e-02
1.821662e-02
1.807129e-02
1.792861e-02
1.779103e-02
1.766114e-02
1.754165e-02
1.743541e-02
1.734535e-02
1.727431e-02
1.722479e-02
1.719819e-02
1.719340e-02
1.720364e-02
0.000000e+00
8.116305e-03
8.258784e-03
8.466315e-03
8.575430e-03
8.529411e-03
8.349675e-03
8.094071e-03
7.831662e-03
7.619241e-03
7.485954e-03
7.429312e-03
7.422060e-03
7.426125e-03
7.408076e-03
7.350739e-03
7.257452e-03
7.148456e-03
7.051718e-03
6.992228e-03
6.983826e-03
7.026137e-03
7.106936e-03
7.208268e-03
7.313551e-03
7.413004e-03
7.505812e-03
7.598856e-03
7.703055e-03
7.829003e-03
7.983492e-03
8.167915e-03
8.378724e-03
8.609391e-03
8.852930e-03
9.104044e-03
9.360274e-03
9.621988e-03
9.891455e-03
1.017152e-02
1.046436e-02
1.077080e-02
1.109010e-02
1.142035e-02
1.175907e-02
1.210378e-02
1.245246e-02
1.280364e-02
1.315633e-02
1.350985e-02
1.386354e-02
1.421660e-02
1.456808e-02
1.491685e-02
1.526162e-02
1.560103e-02
1.593365e-02
1.625800e-02
1.657264e-02
1.687612e-02
1.716709e-02
1.744426e-02
1.770649e-02
1.795280e-02
1.818236e-02
1.839451e-02
1.858869e-02
1.876447e-02
1.892147e-02
1.905934e-02
1.917782e-02
1.927669e-02
1.935583e-02
1.941525e-02
1.945505e-02
1.947554e-02
1.947714e-02
1.946044e-02
1.942616e-02
1.937517e-02
1.930843e-02
1.922704e-02
1.913221e-02
1.902524e-02
1.890756e-02
1.878071e-02
1.864635e-02
1.850626e-02
1.836233e-02
1.821660e-02
1.807123e-02
1.792853e-02
1.779092e-02
1.766101e-02
1.754150e-02
1.743526e-02
1.734519e-02
1.727415e-02
1.722462e-02
1.719803e-02
1.719324e-02
1.720349e-02
1.720364e-02
8.345303e-03
8.478513e-03
8.587018e-03
8.558831e-03
8.410249e-03
8.196080e-03
7.978152e-03
7.805142e-03
7.699837e-03
7.656835e-03
7.649858e-03
7.644891e-03
7.614024e-03
7.545170e-03
7.444814e-03
7.333673e-03
7.237763e-03
7.178711e-03
7.166958e-03
7.199915e-03
7.265007e-03
7.345736e-03
7.428123e-03
7.505154e-03
7.578036e-03
7.654384e-03
7.744519e-03
7.857504e-03
7.998322e-03
8.166922e-03
8.359110e-03
8.568610e-03
8.789387e-03
9.017395e-03
9.251297e-03
9.492134e-03
9.742296e-03
1.000427e-02
1.027965e-02
1.056865e-02
1.087017e-02
1.118223e-02
1.150256e-02
1.182909e-02
1.216019e-02
1.249477e-02
1.283210e-02
1.317159e-02
1.351265e-02
1.385448e-02
1.419603e-02
1.453615e-02
1.487355e-02
1.520689e-02
1.553477e-02
1.585576e-02
1.616845e-02
1.647145e-02
1.676343e-02
1.704318e-02
1.730959e-02
1.756171e-02
1.779872e-02
1.801993e-02
1.822472e-02
1.841256e-02
1.858297e-02
1.873550e-02
1.886975e-02
1.898541e-02
1.908227e-02
1.916022e-02
1.921930e-02
1.925971e-02
1.928176e-02
1.928594e-02
1.927284e-02
1.924317e-02
1.919776e-02
1.913755e-02
1.906359e-02
1.897701e-02
1.887909e-02
1.877119e-02
1.865479e-02
1.853149e-02
1.840299e-02
1.827110e-02
1.813774e-02
1.800494e-02
1.787486e-02
1.774972e-02
1.763188e-02
1.752376e-02
1.742781e-02
1.734647e-02
1.728199e-02
1.723622e-02
1.721013e-02
1.720332e-02
1.721360e-02
1.721375e-02
8.589668e-03
8.664590e-03
8.627676e-03
8.478418e-03
8.279307e-03
8.091310e-03
7.956233e-03
7.887432e-03
7.871046e-03
7.875935e-03
7.867966e-03
7.823323e-03
7.736406e-03
7.620151e-03
7.499535e-03
7.401441e-03
7.345077e-03
7.336441e-03
7.368329e-03
7.425095e-03
7.489690e-03
7.550049e-03
7.602609e-03
7.652202e-03
7.708978e-03
7.784000e-03
7.885291e-03
8.015632e-03
8.172547e-03
8.350058e-03
8.541270e-03
8.740728e-03
8.945799e-03
9.156798e-03
9.376100e-03
9.606742e-03
9.851123e-03
1.011020e-02
1.038335e-02
1.066877e-02
1.096411e-02
1.126714e-02
1.157614e-02
1.189001e-02
1.220815e-02
1.253021e-02
1.285580e-02
1.318437e-02
1.351512e-02
1.384700e-02
1.417864e-02
1.450874e-02
1.483592e-02
1.515882e-02
1.547603e-02
1.578618e-02
1.608793e-02
1.638002e-02
1.666129e-02
1.693072e-02
1.718741e-02
1.743056e-02
1.765946e-02
1.787346e-02
1.807192e-02
1.825425e-02
1.841987e-02
1.856827e-02
1.869903e-02
1.881185e-02
1.890653e-02
1.898305e-02
1.904151e-02
1.908216e-02
1.910538e-02
1.911163e-02
1.910152e-02
1.907572e-02
1.903502e-02
1.898033e-02
1.891264e-02
1.883305e-02
1.874279e-02
1.864317e-02
1.853563e-02
1.842170e-02
1.830299e-02
1.818122e-02
1.805822e-02
1.793588e-02
1.781619e-02
1.770119e-02
1.759302e-02
1.749383e-02
1.740575e-02
1.733088e-02
1.727113e-02
1.722810e-02
1.720294e-02
1.719630e-02
1.720880e-02
1.720893e-02
8.759206e-03
8.753604e-03
8.594654e-03
8.386092e-03
8.204205e-03
8.089597e-03
8.049295e-03
8.060777e-03
8.085119e-03
8.083768e-03
8.032933e-03
7.930949e-03
7.796797e-03
7.661249e-03
7.554703e-03
7.496583e-03
7.490095e-03
7.523618e-03
7.577314e-03
7.631734e-03
7.674924e-03
7.705653e-03
7.732213e-03
7.767979e-03
7.825908e-03
7.914104e-03
8.033866e-03
8.180437e-03
8.345696e-03
8.521481e-03
8.702256e-03
8.886344e-03
9.075564e-03
9.273753e-03
9.484910e-03
9.711687e-03
9.954675e-03
1.021253e-02
1.048272e-02
1.076239e-02
1.104921e-02
1.134165e-02
1.163906e-02
1.194130e-02
1.224841e-02
1.256028e-02
1.287646e-02
1.319615e-02
1.351827e-02
1.384154e-02
1.416437e-02
1.448536e-02
1.480314e-02
1.511631e-02
1.542354e-02
1.572354e-02
1.601511e-02
1.629718e-02
1.656879e-02
1.682911e-02
1.707738e-02
1.731288e-02
1.753491e-02
1.774274e-02
1.793567e-02
1.811302e-02
1.827416e-02
1.841856e-02
1.854582e-02
1.865571e-02
1.874810e-02
1.882305e-02
1.888071e-02
1.892137e-02
1.894540e-02
1.895328e-02
1.894555e-02
1.892288e-02
1.888603e-02
1.883584e-02
1.877330e-02
1.869948e-02
1.861556e-02
1.852282e-02
1.842264e-02
1.831647e-02
1.820587e-02
1.809247e-02
1.797796e-02
1.786411e-02
1.775277e-02
1.764582e-02
1.754517e-02
1.745275e-02
1.737047e-02
1.730016e-02
1.724353e-02
1.720210e-02
1.717721e-02
1.717013e-02
1.718251e-02
1.718261e-02
8.830114e-03
8.752177e-03
8.531769e-03
8.334211e-03
8.219409e-03
8.192708e-03
8.225493e-03
8.270842e-03
8.283208e-03
8.235038e-03
8.125001e-03
7.975849e-03
7.823765e-03
7.704005e-03
7.638546e-03
7.630153e-03
7.664297e-03
7.717182e-03
7.766019e-03
7.797368e-03
7.810735e-03
7.816842e-03
7.832082e-03
7.871831e-03
7.945238e-03
8.053108e-03
8.189077e-03
8.343085e-03
8.505459e-03
8.670071e-03
8.835623e-03
9.004995e-03
9.183286e-03
9.375501e-03
9.584776e-03
9.811632e-03
1.005427e-02
1.030957e-02
1.057423e-02
1.084569e-02
1.112253e-02
1.140435e-02
1.169139e-02
1.198406e-02
1.228249e-02
1.258640e-02
1.289505e-02
1.320734e-02
1.352199e-02
1.383760e-02
1.415240e-02
1.446498e-02
1.477396e-02
1.507802e-02
1.537592e-02
1.566654e-02
1.594889e-02
1.622209e-02
1.648537e-02
1.673800e-02
1.697924e-02
1.720836e-02
1.742454e-02
1.762699e-02
1.781491e-02
1.798757e-02
1.814438e-02
1.828484e-02
1.840865e-02
1.851563e-02
1.860576e-02
1.867911e-02
1.873588e-02
1.877634e-02
1.880087e-02
1.880990e-02
1.880396e-02
1.878368e-02
1.874979e-02
1.870316e-02
1.864471e-02
1.857551e-02
1.849670e-02
1.840953e-02
1.831531e-02
1.821544e-02
1.811138e-02
1.800468e-02
1.789694e-02
1.778979e-02
1.768494e-02
1.758413e-02
1.748908e-02
1.740154e-02
1.732322e-02
1.725576e-02
1.720072e-02
1.715955e-02
1.713365e-02
1.712447e-02
1.713377e-02
1.713385e-02
8.822621e-03
8.703739e-03
8.490847e-03
8.357436e-03
8.326940e-03
8.368768e-03
8.430185e-03
8.458382e-03
8.419723e-03
8.309866e-03
8.152189e-03
7.986337e-03
7.852133e-03
7.775318e-03
7.760279e-03
7.791625e-03
7.842915e-03
7.888228e-03
7.911838e-03
7.912611e-03
7.902323e-03
7.899474e-03
7.921649e-03
7.979462e-03
8.074030e-03
8.198249e-03
8.340733e-03
8.490526e-03
8.640738e-03
8.790023e-03
8.941812e-03
9.102046e-03
9.276515e-03
9.468843e-03
9.679666e-03
9.907002e-03
1.014740e-02
1.039728e-02
1.065391e-02
1.091588e-02
1.118295e-02
1.145558e-02
1.173443e-02
1.201984e-02
1.231168e-02
1.260933e-02
1.291175e-02
1.321764e-02
1.352561e-02
1.383421e-02
1.414154e-02
1.444622e-02
1.474695e-02
1.504252e-02
1.533191e-02
1.561419e-02
1.588858e-02
1.615436e-02
1.641080e-02
1.665716e-02
1.689264e-02
1.711637e-02
1.732744e-02
1.752498e-02
1.770819e-02
1.787638e-02
1.802901e-02
1.816570e-02
1.828623e-02
1.839048e-02
1.847846e-02
1.855027e-02
1.860607e-02
1.864614e-02
1.867081e-02
1.868050e-02
1.867573e-02
1.865712e-02
1.862541e-02
1.858142e-02
1.852610e-02
1.846047e-02
1.838564e-02
1.830282e-02
1.821326e-02
1.811830e-02
1.801934e-02
1.791781e-02
1.781522e-02
1.771312e-02
1.761306e-02
1.751666e-02
1.742548e-02
1.734112e-02
1.726511e-02
1.719894e-02
1.714402e-02
1.710172e-02
1.707336e-02
1.706030e-02
1.706406e-02
1.706412e-02
8.785143e-03
8.666100e-03
8.512450e-03
8.463014e-03
8.499473e-03
8.566956e-03
8.607250e-03
8.580340e-03
8.476828e-03
8.317851e-03
8.143866e-03
7.997663e-03
7.908563e-03
7.883629e-03
7.908354e-03
7.955356e-03
7.996664e-03
8.014423e-03
8.006196e-03
7.983667e-03
7.966299e-03
7.973121e-03
8.016020e-03
8.096752e-03
8.208137e-03
8.338199e-03
8.475233e-03
8.611803e-03
8.746394e-03
8.882630e-03
9.026847e-03
9.185244e-03
9.361723e-03
9.557030e-03
9.769160e-03
9.994587e-03
1.022966e-02
1.047166e-02
1.071921e-02
1.097216e-02
1.123109e-02
1.149676e-02
1.176966e-02
1.204976e-02
1.233655e-02
1.262907e-02
1.292609e-02
1.322623e-02
1.352803e-02
1.383005e-02
1.413034e-02
1.442760e-02
1.472069e-02
1.500865e-02
1.529066e-02
1.556598e-02
1.583394e-02
1.609384e-02
1.634488e-02
1.658620e-02
1.681685e-02
1.703586e-02
1.724227e-02
1.743522e-02
1.761397e-02
1.777795e-02
1.792671e-02
1.805995e-02
1.817751e-02
1.827930e-02
1.836531e-02
1.843561e-02
1.849035e-02
1.852977e-02
1.855421e-02
1.856409e-02
1.855991e-02
1.854232e-02
1.851204e-02
1.846990e-02
1.841681e-02
1.835379e-02
1.828190e-02
1.820229e-02
1.811619e-02
1.802485e-02
1.792960e-02
1.783181e-02
1.773291e-02
1.763432e-02
1.753751e-02
1.744394e-02
1.735508e-02
1.727235e-02
1.719716e-02
1.713085e-02
1.707470e-02
1.702994e-02
1.699774e-02
1.697928e-02
1.697573e-02
1.697576e-02
8.771875e-03
8.688067e-03
8.612851e-03
8.631353e-03
8.692776e-03
8.736660e-03
8.718162e-03
8.622561e-03
8.467058e-03
8.290596e-03
8.136811e-03
8.037340e-03
8.001783e-03
8.017357e-03
8.057106e-03
8.092344e-03
8.103940e-03
8.088288e-03
8.056473e-03
8.028029e-03
8.022522e-03
8.052485e-03
8.120140e-03
8.218446e-03
8.335357e-03
8.459018e-03
8.581893e-03
8.702491e-03
8.824546e-03
8.954502e-03
9.098594e-03
9.260687e-03
9.441455e-03
9.638864e-03
9.849446e-03
1.006970e-02
1.029708e-02
1.053038e-02
1.076959e-02
1.101535e-02
1.126842e-02
1.152932e-02
1.179807e-02
1.207421e-02
1.235690e-02
1.264497e-02
1.293708e-02
1.323183e-02
1.352778e-02
1.382355e-02
1.411724e-02
1.440772e-02
1.469413e-02
1.497571e-02
1.525181e-02
1.552179e-02
1.578490e-02
1.604032e-02
1.628711e-02
1.652424e-02
1.675066e-02
1.696537e-02
1.716745e-02
1.735615e-02
1.753084e-02
1.769104e-02
1.783640e-02
1.796665e-02
1.808163e-02
1.818122e-02
1.826539e-02
1.833418e-02
1.838772e-02
1.842624e-02
1.845010e-02
1.845972e-02
1.845563e-02
1.843848e-02
1.840898e-02
1.836796e-02
1.831630e-02
1.825498e-02
1.818505e-02
1.810760e-02
1.802380e-02
1.793487e-02
1.784207e-02
1.774671e-02
1.765011e-02
1.755364e-02
1.745864e-02
1.736649e-02
1.727852e-02
1.719604e-02
1.712033e-02
1.705259e-02
1.699397e-02
1.694556e-02
1.690836e-02
1.688332e-02
1.687129e-02
1.687130e-02
8.822424e-03
8.793001e-03
8.780879e-03
8.825296e-03
8.862074e-03
8.844098e-03
8.752602e-03
8.600696e-03
8.424540e-03
8.266860e-03
8.159989e-03
8.115070e-03
8.120866e-03
8.151404e-03
8.178253e-03
8.181999e-03
8.158528e-03
8.118488e-03
8.081159e-03
8.066001e-03
8.085505e-03
8.141832e-03
8.227905e-03
8.331702e-03
8.441594e-03
8.550406e-03
8.657039e-03
8.765515e-03
8.882342e-03
9.013581e-03
9.162767e-03
9.330248e-03
9.513812e-03
9.710034e-03
9.915649e-03
1.012846e-02
1.034759e-02
1.057322e-02
1.080609e-02
1.104696e-02
1.129629e-02
1.155406e-02
1.181985e-02
1.209283e-02
1.237193e-02
1.265589e-02
1.294334e-02
1.323288e-02
1.352321e-02
1.381314e-02
1.410091e-02
1.438566e-02
1.466673e-02
1.494352e-02
1.521539e-02
1.548157e-02
1.574118e-02
1.599318e-02
1.623647e-02
1.646993e-02
1.669252e-02
1.690331e-02
1.710151e-02
1.728646e-02
1.745767e-02
1.761470e-02
1.775723e-02
1.788498e-02
1.799773e-02
1.809535e-02
1.817777e-02
1.824500e-02
1.829719e-02
1.833458e-02
1.835756e-02
1.836657e-02
1.836215e-02
1.834493e-02
1.831563e-02
1.827505e-02
1.822407e-02
1.816362e-02
1.809471e-02
1.801842e-02
1.793587e-02
1.784822e-02
1.775668e-02
1.766251e-02
1.756696e-02
1.747130e-02
1.737682e-02
1.728478e-02
1.719642e-02
1.711294e-02
1.703550e-02
1.696518e-02
1.690302e-02
1.684994e-02
1.680680e-02
1.677433e-02
1.675311e-02
1.675309e-02
8.949650e-03
8.973455e-03
8.984300e-03
9.003944e-03
8.976507e-03
8.881147e-03
8.727960e-03
8.550363e-03
8.389368e-03
8.276776e-03
8.224063e-03
8.220700e-03
8.241408e-03
8.258266e-03
8.252184e-03
8.219264e-03
8.170273e-03
8.124464e-03
8.101050e-03
8.112047e-03
8.159031e-03
8.234427e-03
8.326029e-03
8.422403e-03
8.516998e-03
8.609453e-03
8.704383e-03
8.808533e-03
8.927791e-03
9.065221e-03
9.220629e-03
9.391421e-03
9.574085e-03
9.765565e-03
9.964059e-03
1.016912e-02
1.038126e-02
1.060137e-02
1.083025e-02
1.106827e-02
1.131536e-02
1.157103e-02
1.183448e-02
1.210466e-02
1.238037e-02
1.266029e-02
1.294312e-02
1.322762e-02
1.351272e-02
1.379757e-02
1.408056e-02
1.436104e-02
1.463846e-02
1.491215e-02
1.518131e-02
1.544497e-02
1.570200e-02
1.595122e-02
1.619147e-02
1.642166e-02
1.664086e-02
1.684826e-02
1.704321e-02
1.722515e-02
1.739361e-02
1.754816e-02
1.768843e-02
1.781411e-02
1.792494e-02
1.802075e-02
1.810146e-02
1.816711e-02
1.821784e-02
1.825395e-02
1.827582e-02
1.828393e-02
1.827880e-02
1.826107e-02
1.823144e-02
1.819068e-02
1.813966e-02
1.807928e-02
1.801054e-02
1.793446e-02
1.785215e-02
1.776473e-02
1.767336e-02
1.757923e-02
1.748356e-02
1.738754e-02
1.729239e-02
1.719927e-02
1.710936e-02
1.702375e-02
1.694350e-02
1.686960e-02
1.680295e-02
1.674437e-02
1.669455e-02
1.665405e-02
1.662326e-02
1.662323e-02
9.138178e-03
9.196809e-03
9.182334e-03
9.135999e-03
9.027131e-03
8.864309e-03
8.679183e-03
8.511334e-03
8.391662e-03
8.331174e-03
8.319113e-03
8.330100e-03
8.336280e-03
8.318879e-03
8.274571e-03
8.214793e-03
8.159297e-03
8.127365e-03
8.130539e-03
8.169531e-03
8.235833e-03
8.316620e-03
8.400414e-03
8.481149e-03
8.559386e-03
8.640601e-03
8.732044e-03
8.839600e-03
8.965903e-03
9.110129e-03
9.269144e-03
9.439179e-03
9.617267e-03
9.801952e-03
9.993231e-03
1.019201e-02
1.039944e-02
1.061638e-02
1.084321e-02
1.107977e-02
1.132550e-02
1.157955e-02
1.184086e-02
1.210826e-02
1.238049e-02
1.265631e-02
1.293462e-02
1.321448e-02
1.349518e-02
1.377619e-02
1.405600e-02
1.433397e-02
1.460942e-02
1.488148e-02
1.514907e-02
1.541098e-02
1.566597e-02
1.591282e-02
1.615044e-02
1.637787e-02
1.659433e-02
1.679914e-02
1.699169e-02
1.717146e-02
1.733794e-02
1.749065e-02
1.762917e-02
1.775314e-02
1.786228e-02
1.795642e-02
1.803551e-02
1.809960e-02
1.814886e-02
1.818358e-02
1.820420e-02
1.821117e-02
1.820502e-02
1.818636e-02
1.815588e-02
1.811436e-02
1.806262e-02
1.800157e-02
1.793217e-02
1.785544e-02
1.777243e-02
1.768425e-02
1.759203e-02
1.749690e-02
1.740003e-02
1.730256e-02
1.720564e-02
1.711039e-02
1.701787e-02
1.692911e-02
1.684510e-02
1.676672e-02
1.669478e-02
1.662999e-02
1.657293e-02
1.652403e-02
1.648353e-02
1.648348e-02
9.352364e-03
9.418463e-03
9.339448e-03
9.208297e-03
9.026543e-03
8.825276e-03
8.643619e-03
8.512090e-03
8.441190e-03
8.419407e-03
8.420457e-03
8.415736e-03
8.386210e-03
8.328942e-03
8.256263e-03
8.188916e-03
8.146791e-03
8.141343e-03
8.172503e-03
8.230623e-03
8.301863e-03
8.374274e-03
8.442019e-03
8.506381e-03
8.573838e-03
8.652371e-03
8.748102e-03
8.863402e-03
8.996878e-03
9.144801e-03
9.303025e-03
9.468527e-03
9.640078e-03
9.818058e-03
1.000376e-02
1.019862e-02
1.040367e-02
1.061931e-02
1.084536e-02
1.108119e-02
1.132588e-02
1.157835e-02
1.183738e-02
1.210176e-02
1.237032e-02
1.264209e-02
1.291631e-02
1.319245e-02
1.347013e-02
1.374898e-02
1.402741e-02
1.430453e-02
1.457938e-02
1.485078e-02
1.511745e-02
1.537806e-02
1.563137e-02
1.587630e-02
1.611189e-02
1.633735e-02
1.655198e-02
1.675515e-02
1.694625e-02
1.712469e-02
1.728988e-02
1.744131e-02
1.757850e-02
1.770108e-02
1.780878e-02
1.790146e-02
1.797907e-02
1.804170e-02
1.808952e-02
1.812283e-02
1.814207e-02
1.814769e-02
1.814022e-02
1.812024e-02
1.808845e-02
1.804560e-02
1.799251e-02
1.793009e-02
1.785928e-02
1.778107e-02
1.769651e-02
1.760667e-02
1.751265e-02
1.741555e-02
1.731649e-02
1.721658e-02
1.711691e-02
1.701852e-02
1.692244e-02
1.682963e-02
1.674100e-02
1.665735e-02
1.657943e-02
1.650785e-02
1.644312e-02
1.638558e-02
1.633537e-02
1.633530e-02
9.549842e-03
9.597289e-03
9.435749e-03
9.227260e-03
9.001193e-03
8.797309e-03
8.646778e-03
8.560279e-03
8.525689e-03
8.515419e-03
8.499335e-03
8.457292e-03
8.386105e-03
8.298770e-03
8.217226e-03
8.162469e-03
8.146425e-03
8.168644e-03
8.218439e-03
8.280757e-03
8.342792e-03
8.398530e-03
8.449734e-03
8.503668e-03
8.569178e-03
8.652820e-03
8.756915e-03
8.879655e-03
9.016776e-03
9.163718e-03
9.317301e-03
9.476400e-03
9.641667e-03
9.814715e-03
9.997252e-03
1.019049e-02
1.039493e-02
1.061041e-02
1.083627e-02
1.107155e-02
1.131509e-02
1.156566e-02
1.182201e-02
1.208308e-02
1.234799e-02
1.261618e-02
1.288733e-02
1.316123e-02
1.343765e-02
1.371616e-02
1.399480e-02
1.427229e-02
1.454736e-02
1.481862e-02
1.508471e-02
1.534438e-02
1.559653e-02
1.584023e-02
1.607470e-02
1.629922e-02
1.651309e-02
1.671564e-02
1.690618e-02
1.708402e-02
1.724854e-02
1.739917e-02
1.753543e-02
1.765696e-02
1.776353e-02
1.785501e-02
1.793137e-02
1.799270e-02
1.803917e-02
1.807106e-02
1.808884e-02
1.809292e-02
1.808383e-02
1.806217e-02
1.802861e-02
1.798392e-02
1.792891e-02
1.786447e-02
1.779155e-02
1.771112e-02
1.762421e-02
1.753188e-02
1.743519e-02
1.733523e-02
1.723308e-02
1.712981e-02
1.702646e-02
1.692405e-02
1.682354e-02
1.672584e-02
1.663180e-02
1.654218e-02
1.645767e-02
1.637883e-02
1.630609e-02
1.623976e-02
1.617992e-02
1.617983e-02
9.695586e-03
9.708064e-03
9.470978e-03
9.213587e-03
8.979833e-03
8.802639e-03
8.693957e-03
8.641794e-03
8.617420e-03
8.588771e-03
8.533801e-03
8.448234e-03
8.345136e-03
8.247472e-03
8.177600e-03
8.148438e-03
8.159696e-03
8.199997e-03
8.253135e-03
8.305233e-03
8.349729e-03
8.388510e-03
8.429441e-03
8.482017e-03
8.553381e-03
8.645967e-03
8.757730e-03
8.883999e-03
9.019849e-03
9.161915e-03
9.309091e-03
9.462194e-03
9.623062e-03
9.793610e-03
9.975215e-03
1.016849e-02
1.037332e-02
1.058909e-02
1.081481e-02
1.104927e-02
1.129118e-02
1.153931e-02
1.179261e-02
1.205035e-02
1.231214e-02
1.257788e-02
1.284755e-02
1.312103e-02
1.339796e-02
1.367759e-02
1.395752e-02
1.423604e-02
1.451170e-02
1.478309e-02
1.504897e-02
1.530827e-02
1.556008e-02
1.580361e-02
1.603810e-02
1.626282e-02
1.647700e-02
1.667984e-02
1.687058e-02
1.704848e-02
1.721286e-02
1.736317e-02
1.749895e-02
1.761987e-02
1.772570e-02
1.781632e-02
1.789171e-02
1.795194e-02
1.799717e-02
1.802766e-02
1.804387e-02
1.804624e-02
1.803528e-02
1.801160e-02
1.797588e-02
1.792888e-02
1.787142e-02
1.780438e-02
1.772870e-02
1.764536e-02
1.755538e-02
1.745979e-02
1.735964e-02
1.725600e-02
1.714993e-02
1.704245e-02
1.693459e-02
1.682731e-02
1.672155e-02
1.661819e-02
1.651803e-02
1.642181e-02
1.633017e-02
1.624363e-02
1.616262e-02
1.608740e-02
1.601806e-02
1.601795e-02
9.771900e-03
9.747210e-03
9.461510e-03
9.192755e-03
8.982538e-03
8.845224e-03
8.770040e-03
8.727789e-03
8.684547e-03
8.615898e-03
8.515700e-03
8.396332e-03
8.281324e-03
8.194355e-03
8.149656e-03
8.147601e-03
8.176589e-03
8.219509e-03
8.261407e-03
8.294952e-03
8.321833e-03
8.350233e-03
8.390199e-03
8.449254e-03
8.530104e-03
8.630593e-03
8.745773e-03
8.870450e-03
9.001112e-03
9.136652e-03
9.277987e-03
9.427089e-03
9.586005e-03
9.756216e-03
9.938418e-03
1.013259e-02
1.033813e-02
1.055410e-02
1.077924e-02
1.101225e-02
1.125186e-02
1.149709e-02
1.174731e-02
1.200233e-02
1.226224e-02
1.252720e-02
1.279723e-02
1.307201e-02
1.335077e-02
1.363238e-02
1.391407e-02
1.419386e-02
1.447034e-02
1.474226e-02
1.500860e-02
1.526848e-02
1.552110e-02
1.576568e-02
1.600140e-02
1.622741e-02
1.644283e-02
1.664677e-02
1.683839e-02
1.701693e-02
1.718175e-02
1.733230e-02
1.746815e-02
1.758896e-02
1.769452e-02
1.778469e-02
1.785941e-02
1.791875e-02
1.796285e-02
1.799196e-02
1.800653e-02
1.800704e-02
1.799400e-02
1.796802e-02
1.792978e-02
1.788006e-02
1.781967e-02
1.774951e-02
1.767050e-02
1.758364e-02
1.748991e-02
1.739036e-02
1.728602e-02
1.717794e-02
1.706716e-02
1.695468e-02
1.684151e-02
1.672859e-02
1.661683e-02
1.650709e-02
1.640015e-02
1.629673e-02
1.619745e-02
1.610284e-02
1.601331e-02
1.592913e-02
1.585040e-02
1.585028e-02
9.781583e-03
9.730750e-03
9.432190e-03
9.185046e-03
9.014055e-03
8.910795e-03
8.846585e-03
8.786142e-03
8.702604e-03
8.587435e-03
8.451627e-03
8.318685e-03
8.213339e-03
8.151220e-03
8.133712e-03
8.149415e-03
8.180651e-03
8.211521e-03
8.233865e-03
8.248979e-03
8.265132e-03
8.292730e-03
8.339652e-03
8.408678e-03
8.497681e-03
8.601519e-03
8.714817e-03
8.833978e-03
8.957927e-03
9.087672e-03
9.225276e-03
9.372846e-03
9.531903e-03
9.703182e-03
9.886705e-03
1.008194e-02
1.028795e-02
1.050352e-02
1.072731e-02
1.095807e-02
1.119486e-02
1.143719e-02
1.168502e-02
1.193865e-02
1.219842e-02
1.246445e-02
1.273645e-02
1.301366e-02
1.329490e-02
1.357876e-02
1.386233e-02
1.414358e-02
1.442131e-02
1.469454e-02
1.496240e-02
1.522411e-02
1.547884e-02
1.572571e-02
1.596376e-02
1.619201e-02
1.640946e-02
1.661520e-02
1.680838e-02
1.698824e-02
1.715417e-02
1.730562e-02
1.744216e-02
1.756345e-02
1.766923e-02
1.775935e-02
1.783373e-02
1.789240e-02
1.793550e-02
1.796327e-02
1.797619e-02
1.797473e-02
1.795944e-02
1.793092e-02
1.788988e-02
1.783708e-02
1.777336e-02
1.769960e-02
1.761676e-02
1.752580e-02
1.742773e-02
1.732357e-02
1.721436e-02
1.710113e-02
1.698490e-02
1.686668e-02
1.674744e-02
1.662813e-02
1.650965e-02
1.639284e-02
1.627849e-02
1.616731e-02
1.605993e-02
1.595689e-02
1.585860e-02
1.576537e-02
1.567734e-02
1.567720e-02
9.744019e-03
9.686065e-03
9.406343e-03
9.198589e-03
9.063298e-03
8.973328e-03
8.892812e-03
8.792715e-03
8.661896e-03
8.509443e-03
8.358286e-03
8.233830e-03
8.153020e-03
8.118417e-03
8.119119e-03
8.137173e-03
8.155918e-03
8.166404e-03
8.169465e-03
8.173325e-03
8.188619e-03
8.223482e-03
8.280784e-03
8.358221e-03
8.450564e-03
8.552289e-03
8.659771e-03
8.772015e-03
8.890150e-03
9.016335e-03
9.152709e-03
9.300783e-03
9.461273e-03
9.634205e-03
9.819075e-03
1.001498e-02
1.022071e-02
1.043495e-02
1.065648e-02
1.088443e-02
1.111843e-02
1.135863e-02
1.160550e-02
1.185954e-02
1.212098e-02
1.238955e-02
1.266446e-02
1.294451e-02
1.322829e-02
1.351436e-02
1.380000e-02
1.408321e-02
1.436308e-02
1.463877e-02
1.490949e-02
1.517438e-02
1.543247e-02
1.568271e-02
1.592401e-02
1.615530e-02
1.637556e-02
1.658384e-02
1.677933e-02
1.696129e-02
1.712909e-02
1.728218e-02
1.742011e-02
1.754248e-02
1.764901e-02
1.773950e-02
1.781387e-02
1.787212e-02
1.791439e-02
1.794092e-02
1.795220e-02
1.794874e-02
1.793108e-02
1.789986e-02
1.785578e-02
1.779962e-02
1.773221e-02
1.765447e-02
1.756733e-02
1.747176e-02
1.736879e-02
1.725942e-02
1.714468e-02
1.702562e-02
1.690324e-02
1.677856e-02
1.665254e-02
1.652613e-02
1.640024e-02
1.627572e-02
1.615335e-02
1.603387e-02
1.591792e-02
1.580607e-02
1.569877e-02
1.559637e-02
1.549908e-02
1.549892e-02
9.686268e-03
9.640894e-03
9.397538e-03
9.227445e-03
9.108456e-03
9.004925e-03
8.886146e-03
8.738438e-03
8.568705e-03
8.398888e-03
8.254718e-03
8.154291e-03
8.101383e-03
8.085753e-03
8.089351e-03
8.094887e-03
8.092675e-03
8.083079e-03
8.074247e-03
8.077006e-03
8.099705e-03
8.145267e-03
8.211227e-03
8.292039e-03
8.382101e-03
8.477760e-03
8.578133e-03
8.684518e-03
8.799204e-03
8.924376e-03
9.061515e-03
9.211282e-03
9.373660e-03
9.548133e-03
9.733801e-03
9.929480e-03
1.013387e-02
1.034578e-02
1.056445e-02
1.078965e-02
1.102172e-02
1.126130e-02
1.150905e-02
1.176526e-02
1.202969e-02
1.230150e-02
1.257950e-02
1.286226e-02
1.314842e-02
1.343684e-02
1.372510e-02
1.401125e-02
1.429450e-02
1.457406e-02
1.484900e-02
1.511829e-02
1.538078e-02
1.563531e-02
1.588068e-02
1.611580e-02
1.633966e-02
1.655134e-02
1.675002e-02
1.693496e-02
1.710549e-02
1.726102e-02
1.740104e-02
1.752512e-02
1.763293e-02
1.772425e-02
1.779897e-02
1.785710e-02
1.789877e-02
1.792424e-02
1.793396e-02
1.792852e-02
1.790847e-02
1.787444e-02
1.782715e-02
1.776739e-02
1.769602e-02
1.761393e-02
1.752207e-02
1.742144e-02
1.731303e-02
1.719788e-02
1.707701e-02
1.695146e-02
1.682227e-02
1.669044e-02
1.655695e-02
1.642276e-02
1.628879e-02
1.615591e-02
1.602493e-02
1.589661e-02
1.577162e-02
1.565057e-02
1.553397e-02
1.542223e-02
1.531563e-02
1.531545e-02
9.632689e-03
9.613548e-03
9.405663e-03
9.254776e-03
9.125238e-03
8.985195e-03
8.818646e-03
8.630239e-03
8.440678e-03
8.275781e-03
8.154665e-03
8.082315e-03
8.049223e-03
8.037316e-03
8.028698e-03
8.012940e-03
7.989916e-03
7.967705e-03
7.957364e-03
7.967503e-03
8.001113e-03
8.055554e-03
8.124944e-03
8.203349e-03
8.287131e-03
8.375506e-03
8.469967e-03
8.572980e-03
8.686814e-03
8.812937e-03
8.951942e-03
9.103741e-03
9.267766e-03
9.443091e-03
9.628525e-03
9.822776e-03
1.002472e-02
1.023368e-02
1.044960e-02
1.067300e-02
1.090473e-02
1.114557e-02
1.139586e-02
1.165537e-02
1.192326e-02
1.219826e-02
1.247901e-02
1.276423e-02
1.305288e-02
1.334420e-02
1.363615e-02
1.392656e-02
1.421462e-02
1.449938e-02
1.477972e-02
1.505441e-02
1.532220e-02
1.558181e-02
1.583209e-02
1.607192e-02
1.630033e-02
1.651638e-02
1.671924e-02
1.690811e-02
1.708226e-02
1.724105e-02
1.738389e-02
1.751033e-02
1.761999e-02
1.771264e-02
1.778815e-02
1.784653e-02
1.788792e-02
1.791255e-02
1.792089e-02
1.791357e-02
1.789115e-02
1.785428e-02
1.780368e-02
1.774016e-02
1.766457e-02
1.757783e-02
1.748089e-02
1.737475e-02
1.726042e-02
1.713893e-02
1.701135e-02
1.687871e-02
1.674205e-02
1.660241e-02
1.646079e-02
1.631816e-02
1.617546e-02
1.603359e-02
1.589340e-02
1.575568e-02
1.562115e-02
1.549048e-02
1.536423e-02
1.524290e-02
1.512687e-02
1.512668e-02
9.596701e-03
9.607461e-03
9.418123e-03
9.259385e-03
9.095030e-03
8.906965e-03
8.697591e-03
8.486266e-03
8.298781e-03
8.155239e-03
8.061883e-03
8.010000e-03
7.981511e-03
7.957853e-03
7.927732e-03
7.890441e-03
7.853968e-03
7.829660e-03
7.826501e-03
7.847646e-03
7.890300e-03
7.948227e-03
8.015094e-03
8.087010e-03
8.163325e-03
8.245716e-03
8.336854e-03
8.439137e-03
8.554058e-03
8.682155e-03
8.823259e-03
8.976728e-03
9.141582e-03
9.316594e-03
9.500468e-03
9.692116e-03
9.890965e-03
1.009713e-02
1.031132e-02
1.053459e-02
1.076784e-02
1.101149e-02
1.126527e-02
1.152832e-02
1.179936e-02
1.207705e-02
1.236021e-02
1.264797e-02
1.293972e-02
1.323498e-02
1.353198e-02
1.382806e-02
1.412222e-02
1.441330e-02
1.469998e-02
1.498091e-02
1.525479e-02
1.552037e-02
1.577648e-02
1.602205e-02
1.625607e-02
1.647758e-02
1.668566e-02
1.687944e-02
1.705813e-02
1.722101e-02
1.736744e-02
1.749693e-02
1.760909e-02
1.770365e-02
1.778048e-02
1.783959e-02
1.788108e-02
1.790522e-02
1.791242e-02
1.790340e-02
1.787872e-02
1.783904e-02
1.778509e-02
1.771768e-02
1.763768e-02
1.754602e-02
1.744365e-02
1.733160e-02
1.721089e-02
1.708257e-02
1.694771e-02
1.680738e-02
1.666265e-02
1.651457e-02
1.636417e-02
1.621244e-02
1.606036e-02
1.590887e-02
1.575886e-02
1.561115e-02
1.546655e-02
1.532578e-02
1.518949e-02
1.505825e-02
1.493255e-02
1.493234e-02
9.577179e-03
9.611361e-03
9.415095e-03
9.222965e-03
9.010137e-03
8.776751e-03