# vtk DataFile Version 3.0
Scalar Field
ASCII
DATASET RECTILINEAR_GRID
DIMENSIONS 102 102 1
X_COORDINATES 102 double
0.000000 0.100000 0.200000 0.300000 0.400000 0.500000 0.600000 0.700000 0.800000 0.900000 1.000000 1.100000 1.200000 1.300000 1.400000 1.500000 1.600000 1.700000 1.800000 1.900000 2.000000 2.100000 2.200000 2.300000 2.400000 2.500000 2.600000 2.700000 2.800000 2.900000 3.000000 3.100000 3.200000 3.300000 3.400000 3.500000 3.600000 3.700000 3.800000 3.900000 4.000000 4.100000 4.200000 4.300000 4.400000 4.500000 4.600000 4.700000 4.800000 4.900000 5.000000 5.100000 5.200000 5.300000 5.400000 5.500000 5.600000 5.700000 5.800000 5.900000 6.000000 6.100000 6.200000 6.300000 6.400000 6.500000 6.600000 6.700000 6.800000 6.900000 7.000000 7.100000 7.200000 7.300000 7.400000 7.500000 7.600000 7.700000 7.800000 7.900000 8.000000 8.100000 8.200000 8.300000 8.400000 8.500000 8.600000 8.700000 8.800000 8.900000 9.000000 9.100000 9.200000 9.300000 9.400000 9.500000 9.600000 9.700000 9.800000 9.900000 10.000000 10.100000 
Y_COORDINATES 102 double
0.000000 0.100000 0.200000 0.300000 0.400000 0.500000 0.600000 0.700000 0.800000 0.900000 1.000000 1.100000 1.200000 1.300000 1.400000 1.500000 1.600000 1.700000 1.800000 1.900000 2.000000 2.100000 2.200000 2.300000 2.400000 2.500000 2.600000 2.700000 2.800000 2.900000 3.000000 3.100000 3.200000 3.300000 3.400000 3.500000 3.600000 3.700000 3.800000 3.900000 4.000000 4.100000 4.200000 4.300000 4.400000 4.500000 4.600000 4.700000 4.800000 4.900000 5.000000 5.100000 5.200000 5.300000 5.400000 5.500000 5.600000 5.700000 5.800000 5.900000 6.000000 6.100000 6.200000 6.300000 6.400000 6.500000 6.600000 6.700000 6.800000 6.900000 7.000000 7.100000 7.200000 7.300000 7.400000 7.500000 7.600000 7.700000 7.800000 7.900000 8.000000 8.100000 8.200000 8.300000 8.400000 8.500000 8.600000 8.700000 8.800000 8.900000 9.000000 9.100000 9.200000 9.300000 9.400000 9.500000 9.600000 9.700000 9.800000 9.900000 10.000000 10.100000 
Z_COORDINATES 1 double
0.0
POINT_DATA 10404
SCALARS Pressure double 1
LOOKUP_TABLE default
0.000000e+00
1.925579e-03
1.891679e-03
1.958287e-03
2.080979e-03
2.192602e-03
2.229012e-03
2.155929e-03
1.981927e-03
1.752515e-03
1.529372e-03
1.365011e-03
1.284164e-03
1.278973e-03
1.318164e-03
1.364258e-03
1.390224e-03
1.388591e-03
1.370463e-03
1.356812e-03
1.367378e-03
1.412553e-03
1.491232e-03
1.594271e-03
1.710735e-03
1.833412e-03
1.961157e-03
2.097683e-03
2.248155e-03
2.415787e-03
2.600136e-03
2.797692e-03
3.004075e-03
3.216484e-03
3.435135e-03
3.663071e-03
3.904593e-03
4.163147e-03
4.439651e-03
4.731941e-03
5.035461e-03
5.344808e-03
5.655464e-03
5.965063e-03
6.273790e-03
6.583899e-03
6.898603e-03
7.220793e-03
7.552013e-03
7.891959e-03
8.238589e-03
8.588703e-03
8.938742e-03
9.285599e-03
9.627125e-03
9.962276e-03
1.029094e-02
1.061353e-02
1.093056e-02
1.124224e-02
1.154830e-02
1.184792e-02
1.213988e-02
1.242275e-02
1.269508e-02
1.295556e-02
1.320312e-02
1.343691e-02
1.365628e-02
1.386074e-02
1.404991e-02
1.422346e-02
1.438113e-02
1.452269e-02
1.464801e-02
1.475698e-02
1.484957e-02
1.492578e-02
1.498568e-02
1.502937e-02
1.505701e-02
1.506884e-02
1.506521e-02
1.504660e-02
1.501365e-02
1.496717e-02
1.490818e-02
1.483789e-02
1.475770e-02
1.466921e-02
1.457427e-02
1.447491e-02
1.437347e-02
1.427259e-02
1.417528e-02
1.408497e-02
1.400553e-02
1.394123e-02
1.389636e-02
1.387419e-02
1.387407e-02
0.000000e+00
1.925579e-03
1.851510e-03
1.909780e-03
2.047256e-03
2.194673e-03
2.279991e-03
2.254748e-03
2.112829e-03
1.890767e-03
1.650419e-03
1.452885e-03
1.335632e-03
1.302137e-03
1.326795e-03
1.370834e-03
1.400803e-03
1.401346e-03
1.377852e-03
1.349741e-03
1.339183e-03
1.361104e-03
1.418644e-03
1.504892e-03
1.608688e-03
1.720892e-03
1.838081e-03
1.962497e-03
2.099148e-03
2.252137e-03
2.422251e-03
2.606839e-03
2.801631e-03
3.003288e-03
3.211244e-03
3.427992e-03
3.657796e-03
3.904574e-03
4.169981e-03
4.452501e-03
4.747872e-03
5.050537e-03
5.355475e-03
5.659701e-03
5.962913e-03
6.267173e-03
6.575846e-03
6.892240e-03
7.218422e-03
7.554556e-03
7.898885e-03
8.248270e-03
8.599019e-03
8.947728e-03
9.291934e-03
9.630363e-03
9.962794e-03
1.028968e-02
1.061164e-02
1.092908e-02
1.124187e-02
1.154929e-02
1.185015e-02
1.214297e-02
1.242620e-02
1.269844e-02
1.295847e-02
1.320538e-02
1.343844e-02
1.365712e-02
1.386099e-02
1.404972e-02
1.422299e-02
1.438054e-02
1.452216e-02
1.464769e-02
1.475699e-02
1.484999e-02
1.492665e-02
1.498696e-02
1.503098e-02
1.505881e-02
1.507069e-02
1.506696e-02
1.504813e-02
1.501488e-02
1.496808e-02
1.490878e-02
1.483823e-02
1.475784e-02
1.466924e-02
1.457423e-02
1.447487e-02
1.437345e-02
1.427262e-02
1.417535e-02
1.408507e-02
1.400567e-02
1.394140e-02
1.389656e-02
1.387439e-02
1.387428e-02
1.387407e-02
1.903261e-03
1.921824e-03
2.071126e-03
2.228966e-03
2.320074e-03
2.303627e-03
2.179068e-03
1.983895e-03
1.775953e-03
1.609156e-03
1.513671e-03
1.488488e-03
1.507899e-03
1.537077e-03
1.548639e-03
1.532860e-03
1.498268e-03
1.464187e-03
1.450141e-03
1.467498e-03
1.516660e-03
1.589852e-03
1.676974e-03
1.771040e-03
1.870700e-03
1.979285e-03
2.101626e-03
2.240769e-03
2.396315e-03
2.564981e-03
2.742732e-03
2.927133e-03
3.118680e-03
3.320510e-03
3.536787e-03
3.770633e-03
4.022580e-03
4.290176e-03
4.568831e-03
4.853412e-03
5.139932e-03
5.426661e-03
5.714334e-03
6.005502e-03
6.303352e-03
6.610463e-03
6.927912e-03
7.254957e-03
7.589299e-03
7.927748e-03
8.267034e-03
8.604490e-03
8.938399e-03
9.268109e-03
9.593749e-03
9.915806e-03
1.023469e-02
1.055041e-02
1.086247e-02
1.116986e-02
1.147123e-02
1.176512e-02
1.205010e-02
1.232493e-02
1.258859e-02
1.284031e-02
1.307944e-02
1.330550e-02
1.351802e-02
1.371662e-02
1.390093e-02
1.407061e-02
1.422538e-02
1.436498e-02
1.448921e-02
1.459788e-02
1.469087e-02
1.476807e-02
1.482944e-02
1.487504e-02
1.490502e-02
1.491967e-02
1.491945e-02
1.490496e-02
1.487699e-02
1.483645e-02
1.478444e-02
1.472219e-02
1.465106e-02
1.457259e-02
1.448849e-02
1.440064e-02
1.431120e-02
1.422255e-02
1.413739e-02
1.405868e-02
1.398967e-02
1.393377e-02
1.389424e-02
1.387372e-02
1.387374e-02
1.387354e-02
2.035032e-03
2.125275e-03
2.287707e-03
2.380019e-03
2.356984e-03
2.228333e-03
2.039834e-03
1.852169e-03
1.715564e-03
1.651761e-03
1.650351e-03
1.679219e-03
1.702535e-03
1.697200e-03
1.660714e-03
1.608443e-03
1.563444e-03
1.544889e-03
1.560668e-03
1.606757e-03
1.672218e-03
1.746269e-03
1.823556e-03
1.905447e-03
1.997551e-03
2.105532e-03
2.231732e-03
2.374235e-03
2.528460e-03
2.690051e-03
2.857369e-03
3.032318e-03
3.219268e-03
3.422763e-03
3.645242e-03
3.885804e-03
4.140484e-03
4.403772e-03
4.670632e-03
4.938154e-03
5.206251e-03
5.477261e-03
5.754739e-03
6.041985e-03
6.340838e-03
6.651110e-03
6.970731e-03
7.296443e-03
7.624730e-03
7.952657e-03
8.278381e-03
8.601249e-03
8.921451e-03
9.239685e-03
9.556592e-03
9.872362e-03
1.018655e-02
1.049813e-02
1.080565e-02
1.110752e-02
1.140221e-02
1.168843e-02
1.196516e-02
1.223163e-02
1.248726e-02
1.273156e-02
1.296406e-02
1.318432e-02
1.339189e-02
1.358630e-02
1.376715e-02
1.393406e-02
1.408666e-02
1.422467e-02
1.434778e-02
1.445577e-02
1.454843e-02
1.462564e-02
1.468740e-02
1.473381e-02
1.476514e-02
1.478180e-02
1.478436e-02
1.477354e-02
1.475015e-02
1.471514e-02
1.466956e-02
1.461457e-02
1.455143e-02
1.448156e-02
1.440653e-02
1.432809e-02
1.424818e-02
1.416898e-02
1.409286e-02
1.402241e-02
1.396036e-02
1.390954e-02
1.387266e-02
1.385226e-02
1.385083e-02
1.385066e-02
2.271222e-03
2.386922e-03
2.476658e-03
2.447168e-03
2.305727e-03
2.107685e-03
1.921261e-03
1.798942e-03
1.758632e-03
1.781911e-03
1.828183e-03
1.856306e-03
1.842972e-03
1.790057e-03
1.719410e-03
1.659602e-03
1.632177e-03
1.643847e-03
1.687147e-03
1.747524e-03
1.812178e-03
1.875971e-03
1.942136e-03
2.018505e-03
2.112113e-03
2.225300e-03
2.355107e-03
2.495724e-03
2.642222e-03
2.793401e-03
2.952350e-03
3.124683e-03
3.315545e-03
3.526973e-03
3.756825e-03
3.999630e-03
4.248797e-03
4.499129e-03
4.748555e-03
4.998506e-03
5.252935e-03
5.516536e-03
5.792908e-03
6.083331e-03
6.386464e-03
6.698941e-03
7.016499e-03
7.335197e-03
7.652323e-03
7.966762e-03
8.278817e-03
8.589649e-03
8.900449e-03
9.212042e-03
9.524450e-03
9.836821e-03
1.014763e-02
1.045500e-02
1.075709e-02
1.105230e-02
1.133945e-02
1.161771e-02
1.188656e-02
1.214560e-02
1.239448e-02
1.263279e-02
1.286008e-02
1.307583e-02
1.327953e-02
1.347067e-02
1.364877e-02
1.381339e-02
1.396410e-02
1.410051e-02
1.422229e-02
1.432915e-02
1.442089e-02
1.449745e-02
1.455893e-02
1.460555e-02
1.463773e-02
1.465600e-02
1.466100e-02
1.465347e-02
1.463422e-02
1.460414e-02
1.456417e-02
1.451537e-02
1.445890e-02
1.439605e-02
1.432827e-02
1.425716e-02
1.418451e-02
1.411227e-02
1.404255e-02
1.397758e-02
1.391968e-02
1.387120e-02
1.383443e-02
1.381165e-02
1.380520e-02
1.380507e-02
2.532811e-03
2.622357e-03
2.587172e-03
2.431527e-03
2.214551e-03
2.013099e-03
1.886274e-03
1.853623e-03
1.892906e-03
1.956288e-03
1.995401e-03
1.982809e-03
1.920694e-03
1.834813e-03
1.758934e-03
1.718581e-03
1.721748e-03
1.759611e-03
1.814906e-03
1.872405e-03
1.925950e-03
1.979305e-03
2.041694e-03
2.121433e-03
2.221360e-03
2.338172e-03
2.465350e-03
2.597521e-03
2.733692e-03
2.877742e-03
3.036198e-03
3.214698e-03
3.415023e-03
3.634089e-03
3.865222e-03
4.100924e-03
4.335811e-03
4.568459e-03
4.801525e-03
5.040305e-03
5.290462e-03
5.555884e-03
5.837420e-03
6.132807e-03
6.437629e-03
6.746812e-03
7.056084e-03
7.362921e-03
7.666804e-03
7.968810e-03
8.270809e-03
8.574578e-03
8.880948e-03
9.189782e-03
9.499907e-03
9.809419e-03
1.011613e-02
1.041801e-02
1.071343e-02
1.100128e-02
1.128090e-02
1.155193e-02
1.181414e-02
1.206727e-02
1.231096e-02
1.254474e-02
1.276808e-02
1.298037e-02
1.318105e-02
1.336953e-02
1.354526e-02
1.370773e-02
1.385644e-02
1.399096e-02
1.411092e-02
1.421607e-02
1.430633e-02
1.438175e-02
1.444259e-02
1.448922e-02
1.452214e-02
1.454195e-02
1.454927e-02
1.454479e-02
1.452924e-02
1.450339e-02
1.446810e-02
1.442431e-02
1.437311e-02
1.431568e-02
1.425339e-02
1.418771e-02
1.412028e-02
1.405285e-02
1.398727e-02
1.392546e-02
1.386937e-02
1.382094e-02
1.378205e-02
1.375454e-02
1.374018e-02
1.374010e-02
2.742651e-03
2.769758e-03
2.608120e-03
2.370422e-03
2.145147e-03
1.998985e-03
1.957017e-03
1.998026e-03
2.070565e-03
2.120050e-03
2.113176e-03
2.048992e-03
1.953650e-03
1.863936e-03
1.809134e-03
1.799953e-03
1.828349e-03
1.876135e-03
1.926407e-03
1.971600e-03
2.014899e-03
2.065738e-03
2.132981e-03
2.219908e-03
2.323356e-03
2.436759e-03
2.554786e-03
2.676753e-03
2.807066e-03
2.952731e-03
3.119510e-03
3.308805e-03
3.516760e-03
3.735863e-03
3.958097e-03
4.178132e-03
4.395180e-03
4.612883e-03
4.837493e-03
5.075264e-03
5.330130e-03
5.602488e-03
5.889337e-03
6.185541e-03
6.485566e-03
6.785070e-03
7.081826e-03
7.375837e-03
7.668741e-03
7.962848e-03
8.260161e-03
8.561677e-03
8.866899e-03
9.174384e-03
9.481999e-03
9.787410e-03
1.008852e-02
1.038375e-02
1.067207e-02
1.095295e-02
1.122612e-02
1.149144e-02
1.174868e-02
1.199751e-02
1.223744e-02
1.246789e-02
1.268823e-02
1.289781e-02
1.309596e-02
1.328205e-02
1.345545e-02
1.361559e-02
1.376193e-02
1.389406e-02
1.401171e-02
1.411476e-02
1.420327e-02
1.427748e-02
1.433777e-02
1.438458e-02
1.441842e-02
1.443983e-02
1.444935e-02
1.444757e-02
1.443510e-02
1.441263e-02
1.438093e-02
1.434089e-02
1.429354e-02
1.424002e-02
1.418160e-02
1.411967e-02
1.405570e-02
1.399125e-02
1.392793e-02
1.386737e-02
1.381119e-02
1.376096e-02
1.371814e-02
1.368410e-02
1.366003e-02
1.366001e-02
2.854359e-03
2.810882e-03
2.567359e-03
2.317154e-03
2.144627e-03
2.081267e-03
2.110160e-03
2.180260e-03
2.233720e-03
2.232141e-03
2.169974e-03
2.070953e-03
1.972041e-03
1.904541e-03
1.881721e-03
1.897492e-03
1.934476e-03
1.975536e-03
2.012295e-03
2.047041e-03
2.088515e-03
2.145179e-03
2.220176e-03
2.310455e-03
2.409822e-03
2.513534e-03
2.621590e-03
2.738960e-03
2.872854e-03
3.028761e-03
3.207402e-03
3.404098e-03
3.610724e-03
3.819130e-03
4.024412e-03
4.226605e-03
4.430250e-03
4.642241e-03
4.868998e-03
5.114130e-03
5.377394e-03
5.655117e-03
5.941708e-03
6.231558e-03
6.520603e-03
6.807129e-03
7.091685e-03
7.376317e-03
7.663511e-03
7.955211e-03
8.252204e-03
8.553952e-03
8.858555e-03
9.163751e-03
9.467220e-03
9.766971e-03
1.006156e-02
1.035009e-02
1.063213e-02
1.090746e-02
1.117591e-02
1.143725e-02
1.169111e-02
1.193697e-02
1.217422e-02
1.240219e-02
1.262016e-02
1.282741e-02
1.302321e-02
1.320685e-02
1.337766e-02
1.353507e-02
1.367862e-02
1.380803e-02
1.392318e-02
1.402415e-02
1.411115e-02
1.418452e-02
1.424466e-02
1.429200e-02
1.432693e-02
1.434988e-02
1.436127e-02
1.436158e-02
1.435136e-02
1.433123e-02
1.430197e-02
1.426444e-02
1.421965e-02
1.416868e-02
1.411276e-02
1.405313e-02
1.399115e-02
1.392816e-02
1.386556e-02
1.380470e-02
1.374690e-02
1.369340e-02
1.364531e-02
1.360356e-02
1.356883e-02
1.356888e-02
2.866196e-03
2.772346e-03
2.514985e-03
2.316238e-03
2.226860e-03
2.234950e-03
2.292414e-03
2.341241e-03
2.340238e-03
2.279910e-03
2.180514e-03
2.077082e-03
2.000769e-03
1.966029e-03
1.968533e-03
1.992542e-03
2.021973e-03
2.048760e-03
2.074805e-03
2.107980e-03
2.155713e-03
2.220310e-03
2.298385e-03
2.384063e-03
2.473472e-03
2.567674e-03
2.672443e-03
2.795201e-03
2.940951e-03
3.109453e-03
3.295034e-03
3.488983e-03
3.683250e-03
3.873673e-03
4.061362e-03
4.251825e-03
4.452437e-03
4.669459e-03
4.905822e-03
5.160389e-03
5.428754e-03
5.705025e-03
5.983803e-03
6.261637e-03
6.537569e-03
6.812791e-03
7.089689e-03
7.370730e-03
7.657564e-03
7.950553e-03
8.248781e-03
8.550405e-03
8.852836e-03
9.153869e-03
9.451752e-03
9.745285e-03
1.003377e-02
1.031683e-02
1.059428e-02
1.086590e-02
1.113136e-02
1.139022e-02
1.164190e-02
1.188575e-02
1.212105e-02
1.234703e-02
1.256292e-02
1.276790e-02
1.296120e-02
1.314210e-02
1.330997e-02
1.346435e-02
1.360497e-02
1.373174e-02
1.384472e-02
1.394413e-02
1.403025e-02
1.410337e-02
1.416382e-02
1.421188e-02
1.424782e-02
1.427192e-02
1.428455e-02
1.428611e-02
1.427716e-02
1.425835e-02
1.423044e-02
1.419433e-02
1.415100e-02
1.410148e-02
1.404690e-02
1.398840e-02
1.392717e-02
1.386438e-02
1.380122e-02
1.373880e-02
1.367818e-02
1.362032e-02
1.356602e-02
1.351587e-02
1.347018e-02
1.347030e-02
2.815674e-03
2.708796e-03
2.499455e-03
2.385409e-03
2.370362e-03
2.409612e-03
2.446783e-03
2.440170e-03
2.378136e-03
2.278138e-03
2.172696e-03
2.091372e-03
2.048175e-03
2.039378e-03
2.050547e-03
2.067120e-03
2.082251e-03
2.098354e-03
2.122944e-03
2.162429e-03
2.217892e-03
2.285111e-03
2.358140e-03
2.433841e-03
2.514463e-03
2.606812e-03
2.718689e-03
2.854648e-03
3.013402e-03
3.188147e-03
3.369523e-03
3.549628e-03
3.725197e-03
3.898592e-03
4.076390e-03
4.266418e-03
4.474617e-03
4.703004e-03
4.949345e-03
5.208400e-03
5.474022e-03
5.741187e-03
6.007269e-03
6.272261e-03
6.538100e-03
6.807500e-03
7.082813e-03
7.365239e-03
7.654577e-03
7.949436e-03
8.247720e-03
8.547192e-03
8.845505e-03
9.141194e-03
9.433372e-03
9.721566e-03
1.000552e-02
1.028502e-02
1.055977e-02
1.082934e-02
1.109317e-02
1.135061e-02
1.160094e-02
1.184337e-02
1.207710e-02
1.230128e-02
1.251505e-02
1.271757e-02
1.290809e-02
1.308597e-02
1.325077e-02
1.340224e-02
1.354032e-02
1.366507e-02
1.377668e-02
1.387535e-02
1.396128e-02
1.403461e-02
1.409552e-02
1.414414e-02
1.418062e-02
1.420520e-02
1.421822e-02
1.422015e-02
1.421156e-02
1.419316e-02
1.416574e-02
1.413019e-02
1.408743e-02
1.403846e-02
1.398428e-02
1.392592e-02
1.386440e-02
1.380075e-02
1.373596e-02
1.367096e-02
1.360659e-02
1.354358e-02
1.348249e-02
1.342364e-02
1.336707e-02
1.336725e-02
2.759097e-03
2.676887e-03
2.547532e-03
2.511345e-03
2.531586e-03
2.553617e-03
2.536374e-03
2.467764e-03
2.363983e-03
2.255857e-03
2.171201e-03
2.122627e-03
2.105717e-03
2.106242e-03
2.110661e-03
2.113528e-03
2.118428e-03
2.133313e-03
2.164124e-03
2.210890e-03
2.268331e-03
2.330023e-03
2.393166e-03
2.460965e-03
2.541272e-03
2.642411e-03
2.768659e-03
2.917794e-03
3.081913e-03
3.250971e-03
3.417179e-03
3.578163e-03
3.737565e-03
3.903069e-03
4.082961e-03
4.282822e-03
4.503674e-03
4.742100e-03
4.991979e-03
5.246910e-03
5.502305e-03
5.756451e-03
6.010371e-03
6.266789e-03
6.528750e-03
6.798445e-03
7.076577e-03
7.362329e-03
7.653803e-03
7.948653e-03
8.244662e-03
8.540125e-03
8.833499e-03
9.124191e-03
9.411965e-03
9.696680e-03
9.978121e-03
1.025591e-02
1.052952e-02
1.079826e-02
1.106140e-02
1.131811e-02
1.156756e-02
1.180886e-02
1.204110e-02
1.226337e-02
1.247479e-02
1.267460e-02
1.286219e-02
1.303717e-02
1.319930e-02
1.334856e-02
1.348501e-02
1.360876e-02
1.371993e-02
1.381858e-02
1.390471e-02
1.397830e-02
1.403938e-02
1.408799e-02
1.412430e-02
1.414856e-02
1.416118e-02
1.416271e-02
1.415379e-02
1.413514e-02
1.410757e-02
1.407192e-02
1.402905e-02
1.397987e-02
1.392527e-02
1.386617e-02
1.380348e-02
1.373806e-02
1.367077e-02
1.360238e-02
1.353355e-02
1.346485e-02
1.339662e-02
1.332903e-02
1.326194e-02
1.326218e-02
2.746106e-03
2.711877e-03
2.655989e-03
2.659093e-03
2.665687e-03
2.635128e-03
2.555581e-03
2.443343e-03
2.329002e-03
2.239605e-03
2.186497e-03
2.163881e-03
2.156590e-03
2.151005e-03
2.142462e-03
2.135750e-03
2.139801e-03
2.160835e-03
2.198409e-03
2.246403e-03
2.297752e-03
2.349610e-03
2.405720e-03
2.474708e-03
2.565407e-03
2.681960e-03
2.821420e-03
2.974961e-03
3.131937e-03
3.284649e-03
3.431535e-03
3.577425e-03
3.731036e-03
3.901079e-03
4.092775e-03
4.306182e-03
4.536739e-03
4.777482e-03
5.021792e-03
5.265532e-03
5.507894e-03
5.750896e-03
5.998005e-03
6.252555e-03
6.516559e-03
6.790224e-03
7.072158e-03
7.360005e-03
7.651206e-03
7.943595e-03
8.235702e-03
8.526763e-03
8.816000e-03
9.103346e-03
9.388759e-03
9.672032e-03
9.952733e-03
1.023024e-02
1.050378e-02
1.077251e-02
1.103553e-02
1.129190e-02
1.154065e-02
1.178079e-02
1.201136e-02
1.223148e-02
1.244040e-02
1.263756e-02
1.282260e-02
1.299538e-02
1.315585e-02
1.330405e-02
1.344003e-02
1.356375e-02
1.367514e-02
1.377403e-02
1.386025e-02
1.393368e-02
1.399429e-02
1.404219e-02
1.407759e-02
1.410087e-02
1.411253e-02
1.411317e-02
1.410347e-02
1.408414e-02
1.405594e-02
1.401965e-02
1.397607e-02
1.392600e-02
1.387025e-02
1.380965e-02
1.374498e-02
1.367703e-02
1.360651e-02
1.353408e-02
1.346028e-02
1.338553e-02
1.331005e-02
1.323387e-02
1.315675e-02
1.315704e-02
2.800338e-03
2.816132e-03
2.796867e-03
2.789139e-03
2.744570e-03
2.651144e-03
2.525761e-03
2.400023e-03
2.301665e-03
2.241819e-03
2.213539e-03
2.200125e-03
2.186782e-03
2.168562e-03
2.150838e-03
2.143528e-03
2.153634e-03
2.180924e-03
2.218974e-03
2.260254e-03
2.301696e-03
2.347210e-03
2.405805e-03
2.486585e-03
2.593580e-03
2.723293e-03
2.866201e-03
3.011227e-03
3.150824e-03
3.284171e-03
3.417142e-03
3.559341e-03
3.719801e-03
3.903367e-03
4.109193e-03
4.331689e-03
4.563176e-03
4.796902e-03
5.029208e-03
5.260138e-03
5.492607e-03
5.730704e-03
5.977950e-03
6.236137e-03
6.505010e-03
6.782682e-03
7.066451e-03
7.353637e-03
7.642174e-03
7.930826e-03
8.219100e-03
8.506972e-03
8.793978e-03
9.080099e-03
9.365129e-03
9.648604e-03
9.929846e-03
1.020803e-02
1.048222e-02
1.075144e-02
1.101463e-02
1.127073e-02
1.151866e-02
1.175743e-02
1.198614e-02
1.220408e-02
1.241079e-02
1.260596e-02
1.278949e-02
1.296133e-02
1.312148e-02
1.326985e-02
1.340627e-02
1.353048e-02
1.364217e-02
1.374103e-02
1.382681e-02
1.389940e-02
1.395888e-02
1.400545e-02
1.403947e-02
1.406141e-02
1.407183e-02
1.407133e-02
1.406058e-02
1.404024e-02
1.401101e-02
1.397360e-02
1.392872e-02
1.387712e-02
1.381955e-02
1.375674e-02
1.368941e-02
1.361826e-02
1.354394e-02
1.346698e-02
1.338784e-02
1.330684e-02
1.322411e-02
1.313961e-02
1.305303e-02
1.305336e-02
2.913346e-03
2.962613e-03
2.932039e-03
2.873572e-03
2.764742e-03
2.622541e-03
2.480054e-03
2.366942e-03
2.295550e-03
2.258779e-03
2.238578e-03
2.218390e-03
2.191956e-03
2.164277e-03
2.145738e-03
2.144163e-03
2.159988e-03
2.187050e-03
2.217766e-03
2.248940e-03
2.284466e-03
2.333418e-03
2.404867e-03
2.502582e-03
2.622582e-03
2.754815e-03
2.887960e-03
3.014724e-03
3.135016e-03
3.255641e-03
3.386921e-03
3.538079e-03
3.713527e-03
3.911559e-03
4.125687e-03
4.347668e-03
4.570758e-03
4.791822e-03
5.011722e-03
5.234145e-03
5.463641e-03
5.703783e-03
5.956070e-03
6.219800e-03
6.492681e-03
6.771797e-03
7.054477e-03
7.338826e-03
7.623859e-03
7.909312e-03
8.195314e-03
8.482060e-03
8.768943e-03
9.055694e-03
9.341830e-03
9.626653e-03
9.909306e-03
1.018881e-02
1.046408e-02
1.073397e-02
1.099731e-02
1.125294e-02
1.149982e-02
1.173709e-02
1.196410e-02
1.218044e-02
1.238592e-02
1.258043e-02
1.276392e-02
1.293629e-02
1.309730e-02
1.324662e-02
1.338382e-02
1.350841e-02
1.361997e-02
1.371817e-02
1.380286e-02
1.387405e-02
1.393197e-02
1.397696e-02
1.400946e-02
1.402998e-02
1.403908e-02
1.403732e-02
1.402530e-02
1.400363e-02
1.397295e-02
1.393391e-02
1.388717e-02
1.383344e-02
1.377340e-02
1.370776e-02
1.363718e-02
1.356230e-02
1.348369e-02
1.340182e-02
1.331710e-02
1.322976e-02
1.313989e-02
1.304739e-02
1.295195e-02
1.295232e-02
3.052401e-03
3.109676e-03
3.029482e-03
2.904537e-03
2.743257e-03
2.579766e-03
2.446171e-03
2.357228e-03
2.306979e-03
2.276849e-03
2.248603e-03
2.214103e-03
2.177105e-03
2.147697e-03
2.134144e-03
2.137604e-03
2.152530e-03
2.171692e-03
2.192032e-03
2.217466e-03
2.256995e-03
2.319457e-03
2.408164e-03
2.518578e-03
2.640188e-03
2.761535e-03
2.875673e-03
2.983261e-03
3.091969e-03
3.212725e-03
3.354821e-03
3.522165e-03
3.712211e-03
3.917662e-03
4.129860e-03
4.342192e-03
4.552129e-03
4.761331e-03
4.974156e-03
5.195469e-03
5.428745e-03
5.675105e-03
5.933387e-03
6.200974e-03
6.474850e-03
6.752477e-03
7.032224e-03
7.313384e-03
7.595896e-03
7.879980e-03
8.165840e-03
8.453478e-03
8.741931e-03
9.030642e-03
9.318912e-03
9.605875e-03
9.890512e-03
1.017167e-02
1.044812e-02
1.071856e-02
1.098178e-02
1.123673e-02
1.148257e-02
1.171874e-02
1.194492e-02
1.216097e-02
1.236681e-02
1.256230e-02
1.274723e-02
1.292119e-02
1.308367e-02
1.323404e-02
1.337170e-02
1.349611e-02
1.360691e-02
1.370391e-02
1.378710e-02
1.385669e-02
1.391301e-02
1.395649e-02
1.398758e-02
1.400675e-02
1.401450e-02
1.401133e-02
1.399779e-02
1.397443e-02
1.394184e-02
1.390064e-02
1.385149e-02
1.379506e-02
1.373200e-02
1.366299e-02
1.358866e-02
1.350959e-02
1.342631e-02
1.333927e-02
1.324879e-02
1.315509e-02
1.305823e-02
1.295810e-02
1.285438e-02
1.285478e-02
3.176851e-03
3.219303e-03
3.074121e-03
2.892679e-03
2.705649e-03
2.547289e-03
2.435318e-03
2.365990e-03
2.321263e-03
2.281838e-03
2.237714e-03
2.190937e-03
2.150635e-03
2.124965e-03
2.115533e-03
2.117424e-03
2.123966e-03
2.132486e-03
2.147094e-03
2.176772e-03
2.230078e-03
2.309800e-03
2.410726e-03
2.521835e-03
2.631541e-03
2.733249e-03
2.828371e-03
2.925414e-03
3.035857e-03
3.169001e-03
3.328216e-03
3.510115e-03
3.706651e-03
3.908839e-03
4.110295e-03
4.309154e-03
4.507877e-03
4.711426e-03
4.924868e-03
5.151471e-03
5.391887e-03
5.644480e-03
5.906346e-03
6.174463e-03
6.446519e-03
6.721225e-03
6.998184e-03
7.277530e-03
7.559541e-03
7.844380e-03
8.131975e-03
8.422017e-03
8.713220e-03
9.004821e-03
9.295951e-03
9.585562e-03
9.872438e-03
1.015524e-02
1.043263e-02
1.070332e-02
1.096628e-02
1.122074e-02
1.146623e-02
1.170251e-02
1.192948e-02
1.214703e-02
1.235493e-02
1.255280e-02
1.274005e-02
1.291596e-02
1.307976e-02
1.323071e-02
1.336822e-02
1.349188e-02
1.360152e-02
1.369713e-02
1.377889e-02
1.384707e-02
1.390208e-02
1.394431e-02
1.397414e-02
1.399200e-02
1.399829e-02
1.399349e-02
1.397808e-02
1.395259e-02
1.391762e-02
1.387378e-02
1.382171e-02
1.376206e-02
1.369550e-02
1.362266e-02
1.354414e-02
1.346051e-02
1.337228e-02
1.327984e-02
1.318351e-02
1.308348e-02
1.297981e-02
1.287239e-02
1.276094e-02
1.276137e-02
3.254917e-03
3.270651e-03
3.069684e-03
2.858132e-03
2.672735e-03
2.534042e-03
2.441025e-03
2.377022e-03
2.322443e-03
2.265862e-03
2.207630e-03
2.155623e-03
2.117456e-03
2.094795e-03
2.083117e-03
2.076240e-03
2.071944e-03
2.074681e-03
2.093567e-03
2.137009e-03
2.207329e-03
2.298661e-03
2.399365e-03
2.497634e-03
2.587149e-03
2.670000e-03
2.755490e-03
2.855638e-03
2.979764e-03
3.130716e-03
3.304299e-03
3.491748e-03
3.683791e-03
3.874310e-03
4.062125e-03
4.250489e-03
4.444931e-03
4.650657e-03
4.870653e-03
5.105058e-03
5.351744e-03
5.607544e-03
5.869480e-03
6.135527e-03
6.404781e-03
6.677182e-03
6.953054e-03
7.232720e-03
7.516281e-03
7.803580e-03
8.094245e-03
8.387740e-03
8.682545e-03
8.977702e-03
9.272122e-03
9.564524e-03
9.853495e-03
1.013762e-02
1.041564e-02
1.068656e-02
1.094969e-02
1.120468e-02
1.145136e-02
1.168963e-02
1.191932e-02
1.214006e-02
1.235127e-02
1.255216e-02
1.274181e-02
1.291931e-02
1.308385e-02
1.323479e-02
1.337172e-02
1.349446e-02
1.360303e-02
1.369756e-02
1.377831e-02
1.384554e-02
1.389959e-02
1.394078e-02
1.396944e-02
1.398588e-02
1.399050e-02
1.398373e-02
1.396605e-02
1.393802e-02
1.390022e-02
1.385328e-02
1.379783e-02
1.373453e-02
1.366403e-02
1.358696e-02
1.350390e-02
1.341541e-02
1.332196e-02
1.322396e-02
1.312170e-02
1.301538e-02
1.290508e-02
1.279071e-02
1.267204e-02
1.267249e-02
3.273887e-03
3.264154e-03
3.032500e-03
2.819465e-03
2.652401e-03
2.532971e-03
2.446271e-03
2.372996e-03
2.300816e-03
2.228718e-03
2.163418e-03
2.111870e-03
2.075543e-03
2.050001e-03
2.029286e-03
2.011481e-03
2.001368e-03
2.008333e-03
2.040834e-03
2.100927e-03
2.182214e-03
2.272463e-03
2.359479e-03
2.437066e-03
2.507847e-03
2.581831e-03
2.671566e-03
2.786440e-03
2.928864e-03
3.093902e-03
3.272115e-03
3.453953e-03
3.633548e-03
3.810375e-03
3.988448e-03
4.173826e-03
4.371827e-03
4.585134e-03
4.813361e-03
5.053894e-03
5.303325e-03
5.558742e-03
5.818429e-03
6.081881e-03
6.349372e-03
6.621416e-03
6.898373e-03
7.180288e-03
7.466923e-03
7.757855e-03
8.052532e-03
8.350266e-03
8.649279e-03
8.948325e-03
9.246045e-03
9.540959e-03
9.831627e-03
1.011681e-02
1.039562e-02
1.066748e-02
1.093215e-02
1.118953e-02
1.143949e-02
1.168175e-02
1.191575e-02
1.214069e-02
1.235556e-02
1.255928e-02
1.275081e-02
1.292930e-02
1.309409e-02
1.324479e-02
1.338124e-02
1.350344e-02
1.361150e-02
1.370559e-02
1.378589e-02
1.385259e-02
1.390593e-02
1.394616e-02
1.397352e-02
1.398833e-02
1.399097e-02
1.398187e-02
1.396155e-02
1.393057e-02
1.388954e-02
1.383909e-02
1.377987e-02
1.371254e-02
1.363774e-02
1.355609e-02
1.346817e-02
1.337453e-02
1.327565e-02
1.317193e-02
1.306369e-02
1.295113e-02
1.283435e-02
1.271333e-02
1.258789e-02
1.258836e-02
3.240661e-03
3.216253e-03
2.981513e-03
2.785876e-03
2.639068e-03
2.527940e-03
2.433676e-03
2.343367e-03
2.254992e-03
2.174412e-03
2.108103e-03
2.057346e-03
2.017619e-03
1.982895e-03
1.951257e-03
1.927637e-03
1.921687e-03
1.942090e-03
1.990899e-03
2.061404e-03
2.140886e-03
2.216737e-03
2.282632e-03
2.341548e-03
2.404059e-03
2.483201e-03
2.588489e-03
2.722008e-03
2.878195e-03
3.047005e-03
3.218609e-03
3.387343e-03
3.553271e-03
3.721098e-03
3.897377e-03
4.087520e-03
4.293919e-03
4.515690e-03
4.749766e-03
4.992518e-03
5.241119e-03
5.494158e-03
5.751512e-03
6.013770e-03
6.281618e-03
6.555448e-03
6.835263e-03
7.120767e-03
7.411509e-03
7.706935e-03
8.006356e-03
8.308858e-03
8.612295e-03
8.915088e-03
9.215694e-03
9.512670e-03
9.804853e-03
1.009147e-02
1.037212e-02
1.064666e-02
1.091503e-02
1.117703e-02
1.143224e-02
1.167987e-02
1.191889e-02
1.214807e-02
1.236619e-02
1.257213e-02
1.276500e-02
1.294417e-02
1.310928e-02
1.326016e-02
1.339679e-02
1.351924e-02
1.362756e-02
1.372185e-02
1.380215e-02
1.386856e-02
1.392123e-02
1.396037e-02
1.398623e-02
1.399912e-02
1.399945e-02
1.398770e-02
1.396440e-02
1.393014e-02
1.388553e-02
1.383124e-02
1.376790e-02
1.369619e-02
1.361674e-02
1.353019e-02
1.343712e-02
1.333808e-02
1.323356e-02
1.312398e-02
1.300968e-02
1.289091e-02
1.276780e-02
1.264038e-02
1.250854e-02
1.250903e-02
3.174263e-03
3.148818e-03
2.929620e-03
2.755437e-03
2.619402e-03
2.503128e-03
2.393164e-03
2.286645e-03
2.188853e-03
2.106115e-03
2.039767e-03
1.985253e-03
1.936309e-03
1.890715e-03
1.853254e-03
1.833697e-03
1.841012e-03
1.877471e-03
1.936319e-03
2.004523e-03
2.069082e-03
2.123450e-03
2.170663e-03
2.221719e-03
2.290069e-03
2.385397e-03
2.509581e-03
2.656562e-03
2.815768e-03
2.977105e-03
3.135055e-03
3.290180e-03
3.447796e-03
3.614894e-03
3.796972e-03
3.996153e-03
4.211105e-03
4.438351e-03
4.674084e-03
4.915568e-03
5.161690e-03
5.412676e-03
5.669396e-03
5.932678e-03
6.202942e-03
6.480155e-03
6.763992e-03
7.054001e-03
7.349649e-03
7.650249e-03
7.954853e-03
8.262194e-03
8.569750e-03
8.875750e-03
9.178772e-03
9.477762e-03
9.772106e-03
1.006157e-02
1.034613e-02
1.062574e-02
1.090010e-02
1.116857e-02
1.143015e-02
1.168355e-02
1.192735e-02
1.216021e-02
1.238096e-02
1.258871e-02
1.278287e-02
1.296311e-02
1.312926e-02
1.328124e-02
1.341904e-02
1.354260e-02
1.365186e-02
1.374677e-02
1.382729e-02
1.389342e-02
1.394530e-02
1.398316e-02
1.400726e-02
1.401797e-02
1.401573e-02
1.400105e-02
1.397449e-02
1.393665e-02
1.388818e-02
1.382973e-02
1.376195e-02
1.368554e-02
1.360113e-02
1.350936e-02
1.341085e-02
1.330615e-02
1.319579e-02
1.308021e-02
1.295979e-02
1.283481e-02
1.270548e-02
1.257187e-02
1.243392e-02
1.243444e-02
3.095092e-03
3.078854e-03
2.879775e-03
2.718781e-03
2.580183e-03
2.449837e-03
2.323953e-03
2.207339e-03
2.106444e-03
2.023006e-03
1.952673e-03
1.888971e-03
1.829183e-03
1.777651e-03
1.744029e-03
1.737509e-03
1.760703e-03
1.807036e-03
1.863356e-03
1.916340e-03
1.959149e-03
1.994757e-03
2.034313e-03
2.091645e-03
2.176629e-03
2.291040e-03
2.428446e-03
2.577833e-03
2.728854e-03
2.876081e-03
3.020483e-03
3.167896e-03
3.325697e-03
3.499457e-03
3.691066e-03
3.898786e-03
4.118791e-03
4.347126e-03
4.581167e-03
4.820081e-03
5.064419e-03
5.315289e-03
5.573635e-03
5.839881e-03
6.113969e-03
6.395564e-03
6.684240e-03
6.979503e-03
7.280681e-03
7.586789e-03
7.896486e-03
8.208181e-03
8.519207e-03
8.827967e-03
9.133538e-03
9.435496e-03
9.733784e-03
1.002847e-02
1.031950e-02
1.060643e-02
1.088841e-02
1.116417e-02
1.143218e-02
1.169087e-02
1.193879e-02
1.217477e-02
1.239797e-02
1.260782e-02
1.280401e-02
1.298634e-02
1.315468e-02
1.330888e-02
1.344875e-02
1.357408e-02
1.368468e-02
1.378039e-02
1.386111e-02
1.392685e-02
1.397777e-02
1.401415e-02
1.403632e-02
1.404466e-02
1.403965e-02
1.402183e-02
1.399178e-02
1.395012e-02
1.389750e-02
1.383459e-02
1.376208e-02
1.368064e-02
1.359095e-02
1.349367e-02
1.338943e-02
1.327883e-02
1.316242e-02
1.304068e-02
1.291405e-02
1.278286e-02
1.264736e-02
1.250768e-02
1.236387e-02
1.236440e-02
3.016157e-03
3.012785e-03
2.826440e-03
2.665221e-03
2.514062e-03
2.368013e-03