# vtk DataFile Version 3.0
Scalar Field
ASCII
DATASET RECTILINEAR_GRID
DIMENSIONS 102 102 1
X_COORDINATES 102 double
0.000000 0.100000 0.200000 0.300000 0.400000 0.500000 0.600000 0.700000 0.800000 0.900000 1.000000 1.100000 1.200000 1.300000 1.400000 1.500000 1.600000 1.700000 1.800000 1.900000 2.000000 2.100000 2.200000 2.300000 2.400000 2.500000 2.600000 2.700000 2.800000 2.900000 3.000000 3.100000 3.200000 3.300000 3.400000 3.500000 3.600000 3.700000 3.800000 3.900000 4.000000 4.100000 4.200000 4.300000 4.400000 4.500000 4.600000 4.700000 4.800000 4.900000 5.000000 5.100000 5.200000 5.300000 5.400000 5.500000 5.600000 5.700000 5.800000 5.900000 6.000000 6.100000 6.200000 6.300000 6.400000 6.500000 6.600000 6.700000 6.800000 6.900000 7.000000 7.100000 7.200000 7.300000 7.400000 7.500000 7.600000 7.700000 7.800000 7.900000 8.000000 8.100000 8.200000 8.300000 8.400000 8.500000 8.600000 8.700000 8.800000 8.900000 9.000000 9.100000 9.200000 9.300000 9.400000 9.500000 9.600000 9.700000 9.800000 9.900000 10.000000 10.100000 
Y_COORDINATES 102 double
0.000000 0.100000 0.200000 0.300000 0.400000 0.500000 0.600000 0.700000 0.800000 0.900000 1.000000 1.100000 1.200000 1.300000 1.400000 1.500000 1.600000 1.700000 1.800000 1.900000 2.000000 2.100000 2.200000 2.300000 2.400000 2.500000 2.600000 2.700000 2.800000 2.900000 3.000000 3.100000 3.200000 3.300000 3.400000 3.500000 3.600000 3.700000 3.800000 3.900000 4.000000 4.100000 4.200000 4.300000 4.400000 4.500000 4.600000 4.700000 4.800000 4.900000 5.000000 5.100000 5.200000 5.300000 5.400000 5.500000 5.600000 5.700000 5.800000 5.900000 6.000000 6.100000 6.200000 6.300000 6.400000 6.500000 6.600000 6.700000 6.800000 6.900000 7.000000 7.100000 7.200000 7.300000 7.400000 7.500000 7.600000 7.700000 7.800000 7.900000 8.000000 8.100000 8.200000 8.300000 8.400000 8.500000 8.600000 8.700000 8.800000 8.900000 9.000000 9.100000 9.200000 9.300000 9.400000 9.500000 9.600000 9.700000 9.800000 9.900000 10.000000 10.100000 
Z_COORDINATES 1 double
0.0
POINT_DATA 10404
SCALARS Pressure double 1
LOOKUP_TABLE default
0.000000e+00
-1.139526e-03
-1.425577e-03
-1.660695e-03
-1.771073e-03
-1.763454e-03
-1.686795e-03
-1.604722e-03
-1.569602e-03
-1.606737e-03
-1.711463e-03
-1.856853e-03
-2.006805e-03
-2.128992e-03
-2.203648e-03
-2.226498e-03
-2.206320e-03
-2.159075e-03
-2.101141e-03
-2.043890e-03
-1.991032e-03
-1.939034e-03
-1.879894e-03
-1.804919e-03
-1.708030e-03
-1.587545e-03
-1.446066e-03
-1.288857e-03
-1.121553e-03
-9.481462e-04
-7.699178e-04
-5.855343e-04
-3.920537e-04
-1.863167e-04
3.383917e-05
2.689303e-04
5.178499e-04
7.784163e-04
1.048151e-03
1.324977e-03
1.607628e-03
1.895704e-03
2.189437e-03
2.489316e-03
2.795715e-03
3.108649e-03
3.427687e-03
3.752016e-03
4.080591e-03
4.412309e-03
4.746144e-03
5.081225e-03
5.416844e-03
5.752408e-03
6.087411e-03
6.421362e-03
6.753728e-03
7.083903e-03
7.411202e-03
7.734863e-03
8.054066e-03
8.367951e-03
8.675641e-03
8.976256e-03
9.268939e-03
9.552863e-03
9.827250e-03
1.009138e-02
1.034458e-02
1.058624e-02
1.081580e-02
1.103273e-02
1.123652e-02
1.142669e-02
1.160276e-02
1.176429e-02
1.191082e-02
1.204196e-02
1.215738e-02
1.225678e-02
1.233998e-02
1.240688e-02
1.245747e-02
1.249187e-02
1.251033e-02
1.251320e-02
1.250101e-02
1.247443e-02
1.243432e-02
1.238177e-02
1.231811e-02
1.224497e-02
1.216435e-02
1.207867e-02
1.199088e-02
1.190456e-02
1.182401e-02
1.175431e-02
1.170124e-02
1.167040e-02
1.166469e-02
0.000000e+00
-1.139526e-03
-1.380302e-03
-1.619722e-03
-1.747852e-03
-1.737258e-03
-1.636821e-03
-1.519698e-03
-1.451521e-03
-1.468783e-03
-1.572296e-03
-1.734148e-03
-1.912449e-03
-2.067143e-03
-2.171597e-03
-2.217386e-03
-2.212423e-03
-2.174513e-03
-2.123329e-03
-2.073581e-03
-2.031255e-03
-1.993507e-03
-1.951539e-03
-1.894950e-03
-1.815807e-03
-1.711101e-03
-1.582994e-03
-1.437180e-03
-1.280256e-03
-1.117255e-03
-9.501681e-04
-7.778392e-04
-5.969947e-04
-4.038449e-04
-1.955761e-04
2.876724e-05
2.681935e-04
5.203364e-04
7.823563e-04
1.051798e-03
1.327130e-03
1.607865e-03
1.894319e-03
2.187173e-03
2.487022e-03
2.794061e-03
3.107961e-03
3.427927e-03
3.752871e-03
4.081623e-03
4.413101e-03
4.746407e-03
5.080849e-03
5.415887e-03
5.751056e-03
6.085913e-03
6.419971e-03
6.752655e-03
7.083292e-03
7.411115e-03
7.735287e-03
8.054921e-03
8.369110e-03
8.676948e-03
8.977549e-03
9.270066e-03
9.553707e-03
9.827739e-03
1.009149e-02
1.034435e-02
1.058574e-02
1.081513e-02
1.103200e-02
1.123583e-02
1.142612e-02
1.160237e-02
1.176407e-02
1.191077e-02
1.204206e-02
1.215757e-02
1.225702e-02
1.234024e-02
1.240713e-02
1.245771e-02
1.249211e-02
1.251056e-02
1.251345e-02
1.250128e-02
1.247473e-02
1.243466e-02
1.238215e-02
1.231852e-02
1.224540e-02
1.216480e-02
1.207913e-02
1.199135e-02
1.190503e-02
1.182448e-02
1.175478e-02
1.170169e-02
1.167083e-02
1.166512e-02
1.166469e-02
-1.409994e-03
-1.604042e-03
-1.676111e-03
-1.625909e-03
-1.508618e-03
-1.392869e-03
-1.334494e-03
-1.360186e-03
-1.464425e-03
-1.617787e-03
-1.781126e-03
-1.919565e-03
-2.011869e-03
-2.053422e-03
-2.053408e-03
-2.028391e-03
-1.995083e-03
-1.964680e-03
-1.940249e-03
-1.917371e-03
-1.887234e-03
-1.840656e-03
-1.771490e-03
-1.678331e-03
-1.564198e-03
-1.434683e-03
-1.295488e-03
-1.150377e-03
-1.000198e-03
-8.431499e-04
-6.759657e-04
-4.954040e-04
-2.994633e-04
-8.793901e-05
1.377392e-04
3.751831e-04
6.218925e-04
8.759483e-04
1.136355e-03
1.402999e-03
1.676333e-03
1.956951e-03
2.245220e-03
2.541070e-03
2.843969e-03
3.153034e-03
3.467215e-03
3.785472e-03
4.106899e-03
4.430772e-03
4.756529e-03
5.083710e-03
5.411882e-03
5.740552e-03
6.069181e-03
6.397146e-03
6.723734e-03
7.048162e-03
7.369594e-03
7.687163e-03
7.999993e-03
8.307218e-03
8.607999e-03
8.901538e-03
9.187090e-03
9.463964e-03
9.731522e-03
9.989170e-03
1.023634e-02
1.047250e-02
1.069709e-02
1.090958e-02
1.110943e-02
1.129612e-02
1.146911e-02
1.162794e-02
1.177218e-02
1.190147e-02
1.201551e-02
1.211412e-02
1.219716e-02
1.226463e-02
1.231660e-02
1.235324e-02
1.237484e-02
1.238181e-02
1.237468e-02
1.235417e-02
1.232115e-02
1.227670e-02
1.222216e-02
1.215913e-02
1.208952e-02
1.201563e-02
1.194017e-02
1.186632e-02
1.179774e-02
1.173857e-02
1.169321e-02
1.166591e-02
1.166017e-02
1.165971e-02
-1.578175e-03
-1.664616e-03
-1.566481e-03
-1.410186e-03
-1.281883e-03
-1.231357e-03
-1.273591e-03
-1.391248e-03
-1.547261e-03
-1.700829e-03
-1.820728e-03
-1.892367e-03
-1.917933e-03
-1.911279e-03
-1.890368e-03
-1.870166e-03
-1.858083e-03
-1.852902e-03
-1.846861e-03
-1.829620e-03
-1.792417e-03
-1.730936e-03
-1.646070e-03
-1.542665e-03
-1.427042e-03
-1.304409e-03
-1.177154e-03
-1.044491e-03
-9.033516e-04
-7.499671e-04
-5.814209e-04
-3.966158e-04
-1.964139e-04
1.693250e-05
2.407103e-04
4.726292e-04
7.113626e-04
9.566348e-04
1.208933e-03
1.469029e-03
1.737521e-03
2.014537e-03
2.299664e-03
2.592057e-03
2.890648e-03
3.194370e-03
3.502307e-03
3.813757e-03
4.128215e-03
4.445299e-03
4.764655e-03
5.085886e-03
5.408500e-03
5.731841e-03
6.055212e-03
6.377841e-03
6.698906e-03
7.017560e-03
7.332947e-03
7.644227e-03
7.950579e-03
8.251221e-03
8.545419e-03
8.832487e-03
9.111785e-03
9.382718e-03
9.644711e-03
9.897205e-03
1.013963e-02
1.037142e-02
1.059199e-02
1.080075e-02
1.099713e-02
1.118060e-02
1.135064e-02
1.150682e-02
1.164878e-02
1.177623e-02
1.188895e-02
1.198680e-02
1.206973e-02
1.213776e-02
1.219101e-02
1.222966e-02
1.225404e-02
1.226456e-02
1.226177e-02
1.224639e-02
1.221930e-02
1.218158e-02
1.213450e-02
1.207961e-02
1.201870e-02
1.195388e-02
1.188756e-02
1.182251e-02
1.176179e-02
1.170876e-02
1.166688e-02
1.163964e-02
1.163043e-02
1.162995e-02
-1.577709e-03
-1.542203e-03
-1.354121e-03
-1.194530e-03
-1.135710e-03
-1.186654e-03
-1.319591e-03
-1.487233e-03
-1.642468e-03
-1.753158e-03
-1.808420e-03
-1.816533e-03
-1.797248e-03
-1.772256e-03
-1.757234e-03
-1.757603e-03
-1.768607e-03
-1.778837e-03
-1.775416e-03
-1.748771e-03
-1.695419e-03
-1.618080e-03
-1.523527e-03
-1.419329e-03
-1.310864e-03
-1.199687e-03
-1.083618e-03
-9.582313e-04
-8.189280e-04
-6.627121e-04
-4.890657e-04
-2.997692e-04
-9.793878e-05
1.132112e-04
3.313784e-04
5.556442e-04
7.863588e-04
1.024613e-03
1.271576e-03
1.527957e-03
1.793745e-03
2.068244e-03
2.350314e-03
2.638688e-03
2.932242e-03
3.230141e-03
3.531858e-03
3.837091e-03
4.145631e-03
4.457238e-03
4.771561e-03
5.088096e-03
5.406186e-03
5.724985e-03
6.043661e-03
6.361350e-03
6.677186e-03
6.990322e-03
7.299946e-03
7.605283e-03
7.905611e-03
8.200257e-03
8.488598e-03
8.770049e-03
9.044052e-03
9.310054e-03
9.567490e-03
9.815773e-03
1.005429e-02
1.028241e-02
1.049950e-02
1.070494e-02
1.089817e-02
1.107866e-02
1.124596e-02
1.139972e-02
1.153961e-02
1.166543e-02
1.177701e-02
1.187426e-02
1.195715e-02
1.202572e-02
1.208011e-02
1.212050e-02
1.214723e-02
1.216073e-02
1.216155e-02
1.215040e-02
1.212815e-02
1.209584e-02
1.205470e-02
1.200616e-02
1.195187e-02
1.189371e-02
1.183381e-02
1.177449e-02
1.171830e-02
1.166793e-02
1.162609e-02
1.159549e-02
1.157875e-02
1.157823e-02
-1.427483e-03
-1.298512e-03
-1.118015e-03
-1.037468e-03
-1.086140e-03
-1.230586e-03
-1.414350e-03
-1.581705e-03
-1.695520e-03
-1.744603e-03
-1.740742e-03
-1.708952e-03
-1.675731e-03
-1.659529e-03
-1.665980e-03
-1.688436e-03
-1.712572e-03
-1.722771e-03
-1.707801e-03
-1.663923e-03
-1.594780e-03
-1.508608e-03
-1.414272e-03
-1.317768e-03
-1.220428e-03
-1.119214e-03
-1.008621e-03
-8.831938e-04
-7.395877e-04
-5.774896e-04
-3.992637e-04
-2.087002e-04
-9.504639e-06
1.958715e-04
4.067075e-04
6.237779e-04
8.486456e-04
1.082840e-03
1.327230e-03
1.581765e-03
1.845579e-03
2.117323e-03
2.395577e-03
2.679162e-03
2.967294e-03
3.259572e-03
3.555847e-03
3.856049e-03
4.160038e-03
4.467505e-03
4.777945e-03
5.090675e-03
5.404876e-03
5.719556e-03
6.033816e-03
6.346777e-03
6.657596e-03
6.965485e-03
7.269717e-03
7.569624e-03
7.864594e-03
8.154063e-03
8.437498e-03
8.714370e-03
8.984139e-03
9.246231e-03
9.500028e-03
9.744877e-03
9.980099e-03
1.020501e-02
1.041897e-02
1.062137e-02
1.081168e-02
1.098944e-02
1.115428e-02
1.130588e-02
1.144400e-02
1.156846e-02
1.167912e-02
1.177591e-02
1.185879e-02
1.192783e-02
1.198314e-02
1.202495e-02
1.205357e-02
1.206945e-02
1.207314e-02
1.206535e-02
1.204692e-02
1.201883e-02
1.198223e-02
1.193844e-02
1.188893e-02
1.183537e-02
1.177957e-02
1.172347e-02
1.166915e-02
1.161871e-02
1.157421e-02
1.153762e-02
1.151065e-02
1.151010e-02
-1.189190e-03
-1.020170e-03
-9.248326e-04
-9.624780e-04
-1.111696e-03
-1.310929e-03
-1.496642e-03
-1.624701e-03
-1.680123e-03
-1.674769e-03
-1.636689e-03
-1.596621e-03
-1.576704e-03
-1.584571e-03
-1.613614e-03
-1.648063e-03
-1.670247e-03
-1.667139e-03
-1.634034e-03
-1.574549e-03
-1.497581e-03
-1.412872e-03
-1.327062e-03
-1.241657e-03
-1.153319e-03
-1.055965e-03
-9.435640e-04
-8.124196e-04
-6.621877e-04
-4.954666e-04
-3.163961e-04
-1.289771e-04
6.421340e-05
2.625274e-04
4.669568e-04
6.793290e-04
9.013904e-04
1.134124e-03
1.377485e-03
1.630538e-03
1.891848e-03
2.159938e-03
2.433626e-03
2.712181e-03
2.995290e-03
3.282900e-03
3.575025e-03
3.871581e-03
4.172285e-03
4.476631e-03
4.783924e-03
5.093331e-03
5.403936e-03
5.714681e-03
6.024681e-03
6.333106e-03
6.639194e-03
6.942259e-03
7.241686e-03
7.536921e-03
7.827451e-03
8.112781e-03
8.392405e-03
8.665782e-03
8.932317e-03
9.191361e-03
9.442215e-03
9.684158e-03
9.916474e-03
1.013848e-02
1.034957e-02
1.054918e-02
1.073686e-02
1.091222e-02
1.107494e-02
1.122475e-02
1.136144e-02
1.148481e-02
1.159474e-02
1.169115e-02
1.177399e-02
1.184334e-02
1.189933e-02
1.194219e-02
1.197224e-02
1.198994e-02
1.199584e-02
1.199061e-02
1.197506e-02
1.195011e-02
1.191682e-02
1.187636e-02
1.183005e-02
1.177932e-02
1.172570e-02
1.167079e-02
1.161624e-02
1.156366e-02
1.151457e-02
1.147025e-02
1.143169e-02
1.143111e-02
-9.383510e-04
-7.849359e-04
-8.108096e-04
-9.592226e-04
-1.169926e-03
-1.375035e-03
-1.524012e-03
-1.596372e-03
-1.601166e-03
-1.566652e-03
-1.525961e-03
-1.504431e-03
-1.512429e-03
-1.544855e-03
-1.586103e-03
-1.617690e-03
-1.625401e-03
-1.603485e-03
-1.554960e-03
-1.488605e-03
-1.414363e-03
-1.339171e-03
-1.264729e-03
-1.187732e-03
-1.102002e-03
-1.001362e-03
-8.820105e-04
-7.435702e-04
-5.886679e-04
-4.214867e-04
-2.460394e-04
-6.486039e-05
1.214890e-04
3.140984e-04
5.148688e-04
7.255755e-04
9.471902e-04
1.179637e-03
1.421963e-03
1.672748e-03
1.930569e-03
2.194329e-03
2.463389e-03
2.737517e-03
3.016715e-03
3.301023e-03
3.590358e-03
3.884427e-03
4.182713e-03
4.484511e-03
4.788991e-03
5.095256e-03
5.402375e-03
5.709309e-03
6.015249e-03
6.319466e-03
6.621317e-03
6.920235e-03
7.215716e-03
7.507289e-03
7.794486e-03
8.076805e-03
8.353691e-03
8.624520e-03
8.888601e-03
9.145195e-03
9.393543e-03
9.632902e-03
9.862577e-03
1.008194e-02
1.029045e-02
1.048763e-02
1.067309e-02
1.084649e-02
1.100753e-02
1.115594e-02
1.129149e-02
1.141399e-02
1.152330e-02
1.161932e-02
1.170204e-02
1.177152e-02
1.182792e-02
1.187149e-02
1.190256e-02
1.192158e-02
1.192908e-02
1.192571e-02
1.191222e-02
1.188946e-02
1.185838e-02
1.182003e-02
1.177555e-02
1.172617e-02
1.167316e-02
1.161783e-02
1.156145e-02
1.150525e-02
1.145025e-02
1.139726e-02
1.134667e-02
1.134606e-02
-7.374264e-04
-6.388616e-04
-7.775854e-04
-9.957008e-04
-1.217305e-03
-1.388387e-03
-1.483454e-03
-1.507362e-03
-1.486266e-03
-1.453434e-03
-1.435909e-03
-1.446359e-03
-1.481722e-03
-1.527680e-03
-1.566208e-03
-1.582898e-03
-1.571465e-03
-1.534309e-03
-1.479669e-03
-1.417090e-03
-1.353271e-03
-1.289828e-03
-1.223493e-03
-1.148247e-03
-1.058145e-03
-9.496229e-04
-8.224649e-04
-6.793270e-04
-5.242730e-04
-3.610857e-04
-1.920349e-04
-1.746878e-05
1.638025e-04
3.536505e-04
5.537234e-04
7.648328e-04
9.867795e-04
1.218572e-03
1.458855e-03
1.706344e-03
1.960115e-03
2.219685e-03
2.484926e-03
2.755881e-03
3.032574e-03
3.314876e-03
3.602443e-03
3.894723e-03
4.190998e-03
4.490446e-03
4.792199e-03
5.095386e-03
5.399138e-03
5.702493e-03
6.004764e-03
6.305354e-03
6.603746e-03
6.899476e-03
7.192103e-03
7.481168e-03
7.766162e-03
8.046499e-03
8.321513e-03
8.590468e-03
8.852586e-03
9.107081e-03
9.353194e-03
9.590227e-03
9.817556e-03
1.003464e-02
1.024101e-02
1.043625e-02
1.062000e-02
1.079191e-02
1.095168e-02
1.109901e-02
1.123366e-02
1.135541e-02
1.146413e-02
1.155973e-02
1.164220e-02
1.171165e-02
1.176825e-02
1.181224e-02
1.184398e-02
1.186389e-02
1.187248e-02
1.187035e-02
1.185819e-02
1.183678e-02
1.180696e-02
1.176965e-02
1.172586e-02
1.167660e-02
1.162295e-02
1.156594e-02
1.150656e-02
1.144569e-02
1.138402e-02
1.132195e-02
1.125950e-02
1.125887e-02
-6.192075e-04
-5.891628e-04
-8.004066e-04
-1.034715e-03
-1.224854e-03
-1.342805e-03
-1.389743e-03
-1.388715e-03
-1.371337e-03
-1.364580e-03
-1.382183e-03
-1.422690e-03
-1.473388e-03
-1.517502e-03
-1.541381e-03
-1.538995e-03
-1.512567e-03
-1.469843e-03
-1.419701e-03
-1.368170e-03
-1.316366e-03
-1.260828e-03
-1.195660e-03
-1.115314e-03
-1.016731e-03
-9.001165e-04
-7.683124e-04
-6.252796e-04
-4.744640e-04
-3.177016e-04
-1.549672e-04
1.512232e-05
1.944130e-04
3.843546e-04
5.854888e-04
7.973899e-04
1.018965e-03
1.248911e-03
1.486118e-03
1.729891e-03
1.979961e-03
2.236344e-03
2.499133e-03
2.768325e-03
3.043717e-03
3.324882e-03
3.611205e-03
3.901943e-03
4.196282e-03
4.493392e-03
4.792455e-03
5.092699e-03
5.393369e-03
5.693616e-03
5.992899e-03
6.290746e-03
6.586731e-03
6.880429e-03
7.171376e-03
7.459036e-03
7.742782e-03
8.021895e-03
8.295594e-03
8.563063e-03
8.823497e-03
9.076137e-03
9.320291e-03
9.555349e-03
9.780777e-03
9.996102e-03
1.020090e-02
1.039476e-02
1.057730e-02
1.074816e-02
1.090699e-02
1.105347e-02
1.118735e-02
1.130843e-02
1.141656e-02
1.151170e-02
1.159386e-02
1.166317e-02
1.171980e-02
1.176401e-02
1.179613e-02
1.181657e-02
1.182579e-02
1.182436e-02
1.181289e-02
1.179207e-02
1.176268e-02
1.172552e-02
1.168144e-02
1.163132e-02
1.157603e-02
1.151639e-02
1.145317e-02
1.138697e-02
1.131823e-02
1.124707e-02
1.117329e-02
1.117262e-02
-5.836371e-04
-6.114388e-04
-8.430831e-04
-1.048159e-03
-1.185228e-03
-1.253886e-03
-1.274698e-03
-1.277021e-03
-1.286427e-03
-1.316306e-03
-1.365745e-03
-1.423149e-03
-1.473093e-03
-1.503204e-03
-1.508403e-03
-1.491382e-03
-1.459807e-03
-1.422011e-03
-1.383208e-03
-1.343708e-03
-1.299517e-03
-1.244651e-03
-1.173874e-03
-1.084709e-03
-9.779653e-04
-8.568710e-04
-7.254258e-04
-5.867833e-04
-4.422950e-04
-2.914549e-04
-1.325716e-04
3.625353e-05
2.162919e-04
4.077821e-04
6.100072e-04
8.217061e-04
1.041579e-03
1.268674e-03
1.502539e-03
1.743148e-03
1.990690e-03
2.245333e-03
2.507057e-03
2.775579e-03
3.050375e-03
3.330753e-03
3.615930e-03
3.905096e-03
4.197459e-03
4.492262e-03
4.788807e-03
5.086463e-03
5.384614e-03
5.682540e-03
5.979821e-03
6.276058e-03
6.570835e-03
6.863668e-03
7.153981e-03
7.441090e-03
7.724223e-03
8.002550e-03
8.275225e-03
8.541436e-03
8.800430e-03
9.051534e-03
9.294155e-03
9.527770e-03
9.751900e-03
9.966094e-03
1.016991e-02
1.036292e-02
1.054468e-02
1.071481e-02
1.087293e-02
1.101872e-02
1.115194e-02
1.127240e-02
1.137999e-02
1.147469e-02
1.155654e-02
1.162566e-02
1.168223e-02
1.172650e-02
1.175877e-02
1.177941e-02
1.178885e-02
1.178761e-02
1.177625e-02
1.175539e-02
1.172570e-02
1.168792e-02
1.164276e-02
1.159098e-02
1.153328e-02
1.147033e-02
1.140270e-02
1.133080e-02
1.125487e-02
1.117486e-02
1.109043e-02
1.108974e-02
-6.060054e-04
-6.655050e-04
-8.731602e-04
-1.024914e-03
-1.110893e-03
-1.150955e-03
-1.172964e-03
-1.200837e-03
-1.246668e-03
-1.308915e-03
-1.376113e-03
-1.433630e-03
-1.470287e-03
-1.482283e-03
-1.473317e-03
-1.451539e-03
-1.425154e-03
-1.398741e-03
-1.371743e-03
-1.339402e-03
-1.295340e-03
-1.234419e-03
-1.154618e-03
-1.057368e-03
-9.464118e-04
-8.259590e-04
-6.990145e-04
-5.665185e-04
-4.274762e-04
-2.798196e-04
-1.215046e-04
4.864083e-05
2.305941e-04
4.233460e-04
6.254332e-04
8.355120e-04
1.052743e-03
1.276887e-03
1.508151e-03
1.746906e-03
1.993413e-03
2.247650e-03
2.509269e-03
2.777659e-03
3.052048e-03
3.331609e-03
3.615531e-03
3.903053e-03
4.193484e-03
4.486202e-03
4.780663e-03
5.076395e-03
5.372918e-03
5.669602e-03
5.966077e-03
6.261921e-03
6.556622e-03
6.849550e-03
7.139963e-03
7.427028e-03
7.709872e-03
7.987629e-03
8.259485e-03
8.524706e-03
8.782644e-03
9.032726e-03
9.274434e-03
9.507281e-03
9.730785e-03
9.944462e-03
1.014782e-02
1.034039e-02
1.052169e-02
1.069132e-02
1.084890e-02
1.099415e-02
1.112684e-02
1.124682e-02
1.135399e-02
1.144835e-02
1.152994e-02
1.159888e-02
1.165533e-02
1.169951e-02
1.173171e-02
1.175225e-02
1.176153e-02
1.176003e-02
1.174826e-02
1.172677e-02
1.169619e-02
1.165715e-02
1.161028e-02
1.155621e-02
1.149554e-02
1.142879e-02
1.135639e-02
1.127861e-02
1.119556e-02
1.110710e-02
1.101280e-02
1.101207e-02
-6.511874e-04
-7.126420e-04
-8.722904e-04
-9.712562e-04
-1.026041e-03
-1.064525e-03
-1.109835e-03
-1.172767e-03
-1.250467e-03
-1.330595e-03
-1.398362e-03
-1.443169e-03
-1.462302e-03
-1.460680e-03
-1.447398e-03
-1.431058e-03
-1.416025e-03
-1.401083e-03
-1.380685e-03
-1.347857e-03
-1.297268e-03
-1.227141e-03
-1.139377e-03
-1.038230e-03
-9.282283e-04
-8.123866e-04
-6.913826e-04
-5.638217e-04
-4.272720e-04
-2.794921e-04
-1.193231e-04
5.303681e-05
2.363436e-04
4.289489e-04
6.294451e-04
8.370619e-04
1.051724e-03
1.273831e-03
1.503913e-03
1.742319e-03
1.989039e-03
2.243684e-03
2.505572e-03
2.773871e-03
3.047717e-03
3.326296e-03
3.608880e-03
3.894835e-03
4.183619e-03
4.474774e-03
4.767914e-03
5.062710e-03
5.358762e-03
5.655441e-03
5.952317e-03
6.248837e-03
6.544316e-03
6.837944e-03
7.128837e-03
7.416083e-03
7.698805e-03
7.976199e-03
8.247556e-03
8.512254e-03
8.769741e-03
9.019500e-03
9.261025e-03
9.493800e-03
9.717292e-03
9.930958e-03
1.013426e-02
1.032669e-02
1.050778e-02
1.067712e-02
1.083439e-02
1.097931e-02
1.111168e-02
1.123138e-02
1.133832e-02
1.143249e-02
1.151390e-02
1.158266e-02
1.163893e-02
1.168288e-02
1.171478e-02
1.173493e-02
1.174371e-02
1.174154e-02
1.172890e-02
1.170632e-02
1.167433e-02
1.163351e-02
1.158442e-02
1.152760e-02
1.146354e-02
1.139266e-02
1.131529e-02
1.123161e-02
1.114164e-02
1.104517e-02
1.094178e-02
1.094103e-02
-6.878905e-04
-7.283369e-04
-8.395461e-04
-9.053410e-04
-9.562653e-04
-1.015966e-03
-1.094816e-03
-1.188779e-03
-1.284110e-03
-1.364967e-03
-1.420433e-03
-1.448260e-03
-1.454370e-03
-1.448981e-03
-1.441513e-03
-1.436613e-03
-1.432807e-03
-1.423958e-03
-1.402471e-03
-1.362628e-03
-1.302618e-03
-1.224628e-03
-1.133276e-03
-1.033406e-03
-9.281475e-04
-8.180676e-04
-7.015139e-04
-5.757778e-04
-4.384354e-04
-2.882918e-04
-1.256367e-04
4.813681e-05
2.312556e-04
4.222681e-04
6.204552e-04
8.258607e-04
1.039024e-03
1.260591e-03
1.490974e-03
1.730172e-03
1.977766e-03
2.233031e-03
2.495098e-03
2.763085e-03
3.036189e-03
3.313714e-03
3.595085e-03
3.879831e-03
4.167579e-03
4.458029e-03
4.750923e-03
5.045999e-03
5.342832e-03
5.640677e-03
5.938937e-03
6.236865e-03
6.533592e-03
6.828183e-03
7.119704e-03
7.407276e-03
7.690114e-03
7.967539e-03
8.238956e-03
8.503826e-03
8.761627e-03
9.011829e-03
9.253873e-03
9.487173e-03
9.711135e-03
9.925171e-03
1.012872e-02
1.032129e-02
1.050243e-02
1.067178e-02
1.082902e-02
1.097391e-02
1.110627e-02
1.122595e-02
1.133287e-02
1.142698e-02
1.150829e-02
1.157687e-02
1.163286e-02
1.167643e-02
1.170782e-02
1.172731e-02
1.173526e-02
1.173207e-02
1.171820e-02
1.169411e-02
1.166032e-02
1.161732e-02
1.156562e-02
1.150568e-02
1.143793e-02
1.136271e-02
1.128028e-02
1.119076e-02
1.109412e-02
1.099015e-02
1.087843e-02
1.087765e-02
-6.983276e-04
-7.074505e-04
-7.882133e-04
-8.488804e-04
-9.199059e-04
-1.012406e-03
-1.121959e-03
-1.233560e-03
-1.329850e-03
-1.398789e-03
-1.437784e-03
-1.453204e-03
-1.456206e-03
-1.457209e-03
-1.461540e-03
-1.467912e-03
-1.469937e-03
-1.459562e-03
-1.430646e-03
-1.381165e-03
-1.313347e-03
-1.232033e-03
-1.142264e-03
-1.047296e-03
-9.476831e-04
-8.416501e-04
-7.263332e-04
-5.991975e-04
-4.590200e-04
-3.061354e-04
-1.420095e-04
3.153540e-05
2.130549e-04
4.018952e-04
5.981992e-04
8.026034e-04
1.015819e-03
1.238283e-03
1.469983e-03
1.710471e-03
1.958995e-03
2.214674e-03
2.476634e-03
2.744098e-03
3.016417e-03
3.293073e-03
3.573667e-03
3.857904e-03
4.145562e-03
4.436452e-03
4.730353e-03
5.026951e-03
5.325674e-03
5.625561e-03
5.925804e-03
6.225480e-03
6.523619e-03
6.819272e-03
7.111573e-03
7.399766e-03
7.683203e-03
7.961313e-03
8.233563e-03
8.499420e-03
8.758318e-03
9.009651e-03
9.252783e-03
9.487067e-03
9.711872e-03
9.926604e-03
1.013073e-02
1.032377e-02
1.050533e-02
1.067505e-02
1.083266e-02
1.097789e-02
1.111055e-02
1.123048e-02
1.133757e-02
1.143173e-02
1.151296e-02
1.158132e-02
1.163694e-02
1.167997e-02
1.171064e-02
1.172924e-02
1.173611e-02
1.173162e-02
1.171620e-02
1.169029e-02
1.165435e-02
1.160885e-02
1.155424e-02
1.149092e-02
1.141927e-02
1.133959e-02
1.125208e-02
1.115684e-02
1.105384e-02
1.094285e-02
1.082349e-02
1.082269e-02
-6.812740e-04
-6.618752e-04
-7.385576e-04
-8.193551e-04
-9.235965e-04
-1.047527e-03
-1.175539e-03
-1.288836e-03
-1.373815e-03
-1.426834e-03
-1.454022e-03
-1.467037e-03
-1.477188e-03
-1.490660e-03
-1.506699e-03
-1.519040e-03
-1.519429e-03
-1.501416e-03
-1.462723e-03
-1.405475e-03
-1.334545e-03
-1.255086e-03
-1.170395e-03
-1.081032e-03
-9.851794e-04
-8.799227e-04
-7.627087e-04
-6.323389e-04
-4.891961e-04
-3.347816e-04
-1.709077e-04
1.046015e-06
1.805279e-04
3.677873e-04
5.635385e-04
7.685231e-04
9.831625e-04
1.207404e-03
1.440756e-03
1.682444e-03
1.931589e-03
2.187347e-03
2.448990e-03
2.715929e-03
2.987714e-03
3.264019e-03
3.544622e-03
3.829374e-03
4.118141e-03
4.410738e-03
4.706853e-03
5.005996e-03
5.307364e-03
5.609756e-03
5.912203e-03
6.213712e-03
6.513338e-03
6.810239e-03
7.103695e-03
7.393089e-03
7.677870e-03
7.957505e-03
8.231435e-03
8.499056e-03
8.759712e-03
9.012716e-03
9.257376e-03
9.493020e-03
9.719027e-03
9.934833e-03
1.013994e-02
1.033391e-02
1.051635e-02
1.068692e-02
1.084531e-02
1.099126e-02
1.112452e-02
1.124492e-02
1.135230e-02
1.144658e-02
1.152773e-02
1.159582e-02
1.165096e-02
1.169332e-02
1.172313e-02
1.174065e-02
1.174622e-02
1.174020e-02
1.172298e-02
1.169499e-02
1.165666e-02
1.160840e-02
1.155063e-02
1.148374e-02
1.140804e-02
1.132383e-02
1.123128e-02
1.113048e-02
1.102139e-02
1.090384e-02
1.077748e-02
1.077666e-02
-6.490305e-04
-6.131169e-04
-7.098013e-04
-8.252364e-04
-9.626866e-04
-1.106875e-03
-1.238065e-03
-1.341080e-03
-1.410814e-03
-1.452575e-03
-1.477993e-03
-1.498953e-03
-1.522455e-03
-1.548440e-03
-1.571028e-03
-1.582038e-03
-1.574891e-03
-1.547132e-03
-1.500757e-03
-1.440582e-03
-1.371744e-03
-1.297545e-03
-1.218486e-03
-1.132719e-03
-1.037332e-03
-9.298228e-04
-8.090826e-04
-6.755822e-04
-5.308654e-04
-3.767132e-04
-2.144034e-04
-4.434732e-05
1.338361e-04
3.209445e-04
5.177368e-04
7.245952e-04
9.413991e-04
1.167594e-03
1.402373e-03
1.644860e-03
1.894255e-03
2.149895e-03
2.411268e-03
2.678002e-03
2.949851e-03
3.226670e-03
3.508373e-03
3.794874e-03
4.086009e-03
4.381462e-03
4.680710e-03
4.983020e-03
5.287363e-03
5.592376e-03
5.897055e-03
6.200477e-03
6.501835e-03
6.800450e-03
7.095738e-03
7.387162e-03
7.674176e-03
7.956192e-03
8.232559e-03
8.502573e-03
8.765499e-03
9.020604e-03
9.267187e-03
9.504602e-03
9.732263e-03
9.949643e-03
1.015627e-02
1.035170e-02
1.053555e-02
1.070744e-02
1.086703e-02
1.101400e-02
1.114811e-02
1.126912e-02
1.137689e-02
1.147132e-02
1.155238e-02
1.162016e-02
1.167476e-02
1.171637e-02
1.174519e-02
1.176150e-02
1.176561e-02
1.175788e-02
1.173867e-02
1.170839e-02
1.166744e-02
1.161621e-02
1.155511e-02
1.148448e-02
1.140465e-02
1.131587e-02
1.121833e-02
1.111213e-02
1.099725e-02
1.087355e-02
1.074075e-02
1.073990e-02
-6.206182e-04
-5.833041e-04
-7.141204e-04
-8.652284e-04
-1.025473e-03
-1.174975e-03
-1.297333e-03
-1.385904e-03
-1.444816e-03
-1.485229e-03
-1.519233e-03
-1.554439e-03
-1.591463e-03
-1.624923e-03
-1.646878e-03
-1.650788e-03
-1.634150e-03
-1.598892e-03
-1.549783e-03
-1.491910e-03
-1.428509e-03
-1.360018e-03
-1.284495e-03
-1.199025e-03
-1.101178e-03
-9.899748e-04
-8.660214e-04
-7.309414e-04
-5.865034e-04
-4.338808e-04
-2.733265e-04
-1.043037e-04
7.408851e-05
2.626356e-04
4.616774e-04
6.710126e-04
8.900076e-04
1.117805e-03
1.353531e-03
1.596423e-03
1.845889e-03
2.101506e-03
2.362996e-03
2.630199e-03
2.903049e-03
3.181523e-03
3.465578e-03
3.755059e-03
4.049635e-03
4.348744e-03
4.651608e-03
4.957287e-03
5.264633e-03
5.572263e-03
5.879285e-03
6.184939e-03
6.488594e-03
6.789696e-03
7.087713e-03
7.382083e-03
7.672179e-03
7.957302e-03
8.236700e-03
8.509597e-03
8.775228e-03
9.032868e-03
9.281852e-03
9.521571e-03
9.751472e-03
9.971043e-03
1.017980e-02
1.037728e-02
1.056304e-02
1.073667e-02
1.089778e-02
1.104604e-02
1.118115e-02
1.130290e-02
1.141113e-02
1.150575e-02
1.158675e-02
1.165421e-02
1.170826e-02
1.174905e-02
1.177682e-02
1.179182e-02
1.179435e-02
1.178475e-02
1.176339e-02
1.173063e-02
1.168688e-02
1.163251e-02
1.156792e-02
1.149344e-02
1.140940e-02
1.131605e-02
1.121360e-02
1.110215e-02
1.098173e-02
1.085224e-02
1.071347e-02
1.071261e-02
-6.142135e-04
-5.878877e-04
-7.542499e-04
-9.310156e-04
-1.099070e-03
-1.241431e-03
-1.350160e-03
-1.428127e-03
-1.485755e-03
-1.535041e-03
-1.583963e-03
-1.633675e-03
-1.679251e-03
-1.713028e-03
-1.728584e-03
-1.723456e-03
-1.699608e-03
-1.661836e-03
-1.615226e-03
-1.562957e-03
-1.505368e-03
-1.440429e-03
-1.365145e-03
-1.277132e-03
-1.175536e-03
-1.061124e-03
-9.356402e-04
-8.008830e-04
-6.579524e-04
-5.069550e-04
-3.471913e-04
-1.776392e-04
2.534165e-06
1.936409e-04
3.954044e-04
6.071065e-04
8.278310e-04
1.056687e-03
1.292946e-03
1.536083e-03
1.785764e-03
2.041809e-03
2.304157e-03
2.572824e-03
2.847854e-03
3.129238e-03
3.416829e-03
3.710269e-03
4.008957e-03
4.312069e-03
4.618634e-03
4.927636e-03
5.237974e-03
5.548380e-03
5.858151e-03
6.166703e-03
6.473511e-03
6.778045e-03
7.079717e-03
7.377860e-03
7.671726e-03
7.960519e-03
8.243428e-03
8.519665e-03
8.788489e-03
9.049218e-03
9.301223e-03
9.543919e-03
9.776751e-03
9.999177e-03
1.021067e-02
1.041072e-02
1.059882e-02
1.077453e-02
1.093743e-02
1.108716e-02
1.122344e-02
1.134604e-02
1.145483e-02
1.154973e-02
1.163073e-02
1.169792e-02
1.175142e-02
1.179140e-02
1.181807e-02
1.183168e-02
1.183252e-02
1.182093e-02
1.179725e-02
1.176186e-02
1.171515e-02
1.165750e-02
1.158929e-02
1.151087e-02
1.142256e-02
1.132465e-02
1.121735e-02
1.110079e-02
1.097505e-02
1.084008e-02
1.069574e-02
1.069486e-02
-6.414456e-04
-6.320792e-04
-8.247826e-04
-1.011906e-03
-1.174564e-03
-1.304006e-03
-1.402037e-03
-1.478316e-03
-1.544599e-03
-1.609060e-03
-1.673225e-03
-1.732499e-03
-1.779409e-03
-1.807610e-03
-1.814691e-03
-1.802705e-03
-1.776572e-03
-1.741479e-03
-1.700629e-03
-1.654288e-03
-1.600314e-03
-1.535628e-03
-1.457801e-03
-1.366065e-03
-1.261332e-03
-1.145489e-03
-1.020409e-03
-8.871671e-04
-7.457608e-04
-5.953457e-04
-4.347741e-04
-2.631477e-04
-8.015863e-05
1.138600e-04
3.181146e-04
5.316280e-04
7.534847e-04
9.829740e-04
1.219628e-03
1.463197e-03
1.713599e-03
1.970870e-03
2.235117e-03
2.506451e-03
2.784899e-03
3.070316e-03
3.362317e-03
3.660257e-03
3.963270e-03
4.270364e-03
4.580533e-03
4.892854e-03
5.206405e-03
5.520088e-03
5.833366e-03
6.145741e-03
6.456678e-03
6.765563e-03
7.071683e-03
7.374247e-03
7.672421e-03
7.965367e-03
8.252282e-03
8.532415e-03
8.805070e-03
9.069596e-03
9.325373e-03
9.571795e-03
9.808260e-03
1.003417e-02
1.024893e-02
1.045198e-02
1.064277e-02
1.082084e-02
1.098575e-02
1.113715e-02
1.127477e-02
1.139840e-02
1.150790e-02
1.160321e-02
1.168431e-02
1.175130e-02
1.180430e-02
1.184347e-02
1.186900e-02
1.188115e-02
1.188021e-02
1.186650e-02
1.184037e-02
1.180221e-02
1.175240e-02
1.169134e-02
1.161941e-02
1.153697e-02
1.144436e-02
1.134188e-02
1.122977e-02
1.110822e-02
1.097734e-02
1.083714e-02
1.068754e-02
1.068664e-02
-7.050491e-04
-7.114570e-04
-9.159965e-04
-1.099392e-03
-1.249733e-03
-1.368100e-03
-1.463580e-03
-1.547758e-03
-1.628969e-03
-1.709029e-03
-1.783542e-03
-1.845071e-03
-1.887205e-03
-1.907492e-03
-1.908048e-03
-1.893974e-03
-1.870666e-03
-1.841468e-03
-1.806666e-03
-1.764028e-03
-1.710364e-03
-1.643178e-03
-1.561693e-03
-1.466922e-03
-1.360886e-03
-1.245559e-03
-1.122038e-03
-9.902614e-04
-8.492762e-04
-6.978233e-04
-5.349321e-04
-3.602786e-04
-1.742287e-04
2.236732e-05
2.284799e-04
4.431665e-04
6.657249e-04
8.957313e-04
1.133007e-03
1.377561e-03
1.629527e-03
1.889099e-03
2.156457e-03
2.431664e-03
2.714579e-03
3.004790e-03
3.301610e-03
3.604138e-03
3.911367e-03
4.222312e-03
4.536103e-03
4.852032e-03
5.169390e-03
5.487189e-03
5.804952e-03
6.122136e-03