# vtk DataFile Version 3.0
Scalar Field
ASCII
DATASET RECTILINEAR_GRID
DIMENSIONS 102 102 1
X_COORDINATES 102 double
0.000000 0.100000 0.200000 0.300000 0.400000 0.500000 0.600000 0.700000 0.800000 0.900000 1.000000 1.100000 1.200000 1.300000 1.400000 1.500000 1.600000 1.700000 1.800000 1.900000 2.000000 2.100000 2.200000 2.300000 2.400000 2.500000 2.600000 2.700000 2.800000 2.900000 3.000000 3.100000 3.200000 3.300000 3.400000 3.500000 3.600000 3.700000 3.800000 3.900000 4.000000 4.100000 4.200000 4.300000 4.400000 4.500000 4.600000 4.700000 4.800000 4.900000 5.000000 5.100000 5.200000 5.300000 5.400000 5.500000 5.600000 5.700000 5.800000 5.900000 6.000000 6.100000 6.200000 6.300000 6.400000 6.500000 6.600000 6.700000 6.800000 6.900000 7.000000 7.100000 7.200000 7.300000 7.400000 7.500000 7.600000 7.700000 7.800000 7.900000 8.000000 8.100000 8.200000 8.300000 8.400000 8.500000 8.600000 8.700000 8.800000 8.900000 9.000000 9.100000 9.200000 9.300000 9.400000 9.500000 9.600000 9.700000 9.800000 9.900000 10.000000 10.100000 
Y_COORDINATES 102 double
0.000000 0.100000 0.200000 0.300000 0.400000 0.500000 0.600000 0.700000 0.800000 0.900000 1.000000 1.100000 1.200000 1.300000 1.400000 1.500000 1.600000 1.700000 1.800000 1.900000 2.000000 2.100000 2.200000 2.300000 2.400000 2.500000 2.600000 2.700000 2.800000 2.900000 3.000000 3.100000 3.200000 3.300000 3.400000 3.500000 3.600000 3.700000 3.800000 3.900000 4.000000 4.100000 4.200000 4.300000 4.400000 4.500000 4.600000 4.700000 4.800000 4.900000 5.000000 5.100000 5.200000 5.300000 5.400000 5.500000 5.600000 5.700000 5.800000 5.900000 6.000000 6.100000 6.200000 6.300000 6.400000 6.500000 6.600000 6.700000 6.800000 6.900000 7.000000 7.100000 7.200000 7.300000 7.400000 7.500000 7.600000 7.700000 7.800000 7.900000 8.000000 8.100000 8.200000 8.300000 8.400000 8.500000 8.600000 8.700000 8.800000 8.900000 9.000000 9.100000 9.200000 9.300000 9.400000 9.500000 9.600000 9.700000 9.800000 9.900000 10.000000 10.100000 
Z_COORDINATES 1 double
0.0
POINT_DATA 10404
SCALARS Pressure double 1
LOOKUP_TABLE default
0.000000e+00
1.290125e-02
1.265114e-02
1.242227e-02
1.230645e-02
1.230402e-02
1.235704e-02
1.238670e-02
1.233299e-02
1.217852e-02
1.194914e-02
1.169591e-02
1.147039e-02
1.130501e-02
1.120577e-02
1.115710e-02
1.113400e-02
1.111464e-02
1.108835e-02
1.105702e-02
1.103118e-02
1.102378e-02
1.104454e-02
1.109708e-02
1.117900e-02
1.128417e-02
1.140583e-02
1.153915e-02
1.168239e-02
1.183672e-02
1.200505e-02
1.219049e-02
1.239515e-02
1.261950e-02
1.286246e-02
1.312195e-02
1.339556e-02
1.368118e-02
1.397730e-02
1.428307e-02
1.459811e-02
1.492215e-02
1.525485e-02
1.559552e-02
1.594314e-02
1.629635e-02
1.665356e-02
1.701307e-02
1.737310e-02
1.773189e-02
1.808776e-02
1.843914e-02
1.878447e-02
1.912222e-02
1.945087e-02
1.976891e-02
2.007484e-02
2.036719e-02
2.064457e-02
2.090568e-02
2.114933e-02
2.137441e-02
2.157998e-02
2.176520e-02
2.192936e-02
2.207187e-02
2.219227e-02
2.229023e-02
2.236555e-02
2.241819e-02
2.244825e-02
2.245598e-02
2.244177e-02
2.240620e-02
2.234996e-02
2.227392e-02
2.217910e-02
2.206666e-02
2.193791e-02
2.179428e-02
2.163736e-02
2.146883e-02
2.129053e-02
2.110440e-02
2.091248e-02
2.071694e-02
2.052006e-02
2.032420e-02
2.013186e-02
1.994560e-02
1.976811e-02
1.960213e-02
1.945049e-02
1.931604e-02
1.920160e-02
1.910982e-02
1.904294e-02
1.900235e-02
1.898757e-02
1.899450e-02
1.901201e-02
0.000000e+00
1.290125e-02
1.272638e-02
1.251447e-02
1.237823e-02
1.236360e-02
1.242819e-02
1.249268e-02
1.248364e-02
1.236595e-02
1.215228e-02
1.189013e-02
1.163684e-02
1.143582e-02
1.130367e-02
1.123108e-02
1.119368e-02
1.116597e-02
1.113200e-02
1.108936e-02
1.104676e-02
1.101785e-02
1.101474e-02
1.104366e-02
1.110412e-02
1.119062e-02
1.129590e-02
1.141397e-02
1.154192e-02
1.168018e-02
1.183150e-02
1.199934e-02
1.218645e-02
1.239395e-02
1.262118e-02
1.286621e-02
1.312655e-02
1.339985e-02
1.368439e-02
1.397917e-02
1.428378e-02
1.459809e-02
1.492190e-02
1.525476e-02
1.559581e-02
1.594385e-02
1.629739e-02
1.665479e-02
1.701435e-02
1.737433e-02
1.773304e-02
1.808885e-02
1.844020e-02
1.878554e-02
1.912335e-02
1.945206e-02
1.977013e-02
2.007606e-02
2.036837e-02
2.064568e-02
2.090670e-02
2.115024e-02
2.137523e-02
2.158074e-02
2.176592e-02
2.193007e-02
2.207259e-02
2.219301e-02
2.229100e-02
2.236634e-02
2.241899e-02
2.244903e-02
2.245672e-02
2.244246e-02
2.240681e-02
2.235048e-02
2.227435e-02
2.217944e-02
2.206691e-02
2.193807e-02
2.179437e-02
2.163737e-02
2.146879e-02
2.129044e-02
2.110425e-02
2.091229e-02
2.071671e-02
2.051979e-02
2.032390e-02
2.013152e-02
1.994523e-02
1.976770e-02
1.960169e-02
1.945002e-02
1.931555e-02
1.920109e-02
1.910929e-02
1.904241e-02
1.900180e-02
1.898701e-02
1.899393e-02
1.901144e-02
1.901201e-02
1.265442e-02
1.251564e-02
1.244526e-02
1.248091e-02
1.257902e-02
1.266128e-02
1.266201e-02
1.255489e-02
1.235807e-02
1.211932e-02
1.189172e-02
1.171253e-02
1.159324e-02
1.152243e-02
1.147700e-02
1.143506e-02
1.138482e-02
1.132700e-02
1.127154e-02
1.123150e-02
1.121726e-02
1.123327e-02
1.127785e-02
1.134533e-02
1.142919e-02
1.152463e-02
1.162994e-02
1.174628e-02
1.187659e-02
1.202403e-02
1.219076e-02
1.237732e-02
1.258269e-02
1.280488e-02
1.304160e-02
1.329092e-02
1.355154e-02
1.382281e-02
1.410452e-02
1.439660e-02
1.469884e-02
1.501073e-02
1.533140e-02
1.565966e-02
1.599415e-02
1.633339e-02
1.667590e-02
1.702017e-02
1.736471e-02
1.770796e-02
1.804843e-02
1.838464e-02
1.871507e-02
1.903821e-02
1.935256e-02
1.965662e-02
1.994895e-02
2.022819e-02
2.049304e-02
2.074234e-02
2.097497e-02
2.118995e-02
2.138640e-02
2.156353e-02
2.172065e-02
2.185720e-02
2.197274e-02
2.206693e-02
2.213961e-02
2.219073e-02
2.222040e-02
2.222889e-02
2.221661e-02
2.218412e-02
2.213212e-02
2.206148e-02
2.197319e-02
2.186838e-02
2.174830e-02
2.161435e-02
2.146804e-02
2.131099e-02
2.114494e-02
2.097174e-02
2.079333e-02
2.061176e-02
2.042919e-02
2.024783e-02
2.007002e-02
1.989813e-02
1.973462e-02
1.958199e-02
1.944274e-02
1.931935e-02
1.921420e-02
1.912939e-02
1.906659e-02
1.902665e-02
1.900909e-02
1.901142e-02
1.902887e-02
1.902942e-02
1.249696e-02
1.245059e-02
1.254687e-02
1.269745e-02
1.281087e-02
1.282220e-02
1.271457e-02
1.251818e-02
1.228937e-02
1.208291e-02
1.193118e-02
1.183755e-02
1.178328e-02
1.174175e-02
1.169215e-02
1.162701e-02
1.155232e-02
1.148197e-02
1.143051e-02
1.140738e-02
1.141471e-02
1.144840e-02
1.150132e-02
1.156684e-02
1.164122e-02
1.172434e-02
1.181886e-02
1.192855e-02
1.205667e-02
1.220482e-02
1.237270e-02
1.255857e-02
1.276001e-02
1.297480e-02
1.320134e-02
1.343889e-02
1.368733e-02
1.394682e-02
1.421747e-02
1.449907e-02
1.479101e-02
1.509232e-02
1.540177e-02
1.571804e-02
1.603978e-02
1.636570e-02
1.669451e-02
1.702496e-02
1.735569e-02
1.768518e-02
1.801199e-02
1.833467e-02
1.865171e-02
1.896163e-02
1.926297e-02
1.955431e-02
1.983433e-02
2.010174e-02
2.035536e-02
2.059410e-02
2.081692e-02
2.102290e-02
2.121117e-02
2.138098e-02
2.153167e-02
2.166269e-02
2.177361e-02
2.186414e-02
2.193413e-02
2.198356e-02
2.201256e-02
2.202142e-02
2.201055e-02
2.198054e-02
2.193207e-02
2.186598e-02
2.178324e-02
2.168494e-02
2.157230e-02
2.144665e-02
2.130943e-02
2.116221e-02
2.100664e-02
2.084449e-02
2.067760e-02
2.050792e-02
2.033747e-02
2.016835e-02
2.000271e-02
1.984278e-02
1.969081e-02
1.954904e-02
1.941974e-02
1.930508e-02
1.920711e-02
1.912763e-02
1.906807e-02
1.902929e-02
1.901144e-02
1.901393e-02
1.903614e-02
1.903667e-02
1.252322e-02
1.258238e-02
1.277705e-02
1.293525e-02
1.297017e-02
1.286701e-02
1.266583e-02
1.243468e-02
1.223610e-02
1.210332e-02
1.203439e-02
1.200262e-02
1.197476e-02
1.192727e-02
1.185426e-02
1.176603e-02
1.168120e-02
1.161745e-02
1.158502e-02
1.158470e-02
1.161011e-02
1.165210e-02
1.170307e-02
1.175958e-02
1.182276e-02
1.189679e-02
1.198665e-02
1.209609e-02
1.222653e-02
1.237700e-02
1.254498e-02
1.272751e-02
1.292216e-02
1.312755e-02
1.334340e-02
1.357009e-02
1.380826e-02
1.405826e-02
1.431996e-02
1.459270e-02
1.487541e-02
1.516680e-02
1.546556e-02
1.577042e-02
1.608023e-02
1.639393e-02
1.671044e-02
1.702862e-02
1.734719e-02
1.766453e-02
1.797922e-02
1.828979e-02
1.859479e-02
1.889279e-02
1.918240e-02
1.946230e-02
1.973126e-02
1.998809e-02
2.023169e-02
2.046101e-02
2.067507e-02
2.087296e-02
2.105385e-02
2.121700e-02
2.136176e-02
2.148761e-02
2.159415e-02
2.168112e-02
2.174840e-02
2.179599e-02
2.182405e-02
2.183290e-02
2.182296e-02
2.179479e-02
2.174909e-02
2.168667e-02
2.160847e-02
2.151554e-02
2.140906e-02
2.129031e-02
2.116068e-02
2.102166e-02
2.087485e-02
2.072191e-02
2.056462e-02
2.040482e-02
2.024442e-02
2.008538e-02
1.992973e-02
1.977952e-02
1.963682e-02
1.950369e-02
1.938216e-02
1.927419e-02
1.918159e-02
1.910601e-02
1.904882e-02
1.901106e-02
1.899349e-02
1.899679e-02
1.902221e-02
1.902272e-02
1.272983e-02
1.286389e-02
1.305171e-02
1.312045e-02
1.303051e-02
1.282556e-02
1.258400e-02
1.237935e-02
1.225127e-02
1.219752e-02
1.218582e-02
1.217556e-02
1.213762e-02
1.206436e-02
1.196792e-02
1.187086e-02
1.179468e-02
1.175182e-02
1.174322e-02
1.176109e-02
1.179433e-02
1.183388e-02
1.187588e-02
1.192202e-02
1.197766e-02
1.204900e-02
1.214057e-02
1.225395e-02
1.238781e-02
1.253902e-02
1.270406e-02
1.288019e-02
1.306609e-02
1.326175e-02
1.346802e-02
1.368593e-02
1.391613e-02
1.415865e-02
1.441283e-02
1.467755e-02
1.495149e-02
1.523332e-02
1.552184e-02
1.581603e-02
1.611497e-02
1.641777e-02
1.672343e-02
1.703088e-02
1.733879e-02
1.764541e-02
1.794931e-02
1.824907e-02
1.854328e-02
1.883060e-02
1.910973e-02
1.937946e-02
1.963863e-02
1.988612e-02
2.012088e-02
2.034187e-02
2.054815e-02
2.073881e-02
2.091303e-02
2.107009e-02
2.120937e-02
2.133039e-02
2.143278e-02
2.151631e-02
2.158089e-02
2.162655e-02
2.165348e-02
2.166198e-02
2.165252e-02
2.162563e-02
2.158200e-02
2.152242e-02
2.144780e-02
2.135915e-02
2.125763e-02
2.114445e-02
2.102098e-02
2.088863e-02
2.074894e-02
2.060351e-02
2.045402e-02
2.030223e-02
2.014995e-02
1.999902e-02
1.985133e-02
1.970879e-02
1.957332e-02
1.944680e-02
1.933109e-02
1.922798e-02
1.913912e-02
1.906607e-02
1.901020e-02
1.897270e-02
1.895473e-02
1.895757e-02
1.898308e-02
1.898358e-02
1.305029e-02
1.320290e-02
1.329029e-02
1.321999e-02
1.301612e-02
1.276202e-02
1.254134e-02
1.240323e-02
1.235013e-02
1.234844e-02
1.235212e-02
1.232577e-02
1.225743e-02
1.215826e-02
1.205264e-02
1.196522e-02
1.191121e-02
1.189292e-02
1.190236e-02
1.192722e-02
1.195706e-02
1.198716e-02
1.201912e-02
1.205890e-02
1.211358e-02
1.218847e-02
1.228550e-02
1.240331e-02
1.253845e-02
1.268696e-02
1.284583e-02
1.301369e-02
1.319067e-02
1.337793e-02
1.357679e-02
1.378819e-02
1.401230e-02
1.424854e-02
1.449582e-02
1.475279e-02
1.501816e-02
1.529080e-02
1.556978e-02
1.585431e-02
1.614363e-02
1.643690e-02
1.673314e-02
1.703121e-02
1.732979e-02
1.762693e-02
1.792124e-02
1.821137e-02
1.849600e-02
1.877388e-02
1.904382e-02
1.930467e-02
1.955531e-02
1.979468e-02
2.002170e-02
2.023539e-02
2.043477e-02
2.061896e-02
2.078717e-02
2.093869e-02
2.107295e-02
2.118948e-02
2.128798e-02
2.136823e-02
2.143017e-02
2.147386e-02
2.149949e-02
2.150739e-02
2.149800e-02
2.147187e-02
2.142965e-02
2.137212e-02
2.130017e-02
2.121479e-02
2.111708e-02
2.100824e-02
2.088957e-02
2.076245e-02
2.062836e-02
2.048884e-02
2.034549e-02
2.019998e-02
2.005403e-02
1.990937e-02
1.976777e-02
1.963103e-02
1.950091e-02
1.937916e-02
1.926750e-02
1.916757e-02
1.908092e-02
1.900903e-02
1.895325e-02
1.891488e-02
1.889522e-02
1.889575e-02
1.891832e-02
1.891880e-02
1.338988e-02
1.350521e-02
1.344577e-02
1.324631e-02
1.298166e-02
1.274114e-02
1.258279e-02
1.251637e-02
1.251109e-02
1.251895e-02
1.249983e-02
1.243686e-02
1.233819e-02
1.222763e-02
1.213128e-02
1.206654e-02
1.203752e-02
1.203698e-02
1.205242e-02
1.207262e-02
1.209204e-02
1.211188e-02
1.213813e-02
1.217824e-02
1.223799e-02
1.231969e-02
1.242208e-02
1.254161e-02
1.267418e-02
1.281664e-02
1.296755e-02
1.312715e-02
1.329674e-02
1.347783e-02
1.367151e-02
1.387810e-02
1.409708e-02
1.432744e-02
1.456787e-02
1.481716e-02
1.507427e-02
1.533836e-02
1.560877e-02
1.588483e-02
1.616582e-02
1.645086e-02
1.673891e-02
1.702880e-02
1.731916e-02
1.760792e-02
1.789378e-02
1.817545e-02
1.845174e-02
1.872148e-02
1.898353e-02
1.923678e-02
1.948013e-02
1.971250e-02
1.993284e-02
2.014013e-02
2.033344e-02
2.051188e-02
2.067470e-02
2.082122e-02
2.095091e-02
2.106336e-02
2.115826e-02
2.123544e-02
2.129486e-02
2.133660e-02
2.136082e-02
2.136787e-02
2.135820e-02
2.133233e-02
2.129092e-02
2.123471e-02
2.116458e-02
2.108150e-02
2.098654e-02
2.088088e-02
2.076577e-02
2.064255e-02
2.051266e-02
2.037755e-02
2.023879e-02
2.009795e-02
1.995667e-02
1.981658e-02
1.967936e-02
1.954668e-02
1.942019e-02
1.930152e-02
1.919226e-02
1.909395e-02
1.900804e-02
1.893593e-02
1.887895e-02
1.883839e-02
1.881558e-02
1.881194e-02
1.882909e-02
1.882955e-02
1.366603e-02
1.371091e-02
1.351617e-02
1.324245e-02
1.298271e-02
1.280029e-02
1.271172e-02
1.269103e-02
1.269147e-02
1.267091e-02
1.260889e-02
1.251011e-02
1.239636e-02
1.229336e-02
1.221932e-02
1.217962e-02
1.216807e-02
1.217266e-02
1.218216e-02
1.219075e-02
1.219927e-02
1.221352e-02
1.224089e-02
1.228719e-02
1.235484e-02
1.244266e-02
1.254714e-02
1.266420e-02
1.279076e-02
1.292546e-02
1.306864e-02
1.322167e-02
1.338616e-02
1.356324e-02
1.375324e-02
1.395572e-02
1.416972e-02
1.439405e-02
1.462760e-02
1.486945e-02
1.511891e-02
1.537540e-02
1.563837e-02
1.590718e-02
1.618102e-02
1.645893e-02
1.673982e-02
1.702250e-02
1.730567e-02
1.758713e-02
1.786567e-02
1.814012e-02
1.840936e-02
1.867225e-02
1.892770e-02
1.917458e-02
1.941179e-02
1.963822e-02
1.985282e-02
2.005459e-02
2.024259e-02
2.041598e-02
2.057404e-02
2.071614e-02
2.084178e-02
2.095057e-02
2.104223e-02
2.111662e-02
2.117368e-02
2.121350e-02
2.123624e-02
2.124224e-02
2.123195e-02
2.120589e-02
2.116471e-02
2.110915e-02
2.104005e-02
2.095839e-02
2.086521e-02
2.076165e-02
2.064895e-02
2.052841e-02
2.040139e-02
2.026934e-02
2.013373e-02
1.999607e-02
1.985792e-02
1.972084e-02
1.958640e-02
1.945618e-02
1.933172e-02
1.921456e-02
1.910618e-02
1.900801e-02
1.892144e-02
1.884778e-02
1.878829e-02
1.874422e-02
1.871682e-02
1.870738e-02
1.871723e-02
1.871767e-02
1.383738e-02
1.381061e-02
1.353561e-02
1.325741e-02
1.305147e-02
1.293817e-02
1.289569e-02
1.287981e-02
1.284871e-02
1.278045e-02
1.267746e-02
1.255939e-02
1.245059e-02
1.236874e-02
1.231939e-02
1.229691e-02
1.228987e-02
1.228754e-02
1.228437e-02
1.228130e-02
1.228402e-02
1.229975e-02
1.233403e-02
1.238900e-02
1.246335e-02
1.255355e-02
1.265563e-02
1.276671e-02
1.288567e-02
1.301306e-02
1.315036e-02
1.329919e-02
1.346064e-02
1.363499e-02
1.382176e-02
1.402004e-02
1.422873e-02
1.444688e-02
1.467373e-02
1.490874e-02
1.515146e-02
1.540144e-02
1.565810e-02
1.592070e-02
1.618836e-02
1.646003e-02
1.673463e-02
1.701101e-02
1.728799e-02
1.756326e-02
1.783570e-02
1.810420e-02
1.836769e-02
1.862503e-02
1.887511e-02
1.911677e-02
1.934888e-02
1.957034e-02
1.978009e-02
1.997714e-02
2.016061e-02
2.032968e-02
2.048366e-02
2.062197e-02
2.074412e-02
2.084975e-02
2.093858e-02
2.101047e-02
2.106536e-02
2.110332e-02
2.112452e-02
2.112928e-02
2.111808e-02
2.109144e-02
2.104998e-02
2.099444e-02
2.092568e-02
2.084463e-02
2.075234e-02
2.064991e-02
2.053856e-02
2.041956e-02
2.029423e-02
2.016395e-02
2.003015e-02
1.989430e-02
1.975785e-02
1.962232e-02
1.948919e-02
1.935994e-02
1.923604e-02
1.911893e-02
1.901000e-02
1.891060e-02
1.882203e-02
1.874553e-02
1.868228e-02
1.863345e-02
1.860018e-02
1.858357e-02
1.858472e-02
1.858514e-02
1.391135e-02
1.383862e-02
1.355255e-02
1.332380e-02
1.318692e-02
1.312178e-02
1.308580e-02
1.303808e-02
1.295679e-02
1.284380e-02
1.271778e-02
1.260185e-02
1.251262e-02
1.245480e-02
1.242238e-02
1.240404e-02
1.238947e-02
1.237372e-02
1.235829e-02
1.234917e-02
1.235352e-02
1.237657e-02
1.242000e-02
1.248203e-02
1.255895e-02
1.264680e-02
1.274295e-02
1.284662e-02
1.295866e-02
1.308079e-02
1.321464e-02
1.336125e-02
1.352075e-02
1.369259e-02
1.387580e-02
1.406939e-02
1.427252e-02
1.448463e-02
1.470535e-02
1.493440e-02
1.517143e-02
1.541592e-02
1.566721e-02
1.592445e-02
1.618667e-02
1.645284e-02
1.672194e-02
1.699294e-02
1.726480e-02
1.753506e-02
1.780266e-02
1.806652e-02
1.832553e-02
1.857854e-02
1.882437e-02
1.906186e-02
1.928985e-02
1.950724e-02
1.971301e-02
1.990618e-02
2.008592e-02
2.025145e-02
2.040210e-02
2.053730e-02
2.065658e-02
2.075957e-02
2.084600e-02
2.091570e-02
2.096862e-02
2.100481e-02
2.102445e-02
2.102783e-02
2.101547e-02
2.098789e-02
2.094570e-02
2.088966e-02
2.082060e-02
2.073945e-02
2.064724e-02
2.054507e-02
2.043411e-02
2.031560e-02
2.019084e-02
2.006117e-02
1.992796e-02
1.979261e-02
1.965656e-02
1.952122e-02
1.938802e-02
1.925836e-02
1.913365e-02
1.901523e-02
1.890442e-02
1.880249e-02
1.871067e-02
1.863011e-02
1.856193e-02
1.850719e-02
1.846692e-02
1.844206e-02
1.843350e-02
1.843390e-02
1.393094e-02
1.384996e-02
1.360645e-02
1.344678e-02
1.336070e-02
1.330510e-02
1.323887e-02
1.314044e-02
1.301227e-02
1.287348e-02
1.274715e-02
1.264917e-02
1.258313e-02
1.254185e-02
1.251328e-02
1.248702e-02
1.245860e-02
1.243025e-02
1.240864e-02
1.240127e-02
1.241324e-02
1.244576e-02
1.249646e-02
1.256112e-02
1.263569e-02
1.271766e-02
1.280660e-02
1.290376e-02
1.301114e-02
1.313051e-02
1.326284e-02
1.340815e-02
1.356571e-02
1.373449e-02
1.391350e-02
1.410204e-02
1.429972e-02
1.450635e-02
1.472181e-02
1.494589e-02
1.517816e-02
1.541800e-02
1.566462e-02
1.591710e-02
1.617450e-02
1.643588e-02
1.670032e-02
1.696694e-02
1.723481e-02
1.750132e-02
1.776537e-02
1.802583e-02
1.828155e-02
1.853132e-02
1.877394e-02
1.900822e-02
1.923301e-02
1.944724e-02
1.964991e-02
1.984010e-02
2.001699e-02
2.017981e-02
2.032792e-02
2.046074e-02
2.057779e-02
2.067869e-02
2.076316e-02
2.083101e-02
2.088218e-02
2.091673e-02
2.093481e-02
2.093672e-02
2.092302e-02
2.089421e-02
2.085094e-02
2.079393e-02
2.072403e-02
2.064215e-02
2.054930e-02
2.044658e-02
2.033513e-02
2.021617e-02
2.009096e-02
1.996081e-02
1.982704e-02
1.969103e-02
1.955413e-02
1.941773e-02
1.928318e-02
1.915184e-02
1.902502e-02
1.890402e-02
1.879008e-02
1.868440e-02
1.858815e-02
1.850240e-02
1.842820e-02
1.836653e-02
1.831829e-02
1.828432e-02
1.826531e-02
1.826570e-02
1.394986e-02
1.389366e-02
1.371297e-02
1.360651e-02
1.353302e-02
1.344921e-02
1.333251e-02
1.318587e-02
1.302979e-02
1.288866e-02
1.277879e-02
1.270309e-02
1.265306e-02
1.261524e-02
1.257835e-02
1.253786e-02
1.249659e-02
1.246204e-02
1.244237e-02
1.244291e-02
1.246459e-02
1.250450e-02
1.255781e-02
1.262004e-02
1.268873e-02
1.276369e-02
1.284654e-02
1.293961e-02
1.304489e-02
1.316337e-02
1.329496e-02
1.343878e-02
1.359367e-02
1.375864e-02
1.393303e-02
1.411661e-02
1.430938e-02
1.451137e-02
1.472250e-02
1.494246e-02
1.517069e-02
1.540644e-02
1.564886e-02
1.589709e-02
1.615028e-02
1.640763e-02
1.666837e-02
1.693170e-02
1.719676e-02
1.746079e-02
1.772249e-02
1.798070e-02
1.823419e-02
1.848172e-02
1.872208e-02
1.895408e-02
1.917661e-02
1.938864e-02
1.958917e-02
1.977734e-02
1.995230e-02
2.011332e-02
2.025971e-02
2.039091e-02
2.050639e-02
2.060576e-02
2.068872e-02
2.075508e-02
2.080476e-02
2.083781e-02
2.085441e-02
2.085484e-02
2.083967e-02
2.080944e-02
2.076479e-02
2.070644e-02
2.063522e-02
2.055206e-02
2.045795e-02
2.035396e-02
2.024122e-02
2.012094e-02
1.999434e-02
1.986271e-02
1.972734e-02
1.958955e-02
1.945067e-02
1.931203e-02
1.917495e-02
1.904071e-02
1.891059e-02
1.878581e-02
1.866757e-02
1.855700e-02
1.845521e-02
1.836322e-02
1.828201e-02
1.821247e-02
1.815545e-02
1.811165e-02
1.808167e-02
1.808204e-02
1.400852e-02
1.399387e-02
1.386164e-02
1.377017e-02
1.366985e-02
1.353529e-02
1.336869e-02
1.319186e-02
1.303132e-02
1.290509e-02
1.281649e-02
1.275611e-02
1.270888e-02
1.266205e-02
1.261031e-02
1.255654e-02
1.250894e-02
1.247647e-02
1.246497e-02
1.247544e-02
1.250458e-02
1.254700e-02
1.259773e-02
1.265399e-02
1.271579e-02
1.278501e-02
1.286432e-02
1.295594e-02
1.306093e-02
1.317917e-02
1.330964e-02
1.345109e-02
1.360245e-02
1.376312e-02
1.393296e-02
1.411212e-02
1.430079e-02
1.449901e-02
1.470658e-02
1.492302e-02
1.514763e-02
1.537964e-02
1.561827e-02
1.586276e-02
1.611244e-02
1.636665e-02
1.662473e-02
1.688592e-02
1.714934e-02
1.741203e-02
1.767248e-02
1.792944e-02
1.818166e-02
1.842789e-02
1.866693e-02
1.889762e-02
1.911890e-02
1.932974e-02
1.952918e-02
1.971633e-02
1.989036e-02
2.005048e-02
2.019602e-02
2.032634e-02
2.044092e-02
2.053935e-02
2.062129e-02
2.068654e-02
2.073505e-02
2.076683e-02
2.078208e-02
2.078109e-02
2.076442e-02
2.073264e-02
2.068638e-02
2.062639e-02
2.055348e-02
2.046856e-02
2.037262e-02
2.026672e-02
2.015199e-02
2.002960e-02
1.990076e-02
1.976672e-02
1.962877e-02
1.948819e-02
1.934628e-02
1.920432e-02
1.906358e-02
1.892532e-02
1.879076e-02
1.866108e-02
1.853743e-02
1.842090e-02
1.831253e-02
1.821332e-02
1.812418e-02
1.804596e-02
1.797941e-02
1.792520e-02
1.788384e-02
1.788420e-02
1.412006e-02
1.414459e-02
1.402445e-02
1.390658e-02
1.375408e-02
1.356675e-02
1.336665e-02
1.318251e-02
1.303488e-02
1.292865e-02
1.285444e-02
1.279591e-02
1.273860e-02
1.267582e-02
1.260989e-02
1.254928e-02
1.250361e-02
1.247943e-02
1.247802e-02
1.249597e-02
1.252746e-02
1.256705e-02
1.261160e-02
1.266095e-02
1.271725e-02
1.278339e-02
1.286181e-02
1.295368e-02
1.305888e-02
1.317632e-02
1.330465e-02
1.344277e-02
1.359007e-02
1.374650e-02
1.391231e-02
1.408784e-02
1.427322e-02
1.446835e-02
1.467283e-02
1.488603e-02
1.510726e-02
1.533581e-02
1.557107e-02
1.581247e-02
1.605949e-02
1.631157e-02
1.656806e-02
1.682819e-02
1.709100e-02
1.735337e-02
1.761351e-02
1.787014e-02
1.812200e-02
1.836786e-02
1.860657e-02
1.883700e-02
1.905810e-02
1.926885e-02
1.946829e-02
1.965548e-02
1.982957e-02
1.998975e-02
2.013527e-02
2.026550e-02
2.037988e-02
2.047796e-02
2.055941e-02
2.062403e-02
2.067173e-02
2.070256e-02
2.071668e-02
2.071440e-02
2.069626e-02
2.066289e-02
2.061490e-02
2.055304e-02
2.047812e-02
2.039105e-02
2.029281e-02
2.018444e-02
2.006707e-02
1.994185e-02
1.980999e-02
1.967272e-02
1.953130e-02
1.938699e-02
1.924105e-02
1.909474e-02
1.894931e-02
1.880597e-02
1.866590e-02
1.853026e-02
1.840016e-02
1.827665e-02
1.816074e-02
1.805338e-02
1.795546e-02
1.786778e-02
1.779107e-02
1.772594e-02
1.767287e-02
1.767322e-02
1.427009e-02
1.431735e-02
1.416936e-02
1.399690e-02
1.378751e-02
1.356205e-02
1.335068e-02
1.317670e-02
1.304743e-02
1.295448e-02
1.288099e-02
1.281097e-02
1.273610e-02
1.265763e-02
1.258373e-02
1.252444e-02
1.248686e-02
1.247274e-02
1.247874e-02
1.249882e-02
1.252713e-02
1.256021e-02
1.259766e-02
1.264157e-02
1.269508e-02
1.276075e-02
1.283989e-02
1.293234e-02
1.303701e-02
1.315248e-02
1.327761e-02
1.341182e-02
1.355511e-02
1.370782e-02
1.387037e-02
1.404300e-02
1.422566e-02
1.441803e-02
1.461956e-02
1.482964e-02
1.504766e-02
1.527313e-02
1.550561e-02
1.574471e-02
1.599000e-02
1.624094e-02
1.649684e-02
1.675682e-02
1.701990e-02
1.728282e-02
1.754349e-02
1.780066e-02
1.805309e-02
1.829961e-02
1.853906e-02
1.877035e-02
1.899243e-02
1.920424e-02
1.940478e-02
1.959309e-02
1.976825e-02
1.992941e-02
2.007580e-02
2.020674e-02
2.032164e-02
2.042006e-02
2.050163e-02
2.056614e-02
2.061351e-02
2.064376e-02
2.065706e-02
2.065371e-02
2.063423e-02
2.059929e-02
2.054952e-02
2.048565e-02
2.040849e-02
2.031894e-02
2.021799e-02
2.010667e-02
1.998610e-02
1.985743e-02
1.972185e-02
1.958058e-02
1.943486e-02
1.928594e-02
1.913506e-02
1.898346e-02
1.883235e-02
1.868293e-02
1.853636e-02
1.839376e-02
1.825621e-02
1.812476e-02
1.800038e-02
1.788400e-02
1.777650e-02
1.767865e-02
1.759116e-02
1.751464e-02
1.744956e-02
1.744990e-02
1.442715e-02
1.447587e-02
1.427244e-02
1.403819e-02
1.378500e-02
1.354328e-02
1.333862e-02
1.318103e-02
1.306389e-02
1.297059e-02
1.288414e-02
1.279467e-02
1.270210e-02
1.261394e-02
1.254017e-02
1.248832e-02
1.246051e-02
1.245360e-02
1.246145e-02
1.247793e-02
1.249928e-02
1.252490e-02
1.255676e-02
1.259796e-02
1.265126e-02
1.271798e-02
1.279797e-02
1.289009e-02
1.299290e-02
1.310523e-02
1.322654e-02
1.335688e-02
1.349666e-02
1.364637e-02
1.380631e-02
1.397649e-02
1.415663e-02
1.434625e-02
1.454482e-02
1.475185e-02
1.496696e-02
1.518987e-02
1.542032e-02
1.565800e-02
1.590248e-02
1.615316e-02
1.640925e-02
1.666983e-02
1.693385e-02
1.719811e-02
1.746016e-02
1.771879e-02
1.797280e-02
1.822105e-02
1.846240e-02
1.869575e-02
1.891997e-02
1.913400e-02
1.933677e-02
1.952726e-02
1.970451e-02
1.986763e-02
2.001579e-02
2.014829e-02
2.026453e-02
2.036402e-02
2.044640e-02
2.051143e-02
2.055902e-02
2.058917e-02
2.060205e-02
2.059794e-02
2.057732e-02
2.054094e-02
2.048942e-02
2.042347e-02
2.034391e-02
2.025165e-02
2.014766e-02
2.003299e-02
1.990874e-02
1.977605e-02
1.963613e-02
1.949017e-02
1.933940e-02
1.918507e-02
1.902840e-02
1.887061e-02
1.871291e-02
1.855647e-02
1.840244e-02
1.825192e-02
1.810600e-02
1.796568e-02
1.783195e-02
1.770572e-02
1.758786e-02
1.747915e-02
1.738030e-02
1.729193e-02
1.721453e-02
1.721487e-02
1.455738e-02
1.459049e-02
1.432411e-02
1.403997e-02
1.376492e-02
1.352597e-02
1.333560e-02
1.318923e-02
1.307108e-02
1.296370e-02
1.285600e-02
1.274664e-02
1.264224e-02
1.255253e-02
1.248513e-02
1.244246e-02
1.242152e-02
1.241611e-02
1.241991e-02
1.242890e-02
1.244231e-02
1.246203e-02
1.249106e-02
1.253212e-02
1.258661e-02
1.265434e-02
1.273410e-02
1.282439e-02
1.292406e-02
1.303259e-02
1.315009e-02
1.327705e-02
1.341400e-02
1.356129e-02
1.371896e-02
1.388675e-02
1.406424e-02
1.425096e-02
1.444655e-02
1.465075e-02
1.486343e-02
1.508447e-02
1.531369e-02
1.555076e-02
1.579518e-02
1.604625e-02
1.630312e-02
1.656486e-02
1.683045e-02
1.709682e-02
1.736113e-02
1.762222e-02
1.787891e-02
1.813006e-02
1.837451e-02
1.861109e-02
1.883866e-02
1.905607e-02
1.926219e-02
1.945595e-02
1.963633e-02
1.980240e-02
1.995330e-02
2.008830e-02
2.020676e-02
2.030817e-02
2.039214e-02
2.045841e-02
2.050686e-02
2.053749e-02
2.055044e-02
2.054597e-02
2.052452e-02
2.048690e-02
2.043373e-02
2.036573e-02
2.028372e-02
2.018859e-02
2.008132e-02
1.996297e-02
1.983463e-02
1.969746e-02
1.955263e-02
1.940136e-02
1.924486e-02
1.908438e-02
1.892113e-02
1.875633e-02
1.859117e-02
1.842683e-02
1.826444e-02
1.810511e-02
1.794990e-02
1.779983e-02
1.765589e-02
1.751899e-02
1.739001e-02
1.726975e-02
1.715895e-02
1.705826e-02
1.696821e-02
1.696854e-02
1.463686e-02
1.464687e-02
1.432859e-02
1.401688e-02
1.374047e-02
1.351379e-02
1.333415e-02
1.318678e-02
1.305411e-02
1.292420e-02
1.279462e-02
1.267122e-02
1.256334e-02
1.247864e-02
1.241963e-02
1.238338e-02
1.236358e-02
1.235369e-02
1.234947e-02
1.234998e-02
1.235705e-02
1.237367e-02
1.240245e-02
1.244470e-02
1.250024e-02
1.256775e-02
1.264563e-02
1.273272e-02
1.282853e-02
1.293323e-02
1.304739e-02
1.317160e-02
1.330622e-02
1.345131e-02
1.360662e-02
1.377175e-02
1.394632e-02
1.413003e-02
1.432279e-02
1.452459e-02
1.473546e-02
1.495535e-02
1.518404e-02
1.542113e-02
1.566600e-02
1.591789e-02
1.617598e-02
1.643935e-02
1.670709e-02
1.697642e-02
1.724397e-02
1.750858e-02
1.776910e-02
1.802433e-02
1.827307e-02
1.851410e-02
1.874619e-02
1.896812e-02
1.917872e-02
1.937686e-02
1.956147e-02
1.973156e-02
1.988625e-02
2.002476e-02
2.014642e-02
2.025069e-02
2.033714e-02
2.040548e-02
2.045556e-02
2.048734e-02
2.050095e-02
2.049663e-02
2.047476e-02
2.043619e-02
2.038158e-02
2.031165e-02
2.022720e-02
2.012914e-02
2.001845e-02
1.989618e-02
1.976344e-02
1.962137e-02
1.947116e-02
1.931403e-02
1.915119e-02
1.898388e-02
1.881333e-02
1.864075e-02
1.846733e-02
1.829424e-02
1.812264e-02
1.795362e-02
1.778825e-02
1.762757e-02
1.747257e-02
1.732419e-02
1.718334e-02
1.705084e-02
1.692748e-02
1.681395e-02
1.671086e-02
1.671118e-02
1.465742e-02
1.464701e-02
1.429830e-02
1.398119e-02
1.371512e-02
1.349906e-02
1.331912e-02
1.315765e-02
1.300194e-02
1.284869e-02
1.270310e-02
1.257431e-02
1.246999e-02
1.239279e-02
1.233974e-02
1.230432e-02
1.227968e-02
1.226130e-02
1.224807e-02
1.224175e-02
1.224537e-02
1.226153e-02
1.229140e-02
1.233464e-02
1.238986e-02
1.245538e-02
1.252993e-02
1.261305e-02
1.270496e-02
1.280629e-02
1.291769e-02
1.303957e-02
1.317197e-02
1.331463e-02
1.346719e-02
1.362927e-02
1.380071e-02
1.398150e-02
1.417178e-02
1.437173e-02
1.458142e-02
1.480075e-02
1.502940e-02
1.526685e-02
1.551245e-02
1.576545e-02
1.602508e-02
1.629057e-02
1.656112e-02
1.683432e-02
1.710612e-02
1.737537e-02
1.764086e-02
1.790135e-02
1.815556e-02
1.840220e-02
1.863997e-02
1.886759e-02
1.908383e-02
1.928750e-02
1.947749e-02
1.965276e-02
1.981238e-02
1.995552e-02
2.008148e-02
2.018965e-02
2.027958e-02
2.035093e-02
2.040350e-02
2.043723e-02
2.045220e-02
2.044863e-02
2.042688e-02
2.038777e-02
2.033203e-02
2.026038e-02
2.017363e-02
2.007268e-02
1.995851e-02
1.983218e-02
1.969479e-02
1.954751e-02
1.939153e-02
1.922806e-02
1.905834e-02
1.888361e-02
1.870509e-02
1.852401e-02
1.834157e-02
1.815895e-02
1.797731e-02
1.779775e-02
1.762137e-02
1.744923e-02
1.728233e-02
1.712166e-02
1.696815e-02
1.682270e-02
1.668612e-02
1.655920e-02
1.644261e-02
1.644292e-02
1.462526e-02
1.460401e-02
1.424669e-02
1.393804e-02
1.368270e-02
1.346751e-02
1.327454e-02
1.309022e-02
1.291029e-02
1.273944e-02
1.258674e-02
1.246013e-02
1.236248e-02
1.229083e-02
1.223840e-02
1.219791e-02
1.216441e-02
1.213656e-02
1.211603e-02
1.210588e-02
1.210879e-02
1.212589e-02
1.215662e-02
1.219941e-02
1.225249e-02
1.231449e-02
1.238490e-02
1.246399e-02
1.255243e-02
1.265094e-02
1.275995e-02
1.287950e-02
1.300933e-02
1.314905e-02
1.329835e-02
1.345710e-02
1.362542e-02
1.380358e-02
1.399187e-02
1.419050e-02
1.439947e-02
1.461857e-02
1.484736e-02
1.508530e-02
1.533174e-02
1.558607e-02
1.584761e-02
1.611574e-02
1.638977e-02
1.666778e-02
1.694487e-02
1.721985e-02
1.749143e-02
1.775831e-02
1.801914e-02
1.827254e-02
1.851715e-02
1.875165e-02
1.897473e-02
1.918516e-02
1.938176e-02
1.956344e-02
1.972923e-02
1.987824e-02
2.000970e-02
2.012296e-02
2.021749e-02
2.029290e-02
2.034895e-02
2.038553e-02
2.040269e-02
2.040061e-02
2.037964e-02
2.034051e-02
2.028408e-02
2.021105e-02
2.012223e-02
2.001853e-02
1.990093e-02
1.977048e-02
1.962832e-02
1.947560e-02
1.931353e-02
1.914334e-02
1.896627e-02
1.878357e-02
1.859649e-02
1.840625e-02
1.821408e-02
1.802117e-02
1.782868e-02
1.763777e-02
1.744954e-02
1.726508e-02
1.708544e-02
1.691166e-02
1.674471e-02
1.658554e-02
1.643506e-02
1.629411e-02
1.616347e-02
1.616378e-02
1.455471e-02
1.453405e-02
1.418226e-02
1.388442e-02
1.363123e-02
1.340439e-02