# vtk DataFile Version 3.0
Scalar Field
ASCII
DATASET RECTILINEAR_GRID
DIMENSIONS 102 102 1
X_COORDINATES 102 double
0.000000 0.100000 0.200000 0.300000 0.400000 0.500000 0.600000 0.700000 0.800000 0.900000 1.000000 1.100000 1.200000 1.300000 1.400000 1.500000 1.600000 1.700000 1.800000 1.900000 2.000000 2.100000 2.200000 2.300000 2.400000 2.500000 2.600000 2.700000 2.800000 2.900000 3.000000 3.100000 3.200000 3.300000 3.400000 3.500000 3.600000 3.700000 3.800000 3.900000 4.000000 4.100000 4.200000 4.300000 4.400000 4.500000 4.600000 4.700000 4.800000 4.900000 5.000000 5.100000 5.200000 5.300000 5.400000 5.500000 5.600000 5.700000 5.800000 5.900000 6.000000 6.100000 6.200000 6.300000 6.400000 6.500000 6.600000 6.700000 6.800000 6.900000 7.000000 7.100000 7.200000 7.300000 7.400000 7.500000 7.600000 7.700000 7.800000 7.900000 8.000000 8.100000 8.200000 8.300000 8.400000 8.500000 8.600000 8.700000 8.800000 8.900000 9.000000 9.100000 9.200000 9.300000 9.400000 9.500000 9.600000 9.700000 9.800000 9.900000 10.000000 10.100000 
Y_COORDINATES 102 double
0.000000 0.100000 0.200000 0.300000 0.400000 0.500000 0.600000 0.700000 0.800000 0.900000 1.000000 1.100000 1.200000 1.300000 1.400000 1.500000 1.600000 1.700000 1.800000 1.900000 2.000000 2.100000 2.200000 2.300000 2.400000 2.500000 2.600000 2.700000 2.800000 2.900000 3.000000 3.100000 3.200000 3.300000 3.400000 3.500000 3.600000 3.700000 3.800000 3.900000 4.000000 4.100000 4.200000 4.300000 4.400000 4.500000 4.600000 4.700000 4.800000 4.900000 5.000000 5.100000 5.200000 5.300000 5.400000 5.500000 5.600000 5.700000 5.800000 5.900000 6.000000 6.100000 6.200000 6.300000 6.400000 6.500000 6.600000 6.700000 6.800000 6.900000 7.000000 7.100000 7.200000 7.300000 7.400000 7.500000 7.600000 7.700000 7.800000 7.900000 8.000000 8.100000 8.200000 8.300000 8.400000 8.500000 8.600000 8.700000 8.800000 8.900000 9.000000 9.100000 9.200000 9.300000 9.400000 9.500000 9.600000 9.700000 9.800000 9.900000 10.000000 10.100000 
Z_COORDINATES 1 double
0.0
POINT_DATA 10404
SCALARS Pressure double 1
LOOKUP_TABLE default
0.000000e+00
1.113246e-02
1.128924e-02
1.143662e-02
1.149723e-02
1.142857e-02
1.123135e-02
1.094865e-02
1.064660e-02
1.038784e-02
1.021052e-02
1.012024e-02
1.009515e-02
1.009939e-02
1.009831e-02
1.006989e-02
1.000966e-02
9.928763e-03
9.847277e-03
9.785911e-03
9.759101e-03
9.771765e-03
9.820179e-03
9.895871e-03
9.990344e-03
1.009852e-02
1.021968e-02
1.035607e-02
1.051031e-02
1.068313e-02
1.087260e-02
1.107495e-02
1.128651e-02
1.150553e-02
1.173316e-02
1.197298e-02
1.222944e-02
1.250588e-02
1.280304e-02
1.311865e-02
1.344812e-02
1.378614e-02
1.412821e-02
1.447181e-02
1.481652e-02
1.516336e-02
1.551372e-02
1.586830e-02
1.622649e-02
1.658631e-02
1.694501e-02
1.729970e-02
1.764791e-02
1.798791e-02
1.831864e-02
1.863950e-02
1.894986e-02
1.924883e-02
1.953505e-02
1.980679e-02
2.006216e-02
2.029939e-02
2.051710e-02
2.071440e-02
2.089085e-02
2.104639e-02
2.118107e-02
2.129490e-02
2.138779e-02
2.145952e-02
2.150984e-02
2.153860e-02
2.154588e-02
2.153201e-02
2.149760e-02
2.144351e-02
2.137076e-02
2.128050e-02
2.117395e-02
2.105240e-02
2.091725e-02
2.076998e-02
2.061222e-02
2.044576e-02
2.027252e-02
2.009456e-02
1.991405e-02
1.973328e-02
1.955461e-02
1.938050e-02
1.921350e-02
1.905623e-02
1.891140e-02
1.878179e-02
1.867019e-02
1.857930e-02
1.851153e-02
1.846853e-02
1.845039e-02
1.845381e-02
1.846896e-02
0.000000e+00
1.113246e-02
1.123993e-02
1.141478e-02
1.153419e-02
1.152864e-02
1.138116e-02
1.112227e-02
1.081556e-02
1.053116e-02
1.032027e-02
1.020112e-02
1.015942e-02
1.016020e-02
1.016424e-02
1.014235e-02
1.008338e-02
9.994516e-03
9.895412e-03
9.809355e-03
9.754953e-03
9.741184e-03
9.766950e-03
9.824386e-03
9.903885e-03
9.998415e-03
1.010548e-02
1.022642e-02
1.036399e-02
1.051974e-02
1.069271e-02
1.087965e-02
1.107683e-02
1.128196e-02
1.149554e-02
1.172077e-02
1.196224e-02
1.222390e-02
1.250733e-02
1.281094e-02
1.313052e-02
1.346058e-02
1.379616e-02
1.413414e-02
1.447367e-02
1.481567e-02
1.516175e-02
1.551305e-02
1.586945e-02
1.622939e-02
1.659019e-02
1.694887e-02
1.730279e-02
1.764998e-02
1.798926e-02
1.831992e-02
1.864136e-02
1.895273e-02
1.925273e-02
1.953961e-02
1.981142e-02
2.006624e-02
2.030252e-02
2.051916e-02
2.071560e-02
2.089161e-02
2.104718e-02
2.118226e-02
2.129669e-02
2.139014e-02
2.146225e-02
2.151271e-02
2.154139e-02
2.154844e-02
2.153431e-02
2.149967e-02
2.144543e-02
2.137260e-02
2.128229e-02
2.117569e-02
2.105406e-02
2.091878e-02
2.077135e-02
2.061343e-02
2.044684e-02
2.027350e-02
2.009548e-02
1.991497e-02
1.973422e-02
1.955559e-02
1.938151e-02
1.921453e-02
1.905725e-02
1.891241e-02
1.878276e-02
1.867113e-02
1.858020e-02
1.851239e-02
1.846937e-02
1.845120e-02
1.845462e-02
1.846976e-02
1.846896e-02
1.129591e-02
1.142174e-02
1.155117e-02
1.156801e-02
1.145320e-02
1.123655e-02
1.097699e-02
1.073756e-02
1.056239e-02
1.046507e-02
1.043039e-02
1.042600e-02
1.041744e-02
1.038074e-02
1.030884e-02
1.021100e-02
1.010678e-02
1.001767e-02
9.959714e-03
9.939543e-03
9.954700e-03
9.997269e-03
1.005866e-02
1.013332e-02
1.022003e-02
1.032074e-02
1.043808e-02
1.057313e-02
1.072451e-02
1.088901e-02
1.106344e-02
1.124631e-02
1.143884e-02
1.164445e-02
1.186733e-02
1.211055e-02
1.237468e-02
1.265743e-02
1.295443e-02
1.326074e-02
1.357239e-02
1.388737e-02
1.420568e-02
1.452861e-02
1.485760e-02
1.519330e-02
1.553500e-02
1.588078e-02
1.622800e-02
1.657392e-02
1.691636e-02
1.725386e-02
1.758554e-02
1.791079e-02
1.822887e-02
1.853868e-02
1.883866e-02
1.912693e-02
1.940157e-02
1.966081e-02
1.990330e-02
2.012812e-02
2.033477e-02
2.052296e-02
2.069248e-02
2.084305e-02
2.097425e-02
2.108558e-02
2.117652e-02
2.124669e-02
2.129594e-02
2.132435e-02
2.133230e-02
2.132035e-02
2.128922e-02
2.123973e-02
2.117280e-02
2.108941e-02
2.099067e-02
2.087778e-02
2.075209e-02
2.061511e-02
2.046846e-02
2.031389e-02
2.015327e-02
1.998853e-02
1.982170e-02
1.965489e-02
1.949026e-02
1.933007e-02
1.917665e-02
1.903240e-02
1.889975e-02
1.878114e-02
1.867898e-02
1.859544e-02
1.853236e-02
1.849085e-02
1.847084e-02
1.847044e-02
1.848563e-02
1.848482e-02
1.152122e-02
1.162096e-02
1.164144e-02
1.153324e-02
1.133197e-02
1.109982e-02
1.089767e-02
1.076290e-02
1.070050e-02
1.068821e-02
1.069054e-02
1.067440e-02
1.062070e-02
1.052870e-02
1.041335e-02
1.029755e-02
1.020319e-02
1.014411e-02
1.012330e-02
1.013484e-02
1.016872e-02
1.021614e-02
1.027291e-02
1.033977e-02
1.042032e-02
1.051786e-02
1.063326e-02
1.076443e-02
1.090775e-02
1.106021e-02
1.122117e-02
1.139288e-02
1.157950e-02
1.178521e-02
1.201226e-02
1.225989e-02
1.252453e-02
1.280113e-02
1.308492e-02
1.337294e-02
1.366461e-02
1.396127e-02
1.426498e-02
1.457724e-02
1.489814e-02
1.522615e-02
1.555868e-02
1.589283e-02
1.622617e-02
1.655693e-02
1.688429e-02
1.720787e-02
1.752722e-02
1.784150e-02
1.814925e-02
1.844858e-02
1.873737e-02
1.901367e-02
1.927589e-02
1.952294e-02
1.975417e-02
1.996924e-02
2.016784e-02
2.034961e-02
2.051397e-02
2.066023e-02
2.078762e-02
2.089548e-02
2.098334e-02
2.105103e-02
2.109863e-02
2.112647e-02
2.113504e-02
2.112491e-02
2.109674e-02
2.105122e-02
2.098918e-02
2.091153e-02
2.081933e-02
2.071380e-02
2.059629e-02
2.046828e-02
2.033135e-02
2.018716e-02
2.003746e-02
1.988404e-02
1.972880e-02
1.957367e-02
1.942069e-02
1.927195e-02
1.912962e-02
1.899590e-02
1.887298e-02
1.876305e-02
1.866818e-02
1.859024e-02
1.853080e-02
1.849090e-02
1.847096e-02
1.847075e-02
1.848998e-02
1.848916e-02
1.173176e-02
1.176805e-02
1.166041e-02
1.145571e-02
1.122774e-02
1.104143e-02
1.093307e-02
1.090180e-02
1.091724e-02
1.093686e-02
1.092413e-02
1.086090e-02
1.075099e-02
1.061545e-02
1.048266e-02
1.037757e-02
1.031397e-02
1.029226e-02
1.030277e-02
1.033219e-02
1.037010e-02
1.041256e-02
1.046189e-02
1.052352e-02
1.060204e-02
1.069863e-02
1.081080e-02
1.093441e-02
1.106635e-02
1.120651e-02
1.135808e-02
1.152607e-02
1.171495e-02
1.192645e-02
1.215870e-02
1.240684e-02
1.266491e-02
1.292805e-02
1.319400e-02
1.346344e-02
1.373904e-02
1.402377e-02
1.431938e-02
1.462554e-02
1.494003e-02
1.525956e-02
1.558092e-02
1.590183e-02
1.622118e-02
1.653853e-02
1.685393e-02
1.716714e-02
1.747720e-02
1.778236e-02
1.808037e-02
1.836892e-02
1.864599e-02
1.891018e-02
1.916066e-02
1.939706e-02
1.961917e-02
1.982673e-02
2.001919e-02
2.019577e-02
2.035547e-02
2.049728e-02
2.062039e-02
2.072424e-02
2.080863e-02
2.087364e-02
2.091956e-02
2.094680e-02
2.095583e-02
2.094714e-02
2.092129e-02
2.087889e-02
2.082072e-02
2.074769e-02
2.066088e-02
2.056152e-02
2.045093e-02
2.033055e-02
2.020185e-02
2.006639e-02
1.992579e-02
1.978174e-02
1.963599e-02
1.949039e-02
1.934686e-02
1.920736e-02
1.907390e-02
1.894852e-02
1.883322e-02
1.872994e-02
1.864053e-02
1.856668e-02
1.850982e-02
1.847111e-02
1.845148e-02
1.845174e-02
1.847325e-02
1.847242e-02
1.187384e-02
1.183236e-02
1.162442e-02
1.138373e-02
1.119235e-02
1.109099e-02
1.107806e-02
1.111758e-02
1.115902e-02
1.115891e-02
1.109574e-02
1.097442e-02
1.082056e-02
1.066847e-02
1.054798e-02
1.047510e-02
1.044948e-02
1.045849e-02
1.048536e-02
1.051705e-02
1.054874e-02
1.058345e-02
1.062816e-02
1.068889e-02
1.076755e-02
1.086171e-02
1.096690e-02
1.107981e-02
1.120060e-02
1.133313e-02
1.148313e-02
1.165542e-02
1.185148e-02
1.206863e-02
1.230097e-02
1.254175e-02
1.278586e-02
1.303153e-02
1.328040e-02
1.353619e-02
1.380265e-02
1.408180e-02
1.437311e-02
1.467382e-02
1.498018e-02
1.528876e-02
1.559742e-02
1.590547e-02
1.621320e-02
1.652070e-02
1.682778e-02
1.713335e-02
1.743541e-02
1.773145e-02
1.801902e-02
1.829613e-02
1.856155e-02
1.881470e-02
1.905542e-02
1.928362e-02
1.949901e-02
1.970092e-02
1.988835e-02
2.006005e-02
2.021485e-02
2.035176e-02
2.047018e-02
2.056984e-02
2.065081e-02
2.071332e-02
2.075771e-02
2.078435e-02
2.079360e-02
2.078586e-02
2.076163e-02
2.072152e-02
2.066632e-02
2.059699e-02
2.051459e-02
2.042034e-02
2.031548e-02
2.020137e-02
2.007939e-02
1.995098e-02
1.981768e-02
1.968109e-02
1.954289e-02
1.940485e-02
1.926879e-02
1.913656e-02
1.901003e-02
1.889107e-02
1.878151e-02
1.868309e-02
1.859750e-02
1.852628e-02
1.847083e-02
1.843241e-02
1.841223e-02
1.841160e-02
1.843234e-02
1.843150e-02
1.193028e-02
1.182418e-02
1.157501e-02
1.136414e-02
1.125194e-02
1.124088e-02
1.129384e-02
1.135446e-02
1.137137e-02
1.131664e-02
1.119247e-02
1.102612e-02
1.085649e-02
1.071873e-02
1.063268e-02
1.059911e-02
1.060398e-02
1.062771e-02
1.065454e-02
1.067804e-02
1.070106e-02
1.073141e-02
1.077624e-02
1.083830e-02
1.091548e-02
1.100330e-02
1.109843e-02
1.120124e-02
1.131603e-02
1.144903e-02
1.160526e-02
1.178602e-02
1.198800e-02
1.220462e-02
1.242859e-02
1.265473e-02
1.288167e-02
1.311173e-02
1.334935e-02
1.359875e-02
1.386204e-02
1.413850e-02
1.442507e-02
1.471780e-02
1.501330e-02
1.530969e-02
1.560666e-02
1.590484e-02
1.620486e-02
1.650606e-02
1.680706e-02
1.710562e-02
1.739907e-02
1.768496e-02
1.796145e-02
1.822751e-02
1.848281e-02
1.872732e-02
1.896101e-02
1.918348e-02
1.939390e-02
1.959106e-02
1.977356e-02
1.994007e-02
2.008954e-02
2.022130e-02
2.033506e-02
2.043082e-02
2.050877e-02
2.056913e-02
2.061215e-02
2.063807e-02
2.064718e-02
2.063986e-02
2.061662e-02
2.057810e-02
2.052515e-02
2.045870e-02
2.037982e-02
2.028961e-02
2.018927e-02
2.008003e-02
1.996322e-02
1.984022e-02
1.971250e-02
1.958164e-02
1.944926e-02
1.931704e-02
1.918671e-02
1.906001e-02
1.893866e-02
1.882438e-02
1.871883e-02
1.862362e-02
1.854029e-02
1.847028e-02
1.841495e-02
1.837561e-02
1.835356e-02
1.835021e-02
1.836733e-02
1.836649e-02
1.192311e-02
1.178594e-02
1.155971e-02
1.142479e-02
1.140097e-02
1.145408e-02
1.152559e-02
1.155799e-02
1.151600e-02
1.139648e-02
1.122513e-02
1.104305e-02
1.088968e-02
1.078906e-02
1.074440e-02
1.074183e-02
1.076016e-02
1.078154e-02
1.079787e-02
1.081134e-02
1.082990e-02
1.086125e-02
1.090864e-02
1.097025e-02
1.104178e-02
1.112014e-02
1.120608e-02
1.130435e-02
1.142149e-02
1.156253e-02
1.172842e-02
1.191532e-02
1.211611e-02
1.232331e-02
1.253195e-02
1.274116e-02
1.295389e-02
1.317498e-02
1.340876e-02
1.365716e-02
1.391911e-02
1.419136e-02
1.447000e-02
1.475196e-02
1.503584e-02
1.532178e-02
1.561066e-02
1.590308e-02
1.619864e-02
1.649513e-02
1.678992e-02
1.708029e-02
1.736388e-02
1.763914e-02
1.790537e-02
1.816245e-02
1.841046e-02
1.864928e-02
1.887836e-02
1.909664e-02
1.930270e-02
1.949502e-02
1.967218e-02
1.983314e-02
1.997721e-02
2.010410e-02
2.021376e-02
2.030625e-02
2.038169e-02
2.044018e-02
2.048183e-02
2.050680e-02
2.051540e-02
2.050803e-02
2.048526e-02
2.044779e-02
2.039644e-02
2.033211e-02
2.025578e-02
2.016851e-02
2.007141e-02
1.996566e-02
1.985255e-02
1.973345e-02
1.960982e-02
1.948317e-02
1.935508e-02
1.922715e-02
1.910099e-02
1.897821e-02
1.886042e-02
1.874919e-02
1.864604e-02
1.855248e-02
1.846992e-02
1.839973e-02
1.834321e-02
1.830163e-02
1.827627e-02
1.826847e-02
1.827971e-02
1.827887e-02
1.189923e-02
1.177146e-02
1.161361e-02
1.156724e-02
1.160856e-02
1.168028e-02
1.172165e-02
1.169137e-02
1.158018e-02
1.141002e-02
1.122163e-02
1.105684e-02
1.094311e-02
1.088639e-02
1.087395e-02
1.088427e-02
1.089833e-02
1.090698e-02
1.091174e-02
1.092040e-02
1.094063e-02
1.097567e-02
1.102364e-02
1.108030e-02
1.114293e-02
1.121290e-02
1.129557e-02
1.139786e-02
1.152470e-02
1.167651e-02
1.184876e-02
1.203384e-02
1.222427e-02
1.241554e-02
1.260756e-02
1.280392e-02
1.300978e-02
1.322930e-02
1.346388e-02
1.371195e-02
1.397001e-02
1.423433e-02
1.450238e-02
1.477346e-02
1.504827e-02
1.532790e-02
1.561283e-02
1.590226e-02
1.619417e-02
1.648504e-02
1.677194e-02
1.705276e-02
1.732634e-02
1.759236e-02
1.785095e-02
1.810227e-02
1.834604e-02
1.858144e-02
1.880713e-02
1.902149e-02
1.922287e-02
1.940986e-02
1.958145e-02
1.973702e-02
1.987628e-02
1.999913e-02
2.010551e-02
2.019539e-02
2.026871e-02
2.032543e-02
2.036559e-02
2.038937e-02
2.039714e-02
2.038938e-02
2.036669e-02
2.032975e-02
2.027934e-02
2.021630e-02
2.014155e-02
2.005609e-02
1.996100e-02
1.985746e-02
1.974677e-02
1.963028e-02
1.950943e-02
1.938567e-02
1.926051e-02
1.913545e-02
1.901199e-02
1.889163e-02
1.877586e-02
1.866613e-02
1.856388e-02
1.847049e-02
1.838731e-02
1.831561e-02
1.825662e-02
1.821154e-02
1.818154e-02
1.816778e-02
1.817148e-02
1.817064e-02
1.190917e-02
1.182453e-02
1.174855e-02
1.176953e-02
1.183127e-02
1.187252e-02
1.184821e-02
1.174392e-02
1.157726e-02
1.138694e-02
1.121523e-02
1.109154e-02
1.102394e-02
1.100099e-02
1.100149e-02
1.100619e-02
1.100562e-02
1.100120e-02
1.100065e-02
1.101144e-02
1.103630e-02
1.107281e-02
1.111642e-02
1.116461e-02
1.121950e-02
1.128733e-02
1.137555e-02
1.148907e-02
1.162768e-02
1.178602e-02
1.195588e-02
1.212978e-02
1.230386e-02
1.247895e-02
1.265950e-02
1.285096e-02
1.305720e-02
1.327893e-02
1.351385e-02
1.375811e-02
1.400817e-02
1.426220e-02
1.452031e-02
1.478383e-02
1.505412e-02
1.533147e-02
1.561459e-02
1.590097e-02
1.618753e-02
1.647070e-02
1.674842e-02
1.702001e-02
1.728558e-02
1.754554e-02
1.780004e-02
1.804862e-02
1.829014e-02
1.852293e-02
1.874514e-02
1.895503e-02
1.915124e-02
1.933285e-02
1.949933e-02
1.965042e-02
1.978596e-02
1.990578e-02
2.000966e-02
2.009738e-02
2.016874e-02
2.022367e-02
2.026222e-02
2.028465e-02
2.029140e-02
2.028299e-02
2.025999e-02
2.022304e-02
2.017287e-02
2.011027e-02
2.003612e-02
1.995142e-02
1.985727e-02
1.975488e-02
1.964553e-02
1.953055e-02
1.941133e-02
1.928926e-02
1.916575e-02
1.904220e-02
1.892002e-02
1.880063e-02
1.868541e-02
1.857574e-02
1.847298e-02
1.837842e-02
1.829332e-02
1.821888e-02
1.815624e-02
1.810648e-02
1.807066e-02
1.804976e-02
1.804472e-02
1.804388e-02
1.198848e-02
1.196454e-02
1.195137e-02
1.199505e-02
1.202683e-02
1.199994e-02
1.189658e-02
1.173080e-02
1.153895e-02
1.136260e-02
1.123173e-02
1.115538e-02
1.112278e-02
1.111300e-02
1.110691e-02
1.109539e-02
1.108041e-02
1.107013e-02
1.107200e-02
1.108811e-02
1.111504e-02
1.114749e-02
1.118282e-02
1.122371e-02
1.127743e-02
1.135220e-02
1.145308e-02
1.157929e-02
1.172456e-02
1.187995e-02
1.203790e-02
1.219517e-02
1.235366e-02
1.251874e-02
1.269627e-02
1.288982e-02
1.309932e-02
1.332168e-02
1.355260e-02
1.378874e-02
1.402891e-02
1.427409e-02
1.452628e-02
1.478710e-02
1.505660e-02
1.533303e-02
1.561337e-02
1.589428e-02
1.617314e-02
1.644756e-02
1.671702e-02
1.698207e-02
1.724334e-02
1.750097e-02
1.775424e-02
1.800167e-02
1.824127e-02
1.847097e-02
1.868898e-02
1.889401e-02
1.908524e-02
1.926227e-02
1.942485e-02
1.957278e-02
1.970576e-02
1.982340e-02
1.992528e-02
2.001106e-02
2.008052e-02
2.013364e-02
2.017057e-02
2.019160e-02
2.019720e-02
2.018787e-02
2.016415e-02
2.012662e-02
2.007597e-02
2.001299e-02
1.993860e-02
1.985380e-02
1.975974e-02
1.965762e-02
1.954868e-02
1.943422e-02
1.931555e-02
1.919399e-02
1.907087e-02
1.894751e-02
1.882526e-02
1.870546e-02
1.858945e-02
1.847853e-02
1.837397e-02
1.827700e-02
1.818880e-02
1.811048e-02
1.804309e-02
1.798761e-02
1.794495e-02
1.791597e-02
1.790138e-02
1.790054e-02
1.214742e-02
1.218218e-02
1.218973e-02
1.220400e-02
1.216543e-02
1.205432e-02
1.188257e-02
1.168495e-02
1.150231e-02
1.136454e-02
1.128065e-02
1.123960e-02
1.122002e-02
1.120266e-02
1.117887e-02
1.115164e-02
1.113022e-02
1.112250e-02
1.113011e-02
1.114854e-02
1.117134e-02
1.119532e-02
1.122346e-02
1.126387e-02
1.132576e-02
1.141452e-02
1.152896e-02
1.166191e-02
1.180367e-02
1.194644e-02
1.208755e-02
1.222992e-02
1.237989e-02
1.254379e-02
1.272494e-02
1.292252e-02
1.313265e-02
1.335061e-02
1.357320e-02
1.379987e-02
1.403239e-02
1.427339e-02
1.452465e-02
1.478599e-02
1.505520e-02
1.532881e-02
1.560335e-02
1.587635e-02
1.614686e-02
1.641414e-02
1.667870e-02
1.694134e-02
1.720208e-02
1.745993e-02
1.771305e-02
1.795914e-02
1.819600e-02
1.842182e-02
1.863539e-02
1.883605e-02
1.902348e-02
1.919744e-02
1.935766e-02
1.950370e-02
1.963499e-02
1.975096e-02
1.985109e-02
1.993505e-02
2.000273e-02
2.005416e-02
2.008955e-02
2.010918e-02
2.011350e-02
2.010297e-02
2.007808e-02
2.003941e-02
1.998766e-02
1.992367e-02
1.984837e-02
1.976282e-02
1.966814e-02
1.956551e-02
1.945613e-02
1.934122e-02
1.922203e-02
1.909983e-02
1.897587e-02
1.885145e-02
1.872787e-02
1.860642e-02
1.848838e-02
1.837499e-02
1.826746e-02
1.816695e-02
1.807454e-02
1.799129e-02
1.791814e-02
1.785601e-02
1.780569e-02
1.776790e-02
1.774320e-02
1.774237e-02
1.236988e-02
1.244436e-02
1.242272e-02
1.236449e-02
1.223661e-02
1.204986e-02
1.183860e-02
1.164388e-02
1.149579e-02
1.140302e-02
1.135353e-02
1.132459e-02
1.129600e-02
1.125918e-02
1.121822e-02
1.118381e-02
1.116490e-02
1.116313e-02
1.117304e-02
1.118687e-02
1.120054e-02
1.121696e-02
1.124496e-02
1.129453e-02
1.137160e-02
1.147474e-02
1.159598e-02
1.172482e-02
1.185322e-02
1.197894e-02
1.210583e-02
1.224118e-02
1.239175e-02
1.256065e-02
1.274641e-02
1.294441e-02
1.314959e-02
1.335893e-02
1.357249e-02
1.379274e-02
1.402280e-02
1.426451e-02
1.451741e-02
1.477882e-02
1.504495e-02
1.531229e-02
1.557868e-02
1.584367e-02
1.610815e-02
1.637232e-02
1.663641e-02
1.690028e-02
1.716258e-02
1.742112e-02
1.767339e-02
1.791706e-02
1.815040e-02
1.837235e-02
1.858237e-02
1.878021e-02
1.896561e-02
1.913819e-02
1.929733e-02
1.944232e-02
1.957241e-02
1.968698e-02
1.978557e-02
1.986797e-02
1.993411e-02
1.998410e-02
2.001810e-02
2.003635e-02
2.003922e-02
2.002719e-02
2.000074e-02
1.996049e-02
1.990720e-02
1.984172e-02
1.976504e-02
1.967819e-02
1.958226e-02
1.947837e-02
1.936768e-02
1.925135e-02
1.913060e-02
1.900664e-02
1.888072e-02
1.875410e-02
1.862804e-02
1.850380e-02
1.838261e-02
1.826564e-02
1.815405e-02
1.804891e-02
1.795128e-02
1.786211e-02
1.778231e-02
1.771270e-02
1.765400e-02
1.760682e-02
1.757164e-02
1.757082e-02
1.262002e-02
1.270557e-02
1.261296e-02
1.246074e-02
1.225021e-02
1.201607e-02
1.180068e-02
1.163543e-02
1.152928e-02
1.146903e-02
1.142995e-02
1.138994e-02
1.133965e-02
1.128377e-02
1.123457e-02
1.120242e-02
1.118952e-02
1.118984e-02
1.119438e-02
1.119798e-02
1.120324e-02
1.121938e-02
1.125717e-02
1.132292e-02
1.141511e-02
1.152508e-02
1.164159e-02
1.175629e-02
1.186734e-02
1.197945e-02
1.210074e-02
1.223836e-02
1.239520e-02
1.256915e-02
1.275497e-02
1.294738e-02
1.314360e-02
1.334434e-02
1.355269e-02
1.377212e-02
1.400437e-02
1.424860e-02
1.450168e-02
1.475956e-02
1.501884e-02
1.527781e-02
1.553663e-02
1.579673e-02
1.605976e-02
1.632539e-02
1.659236e-02
1.685895e-02
1.712262e-02
1.738067e-02
1.763080e-02
1.787140e-02
1.810161e-02
1.832100e-02
1.852937e-02
1.872638e-02
1.891149e-02
1.908392e-02
1.924276e-02
1.938716e-02
1.951636e-02
1.962985e-02
1.972730e-02
1.980855e-02
1.987357e-02
1.992240e-02
1.995514e-02
1.997198e-02
1.997325e-02
1.995949e-02
1.993123e-02
1.988915e-02
1.983403e-02
1.976675e-02
1.968829e-02
1.959962e-02
1.950180e-02
1.939591e-02
1.928304e-02
1.916436e-02
1.904105e-02
1.891433e-02
1.878543e-02
1.865558e-02
1.852601e-02
1.839794e-02
1.827254e-02
1.815094e-02
1.803424e-02
1.792348e-02
1.781965e-02
1.772366e-02
1.763637e-02
1.755855e-02
1.749086e-02
1.743384e-02
1.738791e-02
1.738711e-02
1.285401e-02
1.292198e-02
1.273716e-02
1.249615e-02
1.223091e-02
1.198578e-02
1.179469e-02
1.166804e-02
1.159221e-02
1.154035e-02
1.148777e-02
1.142333e-02
1.135160e-02
1.128601e-02
1.123854e-02
1.121236e-02
1.120128e-02
1.119534e-02
1.118829e-02
1.118221e-02
1.118656e-02
1.121273e-02
1.126744e-02
1.134892e-02
1.144795e-02
1.155256e-02
1.165408e-02
1.175105e-02
1.184895e-02
1.195671e-02
1.208179e-02
1.222681e-02
1.238902e-02
1.256261e-02
1.274216e-02
1.292528e-02
1.311332e-02
1.331001e-02
1.351901e-02
1.374189e-02
1.397727e-02
1.422154e-02
1.447047e-02
1.472089e-02
1.497166e-02
1.522362e-02
1.547877e-02
1.573899e-02
1.600508e-02
1.627504e-02
1.654567e-02
1.681412e-02
1.707755e-02
1.733377e-02
1.758138e-02
1.781973e-02
1.804854e-02
1.826758e-02
1.847642e-02
1.867431e-02
1.886027e-02
1.903322e-02
1.919219e-02
1.933636e-02
1.946513e-02
1.957810e-02
1.967500e-02
1.975567e-02
1.981999e-02
1.986792e-02
1.989952e-02
1.991495e-02
1.991457e-02
1.989901e-02
1.986886e-02
1.982484e-02
1.976773e-02
1.969839e-02
1.961774e-02
1.952673e-02
1.942638e-02
1.931772e-02
1.920188e-02
1.908000e-02
1.895327e-02
1.882290e-02
1.869009e-02
1.855607e-02
1.842202e-02
1.828912e-02
1.815851e-02
1.803128e-02
1.790849e-02
1.779115e-02
1.768021e-02
1.757656e-02
1.748101e-02
1.739431e-02
1.731709e-02
1.724985e-02
1.719298e-02
1.719220e-02
1.303339e-02
1.306423e-02
1.279165e-02
1.248978e-02
1.220760e-02
1.198226e-02
1.182703e-02
1.172907e-02
1.166003e-02
1.159241e-02
1.151255e-02
1.142396e-02
1.134066e-02
1.127605e-02
1.123448e-02
1.120996e-02
1.119182e-02
1.117286e-02
1.115457e-02
1.114657e-02
1.116080e-02
1.120435e-02
1.127530e-02
1.136361e-02
1.145664e-02
1.154538e-02
1.162866e-02
1.171276e-02
1.180738e-02
1.192027e-02
1.205372e-02
1.220433e-02
1.236570e-02
1.253232e-02
1.270226e-02
1.287761e-02
1.306269e-02
1.326136e-02
1.347484e-02
1.370118e-02
1.393623e-02
1.417560e-02
1.441644e-02
1.465827e-02
1.490271e-02
1.515228e-02
1.540908e-02
1.567373e-02
1.594508e-02
1.621938e-02
1.649215e-02
1.676052e-02
1.702243e-02
1.727678e-02
1.752316e-02
1.776141e-02
1.799126e-02
1.821212e-02
1.842302e-02
1.862277e-02
1.881014e-02
1.898404e-02
1.914359e-02
1.928816e-02
1.941724e-02
1.953048e-02
1.962755e-02
1.970819e-02
1.977219e-02
1.981946e-02
1.985006e-02
1.986421e-02
1.986229e-02
1.984503e-02
1.981306e-02
1.976707e-02
1.970783e-02
1.963615e-02
1.955290e-02
1.945903e-02
1.935553e-02
1.924346e-02
1.912393e-02
1.899811e-02
1.886719e-02
1.873236e-02
1.859480e-02
1.845572e-02
1.831626e-02
1.817759e-02
1.804081e-02
1.790699e-02
1.777717e-02
1.765235e-02
1.753344e-02
1.742134e-02
1.731683e-02
1.722063e-02
1.713338e-02
1.705556e-02
1.698756e-02
1.698681e-02
1.313606e-02
1.312481e-02
1.279098e-02
1.246740e-02
1.220158e-02
1.201052e-02
1.188356e-02
1.179196e-02
1.170577e-02
1.160848e-02
1.150178e-02
1.139958e-02
1.131636e-02
1.125762e-02
1.121779e-02
1.118570e-02
1.115325e-02
1.112143e-02
1.109997e-02
1.110138e-02
1.113324e-02
1.119344e-02
1.127123e-02
1.135293e-02
1.142920e-02
1.149906e-02
1.156959e-02
1.165126e-02
1.175216e-02
1.187425e-02
1.201341e-02
1.216266e-02
1.231635e-02
1.247305e-02
1.263562e-02
1.280902e-02
1.299725e-02
1.320120e-02
1.341822e-02
1.364364e-02
1.387291e-02
1.410355e-02
1.433581e-02
1.457208e-02
1.481544e-02
1.506811e-02
1.533049e-02
1.560101e-02
1.587675e-02
1.615327e-02
1.642603e-02
1.669320e-02
1.695401e-02
1.720826e-02
1.745592e-02
1.769664e-02
1.792965e-02
1.815373e-02
1.836749e-02
1.856957e-02
1.875878e-02
1.893421e-02
1.909516e-02
1.924106e-02
1.937143e-02
1.948578e-02
1.958369e-02
1.966478e-02
1.972883e-02
1.977575e-02
1.980565e-02
1.981881e-02
1.981565e-02
1.979692e-02
1.976324e-02
1.971529e-02
1.965376e-02
1.957945e-02
1.949323e-02
1.939602e-02
1.928885e-02
1.917280e-02
1.904899e-02
1.891859e-02
1.878278e-02
1.864273e-02
1.849962e-02
1.835462e-02
1.820888e-02
1.806353e-02
1.791966e-02
1.777836e-02
1.764063e-02
1.750747e-02
1.737980e-02
1.725848e-02
1.714432e-02
1.703804e-02
1.694026e-02
1.685151e-02
1.677219e-02
1.677146e-02
1.316138e-02
1.311768e-02
1.276013e-02
1.245044e-02
1.221841e-02
1.205663e-02
1.193715e-02
1.182841e-02
1.171109e-02
1.158469e-02
1.146239e-02
1.135934e-02
1.128207e-02
1.122546e-02
1.117794e-02
1.113057e-02
1.108376e-02
1.104741e-02
1.103472e-02
1.105386e-02
1.110276e-02
1.116990e-02
1.124057e-02
1.130463e-02
1.136131e-02
1.141836e-02
1.148709e-02
1.157601e-02
1.168680e-02
1.181465e-02
1.195190e-02
1.209275e-02
1.223620e-02
1.238590e-02
1.254745e-02
1.272504e-02
1.291916e-02
1.312651e-02
1.334185e-02
1.356051e-02
1.378040e-02
1.400251e-02
1.423003e-02
1.446652e-02
1.471431e-02
1.497349e-02
1.524206e-02
1.551673e-02
1.579412e-02
1.607062e-02
1.634254e-02
1.660942e-02
1.687133e-02
1.712829e-02
1.737984e-02
1.762499e-02
1.786231e-02
1.809022e-02
1.830723e-02
1.851213e-02
1.870394e-02
1.888191e-02
1.904539e-02
1.919376e-02
1.932636e-02
1.944260e-02
1.954193e-02
1.962398e-02
1.968853e-02
1.973558e-02
1.976527e-02
1.977792e-02
1.977392e-02
1.975399e-02
1.971875e-02
1.966880e-02
1.960485e-02
1.952767e-02
1.943815e-02
1.933725e-02
1.922600e-02
1.910551e-02
1.897690e-02
1.884133e-02
1.869998e-02
1.855400e-02
1.840458e-02
1.825285e-02
1.809999e-02
1.794711e-02
1.779531e-02
1.764566e-02
1.749919e-02
1.735688e-02
1.721966e-02
1.708840e-02
1.696391e-02
1.684694e-02
1.673814e-02
1.663808e-02
1.654720e-02
1.654650e-02
1.312751e-02
1.307032e-02
1.272348e-02
1.244764e-02
1.224687e-02
1.209507e-02
1.195992e-02
1.181976e-02
1.167171e-02
1.152792e-02
1.140384e-02
1.130691e-02
1.123245e-02
1.116847e-02
1.110509e-02
1.104205e-02
1.098936e-02
1.096103e-02
1.096611e-02
1.100277e-02
1.105886e-02
1.111857e-02
1.117078e-02
1.121446e-02
1.125807e-02
1.131376e-02
1.139054e-02
1.148997e-02
1.160653e-02
1.173190e-02
1.186003e-02
1.199029e-02
1.212705e-02
1.227657e-02
1.244324e-02
1.262716e-02
1.282440e-02
1.302916e-02
1.323669e-02
1.344530e-02
1.365675e-02
1.387494e-02
1.410392e-02
1.434601e-02
1.460098e-02
1.486638e-02
1.513861e-02
1.541426e-02
1.569099e-02
1.596700e-02
1.623948e-02
1.650870e-02
1.677469e-02
1.703687e-02
1.729401e-02
1.754447e-02
1.778653e-02
1.801863e-02
1.823950e-02
1.844815e-02
1.864378e-02
1.882561e-02
1.899287e-02
1.914473e-02
1.928040e-02
1.939920e-02
1.950058e-02
1.958421e-02
1.964994e-02
1.969781e-02
1.972797e-02
1.974069e-02
1.973631e-02
1.971546e-02
1.967877e-02
1.962684e-02
1.956038e-02
1.948018e-02
1.938716e-02
1.928231e-02
1.916667e-02
1.904135e-02
1.890748e-02
1.876621e-02
1.861871e-02
1.846614e-02
1.830968e-02
1.815049e-02
1.798973e-02
1.782852e-02
1.766798e-02
1.750918e-02
1.735316e-02
1.720090e-02
1.705335e-02
1.691141e-02
1.677591e-02
1.664764e-02
1.652729e-02
1.641550e-02
1.631277e-02
1.631209e-02
1.306219e-02
1.301168e-02
1.269528e-02
1.245279e-02
1.226521e-02
1.210028e-02
1.193441e-02
1.176248e-02
1.159541e-02
1.144881e-02
1.133096e-02
1.123766e-02
1.115646e-02
1.107637e-02
1.099621e-02
1.092593e-02
1.088043e-02
1.086990e-02
1.089308e-02
1.093744e-02
1.098603e-02
1.102659e-02
1.105758e-02
1.108776e-02
1.113022e-02
1.119461e-02
1.128246e-02
1.138769e-02
1.150124e-02
1.161677e-02
1.173389e-02
1.185767e-02
1.199500e-02
1.215043e-02
1.232377e-02
1.251043e-02
1.270411e-02
1.289997e-02
1.309677e-02
1.329700e-02
1.350531e-02
1.372609e-02
1.396163e-02
1.421133e-02
1.447229e-02
1.474064e-02
1.501302e-02
1.528742e-02
1.556335e-02
1.584076e-02
1.611675e-02
1.639134e-02
1.666375e-02
1.693254e-02
1.719586e-02
1.745190e-02
1.769906e-02
1.793608e-02
1.816195e-02
1.837578e-02
1.857667e-02
1.876367e-02
1.893577e-02
1.909201e-02
1.923152e-02
1.935363e-02
1.945788e-02
1.954397e-02
1.961180e-02
1.966136e-02
1.969276e-02
1.970617e-02
1.970186e-02
1.968036e-02
1.964240e-02
1.958858e-02
1.951962e-02
1.943638e-02
1.933977e-02
1.923080e-02
1.911054e-02
1.898007e-02
1.884053e-02
1.869308e-02
1.853889e-02
1.837913e-02
1.821498e-02
1.804764e-02
1.787825e-02
1.770797e-02
1.753792e-02
1.736918e-02
1.720280e-02
1.703980e-02
1.688115e-02
1.672778e-02
1.658057e-02
1.644035e-02
1.630789e-02
1.618388e-02
1.606893e-02
1.606828e-02
1.299092e-02
1.296099e-02
1.267534e-02
1.244909e-02
1.225129e-02
1.205686e-02
1.185850e-02
1.166583e-02
1.149458e-02
1.135398e-02
1.124047e-02
1.114117e-02
1.104379e-02
1.094587e-02
1.085703e-02
1.079295e-02
1.076519e-02
1.077345e-02
1.080512e-02
1.084220e-02
1.087114e-02
1.088961e-02
1.090646e-02
1.093548e-02
1.098713e-02
1.106310e-02
1.115685e-02
1.125860e-02
1.136161e-02
1.146566e-02
1.157642e-02
1.170138e-02
1.184530e-02
1.200767e-02
1.218330e-02
1.236539e-02
1.254905e-02
1.273348e-02
1.292194e-02
1.311973e-02
1.333161e-02
1.355972e-02
1.380305e-02
1.405825e-02
1.432126e-02
1.458882e-02
1.485933e-02
1.513280e-02
1.541014e-02
1.569207e-02
1.597455e-02
1.625657e-02
1.653641e-02
1.681210e-02
1.708174e-02
1.734376e-02
1.759692e-02
1.784021e-02
1.807264e-02
1.829318e-02
1.850067e-02
1.869392e-02
1.887178e-02
1.903325e-02
1.917750e-02
1.930394e-02
1.941214e-02
1.950182e-02
1.957282e-02
1.962503e-02
1.965845e-02
1.967316e-02
1.966939e-02
1.964760e-02
1.960864e-02
1.955314e-02
1.948186e-02
1.939566e-02
1.929549e-02
1.918234e-02
1.905728e-02
1.892141e-02
1.877587e-02
1.862183e-02
1.846046e-02
1.829297e-02
1.812056e-02
1.794442e-02
1.776573e-02
1.758566e-02
1.740534e-02
1.722588e-02
1.704836e-02
1.687382e-02
1.670328e-02
1.653772e-02
1.637806e-02
1.622522e-02
1.608001e-02
1.594324e-02
1.581558e-02
1.581496e-02
1.292753e-02
1.292188e-02
1.265130e-02
1.241747e-02
1.219146e-02
1.196378e-02