# vtk DataFile Version 3.0
Scalar Field
ASCII
DATASET RECTILINEAR_GRID
DIMENSIONS 102 102 1
X_COORDINATES 102 double
0.000000 0.100000 0.200000 0.300000 0.400000 0.500000 0.600000 0.700000 0.800000 0.900000 1.000000 1.100000 1.200000 1.300000 1.400000 1.500000 1.600000 1.700000 1.800000 1.900000 2.000000 2.100000 2.200000 2.300000 2.400000 2.500000 2.600000 2.700000 2.800000 2.900000 3.000000 3.100000 3.200000 3.300000 3.400000 3.500000 3.600000 3.700000 3.800000 3.900000 4.000000 4.100000 4.200000 4.300000 4.400000 4.500000 4.600000 4.700000 4.800000 4.900000 5.000000 5.100000 5.200000 5.300000 5.400000 5.500000 5.600000 5.700000 5.800000 5.900000 6.000000 6.100000 6.200000 6.300000 6.400000 6.500000 6.600000 6.700000 6.800000 6.900000 7.000000 7.100000 7.200000 7.300000 7.400000 7.500000 7.600000 7.700000 7.800000 7.900000 8.000000 8.100000 8.200000 8.300000 8.400000 8.500000 8.600000 8.700000 8.800000 8.900000 9.000000 9.100000 9.200000 9.300000 9.400000 9.500000 9.600000 9.700000 9.800000 9.900000 10.000000 10.100000 
Y_COORDINATES 102 double
0.000000 0.100000 0.200000 0.300000 0.400000 0.500000 0.600000 0.700000 0.800000 0.900000 1.000000 1.100000 1.200000 1.300000 1.400000 1.500000 1.600000 1.700000 1.800000 1.900000 2.000000 2.100000 2.200000 2.300000 2.400000 2.500000 2.600000 2.700000 2.800000 2.900000 3.000000 3.100000 3.200000 3.300000 3.400000 3.500000 3.600000 3.700000 3.800000 3.900000 4.000000 4.100000 4.200000 4.300000 4.400000 4.500000 4.600000 4.700000 4.800000 4.900000 5.000000 5.100000 5.200000 5.300000 5.400000 5.500000 5.600000 5.700000 5.800000 5.900000 6.000000 6.100000 6.200000 6.300000 6.400000 6.500000 6.600000 6.700000 6.800000 6.900000 7.000000 7.100000 7.200000 7.300000 7.400000 7.500000 7.600000 7.700000 7.800000 7.900000 8.000000 8.100000 8.200000 8.300000 8.400000 8.500000 8.600000 8.700000 8.800000 8.900000 9.000000 9.100000 9.200000 9.300000 9.400000 9.500000 9.600000 9.700000 9.800000 9.900000 10.000000 10.100000 
Z_COORDINATES 1 double
0.0
POINT_DATA 10404
SCALARS Pressure double 1
LOOKUP_TABLE default
0.000000e+00
1.033084e-02
1.038602e-02
1.039550e-02
1.032647e-02
1.019637e-02
1.004842e-02
9.923937e-03
9.840065e-03
9.783666e-03
9.722395e-03
9.624964e-03
9.478965e-03
9.297547e-03
9.113088e-03
8.962607e-03
8.872777e-03
8.851171e-03
8.886360e-03
8.955142e-03
9.032620e-03
9.100727e-03
9.152555e-03
9.192105e-03
9.230812e-03
9.282825e-03
9.360704e-03
9.472527e-03
9.620665e-03
9.802091e-03
1.000986e-02
1.023531e-02
1.047041e-02
1.070973e-02
1.095143e-02
1.119717e-02
1.145093e-02
1.171732e-02
1.199982e-02
1.229976e-02
1.261604e-02
1.294573e-02
1.328510e-02
1.363068e-02
1.397995e-02
1.433154e-02
1.468495e-02
1.504007e-02
1.539665e-02
1.575391e-02
1.611058e-02
1.646494e-02
1.681511e-02
1.715915e-02
1.749530e-02
1.782197e-02
1.813775e-02
1.844136e-02
1.873160e-02
1.900734e-02
1.926751e-02
1.951112e-02
1.973727e-02
1.994518e-02
2.013415e-02
2.030358e-02
2.045294e-02
2.058179e-02
2.068976e-02
2.077658e-02
2.084211e-02
2.088638e-02
2.090959e-02
2.091212e-02
2.089453e-02
2.085757e-02
2.080212e-02
2.072918e-02
2.063987e-02
2.053542e-02
2.041715e-02
2.028647e-02
2.014493e-02
1.999416e-02
1.983594e-02
1.967215e-02
1.950481e-02
1.933605e-02
1.916812e-02
1.900338e-02
1.884433e-02
1.869355e-02
1.855372e-02
1.842762e-02
1.831806e-02
1.822779e-02
1.815935e-02
1.811461e-02
1.809405e-02
1.809503e-02
1.810863e-02
0.000000e+00
1.033084e-02
1.035172e-02
1.039837e-02
1.038613e-02
1.030234e-02
1.017729e-02
1.005287e-02
9.956986e-03
9.889975e-03
9.828176e-03
9.740322e-03
9.606602e-03
9.430224e-03
9.236562e-03
9.061817e-03
8.937837e-03
8.880438e-03
8.885691e-03
8.934336e-03
9.001050e-03
9.064063e-03
9.111553e-03
9.143386e-03
9.168827e-03
9.202000e-03
9.257048e-03
9.344385e-03
9.468689e-03
9.628677e-03
9.818326e-03
1.002903e-02
1.025211e-02
1.048098e-02
1.071257e-02
1.094748e-02
1.118917e-02
1.144229e-02
1.171094e-02
1.199731e-02
1.230121e-02
1.262031e-02
1.295111e-02
1.329000e-02
1.363410e-02
1.398165e-02
1.433190e-02
1.468469e-02
1.503990e-02
1.539705e-02
1.575507e-02
1.611239e-02
1.646719e-02
1.681750e-02
1.716147e-02
1.749740e-02
1.782379e-02
1.813929e-02
1.844264e-02
1.873265e-02
1.900821e-02
1.926827e-02
1.951184e-02
1.973804e-02
1.994607e-02
2.013523e-02
2.030488e-02
2.045444e-02
2.058342e-02
2.069144e-02
2.077820e-02
2.084360e-02
2.088768e-02
2.091068e-02
2.091302e-02
2.089531e-02
2.085828e-02
2.080281e-02
2.072991e-02
2.064067e-02
2.053629e-02
2.041808e-02
2.028744e-02
2.014591e-02
1.999514e-02
1.983689e-02
1.967307e-02
1.950569e-02
1.933689e-02
1.916892e-02
1.900416e-02
1.884509e-02
1.869429e-02
1.855445e-02
1.842835e-02
1.831879e-02
1.822852e-02
1.816007e-02
1.811534e-02
1.809478e-02
1.809576e-02
1.810936e-02
1.810863e-02
1.039548e-02
1.040858e-02
1.042166e-02
1.037237e-02
1.028389e-02
1.019415e-02
1.012672e-02
1.007948e-02
1.002925e-02
9.947888e-03
9.819681e-03
9.650869e-03
9.467344e-03
9.303157e-03
9.186452e-03
9.129521e-03
9.126620e-03
9.159049e-03
9.204079e-03
9.243489e-03
9.268724e-03
9.281699e-03
9.292150e-03
9.313296e-03
9.357535e-03
9.433330e-03
9.543735e-03
9.686512e-03
9.855487e-03
1.004266e-02
1.024052e-02
1.044387e-02
1.065091e-02
1.086311e-02
1.108413e-02
1.131822e-02
1.156867e-02
1.183676e-02
1.212159e-02
1.242059e-02
1.273044e-02
1.304810e-02
1.337139e-02
1.369915e-02
1.403102e-02
1.436697e-02
1.470680e-02
1.504990e-02
1.539511e-02
1.574078e-02
1.608507e-02
1.642617e-02
1.676238e-02
1.709215e-02
1.741409e-02
1.772691e-02
1.802937e-02
1.832030e-02
1.859858e-02
1.886311e-02
1.911292e-02
1.934706e-02
1.956469e-02
1.976503e-02
1.994735e-02
2.011099e-02
2.025536e-02
2.037997e-02
2.048446e-02
2.056864e-02
2.063245e-02
2.067604e-02
2.069971e-02
2.070394e-02
2.068931e-02
2.065655e-02
2.060646e-02
2.053997e-02
2.045812e-02
2.036201e-02
2.025290e-02
2.013215e-02
2.000123e-02
1.986173e-02
1.971537e-02
1.956397e-02
1.940945e-02
1.925383e-02
1.909925e-02
1.894790e-02
1.880207e-02
1.866412e-02
1.853646e-02
1.842153e-02
1.832170e-02
1.823924e-02
1.817607e-02
1.813353e-02
1.811185e-02
1.810959e-02
1.812330e-02
1.812256e-02
1.048556e-02
1.047688e-02
1.044464e-02
1.037681e-02
1.031169e-02
1.027095e-02
1.024739e-02
1.021321e-02
1.013896e-02
1.001166e-02
9.842734e-03
9.662729e-03
9.507371e-03
9.402673e-03
9.356147e-03
9.356945e-03
9.383215e-03
9.412205e-03
9.428558e-03
9.428131e-03
9.417130e-03
9.408126e-03
9.415138e-03
9.449500e-03
9.517405e-03
9.619272e-03
9.750603e-03
9.903867e-03
1.007085e-02
1.024489e-02
1.042246e-02
1.060372e-02
1.079180e-02
1.099134e-02
1.120666e-02
1.144028e-02
1.169227e-02
1.196053e-02
1.224169e-02
1.253230e-02
1.282975e-02
1.313266e-02
1.344074e-02
1.375428e-02
1.407355e-02
1.439836e-02
1.472787e-02
1.506068e-02
1.539505e-02
1.572905e-02
1.606089e-02
1.638904e-02
1.671215e-02
1.702897e-02
1.733831e-02
1.763899e-02
1.792985e-02
1.820976e-02
1.847761e-02
1.873239e-02
1.897313e-02
1.919894e-02
1.940894e-02
1.960232e-02
1.977833e-02
1.993628e-02
2.007561e-02
2.019587e-02
2.029680e-02
2.037830e-02
2.044042e-02
2.048338e-02
2.050752e-02
2.051332e-02
2.050132e-02
2.047217e-02
2.042662e-02
2.036553e-02
2.028986e-02
2.020069e-02
2.009922e-02
1.998679e-02
1.986482e-02
1.973487e-02
1.959858e-02
1.945770e-02
1.931406e-02
1.916955e-02
1.902618e-02
1.888598e-02
1.875106e-02
1.862357e-02
1.850567e-02
1.839951e-02
1.830717e-02
1.823057e-02
1.817136e-02
1.813076e-02
1.810941e-02
1.810734e-02
1.812455e-02
1.812381e-02
1.056271e-02
1.053769e-02
1.048000e-02
1.042626e-02
1.040227e-02
1.039847e-02
1.038172e-02
1.031798e-02
1.019329e-02
1.002215e-02
9.840224e-03
9.687452e-03
9.590807e-03
9.555100e-03
9.564563e-03
9.592579e-03
9.613847e-03
9.613544e-03
9.590642e-03
9.555626e-03
9.524946e-03
9.514934e-03
9.537265e-03
9.596760e-03
9.691438e-03
9.814216e-03
9.955509e-03
1.010609e-02
1.025949e-02
1.041346e-02
1.057000e-02
1.073416e-02
1.091198e-02
1.110826e-02
1.132513e-02
1.156163e-02
1.181442e-02
1.207918e-02
1.235207e-02
1.263071e-02
1.291437e-02
1.320358e-02
1.349930e-02
1.380221e-02
1.411221e-02
1.442830e-02
1.474886e-02
1.507199e-02
1.539580e-02
1.571848e-02
1.603852e-02
1.635475e-02
1.666607e-02
1.697142e-02
1.726968e-02
1.755971e-02
1.784039e-02
1.811062e-02
1.836935e-02
1.861558e-02
1.884836e-02
1.906674e-02
1.926983e-02
1.945677e-02
1.962679e-02
1.977926e-02
1.991366e-02
2.002968e-02
2.012715e-02
2.020607e-02
2.026657e-02
2.030889e-02
2.033336e-02
2.034040e-02
2.033050e-02
2.030424e-02
2.026232e-02
2.020555e-02
2.013486e-02
2.005132e-02
1.995611e-02
1.985053e-02
1.973600e-02
1.961400e-02
1.948611e-02
1.935400e-02
1.921939e-02
1.908407e-02
1.894989e-02
1.881877e-02
1.869263e-02
1.857344e-02
1.846315e-02
1.836368e-02
1.827689e-02
1.820450e-02
1.814802e-02
1.810874e-02
1.808768e-02
1.808581e-02
1.810457e-02
1.810383e-02
1.062741e-02
1.060530e-02
1.055426e-02
1.053404e-02
1.054077e-02
1.053797e-02
1.048609e-02
1.036705e-02
1.019493e-02
1.000869e-02
9.852964e-03
9.758063e-03
9.728968e-03
9.746928e-03
9.780774e-03
9.801241e-03
9.791771e-03
9.752319e-03
9.696420e-03
9.644308e-03
9.615487e-03
9.623276e-03
9.672367e-03
9.759202e-03
9.874374e-03
1.000603e-02
1.014339e-02
1.027954e-02
1.041288e-02
1.054692e-02
1.068847e-02
1.084503e-02
1.102222e-02
1.122212e-02
1.144305e-02
1.168069e-02
1.192984e-02
1.218618e-02
1.244737e-02
1.271310e-02
1.298454e-02
1.326324e-02
1.355026e-02
1.384565e-02
1.414837e-02
1.445668e-02
1.476854e-02
1.508204e-02
1.539556e-02
1.570758e-02
1.601691e-02
1.632258e-02
1.662362e-02
1.691902e-02
1.720767e-02
1.748848e-02
1.776035e-02
1.802223e-02
1.827307e-02
1.851185e-02
1.873757e-02
1.894924e-02
1.914592e-02
1.932676e-02
1.949106e-02
1.963826e-02
1.976799e-02
1.988005e-02
1.997436e-02
2.005097e-02
2.011000e-02
2.015167e-02
2.017627e-02
2.018413e-02
2.017571e-02
2.015154e-02
2.011231e-02
2.005880e-02
1.999197e-02
1.991287e-02
1.982266e-02
1.972264e-02
1.961415e-02
1.949863e-02
1.937759e-02
1.925261e-02
1.912530e-02
1.899737e-02
1.887054e-02
1.874657e-02
1.862727e-02
1.851441e-02
1.840981e-02
1.831518e-02
1.823223e-02
1.816252e-02
1.810749e-02
1.806849e-02
1.804675e-02
1.804363e-02
1.806094e-02
1.806019e-02
1.070630e-02
1.070690e-02
1.068193e-02
1.068699e-02
1.068977e-02
1.064655e-02
1.053407e-02
1.036314e-02
1.017303e-02
1.001156e-02
9.912931e-03
9.884435e-03
9.906847e-03
9.946119e-03
9.969191e-03
9.956531e-03
9.907097e-03
9.835600e-03
9.764944e-03
9.717682e-03
9.709478e-03
9.746001e-03
9.823199e-03
9.930075e-03
1.005279e-02
1.017887e-02
1.030053e-02
1.041631e-02
1.053066e-02
1.065179e-02
1.078849e-02
1.094717e-02
1.113010e-02
1.133521e-02
1.155753e-02
1.179124e-02
1.203165e-02
1.227640e-02
1.252545e-02
1.278035e-02
1.304305e-02
1.331487e-02
1.359599e-02
1.388543e-02
1.418140e-02
1.448185e-02
1.478490e-02
1.508898e-02
1.539290e-02
1.569541e-02
1.599541e-02
1.629203e-02
1.658430e-02
1.687120e-02
1.715168e-02
1.742466e-02
1.768907e-02
1.794383e-02
1.818787e-02
1.842009e-02
1.863942e-02
1.884486e-02
1.903550e-02
1.921058e-02
1.936951e-02
1.951187e-02
1.963740e-02
1.974597e-02
1.983753e-02
1.991212e-02
1.996980e-02
2.001072e-02
2.003510e-02
2.004328e-02
2.003565e-02
2.001278e-02
1.997535e-02
1.992417e-02
1.986020e-02
1.978448e-02
1.969817e-02
1.960250e-02
1.949878e-02
1.938838e-02
1.927273e-02
1.915334e-02
1.903173e-02
1.890951e-02
1.878828e-02
1.866971e-02
1.855545e-02
1.844716e-02
1.834648e-02
1.825503e-02
1.817432e-02
1.810584e-02
1.805094e-02
1.801096e-02
1.798719e-02
1.798103e-02
1.799415e-02
1.799341e-02
1.082948e-02
1.086055e-02
1.085411e-02
1.085132e-02
1.080903e-02
1.069965e-02
1.052976e-02
1.033653e-02
1.016862e-02
1.006301e-02
1.002983e-02
1.005117e-02
1.009216e-02
1.011728e-02
1.010414e-02
1.004965e-02
9.968029e-03
9.883277e-03
9.820037e-03
9.796192e-03
9.818954e-03
9.884698e-03
9.981753e-03
1.009491e-02
1.021028e-02
1.031912e-02
1.041976e-02
1.051716e-02
1.062045e-02
1.073933e-02
1.088084e-02
1.104739e-02
1.123673e-02
1.144351e-02
1.166160e-02
1.188623e-02
1.211508e-02
1.234835e-02
1.258780e-02
1.283555e-02
1.309300e-02
1.336039e-02
1.363675e-02
1.392035e-02
1.420925e-02
1.450164e-02
1.479609e-02
1.509150e-02
1.538701e-02
1.568140e-02
1.597357e-02
1.626260e-02
1.654755e-02
1.682740e-02
1.710112e-02
1.736762e-02
1.762579e-02
1.787448e-02
1.811254e-02
1.833882e-02
1.855224e-02
1.875186e-02
1.893688e-02
1.910669e-02
1.926083e-02
1.939900e-02
1.952097e-02
1.962661e-02
1.971584e-02
1.978859e-02
1.984489e-02
1.988481e-02
1.990857e-02
1.991650e-02
1.990903e-02
1.988674e-02
1.985036e-02
1.980071e-02
1.973874e-02
1.966547e-02
1.958204e-02
1.948962e-02
1.938947e-02
1.928290e-02
1.917128e-02
1.905603e-02
1.893861e-02
1.882053e-02
1.870330e-02
1.858849e-02
1.847764e-02
1.837229e-02
1.827396e-02
1.818413e-02
1.810421e-02
1.803556e-02
1.797948e-02
1.793722e-02
1.791001e-02
1.789913e-02
1.790597e-02
1.790523e-02
1.100806e-02
1.106015e-02
1.104069e-02
1.098932e-02
1.087557e-02
1.070248e-02
1.050443e-02
1.032918e-02
1.021475e-02
1.017328e-02
1.018859e-02
1.022630e-02
1.025005e-02
1.023560e-02
1.017791e-02
1.008988e-02
9.995281e-03
9.919558e-03
9.882024e-03
9.891307e-03
9.944636e-03
1.003041e-02
1.013279e-02
1.023696e-02
1.033348e-02
1.042041e-02
1.050295e-02
1.059076e-02
1.069408e-02
1.082022e-02
1.097159e-02
1.114572e-02
1.133705e-02
1.153941e-02
1.174816e-02
1.196129e-02
1.217927e-02
1.240402e-02
1.263769e-02
1.288161e-02
1.313588e-02
1.339953e-02
1.367088e-02
1.394814e-02
1.422969e-02
1.451428e-02
1.480093e-02
1.508888e-02
1.537735e-02
1.566510e-02
1.595088e-02
1.623379e-02
1.651285e-02
1.678706e-02
1.705534e-02
1.731654e-02
1.756944e-02
1.781282e-02
1.804547e-02
1.826627e-02
1.847424e-02
1.866857e-02
1.884863e-02
1.901393e-02
1.916410e-02
1.929886e-02
1.941794e-02
1.952114e-02
1.960828e-02
1.967925e-02
1.973399e-02
1.977260e-02
1.979530e-02
1.980249e-02
1.979465e-02
1.977239e-02
1.973644e-02
1.968764e-02
1.962692e-02
1.955527e-02
1.947378e-02
1.938358e-02
1.928587e-02
1.918191e-02
1.907302e-02
1.896055e-02
1.884590e-02
1.873050e-02
1.861580e-02
1.850325e-02
1.839431e-02
1.829041e-02
1.819296e-02
1.810333e-02
1.802284e-02
1.795273e-02
1.789420e-02
1.784842e-02
1.781648e-02
1.779949e-02
1.779855e-02
1.779781e-02
1.122443e-02
1.127541e-02
1.120427e-02
1.107727e-02
1.089357e-02
1.068555e-02
1.049978e-02
1.037424e-02
1.032187e-02
1.032748e-02
1.035742e-02
1.037531e-02
1.035626e-02
1.029408e-02
1.020051e-02
1.009849e-02
1.001329e-02
9.964641e-03
9.961919e-03
1.000307e-02
1.007684e-02
1.016733e-02
1.025940e-02
1.034323e-02
1.041685e-02
1.048569e-02
1.055972e-02
1.064942e-02
1.076206e-02
1.089978e-02
1.105975e-02
1.123620e-02
1.142301e-02
1.161589e-02
1.181331e-02
1.201616e-02
1.222661e-02
1.244676e-02
1.267778e-02
1.291954e-02
1.317091e-02
1.343026e-02
1.369593e-02
1.396654e-02
1.424105e-02
1.451869e-02
1.479878e-02
1.508063e-02
1.536350e-02
1.564603e-02
1.592686e-02
1.620507e-02
1.647964e-02
1.674949e-02
1.701344e-02
1.727021e-02
1.751851e-02
1.775709e-02
1.798481e-02
1.820066e-02
1.840384e-02
1.859371e-02
1.876973e-02
1.893150e-02
1.907861e-02
1.921071e-02
1.932744e-02
1.942851e-02
1.951365e-02
1.958272e-02
1.963570e-02
1.967270e-02
1.969403e-02
1.970013e-02
1.969153e-02
1.966886e-02
1.963286e-02
1.958433e-02
1.952417e-02
1.945336e-02
1.937291e-02
1.928394e-02
1.918760e-02
1.908511e-02
1.897773e-02
1.886678e-02
1.875358e-02
1.863952e-02
1.852596e-02
1.841429e-02
1.830588e-02
1.820206e-02
1.810415e-02
1.801342e-02
1.793109e-02
1.785831e-02
1.779618e-02
1.774575e-02
1.770798e-02
1.768380e-02
1.767403e-02
1.767330e-02
1.143939e-02
1.146553e-02
1.131745e-02
1.111538e-02
1.089014e-02
1.068813e-02
1.054744e-02
1.048119e-02
1.047433e-02
1.049316e-02
1.050125e-02
1.047356e-02
1.040363e-02
1.030270e-02
1.019316e-02
1.009975e-02
1.004191e-02
1.002900e-02
1.005910e-02
1.012113e-02
1.019928e-02
1.027843e-02
1.034889e-02
1.040890e-02
1.046429e-02
1.052538e-02
1.060274e-02
1.070341e-02
1.082898e-02
1.097608e-02
1.113858e-02
1.131042e-02
1.148770e-02
1.166952e-02
1.185731e-02
1.205359e-02
1.226049e-02
1.247896e-02
1.270862e-02
1.294812e-02
1.319578e-02
1.345002e-02
1.370970e-02
1.397401e-02
1.424238e-02
1.451430e-02
1.478917e-02
1.506632e-02
1.534499e-02
1.562372e-02
1.590102e-02
1.617587e-02
1.644716e-02
1.671365e-02
1.697403e-02
1.722695e-02
1.747113e-02
1.770541e-02
1.792881e-02
1.814053e-02
1.833991e-02
1.852640e-02
1.869950e-02
1.885873e-02
1.900360e-02
1.913361e-02
1.924832e-02
1.934737e-02
1.943049e-02
1.949757e-02
1.954864e-02
1.958389e-02
1.960368e-02
1.960850e-02
1.959889e-02
1.957549e-02
1.953900e-02
1.949021e-02
1.942997e-02
1.935923e-02
1.927899e-02
1.919031e-02
1.909432e-02
1.899221e-02
1.888521e-02
1.877459e-02
1.866164e-02
1.854767e-02
1.843400e-02
1.832194e-02
1.821277e-02
1.810777e-02
1.800816e-02
1.791512e-02
1.782979e-02
1.775323e-02
1.768645e-02
1.763039e-02
1.758588e-02
1.755367e-02
1.753440e-02
1.753369e-02
1.161081e-02
1.159825e-02
1.137454e-02
1.112546e-02
1.090049e-02
1.073903e-02
1.065489e-02
1.063276e-02
1.063815e-02
1.063377e-02
1.059415e-02
1.051282e-02
1.040127e-02
1.028196e-02
1.017948e-02
1.011282e-02
1.009086e-02
1.011122e-02
1.016246e-02
1.022863e-02
1.029467e-02
1.035122e-02
1.039707e-02
1.043865e-02
1.048686e-02
1.055240e-02
1.064199e-02
1.075657e-02
1.089200e-02
1.104165e-02
1.119938e-02
1.136165e-02
1.152819e-02
1.170108e-02
1.188325e-02
1.207695e-02
1.228301e-02
1.250076e-02
1.272864e-02
1.296485e-02
1.320787e-02
1.345671e-02
1.371077e-02
1.396970e-02
1.423315e-02
1.450067e-02
1.477168e-02
1.504549e-02
1.532132e-02
1.559764e-02
1.587269e-02
1.614530e-02
1.641418e-02
1.667796e-02
1.693525e-02
1.718476e-02
1.742536e-02
1.765608e-02
1.787614e-02
1.808488e-02
1.828171e-02
1.846605e-02
1.863729e-02
1.879482e-02
1.893801e-02
1.906628e-02
1.917914e-02
1.927624e-02
1.935736e-02
1.942246e-02
1.947165e-02
1.950517e-02
1.952339e-02
1.952685e-02
1.951606e-02
1.949165e-02
1.945427e-02
1.940470e-02
1.934376e-02
1.927237e-02
1.919152e-02
1.910224e-02
1.900566e-02
1.890294e-02
1.879528e-02
1.868391e-02
1.857008e-02
1.845506e-02
1.834011e-02
1.822647e-02
1.811537e-02
1.800801e-02
1.790555e-02
1.780909e-02
1.771970e-02
1.763836e-02
1.756600e-02
1.750344e-02
1.745144e-02
1.741060e-02
1.738140e-02
1.738070e-02
1.171308e-02
1.166417e-02
1.139239e-02
1.113892e-02
1.095089e-02
1.084402e-02
1.080337e-02
1.079336e-02
1.077502e-02
1.072158e-02
1.062622e-02
1.050081e-02
1.036854e-02
1.025449e-02
1.017770e-02
1.014653e-02
1.015784e-02
1.019936e-02
1.025448e-02
1.030791e-02
1.035053e-02
1.038184e-02
1.040913e-02
1.044400e-02
1.049757e-02
1.057633e-02
1.068052e-02
1.080516e-02
1.094295e-02
1.108751e-02
1.123558e-02
1.138741e-02
1.154573e-02
1.171393e-02
1.189446e-02
1.208808e-02
1.229395e-02
1.251028e-02
1.273516e-02
1.296709e-02
1.320518e-02
1.344901e-02
1.369838e-02
1.395311e-02
1.421291e-02
1.447733e-02
1.474580e-02
1.501761e-02
1.529193e-02
1.556705e-02
1.584085e-02
1.611195e-02
1.637892e-02
1.664037e-02
1.689501e-02
1.714173e-02
1.737962e-02
1.760792e-02
1.782596e-02
1.803310e-02
1.822867e-02
1.841195e-02
1.858216e-02
1.873856e-02
1.888043e-02
1.900718e-02
1.911834e-02
1.921364e-02
1.929294e-02
1.935627e-02
1.940379e-02
1.943573e-02
1.945247e-02
1.945453e-02
1.944243e-02
1.941672e-02
1.937806e-02
1.932720e-02
1.926496e-02
1.919224e-02
1.911003e-02
1.901935e-02
1.892132e-02
1.881707e-02
1.870779e-02
1.859468e-02
1.847894e-02
1.836180e-02
1.824448e-02
1.812817e-02
1.801404e-02
1.790323e-02
1.779685e-02
1.769595e-02
1.760152e-02
1.751449e-02
1.743571e-02
1.736593e-02
1.730581e-02
1.725587e-02
1.721648e-02
1.721580e-02
1.174764e-02
1.167952e-02
1.140105e-02
1.118176e-02
1.104742e-02
1.098457e-02
1.095701e-02
1.092374e-02
1.085585e-02
1.074527e-02
1.060389e-02
1.045580e-02
1.032717e-02
1.023773e-02
1.019588e-02
1.019778e-02
1.023011e-02
1.027518e-02
1.031698e-02
1.034630e-02
1.036316e-02
1.037584e-02
1.039689e-02
1.043794e-02
1.050556e-02
1.059943e-02
1.071370e-02
1.084033e-02
1.097257e-02
1.110725e-02
1.124509e-02
1.138936e-02
1.154390e-02
1.171137e-02
1.189254e-02
1.208643e-02
1.229114e-02
1.250467e-02
1.272554e-02
1.295292e-02
1.318649e-02
1.342620e-02
1.367201e-02
1.392376e-02
1.418116e-02
1.444377e-02
1.471100e-02
1.498205e-02
1.525593e-02
1.553071e-02
1.580382e-02
1.607379e-02
1.633918e-02
1.659875e-02
1.685144e-02
1.709639e-02
1.733287e-02
1.756021e-02
1.777770e-02
1.798457e-02
1.817996e-02
1.836298e-02
1.853272e-02
1.868836e-02
1.882919e-02
1.895469e-02
1.906447e-02
1.915833e-02
1.923620e-02
1.929814e-02
1.934430e-02
1.937490e-02
1.939025e-02
1.939089e-02
1.937730e-02
1.935002e-02
1.930969e-02
1.925707e-02
1.919298e-02
1.911832e-02
1.903407e-02
1.894127e-02
1.884101e-02
1.873442e-02
1.862264e-02
1.850686e-02
1.838825e-02
1.826801e-02
1.814730e-02
1.802729e-02
1.790911e-02
1.779385e-02
1.768257e-02
1.757628e-02
1.747592e-02
1.738236e-02
1.729640e-02
1.721874e-02
1.714998e-02
1.709058e-02
1.704086e-02
1.704019e-02
1.174038e-02
1.167732e-02
1.142949e-02
1.126351e-02
1.117461e-02
1.112685e-02
1.107746e-02
1.099488e-02
1.086896e-02
1.071081e-02
1.054509e-02
1.039927e-02
1.029438e-02
1.023948e-02
1.023056e-02
1.025337e-02
1.028893e-02
1.032012e-02
1.033712e-02
1.034017e-02
1.033833e-02
1.034521e-02
1.037325e-02
1.042917e-02
1.051236e-02
1.061626e-02
1.073205e-02
1.085255e-02
1.097457e-02
1.109914e-02
1.122998e-02
1.137130e-02
1.152596e-02
1.169474e-02
1.187660e-02
1.206957e-02
1.227163e-02
1.248133e-02
1.269792e-02
1.292116e-02
1.315108e-02
1.338775e-02
1.363114e-02
1.388110e-02
1.413734e-02
1.439938e-02
1.466652e-02
1.493776e-02
1.521186e-02
1.548670e-02
1.575938e-02
1.602847e-02
1.629275e-02
1.655125e-02
1.680315e-02
1.704778e-02
1.728444e-02
1.751235e-02
1.773062e-02
1.793827e-02
1.813426e-02
1.831755e-02
1.848722e-02
1.864246e-02
1.878266e-02
1.890738e-02
1.901632e-02
1.910931e-02
1.918630e-02
1.924733e-02
1.929248e-02
1.932196e-02
1.933602e-02
1.933518e-02
1.931993e-02
1.929081e-02
1.924848e-02
1.919369e-02
1.912727e-02
1.905014e-02
1.896327e-02
1.886771e-02
1.876452e-02
1.865482e-02
1.853974e-02
1.842043e-02
1.829806e-02
1.817379e-02
1.804875e-02
1.792409e-02
1.780090e-02
1.768025e-02
1.756315e-02
1.745058e-02
1.734345e-02
1.724258e-02
1.714875e-02
1.706263e-02
1.698477e-02
1.691561e-02
1.685544e-02
1.685479e-02
1.172848e-02
1.169192e-02
1.149338e-02
1.137438e-02
1.130307e-02
1.123548e-02
1.113741e-02
1.099605e-02
1.082097e-02
1.063673e-02
1.047191e-02
1.034905e-02
1.027845e-02
1.025654e-02
1.026858e-02
1.029443e-02
1.031559e-02
1.032126e-02
1.031138e-02
1.029552e-02
1.028824e-02
1.030287e-02
1.034660e-02
1.041860e-02
1.051182e-02
1.061679e-02
1.072584e-02
1.083569e-02
1.094759e-02
1.106560e-02
1.119421e-02
1.133642e-02
1.149300e-02
1.166287e-02
1.184401e-02
1.203444e-02
1.223279e-02
1.243841e-02
1.265114e-02
1.287108e-02
1.309836e-02
1.333307e-02
1.357517e-02
1.382453e-02
1.408079e-02
1.434331e-02
1.461115e-02
1.488304e-02
1.515755e-02
1.543258e-02
1.570503e-02
1.597376e-02
1.623785e-02
1.649659e-02
1.674931e-02
1.699528e-02
1.723367e-02
1.746345e-02
1.768350e-02
1.789265e-02
1.808974e-02
1.827376e-02
1.844381e-02
1.859921e-02
1.873943e-02
1.886409e-02
1.897293e-02
1.906576e-02
1.914248e-02
1.920306e-02
1.924755e-02
1.927609e-02
1.928893e-02
1.928656e-02
1.926952e-02
1.923835e-02
1.919374e-02
1.913645e-02
1.906733e-02
1.898728e-02
1.889730e-02
1.879839e-02
1.869164e-02
1.857814e-02
1.845901e-02
1.833539e-02
1.820842e-02
1.807925e-02
1.794902e-02
1.781881e-02
1.768972e-02
1.756279e-02
1.743901e-02
1.731932e-02
1.720462e-02
1.709571e-02
1.699336e-02
1.689821e-02
1.681082e-02
1.673163e-02
1.666094e-02
1.666029e-02
1.174368e-02
1.174458e-02
1.158957e-02
1.149046e-02
1.140133e-02
1.128565e-02
1.112777e-02
1.093516e-02
1.073167e-02
1.054646e-02
1.040352e-02
1.031462e-02
1.027715e-02
1.027642e-02
1.029146e-02
1.030244e-02
1.029729e-02
1.027526e-02
1.024602e-02
1.022483e-02
1.022591e-02
1.025703e-02
1.031742e-02
1.039956e-02
1.049351e-02
1.059116e-02
1.068909e-02
1.078871e-02
1.089436e-02
1.101072e-02
1.114088e-02
1.128555e-02
1.144356e-02
1.161287e-02
1.179156e-02
1.197838e-02
1.217279e-02
1.237475e-02
1.258443e-02
1.280202e-02
1.302768e-02
1.326149e-02
1.350345e-02
1.375331e-02
1.401051e-02
1.427415e-02
1.454295e-02
1.481548e-02
1.509034e-02
1.536573e-02
1.563853e-02
1.590794e-02
1.617330e-02
1.643398e-02
1.668922e-02
1.693809e-02
1.717944e-02
1.741201e-02
1.763450e-02
1.784566e-02
1.804436e-02
1.822966e-02
1.840081e-02
1.855720e-02
1.869834e-02
1.882386e-02
1.893344e-02
1.902684e-02
1.910387e-02
1.916445e-02
1.920857e-02
1.923636e-02
1.924805e-02
1.924416e-02
1.922526e-02
1.919194e-02
1.914488e-02
1.908486e-02
1.901273e-02
1.892940e-02
1.883585e-02
1.873310e-02
1.862221e-02
1.850427e-02
1.838040e-02
1.825173e-02
1.811940e-02
1.798454e-02
1.784827e-02
1.771169e-02
1.757585e-02
1.744179e-02
1.731048e-02
1.718287e-02
1.705983e-02
1.694218e-02
1.683067e-02
1.672597e-02
1.662864e-02
1.653914e-02
1.645781e-02
1.645719e-02
1.179982e-02
1.183578e-02
1.169864e-02
1.158339e-02
1.144643e-02
1.126938e-02
1.105736e-02
1.083304e-02
1.062576e-02
1.046059e-02
1.035079e-02
1.029498e-02
1.027895e-02
1.028130e-02
1.028107e-02
1.026486e-02
1.023095e-02
1.018874e-02
1.015388e-02
1.014137e-02
1.015959e-02
1.020799e-02
1.027876e-02
1.036139e-02
1.044752e-02
1.053358e-02
1.062110e-02
1.071466e-02
1.081912e-02
1.093756e-02
1.107061e-02
1.121697e-02
1.137454e-02
1.154145e-02
1.171658e-02
1.189956e-02
1.209046e-02
1.228954e-02
1.249706e-02
1.271325e-02
1.293830e-02
1.317231e-02
1.341515e-02
1.366631e-02
1.392491e-02
1.418969e-02
1.445925e-02
1.473223e-02
1.500751e-02
1.528389e-02
1.555821e-02
1.582988e-02
1.609830e-02
1.636266e-02
1.662192e-02
1.687482e-02
1.711996e-02
1.735592e-02
1.758135e-02
1.779508e-02
1.799609e-02
1.818356e-02
1.835680e-02
1.851524e-02
1.865836e-02
1.878570e-02
1.889687e-02
1.899152e-02
1.906941e-02
1.913039e-02
1.917446e-02
1.920172e-02
1.921245e-02
1.920713e-02
1.918643e-02
1.915093e-02
1.910135e-02
1.903845e-02
1.896309e-02
1.887617e-02
1.877868e-02
1.867162e-02
1.855607e-02
1.843311e-02
1.830387e-02
1.816948e-02
1.803106e-02
1.788976e-02
1.774668e-02
1.760291e-02
1.745950e-02
1.731749e-02
1.717785e-02
1.704153e-02
1.690942e-02
1.678233e-02
1.666106e-02
1.654627e-02
1.643857e-02
1.633847e-02
1.624634e-02
1.624574e-02
1.188892e-02
1.194661e-02
1.179302e-02
1.162999e-02
1.142966e-02
1.119482e-02
1.094679e-02
1.071475e-02
1.052463e-02
1.039103e-02
1.031383e-02
1.027955e-02
1.026670e-02
1.025341e-02
1.022505e-02
1.017876e-02
1.012340e-02
1.007480e-02
1.004852e-02
1.005356e-02
1.008959e-02
1.014866e-02
1.021981e-02
1.029421e-02
1.036830e-02
1.044370e-02
1.052524e-02
1.061792e-02
1.072485e-02
1.084651e-02
1.098141e-02
1.112737e-02
1.128253e-02
1.144591e-02
1.161727e-02
1.179683e-02
1.198495e-02
1.218197e-02
1.238822e-02
1.260399e-02
1.282947e-02
1.306463e-02
1.330901e-02
1.356172e-02
1.382153e-02
1.408705e-02
1.435704e-02
1.463051e-02
1.490684e-02
1.518547e-02
1.546299e-02
1.573878e-02
1.601197e-02
1.628141e-02
1.654572e-02
1.680335e-02
1.705281e-02
1.729266e-02
1.752168e-02
1.773881e-02
1.794316e-02
1.813396e-02
1.831052e-02
1.847219e-02
1.861837e-02
1.874847e-02
1.886201e-02
1.895856e-02
1.903784e-02
1.909968e-02
1.914407e-02
1.917115e-02
1.918118e-02
1.917466e-02
1.915231e-02
1.911474e-02
1.906264e-02
1.899678e-02
1.891802e-02
1.882727e-02
1.872550e-02
1.861375e-02
1.849307e-02
1.836458e-02
1.822939e-02
1.808865e-02
1.794348e-02
1.779502e-02
1.764437e-02
1.749264e-02
1.734087e-02
1.719012e-02
1.704137e-02
1.689557e-02
1.675365e-02
1.661646e-02
1.648479e-02
1.635937e-02
1.624085e-02
1.612980e-02
1.602665e-02
1.602608e-02
1.198605e-02
1.204702e-02
1.184665e-02
1.161831e-02
1.135626e-02
1.108046e-02
1.081989e-02
1.060122e-02
1.044030e-02
1.033825e-02
1.028243e-02
1.025140e-02
1.022263e-02
1.018026e-02
1.012029e-02
1.005090e-02
9.987872e-03
9.947246e-03
9.938564e-03
9.961778e-03
1.000878e-02
1.006820e-02
1.013076e-02
1.019267e-02
1.025579e-02
1.032516e-02
1.040601e-02
1.050144e-02
1.061177e-02
1.073534e-02
1.086980e-02
1.101328e-02
1.116487e-02
1.132448e-02
1.149245e-02
1.166927e-02
1.185536e-02
1.205116e-02
1.225708e-02
1.247343e-02
1.270021e-02
1.293703e-02
1.318299e-02
1.343684e-02
1.369725e-02
1.396306e-02
1.423351e-02
1.450816e-02
1.478686e-02
1.506941e-02
1.535201e-02
1.563357e-02
1.591280e-02
1.618820e-02
1.645811e-02
1.672095e-02
1.697524e-02
1.721971e-02
1.745328e-02
1.767498e-02
1.788398e-02
1.807946e-02
1.826064e-02
1.842672e-02
1.857698e-02
1.871073e-02
1.882739e-02
1.892650e-02
1.900777e-02
1.907102e-02
1.911626e-02
1.914362e-02
1.915339e-02
1.914600e-02
1.912226e-02
1.908278e-02
1.902823e-02
1.895940e-02
1.887714e-02
1.878237e-02
1.867607e-02
1.855928e-02
1.843308e-02
1.829858e-02
1.815693e-02
1.800924e-02
1.785668e-02
1.770037e-02
1.754144e-02
1.738100e-02
1.722011e-02
1.705985e-02
1.690122e-02
1.674521e-02
1.659276e-02
1.644476e-02
1.630206e-02
1.616543e-02
1.603559e-02
1.591317e-02
1.579871e-02
1.579816e-02
1.205956e-02
1.210666e-02
1.184250e-02
1.154890e-02
1.124094e-02
1.094746e-02
1.069596e-02
1.050360e-02
1.037282e-02
1.029183e-02
1.023938e-02
1.019231e-02
1.013361e-02
1.005807e-02
9.973064e-03
9.894280e-03
9.838162e-03
9.814812e-03
9.824476e-03
9.858894e-03
9.906240e-03
9.956758e-03
1.000635e-02
1.005689e-02
1.011381e-02
1.018256e-02
1.026629e-02
1.036522e-02
1.047745e-02
1.060044e-02
1.073227e-02
1.087205e-02
1.101980e-02
1.117599e-02
1.134119e-02
1.151595e-02
1.170080e-02
1.189629e-02
1.210283e-02
1.232053e-02
1.254898e-02
1.278728e-02
1.303417e-02
1.328835e-02
1.354879e-02
1.381492e-02
1.408656e-02
1.436379e-02
1.464661e-02
1.493472e-02
1.522398e-02
1.551241e-02
1.579837e-02
1.608015e-02
1.635607e-02
1.662464e-02
1.688457e-02
1.713474e-02
1.737416e-02
1.760189e-02
1.781700e-02
1.801854e-02
1.820557e-02
1.837717e-02
1.853247e-02
1.867072e-02
1.879130e-02
1.889374e-02
1.897773e-02
1.904310e-02
1.908985e-02
1.911812e-02
1.912815e-02
1.912036e-02
1.909557e-02
1.905441e-02
1.899757e-02
1.892582e-02
1.884003e-02
1.874111e-02
1.863009e-02
1.850800e-02
1.837594e-02
1.823503e-02
1.808641e-02
1.793124e-02
1.777068e-02
1.760588e-02
1.743798e-02
1.726811e-02
1.709738e-02
1.692686e-02
1.675760e-02
1.659062e-02
1.642691e-02
1.626741e-02
1.611301e-02
1.596455e-02
1.582282e-02
1.568855e-02
1.556237e-02
1.556184e-02
1.208181e-02
1.210406e-02
1.177577e-02
1.143196e-02
1.110149e-02
1.081283e-02