# vtk DataFile Version 3.0
Scalar Field
ASCII
DATASET RECTILINEAR_GRID
DIMENSIONS 102 102 1
X_COORDINATES 102 double
0.000000 0.100000 0.200000 0.300000 0.400000 0.500000 0.600000 0.700000 0.800000 0.900000 1.000000 1.100000 1.200000 1.300000 1.400000 1.500000 1.600000 1.700000 1.800000 1.900000 2.000000 2.100000 2.200000 2.300000 2.400000 2.500000 2.600000 2.700000 2.800000 2.900000 3.000000 3.100000 3.200000 3.300000 3.400000 3.500000 3.600000 3.700000 3.800000 3.900000 4.000000 4.100000 4.200000 4.300000 4.400000 4.500000 4.600000 4.700000 4.800000 4.900000 5.000000 5.100000 5.200000 5.300000 5.400000 5.500000 5.600000 5.700000 5.800000 5.900000 6.000000 6.100000 6.200000 6.300000 6.400000 6.500000 6.600000 6.700000 6.800000 6.900000 7.000000 7.100000 7.200000 7.300000 7.400000 7.500000 7.600000 7.700000 7.800000 7.900000 8.000000 8.100000 8.200000 8.300000 8.400000 8.500000 8.600000 8.700000 8.800000 8.900000 9.000000 9.100000 9.200000 9.300000 9.400000 9.500000 9.600000 9.700000 9.800000 9.900000 10.000000 10.100000 
Y_COORDINATES 102 double
0.000000 0.100000 0.200000 0.300000 0.400000 0.500000 0.600000 0.700000 0.800000 0.900000 1.000000 1.100000 1.200000 1.300000 1.400000 1.500000 1.600000 1.700000 1.800000 1.900000 2.000000 2.100000 2.200000 2.300000 2.400000 2.500000 2.600000 2.700000 2.800000 2.900000 3.000000 3.100000 3.200000 3.300000 3.400000 3.500000 3.600000 3.700000 3.800000 3.900000 4.000000 4.100000 4.200000 4.300000 4.400000 4.500000 4.600000 4.700000 4.800000 4.900000 5.000000 5.100000 5.200000 5.300000 5.400000 5.500000 5.600000 5.700000 5.800000 5.900000 6.000000 6.100000 6.200000 6.300000 6.400000 6.500000 6.600000 6.700000 6.800000 6.900000 7.000000 7.100000 7.200000 7.300000 7.400000 7.500000 7.600000 7.700000 7.800000 7.900000 8.000000 8.100000 8.200000 8.300000 8.400000 8.500000 8.600000 8.700000 8.800000 8.900000 9.000000 9.100000 9.200000 9.300000 9.400000 9.500000 9.600000 9.700000 9.800000 9.900000 10.000000 10.100000 
Z_COORDINATES 1 double
0.0
POINT_DATA 10404
SCALARS Pressure double 1
LOOKUP_TABLE default
0.000000e+00
1.743483e-02
1.744766e-02
1.757026e-02
1.769091e-02
1.772379e-02
1.762524e-02
1.740421e-02
1.710868e-02
1.679906e-02
1.652330e-02
1.630403e-02
1.613946e-02
1.601341e-02
1.590699e-02
1.580655e-02
1.570633e-02
1.560703e-02
1.551313e-02
1.543060e-02
1.536572e-02
1.532429e-02
1.531081e-02
1.532752e-02
1.537365e-02
1.544563e-02
1.553821e-02
1.564633e-02
1.576685e-02
1.589941e-02
1.604615e-02
1.621046e-02
1.639543e-02
1.660257e-02
1.683138e-02
1.707964e-02
1.734429e-02
1.762244e-02
1.791202e-02
1.821206e-02
1.852244e-02
1.884337e-02
1.917486e-02
1.951635e-02
1.986651e-02
2.022340e-02
2.058464e-02
2.094777e-02
2.131033e-02
2.167017e-02
2.202543e-02
2.237440e-02
2.271545e-02
2.304689e-02
2.336700e-02
2.367398e-02
2.396606e-02
2.424152e-02
2.449874e-02
2.473624e-02
2.495266e-02
2.514683e-02
2.531766e-02
2.546425e-02
2.558585e-02
2.568187e-02
2.575191e-02
2.579577e-02
2.581343e-02
2.580507e-02
2.577104e-02
2.571185e-02
2.562821e-02
2.552098e-02
2.539118e-02
2.524002e-02
2.506890e-02
2.487935e-02
2.467311e-02
2.445208e-02
2.421830e-02
2.397398e-02
2.372144e-02
2.346315e-02
2.320170e-02
2.293977e-02
2.268015e-02
2.242575e-02
2.217955e-02
2.194463e-02
2.172415e-02
2.152133e-02
2.133939e-02
2.118152e-02
2.105076e-02
2.094978e-02
2.088056e-02
2.084369e-02
2.083717e-02
2.085410e-02
2.087887e-02
0.000000e+00
1.743483e-02
1.736255e-02
1.751742e-02
1.771762e-02
1.783183e-02
1.779515e-02
1.760649e-02
1.731569e-02
1.699316e-02
1.669891e-02
1.646438e-02
1.629102e-02
1.616095e-02
1.605126e-02
1.594458e-02
1.583317e-02
1.571770e-02
1.560378e-02
1.549890e-02
1.541067e-02
1.534590e-02
1.530989e-02
1.530540e-02
1.533189e-02
1.538558e-02
1.546064e-02
1.555122e-02
1.565349e-02
1.576681e-02
1.589353e-02
1.603766e-02
1.620303e-02
1.639177e-02
1.660362e-02
1.683626e-02
1.708629e-02
1.735041e-02
1.762633e-02
1.791307e-02
1.821070e-02
1.851980e-02
1.884077e-02
1.917332e-02
1.951633e-02
1.986789e-02
2.022566e-02
2.058712e-02
2.094989e-02
2.131179e-02
2.167095e-02
2.202570e-02
2.237445e-02
2.271552e-02
2.304716e-02
2.336751e-02
2.367471e-02
2.396692e-02
2.424243e-02
2.449963e-02
2.473707e-02
2.495342e-02
2.514749e-02
2.531824e-02
2.546474e-02
2.558626e-02
2.568222e-02
2.575224e-02
2.579611e-02
2.581382e-02
2.580553e-02
2.577159e-02
2.571248e-02
2.562891e-02
2.552170e-02
2.539189e-02
2.524069e-02
2.506949e-02
2.487985e-02
2.467352e-02
2.445241e-02
2.421857e-02
2.397421e-02
2.372166e-02
2.346339e-02
2.320196e-02
2.294006e-02
2.268047e-02
2.242608e-02
2.217987e-02
2.194494e-02
2.172444e-02
2.152159e-02
2.133962e-02
2.118173e-02
2.105096e-02
2.094997e-02
2.088074e-02
2.084387e-02
2.083734e-02
2.085427e-02
2.087904e-02
2.087887e-02
1.744503e-02
1.751789e-02
1.773880e-02
1.788066e-02
1.787302e-02
1.772167e-02
1.747745e-02
1.720634e-02
1.696103e-02
1.676607e-02
1.661907e-02
1.650209e-02
1.639503e-02
1.628440e-02
1.616590e-02
1.604234e-02
1.592022e-02
1.580705e-02
1.571000e-02
1.563536e-02
1.558776e-02
1.556929e-02
1.557889e-02
1.561259e-02
1.566491e-02
1.573087e-02
1.580778e-02
1.589598e-02
1.599841e-02
1.611903e-02
1.626113e-02
1.642609e-02
1.661298e-02
1.681920e-02
1.704152e-02
1.727719e-02
1.752456e-02
1.778325e-02
1.805370e-02
1.833657e-02
1.863213e-02
1.893988e-02
1.925856e-02
1.958628e-02
1.992088e-02
2.026020e-02
2.060226e-02
2.094533e-02
2.128771e-02
2.162784e-02
2.196417e-02
2.229500e-02
2.261856e-02
2.293300e-02
2.323645e-02
2.352714e-02
2.380339e-02
2.406363e-02
2.430642e-02
2.453041e-02
2.473439e-02
2.491722e-02
2.507792e-02
2.521565e-02
2.532971e-02
2.541960e-02
2.548497e-02
2.552563e-02
2.554159e-02
2.553299e-02
2.550015e-02
2.544358e-02
2.536392e-02
2.526201e-02
2.513887e-02
2.499568e-02
2.483380e-02
2.465476e-02
2.446026e-02
2.425211e-02
2.403229e-02
2.380289e-02
2.356613e-02
2.332431e-02
2.307987e-02
2.283532e-02
2.259328e-02
2.235644e-02
2.212759e-02
2.190957e-02
2.170525e-02
2.151753e-02
2.134924e-02
2.120310e-02
2.108160e-02
2.098680e-02
2.092002e-02
2.088140e-02
2.086922e-02
2.087914e-02
2.090396e-02
2.090378e-02
1.765769e-02
1.781478e-02
1.797190e-02
1.797241e-02
1.782810e-02
1.760241e-02
1.736530e-02
1.716485e-02
1.701610e-02
1.690715e-02
1.681444e-02
1.671730e-02
1.660555e-02
1.647965e-02
1.634658e-02
1.621531e-02
1.609418e-02
1.599018e-02
1.590879e-02
1.585369e-02
1.582587e-02
1.582320e-02
1.584098e-02
1.587363e-02
1.591686e-02
1.596930e-02
1.603285e-02
1.611163e-02
1.621004e-02
1.633101e-02
1.647490e-02
1.663975e-02
1.682219e-02
1.701887e-02
1.722750e-02
1.744729e-02
1.767873e-02
1.792288e-02
1.818065e-02
1.845216e-02
1.873663e-02
1.903245e-02
1.933758e-02
1.964996e-02
1.996773e-02
2.028936e-02
2.061357e-02
2.093914e-02
2.126454e-02
2.158820e-02
2.190840e-02
2.222331e-02
2.253104e-02
2.282976e-02
2.311772e-02
2.339330e-02
2.365500e-02
2.390141e-02
2.413118e-02
2.434305e-02
2.453583e-02
2.470847e-02
2.486003e-02
2.498973e-02
2.509694e-02
2.518118e-02
2.524213e-02
2.527962e-02
2.529365e-02
2.528436e-02
2.525207e-02
2.519727e-02
2.512063e-02
2.502297e-02
2.490531e-02
2.476881e-02
2.461482e-02
2.444481e-02
2.426041e-02
2.406337e-02
2.385557e-02
2.363897e-02
2.341568e-02
2.318788e-02
2.295787e-02
2.272801e-02
2.250078e-02
2.227871e-02
2.206438e-02
2.186041e-02
2.166942e-02
2.149400e-02
2.133669e-02
2.119984e-02
2.108557e-02
2.099562e-02
2.093115e-02
2.089250e-02
2.087902e-02
2.088914e-02
2.092121e-02
2.092103e-02
1.796907e-02
1.812540e-02
1.813637e-02
1.798645e-02
1.775491e-02
1.752414e-02
1.734626e-02
1.723176e-02
1.715941e-02
1.709654e-02
1.701725e-02
1.691096e-02
1.678127e-02
1.663949e-02
1.649824e-02
1.636799e-02
1.625635e-02
1.616849e-02
1.610718e-02
1.607228e-02
1.606042e-02
1.606585e-02
1.608244e-02
1.610610e-02
1.613648e-02
1.617694e-02
1.623301e-02
1.630995e-02
1.641069e-02
1.653493e-02
1.667964e-02
1.684054e-02
1.701386e-02
1.719750e-02
1.739137e-02
1.759683e-02
1.781569e-02
1.804921e-02
1.829754e-02
1.855965e-02
1.883359e-02
1.911713e-02
1.940820e-02
1.970518e-02
2.000691e-02
2.031255e-02
2.062123e-02
2.093190e-02
2.124280e-02
2.155209e-02
2.185791e-02
2.215834e-02
2.245156e-02
2.273588e-02
2.300974e-02
2.327170e-02
2.352038e-02
2.375443e-02
2.397257e-02
2.417356e-02
2.435627e-02
2.451968e-02
2.466294e-02
2.478530e-02
2.488618e-02
2.496514e-02
2.502186e-02
2.505617e-02
2.506807e-02
2.505772e-02
2.502544e-02
2.497176e-02
2.489732e-02
2.480299e-02
2.468975e-02
2.455876e-02
2.441132e-02
2.424887e-02
2.407295e-02
2.388523e-02
2.368750e-02
2.348162e-02
2.326959e-02
2.305349e-02
2.283551e-02
2.261789e-02
2.240296e-02
2.219310e-02
2.199073e-02
2.179823e-02
2.161801e-02
2.145242e-02
2.130373e-02
2.117404e-02
2.106527e-02
2.097901e-02
2.091648e-02
2.087844e-02
2.086525e-02
2.087721e-02
2.091542e-02
2.091524e-02
1.827811e-02
1.836391e-02
1.821732e-02
1.796651e-02
1.771934e-02
1.753885e-02
1.743816e-02
1.739087e-02
1.735526e-02
1.729725e-02
1.720199e-02
1.707316e-02
1.692501e-02
1.677398e-02
1.663352e-02
1.651289e-02
1.641758e-02
1.634986e-02
1.630855e-02
1.628909e-02
1.628456e-02
1.628803e-02
1.629527e-02
1.630644e-02
1.632608e-02
1.636099e-02
1.641742e-02
1.649865e-02
1.660404e-02
1.672976e-02
1.687070e-02
1.702257e-02
1.718326e-02
1.735311e-02
1.753420e-02
1.772898e-02
1.793919e-02
1.816507e-02
1.840546e-02
1.865819e-02
1.892084e-02
1.919134e-02
1.946822e-02
1.975066e-02
2.003813e-02
2.033010e-02
2.062573e-02
2.092376e-02
2.122201e-02
2.151843e-02
2.181113e-02
2.209829e-02
2.237830e-02
2.264966e-02
2.291098e-02
2.316090e-02
2.339808e-02
2.362120e-02
2.382899e-02
2.402025e-02
2.419390e-02
2.434901e-02
2.448474e-02
2.460042e-02
2.469548e-02
2.476948e-02
2.482213e-02
2.485325e-02
2.486287e-02
2.485113e-02
2.481843e-02
2.476528e-02
2.469236e-02
2.460053e-02
2.449077e-02
2.436420e-02
2.422207e-02
2.406576e-02
2.389675e-02
2.371663e-02
2.352710e-02
2.332997e-02
2.312713e-02
2.292060e-02
2.271244e-02
2.250482e-02
2.229991e-02
2.209994e-02
2.190716e-02
2.172379e-02
2.155203e-02
2.139402e-02
2.125183e-02
2.112740e-02
2.102250e-02
2.093870e-02
2.087733e-02
2.083953e-02
2.082634e-02
2.083906e-02
2.087983e-02
2.087965e-02
1.851417e-02
1.850006e-02
1.824424e-02
1.796837e-02
1.776549e-02
1.765712e-02
1.761751e-02
1.759922e-02
1.755995e-02
1.747813e-02
1.735435e-02
1.720339e-02
1.704430e-02
1.689363e-02
1.676294e-02
1.665885e-02
1.658367e-02
1.653555e-02
1.650886e-02
1.649558e-02
1.648791e-02
1.648125e-02
1.647601e-02
1.647740e-02
1.649325e-02
1.653065e-02
1.659330e-02
1.668049e-02
1.678792e-02
1.690990e-02
1.704169e-02
1.718110e-02
1.732877e-02
1.748721e-02
1.765941e-02
1.784742e-02
1.805165e-02
1.827087e-02
1.850284e-02
1.874505e-02
1.899548e-02
1.925283e-02
1.951651e-02
1.978626e-02
2.006178e-02
2.034238e-02
2.062694e-02
2.091389e-02
2.120073e-02
2.148536e-02
2.176606e-02
2.204127e-02
2.230956e-02
2.256958e-02
2.281998e-02
2.305940e-02
2.328651e-02
2.349999e-02
2.369859e-02
2.388119e-02
2.404677e-02
2.419444e-02
2.432343e-02
2.443306e-02
2.452279e-02
2.459216e-02
2.464091e-02
2.466887e-02
2.467609e-02
2.466275e-02
2.462927e-02
2.457619e-02
2.450422e-02
2.441417e-02
2.430701e-02
2.418382e-02
2.404581e-02
2.389429e-02
2.373068e-02
2.355653e-02
2.337347e-02
2.318325e-02
2.298772e-02
2.278881e-02
2.258849e-02
2.238880e-02
2.219180e-02
2.199959e-02
2.181424e-02
2.163783e-02
2.147238e-02
2.131989e-02
2.118225e-02
2.106128e-02
2.095866e-02
2.087597e-02
2.081463e-02
2.077601e-02
2.076152e-02
2.077287e-02
2.081241e-02
2.081223e-02
1.865771e-02
1.855858e-02
1.826891e-02
1.803366e-02
1.790160e-02
1.785236e-02
1.783748e-02
1.780903e-02
1.773866e-02
1.762192e-02
1.747159e-02
1.730738e-02
1.714796e-02
1.700723e-02
1.689347e-02
1.680969e-02
1.675386e-02
1.671961e-02
1.669793e-02
1.668022e-02
1.666143e-02
1.664201e-02
1.662765e-02
1.662675e-02
1.664702e-02
1.669248e-02
1.676239e-02
1.685218e-02
1.695584e-02
1.706845e-02
1.718783e-02
1.731482e-02
1.745226e-02
1.760342e-02
1.777053e-02
1.795406e-02
1.815277e-02
1.836438e-02
1.858648e-02
1.881716e-02
1.905536e-02
1.930069e-02
1.955309e-02
1.981239e-02
2.007803e-02
2.034893e-02
2.062363e-02
2.090046e-02
2.117683e-02
2.145078e-02
2.172083e-02
2.198563e-02
2.224386e-02
2.249417e-02
2.273517e-02
2.296550e-02
2.318380e-02
2.338880e-02
2.357933e-02
2.375432e-02
2.391281e-02
2.405394e-02
2.417695e-02
2.428116e-02
2.436603e-02
2.443112e-02
2.447618e-02
2.450108e-02
2.450589e-02
2.449083e-02
2.445632e-02
2.440295e-02
2.433140e-02
2.424247e-02
2.413709e-02
2.401630e-02
2.388126e-02
2.373324e-02
2.357364e-02
2.340396e-02
2.322580e-02
2.304087e-02
2.285095e-02
2.265789e-02
2.246357e-02
2.226992e-02
2.207888e-02
2.189243e-02
2.171249e-02
2.154101e-02
2.137989e-02
2.123097e-02
2.109606e-02
2.097684e-02
2.087495e-02
2.079191e-02
2.072923e-02
2.068835e-02
2.067085e-02
2.067851e-02
2.071350e-02
2.071332e-02
1.873548e-02
1.859590e-02
1.833864e-02
1.817533e-02
1.810408e-02
1.807909e-02
1.805053e-02
1.798533e-02
1.787405e-02
1.772595e-02
1.755945e-02
1.739373e-02
1.724420e-02
1.712082e-02
1.702775e-02
1.696335e-02
1.692091e-02
1.689074e-02
1.686349e-02
1.683367e-02
1.680170e-02
1.677357e-02
1.675810e-02
1.676328e-02
1.679327e-02
1.684720e-02
1.692028e-02
1.700634e-02
1.710047e-02
1.720070e-02
1.730815e-02
1.742594e-02
1.755749e-02
1.770502e-02
1.786894e-02
1.804792e-02
1.823971e-02
1.844202e-02
1.865322e-02
1.887250e-02
1.909973e-02
1.933502e-02
1.957828e-02
1.982896e-02
2.008604e-02
2.034812e-02
2.061368e-02
2.088119e-02
2.114818e-02
2.141282e-02
2.167383e-02
2.192990e-02
2.217967e-02
2.242175e-02
2.265470e-02
2.287717e-02
2.308783e-02
2.328551e-02
2.346908e-02
2.363754e-02
2.378994e-02
2.392542e-02
2.404320e-02
2.414262e-02
2.422313e-02
2.428434e-02
2.432599e-02
2.434802e-02
2.435051e-02
2.433369e-02
2.429799e-02
2.424402e-02
2.417243e-02
2.408400e-02
2.397961e-02
2.386029e-02
2.372716e-02
2.358150e-02
2.342466e-02
2.325813e-02
2.308349e-02
2.290238e-02
2.271652e-02
2.252767e-02
2.233764e-02
2.214826e-02
2.196135e-02
2.177878e-02
2.160237e-02
2.143395e-02
2.127530e-02
2.112817e-02
2.099424e-02
2.087514e-02
2.077240e-02
2.068754e-02
2.062202e-02
2.057734e-02
2.055504e-02
2.055681e-02
2.058457e-02
2.058439e-02
1.879818e-02
1.866923e-02
1.847733e-02
1.837821e-02
1.833336e-02
1.829384e-02
1.822479e-02
1.811350e-02
1.796592e-02
1.779806e-02
1.762806e-02
1.747154e-02
1.733944e-02
1.723704e-02
1.716349e-02
1.711225e-02
1.707326e-02
1.703659e-02
1.699634e-02
1.695286e-02
1.691237e-02
1.688403e-02
1.687601e-02
1.689230e-02
1.693182e-02
1.698946e-02
1.705890e-02
1.713534e-02
1.721718e-02
1.730596e-02
1.740514e-02
1.751825e-02
1.764743e-02
1.779285e-02
1.795302e-02
1.812565e-02
1.830863e-02
1.850062e-02
1.870118e-02
1.891047e-02
1.912875e-02
1.935600e-02
1.959166e-02
1.983470e-02
2.008381e-02
2.033757e-02
2.059469e-02
2.085395e-02
2.111299e-02
2.136996e-02
2.162357e-02
2.187245e-02
2.211517e-02
2.235027e-02
2.257637e-02
2.279214e-02
2.299637e-02
2.318791e-02
2.336570e-02
2.352873e-02
2.367603e-02
2.380673e-02
2.392005e-02
2.401532e-02
2.409203e-02
2.414981e-02
2.418844e-02
2.420788e-02
2.420821e-02
2.418967e-02
2.415267e-02
2.409784e-02
2.402579e-02
2.393728e-02
2.383318e-02
2.371451e-02
2.358239e-02
2.343808e-02
2.328293e-02
2.311840e-02
2.294602e-02
2.276739e-02
2.258415e-02
2.239800e-02
2.221066e-02
2.202387e-02
2.183938e-02
2.165895e-02
2.148432e-02
2.131721e-02
2.115932e-02
2.101229e-02
2.087771e-02
2.075713e-02
2.065203e-02
2.056385e-02
2.049401e-02
2.044396e-02
2.041516e-02
2.040915e-02
2.042754e-02
2.042736e-02
1.889371e-02
1.881250e-02
1.868040e-02
1.861050e-02
1.855165e-02
1.846927e-02
1.834970e-02
1.819712e-02
1.802545e-02
1.785104e-02
1.768847e-02
1.754856e-02
1.743717e-02
1.735421e-02
1.729360e-02
1.724529e-02
1.719902e-02
1.714852e-02
1.709406e-02
1.704205e-02
1.700197e-02
1.698210e-02
1.698631e-02
1.701297e-02
1.705663e-02
1.711070e-02
1.717048e-02
1.723477e-02
1.730566e-02
1.738704e-02
1.748263e-02
1.759445e-02
1.772239e-02
1.786468e-02
1.801894e-02
1.818318e-02
1.835637e-02
1.853845e-02
1.872991e-02
1.893121e-02
1.914237e-02
1.936284e-02
1.959157e-02
1.982729e-02
2.006876e-02
2.031485e-02
2.056459e-02
2.081702e-02
2.106973e-02
2.132061e-02
2.156827e-02
2.181125e-02
2.204809e-02
2.227738e-02
2.249780e-02
2.270811e-02
2.290717e-02
2.309383e-02
2.326702e-02
2.342570e-02
2.356889e-02
2.369568e-02
2.380532e-02
2.389715e-02
2.397069e-02
2.402559e-02
2.406166e-02
2.407886e-02
2.407726e-02
2.405710e-02
2.401873e-02
2.396281e-02
2.388994e-02
2.380088e-02
2.369649e-02
2.357780e-02
2.344594e-02
2.330214e-02
2.314775e-02
2.298418e-02
2.281293e-02
2.263553e-02
2.245358e-02
2.226871e-02
2.208256e-02
2.189681e-02
2.171315e-02
2.153325e-02
2.135877e-02
2.119137e-02
2.103263e-02
2.088411e-02
2.074734e-02
2.062377e-02
2.051482e-02
2.042187e-02
2.034626e-02
2.028934e-02
2.025250e-02
2.023709e-02
2.024447e-02
2.024429e-02
1.904797e-02
1.902741e-02
1.892214e-02
1.883857e-02
1.873480e-02
1.859780e-02
1.843187e-02
1.825026e-02
1.806792e-02
1.789785e-02
1.774980e-02
1.762932e-02
1.753661e-02
1.746604e-02
1.740774e-02
1.735134e-02
1.729035e-02
1.722492e-02
1.716165e-02
1.711030e-02
1.707936e-02
1.707251e-02
1.708769e-02
1.711875e-02
1.715881e-02
1.720314e-02
1.725089e-02
1.730471e-02
1.736904e-02
1.744783e-02
1.754308e-02
1.765438e-02
1.777965e-02
1.791634e-02
1.806252e-02
1.821743e-02
1.838138e-02
1.855517e-02
1.873948e-02
1.893442e-02
1.913944e-02
1.935349e-02
1.957539e-02
1.980402e-02
2.003847e-02
2.027795e-02
2.052170e-02
2.076882e-02
2.101669e-02
2.126279e-02
2.150566e-02
2.174383e-02
2.197591e-02
2.220058e-02
2.241660e-02
2.262280e-02
2.281799e-02
2.300104e-02
2.317079e-02
2.332619e-02
2.346622e-02
2.359001e-02
2.369680e-02
2.378597e-02
2.385706e-02
2.390972e-02
2.394377e-02
2.395914e-02
2.395589e-02
2.393423e-02
2.389450e-02
2.383735e-02
2.376342e-02
2.367346e-02
2.356836e-02
2.344914e-02
2.331691e-02
2.317291e-02
2.301845e-02
2.285491e-02
2.268373e-02
2.250641e-02
2.232450e-02
2.213958e-02
2.195324e-02
2.176712e-02
2.158283e-02
2.140198e-02
2.122617e-02
2.105696e-02
2.089587e-02
2.074439e-02
2.060395e-02
2.047595e-02
2.036173e-02
2.026260e-02
2.017983e-02
2.011469e-02
2.006843e-02
2.004225e-02
2.003731e-02
2.003714e-02
1.925898e-02
1.928918e-02
1.916910e-02
1.903798e-02
1.887525e-02
1.868664e-02
1.848633e-02
1.828917e-02
1.810699e-02
1.794810e-02
1.781700e-02
1.771347e-02
1.763195e-02
1.756271e-02
1.749532e-02
1.742312e-02
1.734622e-02
1.727135e-02
1.720859e-02
1.716665e-02
1.714918e-02
1.715365e-02
1.717327e-02
1.720053e-02
1.723065e-02
1.726296e-02
1.730065e-02
1.734867e-02
1.741132e-02
1.749062e-02
1.758594e-02
1.769491e-02
1.781476e-02
1.794357e-02
1.808079e-02
1.822703e-02
1.838339e-02
1.855076e-02
1.872933e-02
1.891860e-02
1.911758e-02
1.932515e-02
1.954037e-02
1.976251e-02
1.999100e-02
2.022521e-02
2.046437e-02
2.070745e-02
2.095162e-02
2.119397e-02
2.143305e-02
2.166750e-02
2.189603e-02
2.211741e-02
2.233043e-02
2.253387e-02
2.272652e-02
2.290715e-02
2.307459e-02
2.322775e-02
2.336564e-02
2.348738e-02
2.359224e-02
2.367962e-02
2.374905e-02
2.380019e-02
2.383281e-02
2.384682e-02
2.384227e-02
2.381933e-02
2.377832e-02
2.371993e-02
2.364482e-02
2.355377e-02
2.344767e-02
2.332751e-02
2.319443e-02
2.304961e-02
2.289433e-02
2.272995e-02
2.255789e-02
2.237960e-02
2.219661e-02
2.201045e-02
2.182268e-02
2.163489e-02
2.144864e-02
2.126548e-02
2.108694e-02
2.091452e-02
2.074967e-02
2.059382e-02
2.044832e-02
2.031451e-02
2.019367e-02
2.008704e-02
1.999582e-02
1.992118e-02
1.986428e-02
1.982619e-02
1.980790e-02
1.980774e-02
1.950325e-02
1.956091e-02
1.939249e-02
1.919758e-02
1.897776e-02
1.874928e-02
1.852827e-02
1.832657e-02
1.815142e-02
1.800602e-02
1.788922e-02
1.779497e-02
1.771330e-02
1.763363e-02
1.754908e-02
1.745969e-02
1.737232e-02
1.729740e-02
1.724394e-02
1.721560e-02
1.720952e-02
1.721829e-02
1.723374e-02
1.725066e-02
1.726860e-02
1.729109e-02
1.732358e-02
1.737073e-02
1.743463e-02
1.751452e-02
1.760774e-02
1.771135e-02
1.782341e-02
1.794350e-02
1.807250e-02
1.821173e-02
1.836226e-02
1.852437e-02
1.869762e-02
1.888110e-02
1.907383e-02
1.927503e-02
1.948418e-02
1.970089e-02
1.992467e-02
2.015484e-02
2.039046e-02
2.063038e-02
2.087173e-02
2.111124e-02
2.134760e-02
2.157957e-02
2.180592e-02
2.202544e-02
2.223685e-02
2.243887e-02
2.263021e-02
2.280959e-02
2.297583e-02
2.312784e-02
2.326464e-02
2.338538e-02
2.348933e-02
2.357588e-02
2.364454e-02
2.369492e-02
2.372677e-02
2.373997e-02
2.373453e-02
2.371063e-02
2.366858e-02
2.360905e-02
2.353280e-02
2.344059e-02
2.333331e-02
2.321193e-02
2.307757e-02
2.293139e-02
2.277465e-02
2.260869e-02
2.243489e-02
2.225471e-02
2.206964e-02
2.188118e-02
2.169087e-02
2.150023e-02
2.131079e-02
2.112406e-02
2.094150e-02
2.076455e-02
2.059463e-02
2.043307e-02
2.028119e-02
2.014027e-02
2.001152e-02
1.989614e-02
1.979526e-02
1.970996e-02
1.964133e-02
1.959034e-02
1.955787e-02
1.955770e-02
1.974848e-02
1.980836e-02
1.957502e-02
1.931741e-02
1.905235e-02
1.879823e-02
1.856811e-02
1.836915e-02
1.820364e-02
1.806936e-02
1.795938e-02
1.786309e-02
1.776937e-02
1.767093e-02
1.756761e-02
1.746638e-02
1.737802e-02
1.731194e-02
1.727192e-02
1.725486e-02
1.725278e-02
1.725687e-02
1.726139e-02
1.726575e-02
1.727388e-02
1.729159e-02
1.732386e-02
1.737289e-02
1.743780e-02
1.751574e-02
1.760359e-02
1.769939e-02
1.780285e-02
1.791503e-02
1.803745e-02
1.817129e-02
1.831691e-02
1.847392e-02
1.864151e-02
1.881888e-02
1.900544e-02
1.920089e-02
1.940499e-02
1.961739e-02
1.983750e-02
2.006444e-02
2.029717e-02
2.053455e-02
2.077392e-02
2.101165e-02
2.124655e-02
2.147742e-02
2.170304e-02
2.192209e-02
2.213322e-02
2.233505e-02
2.252624e-02
2.270553e-02
2.287172e-02
2.302374e-02
2.316063e-02
2.328152e-02
2.338567e-02
2.347243e-02
2.354125e-02
2.359173e-02
2.362355e-02
2.363657e-02
2.363079e-02
2.360637e-02
2.356364e-02
2.350324e-02
2.342600e-02
2.333267e-02
2.322413e-02
2.310134e-02
2.296537e-02
2.281740e-02
2.265867e-02
2.249049e-02
2.231425e-02
2.213139e-02
2.194336e-02
2.175167e-02
2.155780e-02
2.136325e-02
2.116951e-02
2.097803e-02
2.079025e-02
2.060755e-02
2.043129e-02
2.026277e-02
2.010326e-02
1.995398e-02
1.981612e-02
1.969079e-02
1.957910e-02
1.948209e-02
1.940075e-02
1.933599e-02
1.928861e-02
1.928845e-02
1.996582e-02
2.000932e-02
1.971149e-02
1.940357e-02
1.910847e-02
1.884126e-02
1.861010e-02
1.841720e-02
1.825965e-02
1.812963e-02
1.801558e-02
1.790547e-02
1.779124e-02
1.767224e-02
1.755545e-02
1.745198e-02
1.737173e-02
1.731874e-02
1.728978e-02
1.727636e-02
1.726901e-02
1.726146e-02
1.725284e-02
1.724716e-02
1.725068e-02
1.726863e-02
1.730329e-02
1.735367e-02
1.741673e-02
1.748921e-02
1.756914e-02
1.765635e-02
1.775206e-02
1.785795e-02
1.797526e-02
1.810440e-02
1.824501e-02
1.839639e-02
1.855792e-02
1.872924e-02
1.891025e-02
1.910089e-02
1.930092e-02
1.950982e-02
1.972681e-02
1.995093e-02
2.018121e-02
2.041672e-02
2.065515e-02
2.089236e-02
2.112719e-02
2.135839e-02
2.158463e-02
2.180449e-02
2.201653e-02
2.221934e-02
2.241158e-02
2.259197e-02
2.275936e-02
2.291266e-02
2.305091e-02
2.317320e-02
2.327873e-02
2.336681e-02
2.343683e-02
2.348832e-02
2.352095e-02
2.353454e-02
2.352909e-02
2.350475e-02
2.346184e-02
2.340094e-02
2.332298e-02
2.322868e-02
2.311891e-02
2.299461e-02
2.285685e-02
2.270679e-02
2.254566e-02
2.237477e-02
2.219552e-02
2.200930e-02
2.181758e-02
2.162182e-02
2.142350e-02
2.122408e-02
2.102500e-02
2.082770e-02
2.063357e-02
2.044396e-02
2.026019e-02
2.008352e-02
1.991518e-02
1.975637e-02
1.960822e-02
1.947183e-02
1.934827e-02
1.923854e-02
1.914357e-02
1.906425e-02
1.900135e-02
1.900119e-02
2.013707e-02
2.015572e-02
1.980517e-02
1.946340e-02
1.915205e-02
1.888089e-02
1.865295e-02
1.846536e-02
1.830982e-02
1.817389e-02
1.804437e-02
1.791204e-02
1.777540e-02
1.764115e-02
1.752066e-02
1.742437e-02
1.735676e-02
1.731459e-02
1.728895e-02
1.726968e-02
1.724994e-02
1.722855e-02
1.720945e-02
1.719912e-02
1.720314e-02
1.722384e-02
1.726009e-02
1.730866e-02
1.736613e-02
1.743051e-02
1.750176e-02
1.758127e-02
1.767083e-02
1.777174e-02
1.788441e-02
1.800851e-02
1.814342e-02
1.828869e-02
1.844420e-02
1.861005e-02
1.878637e-02
1.897301e-02
1.916953e-02
1.937522e-02
1.958927e-02
1.981086e-02
2.003926e-02
2.027377e-02
2.051251e-02
2.075055e-02
2.098667e-02
2.121949e-02
2.144754e-02
2.166935e-02
2.188344e-02
2.208841e-02
2.228292e-02
2.246574e-02
2.263568e-02
2.279165e-02
2.293262e-02
2.305763e-02
2.316582e-02
2.325640e-02
2.332872e-02
2.338226e-02
2.341665e-02
2.343170e-02
2.342739e-02
2.340385e-02
2.336141e-02
2.330053e-02
2.322223e-02
2.312724e-02
2.301639e-02
2.289063e-02
2.275101e-02
2.259869e-02
2.243490e-02
2.226096e-02
2.207824e-02
2.188813e-02
2.169209e-02
2.149155e-02
2.128798e-02
2.108280e-02
2.087746e-02
2.067334e-02
2.047182e-02
2.027421e-02
2.008180e-02
1.989585e-02
1.971756e-02
1.954808e-02
1.938855e-02
1.924003e-02
1.910358e-02
1.898016e-02
1.887073e-02
1.877611e-02
1.869708e-02
1.869692e-02
2.025586e-02
2.025039e-02
1.986314e-02
1.950262e-02
1.918524e-02
1.891532e-02
1.869082e-02
1.850363e-02
1.834083e-02
1.818813e-02
1.803489e-02
1.787838e-02
1.772462e-02
1.758507e-02
1.747071e-02
1.738656e-02
1.732959e-02
1.729052e-02
1.725856e-02
1.722619e-02
1.719184e-02
1.715940e-02
1.713541e-02
1.712567e-02
1.713267e-02
1.715513e-02
1.718955e-02
1.723235e-02
1.728149e-02
1.733703e-02
1.740052e-02
1.747388e-02
1.755848e-02
1.765469e-02
1.776218e-02
1.788041e-02
1.800907e-02
1.814824e-02
1.829826e-02
1.845939e-02
1.863161e-02
1.881454e-02
1.900759e-02
1.921005e-02
1.942131e-02
1.964085e-02
1.986818e-02
2.010274e-02
2.034304e-02
2.058318e-02
2.082175e-02
2.105726e-02
2.128819e-02
2.151302e-02
2.173032e-02
2.193870e-02
2.213684e-02
2.232350e-02
2.249747e-02
2.265758e-02
2.280272e-02
2.293186e-02
2.304402e-02
2.313837e-02
2.321418e-02
2.327091e-02
2.330815e-02
2.332570e-02
2.332350e-02
2.330166e-02
2.326045e-02
2.320028e-02
2.312217e-02
2.302689e-02
2.291526e-02
2.278823e-02
2.264684e-02
2.249225e-02
2.232570e-02
2.214849e-02
2.196197e-02
2.176756e-02
2.156668e-02
2.136075e-02
2.115122e-02
2.093952e-02
2.072705e-02
2.051520e-02
2.030530e-02
2.009868e-02
1.989660e-02
1.970030e-02
1.951096e-02
1.932975e-02
1.915777e-02
1.899610e-02
1.884576e-02
1.870776e-02
1.858301e-02
1.847238e-02
1.837663e-02
1.837648e-02
2.032459e-02
2.030164e-02
1.989255e-02
1.952441e-02
1.920697e-02
1.893936e-02
1.871432e-02
1.851912e-02
1.833875e-02
1.816118e-02
1.798215e-02
1.780664e-02
1.764589e-02
1.751128e-02
1.740853e-02
1.733492e-02
1.728100e-02
1.723532e-02
1.718965e-02
1.714189e-02
1.709583e-02
1.705815e-02
1.703468e-02
1.702804e-02
1.703691e-02
1.705750e-02
1.708595e-02
1.712014e-02
1.716019e-02
1.720781e-02
1.726508e-02
1.733340e-02
1.741314e-02
1.750393e-02
1.760528e-02
1.771701e-02
1.783940e-02
1.797294e-02
1.811807e-02
1.827485e-02
1.844300e-02
1.862202e-02
1.881137e-02
1.901063e-02
1.921951e-02
1.943774e-02
1.966497e-02
1.990059e-02
2.014349e-02
2.038671e-02
2.062867e-02
2.086781e-02
2.110260e-02
2.133157e-02
2.155332e-02
2.176649e-02
2.196974e-02
2.216178e-02
2.234132e-02
2.250710e-02
2.265790e-02
2.279259e-02
2.291013e-02
2.300959e-02
2.309023e-02
2.315145e-02
2.319282e-02
2.321408e-02
2.321513e-02
2.319602e-02
2.315697e-02
2.309835e-02
2.302109e-02
2.292609e-02
2.281415e-02
2.268621e-02
2.254331e-02
2.238660e-02
2.221731e-02
2.203675e-02
2.184626e-02
2.164725e-02
2.144111e-02
2.122929e-02
2.101321e-02
2.079429e-02
2.057392e-02
2.035348e-02
2.013432e-02
1.991773e-02
1.970499e-02
1.949733e-02
1.929593e-02
1.910194e-02
1.891649e-02
1.874066e-02
1.857549e-02
1.842199e-02
1.828110e-02
1.815373e-02
1.804067e-02
1.804052e-02
2.034996e-02
2.031862e-02
1.989873e-02
1.952943e-02
1.921351e-02
1.894491e-02
1.871166e-02
1.849861e-02
1.829265e-02
1.808791e-02
1.788804e-02
1.770369e-02
1.754654e-02
1.742294e-02
1.733068e-02
1.726025e-02
1.719963e-02
1.713977e-02
1.707798e-02
1.701780e-02
1.696604e-02
1.692874e-02
1.690840e-02
1.690372e-02
1.691065e-02
1.692502e-02
1.694454e-02
1.696934e-02
1.700126e-02
1.704251e-02
1.709457e-02
1.715779e-02
1.723179e-02
1.731610e-02
1.741063e-02
1.751580e-02
1.763229e-02
1.776064e-02
1.790102e-02
1.805323e-02
1.821688e-02
1.839158e-02
1.857715e-02
1.877354e-02
1.898071e-02
1.919851e-02
1.942650e-02
1.966398e-02
1.990995e-02
2.015707e-02
2.040321e-02
2.064686e-02
2.088656e-02
2.112088e-02
2.134845e-02
2.156789e-02
2.177781e-02
2.197682e-02
2.216351e-02
2.233651e-02
2.249449e-02
2.263623e-02
2.276062e-02
2.286670e-02
2.295366e-02
2.302085e-02
2.306779e-02
2.309415e-02
2.309975e-02
2.308459e-02
2.304881e-02
2.299275e-02
2.291719e-02
2.282322e-02
2.271161e-02
2.258330e-02
2.243931e-02
2.228079e-02
2.210896e-02
2.192511e-02
2.173060e-02
2.152680e-02
2.131512e-02
2.109700e-02
2.087386e-02
2.064712e-02
2.041817e-02
2.018840e-02
1.995914e-02
1.973172e-02
1.950739e-02
1.928740e-02
1.907295e-02
1.886519e-02
1.866528e-02
1.847430e-02
1.829335e-02
1.812345e-02
1.796560e-02
1.782073e-02
1.768971e-02
1.768957e-02
2.033932e-02
2.030853e-02
1.988434e-02
1.951570e-02
1.919843e-02
1.892170e-02
1.867074e-02
1.843177e-02
1.819750e-02
1.797009e-02
1.775938e-02
1.757708e-02
1.743016e-02
1.731701e-02
1.722819e-02
1.715118e-02
1.707607e-02
1.699944e-02
1.692448e-02
1.685804e-02
1.680644e-02
1.677231e-02
1.675396e-02
1.674727e-02
1.674776e-02
1.675285e-02
1.676261e-02
1.677900e-02
1.680433e-02
1.684015e-02
1.688683e-02
1.694396e-02
1.701105e-02
1.708812e-02
1.717570e-02
1.727460e-02
1.738547e-02
1.750855e-02
1.764372e-02
1.779069e-02
1.794927e-02
1.811949e-02
1.830155e-02
1.849564e-02
1.870182e-02
1.891984e-02
1.914912e-02
1.938886e-02
1.963809e-02
1.988974e-02
2.014082e-02
2.038993e-02
2.063568e-02
2.087669e-02
2.111154e-02
2.133880e-02
2.155697e-02
2.176452e-02
2.195993e-02
2.214170e-02
2.230842e-02
2.245881e-02
2.259169e-02
2.270605e-02
2.280102e-02
2.287586e-02
2.293001e-02
2.296303e-02
2.297467e-02
2.296483e-02
2.293362e-02
2.288131e-02
2.280854e-02
2.271654e-02
2.260611e-02
2.247815e-02
2.233368e-02
2.217382e-02
2.199979e-02
2.181287e-02
2.161440e-02
2.140577e-02
2.118838e-02
2.096368e-02
2.073308e-02
2.049802e-02
2.025991e-02
2.002013e-02
1.978004e-02
1.954096e-02
1.930418e-02
1.907094e-02
1.884248e-02
1.861999e-02
1.840463e-02
1.819755e-02
1.799987e-02
1.781266e-02
1.763699e-02
1.747385e-02
1.732416e-02
1.732402e-02
2.029842e-02
2.027547e-02
1.984910e-02
1.947843e-02
1.915302e-02
1.885885e-02