# vtk DataFile Version 3.0
Scalar Field
ASCII
DATASET RECTILINEAR_GRID
DIMENSIONS 102 102 1
X_COORDINATES 102 double
0.000000 0.100000 0.200000 0.300000 0.400000 0.500000 0.600000 0.700000 0.800000 0.900000 1.000000 1.100000 1.200000 1.300000 1.400000 1.500000 1.600000 1.700000 1.800000 1.900000 2.000000 2.100000 2.200000 2.300000 2.400000 2.500000 2.600000 2.700000 2.800000 2.900000 3.000000 3.100000 3.200000 3.300000 3.400000 3.500000 3.600000 3.700000 3.800000 3.900000 4.000000 4.100000 4.200000 4.300000 4.400000 4.500000 4.600000 4.700000 4.800000 4.900000 5.000000 5.100000 5.200000 5.300000 5.400000 5.500000 5.600000 5.700000 5.800000 5.900000 6.000000 6.100000 6.200000 6.300000 6.400000 6.500000 6.600000 6.700000 6.800000 6.900000 7.000000 7.100000 7.200000 7.300000 7.400000 7.500000 7.600000 7.700000 7.800000 7.900000 8.000000 8.100000 8.200000 8.300000 8.400000 8.500000 8.600000 8.700000 8.800000 8.900000 9.000000 9.100000 9.200000 9.300000 9.400000 9.500000 9.600000 9.700000 9.800000 9.900000 10.000000 10.100000 
Y_COORDINATES 102 double
0.000000 0.100000 0.200000 0.300000 0.400000 0.500000 0.600000 0.700000 0.800000 0.900000 1.000000 1.100000 1.200000 1.300000 1.400000 1.500000 1.600000 1.700000 1.800000 1.900000 2.000000 2.100000 2.200000 2.300000 2.400000 2.500000 2.600000 2.700000 2.800000 2.900000 3.000000 3.100000 3.200000 3.300000 3.400000 3.500000 3.600000 3.700000 3.800000 3.900000 4.000000 4.100000 4.200000 4.300000 4.400000 4.500000 4.600000 4.700000 4.800000 4.900000 5.000000 5.100000 5.200000 5.300000 5.400000 5.500000 5.600000 5.700000 5.800000 5.900000 6.000000 6.100000 6.200000 6.300000 6.400000 6.500000 6.600000 6.700000 6.800000 6.900000 7.000000 7.100000 7.200000 7.300000 7.400000 7.500000 7.600000 7.700000 7.800000 7.900000 8.000000 8.100000 8.200000 8.300000 8.400000 8.500000 8.600000 8.700000 8.800000 8.900000 9.000000 9.100000 9.200000 9.300000 9.400000 9.500000 9.600000 9.700000 9.800000 9.900000 10.000000 10.100000 
Z_COORDINATES 1 double
0.0
POINT_DATA 10404
SCALARS Pressure double 1
LOOKUP_TABLE default
0.000000e+00
1.600570e-02
1.601651e-02
1.582707e-02
1.553227e-02
1.523245e-02
1.500170e-02
1.486426e-02
1.479738e-02
1.475329e-02
1.468637e-02
1.457222e-02
1.441267e-02
1.422831e-02
1.404566e-02
1.388611e-02
1.376075e-02
1.367115e-02
1.361328e-02
1.358168e-02
1.357191e-02
1.358117e-02
1.360791e-02
1.365131e-02
1.371095e-02
1.378683e-02
1.387922e-02
1.398850e-02
1.411501e-02
1.425891e-02
1.442033e-02
1.459952e-02
1.479683e-02
1.501259e-02
1.524675e-02
1.549863e-02
1.576684e-02
1.604948e-02
1.634456e-02
1.665034e-02
1.696562e-02
1.728969e-02
1.762212e-02
1.796246e-02
1.830997e-02
1.866347e-02
1.902137e-02
1.938175e-02
1.974252e-02
2.010155e-02
2.045689e-02
2.080667e-02
2.114913e-02
2.148254e-02
2.180520e-02
2.211543e-02
2.241157e-02
2.269206e-02
2.295545e-02
2.320042e-02
2.342581e-02
2.363060e-02
2.381387e-02
2.397482e-02
2.411268e-02
2.422678e-02
2.431655e-02
2.438158e-02
2.442163e-02
2.443673e-02
2.442714e-02
2.439336e-02
2.433611e-02
2.425630e-02
2.415496e-02
2.403324e-02
2.389241e-02
2.373384e-02
2.355903e-02
2.336961e-02
2.316735e-02
2.295421e-02
2.273226e-02
2.250374e-02
2.227103e-02
2.203660e-02
2.180307e-02
2.157313e-02
2.134959e-02
2.113532e-02
2.093327e-02
2.074647e-02
2.057796e-02
2.043075e-02
2.030775e-02
2.021160e-02
2.014431e-02
2.010673e-02
2.009742e-02
2.011052e-02
2.013222e-02
0.000000e+00
1.600570e-02
1.609953e-02
1.596835e-02
1.568594e-02
1.537759e-02
1.513490e-02
1.499554e-02
1.494065e-02
1.491718e-02
1.486963e-02
1.476477e-02
1.460040e-02
1.439861e-02
1.419094e-02
1.400441e-02
1.385411e-02
1.374307e-02
1.366677e-02
1.361838e-02
1.359215e-02
1.358448e-02
1.359358e-02
1.361861e-02
1.365930e-02
1.371581e-02
1.378860e-02
1.387830e-02
1.398546e-02
1.411043e-02
1.425344e-02
1.441477e-02
1.459482e-02
1.479399e-02
1.501231e-02
1.524918e-02
1.550321e-02
1.577244e-02
1.605479e-02
1.634846e-02
1.665227e-02
1.696565e-02
1.728839e-02
1.762029e-02
1.796083e-02
1.830900e-02
1.866333e-02
1.902195e-02
1.938281e-02
1.974380e-02
2.010287e-02
2.045815e-02
2.080786e-02
2.115026e-02
2.148361e-02
2.180620e-02
2.211631e-02
2.241229e-02
2.269261e-02
2.295585e-02
2.320077e-02
2.342624e-02
2.363124e-02
2.381482e-02
2.397608e-02
2.411419e-02
2.422840e-02
2.431810e-02
2.438290e-02
2.442261e-02
2.443735e-02
2.442745e-02
2.439349e-02
2.433623e-02
2.425654e-02
2.415542e-02
2.403397e-02
2.389339e-02
2.373502e-02
2.356032e-02
2.337092e-02
2.316863e-02
2.295539e-02
2.273333e-02
2.250470e-02
2.227188e-02
2.203738e-02
2.180380e-02
2.157384e-02
2.135028e-02
2.113601e-02
2.093397e-02
2.074718e-02
2.057868e-02
2.043149e-02
2.030851e-02
2.021236e-02
2.014508e-02
2.010752e-02
2.009821e-02
2.011132e-02
2.013302e-02
2.013222e-02
1.602762e-02
1.597627e-02
1.575514e-02
1.550955e-02
1.533064e-02
1.524247e-02
1.521973e-02
1.521051e-02
1.516560e-02
1.505956e-02
1.489599e-02
1.469905e-02
1.449889e-02
1.431935e-02
1.417245e-02
1.405953e-02
1.397603e-02
1.391608e-02
1.387521e-02
1.385084e-02
1.384175e-02
1.384748e-02
1.386798e-02
1.390364e-02
1.395519e-02
1.402338e-02
1.410883e-02
1.421187e-02
1.433269e-02
1.447151e-02
1.462868e-02
1.480447e-02
1.499876e-02
1.521083e-02
1.543929e-02
1.568235e-02
1.593827e-02
1.620566e-02
1.648375e-02
1.677220e-02
1.707091e-02
1.737966e-02
1.769783e-02
1.802439e-02
1.835787e-02
1.869659e-02
1.903873e-02
1.938250e-02
1.972605e-02
2.006764e-02
2.040558e-02
2.073819e-02
2.106380e-02
2.138069e-02
2.168719e-02
2.198167e-02
2.226264e-02
2.252871e-02
2.277863e-02
2.301125e-02
2.322547e-02
2.342025e-02
2.359461e-02
2.374758e-02
2.387835e-02
2.398622e-02
2.407071e-02
2.413157e-02
2.416877e-02
2.418252e-02
2.417323e-02
2.414143e-02
2.408780e-02
2.401310e-02
2.391821e-02
2.380414e-02
2.367201e-02
2.352311e-02
2.335889e-02
2.318096e-02
2.299108e-02
2.279117e-02
2.258326e-02
2.236951e-02
2.215217e-02
2.193360e-02
2.171624e-02
2.150259e-02
2.129523e-02
2.109683e-02
2.091005e-02
2.073760e-02
2.058217e-02
2.044634e-02
2.033252e-02
2.024275e-02
2.017845e-02
2.014000e-02
2.012614e-02
2.013323e-02
2.015506e-02
2.015426e-02
1.592955e-02
1.577712e-02
1.558316e-02
1.546327e-02
1.543806e-02
1.546613e-02
1.548651e-02
1.545033e-02
1.533968e-02
1.516806e-02
1.496721e-02
1.477003e-02
1.459851e-02
1.446046e-02
1.435317e-02
1.426975e-02
1.420404e-02
1.415254e-02
1.411404e-02
1.408847e-02
1.407611e-02
1.407745e-02
1.409329e-02
1.412471e-02
1.417272e-02
1.423800e-02
1.432083e-02
1.442128e-02
1.453948e-02
1.467565e-02
1.482993e-02
1.500205e-02
1.519109e-02
1.539560e-02
1.561389e-02
1.584454e-02
1.608663e-02
1.633986e-02
1.660427e-02
1.687994e-02
1.716659e-02
1.746352e-02
1.776952e-02
1.808310e-02
1.840265e-02
1.872656e-02
1.905330e-02
1.938141e-02
1.970926e-02
2.003521e-02
2.035766e-02
2.067495e-02
2.098539e-02
2.128734e-02
2.157921e-02
2.185956e-02
2.212705e-02
2.238044e-02
2.261854e-02
2.284023e-02
2.304434e-02
2.322979e-02
2.339551e-02
2.354058e-02
2.366425e-02
2.376598e-02
2.384546e-02
2.390260e-02
2.393748e-02
2.395033e-02
2.394153e-02
2.391151e-02
2.386084e-02
2.379018e-02
2.370031e-02
2.359220e-02
2.346696e-02
2.332589e-02
2.317043e-02
2.300219e-02
2.282288e-02
2.263437e-02
2.243859e-02
2.223759e-02
2.203349e-02
2.182849e-02
2.162488e-02
2.142498e-02
2.123121e-02
2.104598e-02
2.087175e-02
2.071096e-02
2.056599e-02
2.043912e-02
2.033240e-02
2.024756e-02
2.018585e-02
2.014779e-02
2.013300e-02
2.014031e-02
2.016843e-02
2.016763e-02
1.579614e-02
1.562138e-02
1.553721e-02
1.556447e-02
1.564931e-02
1.571542e-02
1.570524e-02
1.560120e-02
1.542407e-02
1.521500e-02
1.501389e-02
1.484509e-02
1.471452e-02
1.461555e-02
1.453754e-02
1.447220e-02
1.441565e-02
1.436745e-02
1.432867e-02
1.430065e-02
1.428476e-02
1.428244e-02
1.429526e-02
1.432457e-02
1.437118e-02
1.443533e-02
1.451698e-02
1.461610e-02
1.473279e-02
1.486707e-02
1.501851e-02
1.518608e-02
1.536825e-02
1.556339e-02
1.577033e-02
1.598853e-02
1.621811e-02
1.645949e-02
1.671293e-02
1.697822e-02
1.725456e-02
1.754068e-02
1.783501e-02
1.813599e-02
1.844217e-02
1.875225e-02
1.906501e-02
1.937919e-02
1.969317e-02
2.000528e-02
2.031388e-02
2.061734e-02
2.091404e-02
2.120246e-02
2.148121e-02
2.174900e-02
2.200463e-02
2.224689e-02
2.247458e-02
2.268648e-02
2.288136e-02
2.305807e-02
2.321559e-02
2.335313e-02
2.347009e-02
2.356612e-02
2.364106e-02
2.369489e-02
2.372771e-02
2.373970e-02
2.373111e-02
2.370230e-02
2.365373e-02
2.358601e-02
2.349993e-02
2.339645e-02
2.327672e-02
2.314204e-02
2.299386e-02
2.283375e-02
2.266338e-02
2.248450e-02
2.229897e-02
2.210870e-02
2.191571e-02
2.172205e-02
2.152986e-02
2.134134e-02
2.115870e-02
2.098420e-02
2.082007e-02
2.066854e-02
2.053175e-02
2.041175e-02
2.031038e-02
2.022924e-02
2.016958e-02
2.013226e-02
2.011776e-02
2.012653e-02
2.015970e-02
2.015890e-02
1.571272e-02
1.559267e-02
1.564085e-02
1.577362e-02
1.589055e-02
1.591972e-02
1.583626e-02
1.566233e-02
1.544645e-02
1.523724e-02
1.506505e-02
1.493741e-02
1.484560e-02
1.477529e-02
1.471481e-02
1.465840e-02
1.460527e-02
1.455717e-02
1.451657e-02
1.448589e-02
1.446749e-02
1.446360e-02
1.447595e-02
1.450553e-02
1.455260e-02
1.461700e-02
1.469855e-02
1.479720e-02
1.491284e-02
1.504495e-02
1.519242e-02
1.535369e-02
1.552725e-02
1.571207e-02
1.590794e-02
1.611527e-02
1.633475e-02
1.656684e-02
1.681142e-02
1.706769e-02
1.733436e-02
1.760989e-02
1.789277e-02
1.818167e-02
1.847546e-02
1.877310e-02
1.907351e-02
1.937546e-02
1.967722e-02
1.997695e-02
2.027307e-02
2.056402e-02
2.084837e-02
2.112479e-02
2.139206e-02
2.164898e-02
2.189435e-02
2.212690e-02
2.234531e-02
2.254826e-02
2.273452e-02
2.290299e-02
2.305281e-02
2.318337e-02
2.329427e-02
2.338526e-02
2.345626e-02
2.350720e-02
2.353812e-02
2.354907e-02
2.354023e-02
2.351190e-02
2.346453e-02
2.339874e-02
2.331536e-02
2.321539e-02
2.310001e-02
2.297050e-02
2.282830e-02
2.267491e-02
2.251193e-02
2.234102e-02
2.216393e-02
2.198248e-02
2.179857e-02
2.161415e-02
2.143122e-02
2.125184e-02
2.107809e-02
2.091205e-02
2.075581e-02
2.061137e-02
2.048073e-02
2.036573e-02
2.026811e-02
2.018940e-02
2.013093e-02
2.009385e-02
2.007923e-02
2.008834e-02
2.012318e-02
2.012239e-02
1.574585e-02
1.572588e-02
1.586809e-02
1.602664e-02
1.609779e-02
1.604433e-02
1.588339e-02
1.566617e-02
1.544852e-02
1.526833e-02
1.513773e-02
1.504867e-02
1.498457e-02
1.493038e-02
1.487744e-02
1.482341e-02
1.476986e-02
1.471996e-02
1.467723e-02
1.464509e-02
1.462655e-02
1.462385e-02
1.463819e-02
1.466981e-02
1.471849e-02
1.478391e-02
1.486590e-02
1.496422e-02
1.507826e-02
1.520688e-02
1.534858e-02
1.550197e-02
1.566623e-02
1.584132e-02
1.602788e-02
1.622674e-02
1.643847e-02
1.666304e-02
1.689971e-02
1.714728e-02
1.740431e-02
1.766941e-02
1.794138e-02
1.821920e-02
1.850198e-02
1.878872e-02
1.907832e-02
1.936946e-02
1.966026e-02
1.994882e-02
2.023370e-02
2.051354e-02
2.078711e-02
2.105325e-02
2.131079e-02
2.155848e-02
2.179498e-02
2.201890e-02
2.222882e-02
2.242344e-02
2.260162e-02
2.276247e-02
2.290532e-02
2.302974e-02
2.313542e-02
2.322215e-02
2.328975e-02
2.333807e-02
2.336703e-02
2.337660e-02
2.336694e-02
2.333838e-02
2.329140e-02
2.322671e-02
2.314516e-02
2.304781e-02
2.293580e-02
2.281041e-02
2.267300e-02
2.252500e-02
2.236793e-02
2.220339e-02
2.203302e-02
2.185857e-02
2.168183e-02
2.150466e-02
2.132897e-02
2.115668e-02
2.098975e-02
2.083011e-02
2.067970e-02
2.054039e-02
2.041401e-02
2.030230e-02
2.020689e-02
2.012927e-02
2.007086e-02
2.003296e-02
2.001693e-02
2.002439e-02
2.005744e-02
2.005667e-02
1.591854e-02
1.599960e-02
1.615975e-02
1.626228e-02
1.623808e-02
1.609502e-02
1.588179e-02
1.565781e-02
1.546740e-02
1.532849e-02
1.523609e-02
1.517349e-02
1.512337e-02
1.507420e-02
1.502130e-02
1.496510e-02
1.490877e-02
1.485657e-02
1.481295e-02
1.478178e-02
1.476587e-02
1.476668e-02
1.478446e-02
1.481888e-02
1.486953e-02
1.493613e-02
1.501835e-02
1.511551e-02
1.522647e-02
1.534983e-02
1.548436e-02
1.562944e-02
1.578522e-02
1.595244e-02
1.613199e-02
1.632444e-02
1.652980e-02
1.674743e-02
1.697626e-02
1.721506e-02
1.746261e-02
1.771789e-02
1.797999e-02
1.824809e-02
1.852125e-02
1.879843e-02
1.907838e-02
1.935978e-02
1.964068e-02
1.991927e-02
2.019432e-02
2.046470e-02
2.072929e-02
2.098695e-02
2.123637e-02
2.147615e-02
2.170478e-02
2.192080e-02
2.212284e-02
2.230974e-02
2.248059e-02
2.263473e-02
2.277164e-02
2.289095e-02
2.299232e-02
2.307544e-02
2.313999e-02
2.318573e-02
2.321250e-02
2.322029e-02
2.320929e-02
2.317992e-02
2.313276e-02
2.306856e-02
2.298820e-02
2.289273e-02
2.278325e-02
2.266098e-02
2.252722e-02
2.238333e-02
2.223076e-02
2.207104e-02
2.190576e-02
2.173658e-02
2.156524e-02
2.139350e-02
2.122317e-02
2.105607e-02
2.089403e-02
2.073889e-02
2.059243e-02
2.045643e-02
2.033259e-02
2.022254e-02
2.012783e-02
2.004992e-02
1.999024e-02
1.995016e-02
1.993114e-02
1.993481e-02
1.996312e-02
1.996236e-02
1.620567e-02
1.635114e-02
1.644984e-02
1.644288e-02
1.631368e-02
1.610518e-02
1.587636e-02
1.567506e-02
1.552412e-02
1.542242e-02
1.535489e-02
1.530365e-02
1.525519e-02
1.520259e-02
1.514453e-02
1.508343e-02
1.502369e-02
1.497040e-02
1.492825e-02
1.490067e-02
1.488938e-02
1.489470e-02
1.491617e-02
1.495324e-02
1.500557e-02
1.507277e-02
1.515412e-02
1.524853e-02
1.535468e-02
1.547154e-02
1.559869e-02
1.573646e-02
1.588564e-02
1.604709e-02
1.622134e-02
1.640836e-02
1.660759e-02
1.681815e-02
1.703903e-02
1.726928e-02
1.750805e-02
1.775459e-02
1.800812e-02
1.826773e-02
1.853238e-02
1.880090e-02
1.907205e-02
1.934462e-02
1.961680e-02
1.988688e-02
2.015384e-02
2.041662e-02
2.067405e-02
2.092478e-02
2.116730e-02
2.140004e-02
2.162145e-02
2.183015e-02
2.202500e-02
2.220508e-02
2.236972e-02
2.251836e-02
2.265053e-02
2.276576e-02
2.286356e-02
2.294347e-02
2.300510e-02
2.304815e-02
2.307249e-02
2.307818e-02
2.306551e-02
2.303502e-02
2.298732e-02
2.292320e-02
2.284352e-02
2.274928e-02
2.264153e-02
2.252142e-02
2.239020e-02
2.224917e-02
2.209975e-02
2.194340e-02
2.178168e-02
2.161619e-02
2.144859e-02
2.128058e-02
2.111388e-02
2.095021e-02
2.079131e-02
2.063890e-02
2.049468e-02
2.036031e-02
2.023738e-02
2.012744e-02
2.003196e-02
1.995235e-02
1.989001e-02
1.984630e-02
1.982265e-02
1.982058e-02
1.984177e-02
1.984103e-02
1.654911e-02
1.670498e-02
1.668941e-02
1.656135e-02
1.635129e-02
1.611541e-02
1.590211e-02
1.573678e-02
1.562127e-02
1.554263e-02
1.548372e-02
1.543045e-02
1.537444e-02
1.531283e-02
1.524679e-02
1.518023e-02
1.511835e-02
1.506634e-02
1.502811e-02
1.500571e-02
1.499952e-02
1.500900e-02
1.503347e-02
1.507242e-02
1.512549e-02
1.519196e-02
1.527078e-02
1.536075e-02
1.546101e-02
1.557134e-02
1.569220e-02
1.582445e-02
1.596887e-02
1.612590e-02
1.629545e-02
1.647701e-02
1.666984e-02
1.687321e-02
1.708643e-02
1.730890e-02
1.753999e-02
1.777898e-02
1.802498e-02
1.827695e-02
1.853375e-02
1.879426e-02
1.905741e-02
1.932229e-02
1.958730e-02
1.985070e-02
2.011147e-02
2.036843e-02
2.062014e-02
2.086499e-02
2.110134e-02
2.132759e-02
2.154238e-02
2.174457e-02
2.193331e-02
2.210789e-02
2.226771e-02
2.241220e-02
2.254073e-02
2.265266e-02
2.274735e-02
2.282426e-02
2.288297e-02
2.292325e-02
2.294506e-02
2.294858e-02
2.293417e-02
2.290243e-02
2.285402e-02
2.278966e-02
2.271020e-02
2.261656e-02
2.250974e-02
2.239085e-02
2.226110e-02
2.212177e-02
2.197422e-02
2.181991e-02
2.166035e-02
2.149708e-02
2.133172e-02
2.116587e-02
2.100120e-02
2.083935e-02
2.068197e-02
2.053069e-02
2.038712e-02
2.025280e-02
2.012926e-02
2.001795e-02
1.992027e-02
1.983757e-02
1.977117e-02
1.972240e-02
1.969258e-02
1.968309e-02
1.969533e-02
1.969460e-02
1.688301e-02
1.700079e-02
1.685874e-02
1.663475e-02
1.638465e-02
1.615576e-02
1.597377e-02
1.584152e-02
1.574725e-02
1.567477e-02
1.561041e-02
1.554555e-02
1.547645e-02
1.540329e-02
1.532910e-02
1.525868e-02
1.519722e-02
1.514885e-02
1.511583e-02
1.509863e-02
1.509664e-02
1.510909e-02
1.513537e-02
1.517498e-02
1.522732e-02
1.529137e-02
1.536605e-02
1.545064e-02
1.554511e-02
1.565001e-02
1.576624e-02
1.589451e-02
1.603516e-02
1.618801e-02
1.635258e-02
1.652830e-02
1.671465e-02
1.691121e-02
1.711760e-02
1.733335e-02
1.755779e-02
1.779005e-02
1.802910e-02
1.827385e-02
1.852327e-02
1.877650e-02
1.903282e-02
1.929161e-02
1.955135e-02
1.980998e-02
2.006627e-02
2.031868e-02
2.056552e-02
2.080506e-02
2.103570e-02
2.125610e-02
2.146520e-02
2.166216e-02
2.184630e-02
2.201695e-02
2.217340e-02
2.231489e-02
2.244059e-02
2.254971e-02
2.264155e-02
2.271559e-02
2.277148e-02
2.280911e-02
2.282856e-02
2.283008e-02
2.281405e-02
2.278109e-02
2.273183e-02
2.266695e-02
2.258723e-02
2.249355e-02
2.238689e-02
2.226834e-02
2.213907e-02
2.200036e-02
2.185356e-02
2.170008e-02
2.154140e-02
2.137902e-02
2.121449e-02
2.104939e-02
2.088530e-02
2.072379e-02
2.056644e-02
2.041480e-02
2.027039e-02
2.013467e-02
2.000907e-02
1.989496e-02
1.979369e-02
1.970654e-02
1.963475e-02
1.957955e-02
1.954219e-02
1.952387e-02
1.952575e-02
1.952503e-02
1.715743e-02
1.721030e-02
1.696605e-02
1.669066e-02
1.643937e-02
1.623708e-02
1.608580e-02
1.597325e-02
1.588326e-02
1.580264e-02
1.572333e-02
1.564176e-02
1.555774e-02
1.547362e-02
1.539353e-02
1.532222e-02
1.526366e-02
1.522010e-02
1.519199e-02
1.517870e-02
1.517937e-02
1.519332e-02
1.522002e-02
1.525876e-02
1.530869e-02
1.536882e-02
1.543856e-02
1.551797e-02
1.560772e-02
1.570868e-02
1.582152e-02
1.594645e-02
1.608325e-02
1.623146e-02
1.639064e-02
1.656049e-02
1.674081e-02
1.693141e-02
1.713195e-02
1.734183e-02
1.756019e-02
1.778603e-02
1.801831e-02
1.825616e-02
1.849892e-02
1.874609e-02
1.899725e-02
1.925186e-02
1.950821e-02
1.976362e-02
2.001646e-02
2.026495e-02
2.050731e-02
2.074195e-02
2.096759e-02
2.118325e-02
2.138815e-02
2.158159e-02
2.176284e-02
2.193106e-02
2.208531e-02
2.222461e-02
2.234799e-02
2.245462e-02
2.254387e-02
2.261531e-02
2.266873e-02
2.270412e-02
2.272161e-02
2.272146e-02
2.270403e-02
2.266989e-02
2.261964e-02
2.255393e-02
2.247349e-02
2.237918e-02
2.227198e-02
2.215297e-02
2.202332e-02
2.188429e-02
2.173721e-02
2.158347e-02
2.142452e-02
2.126182e-02
2.109688e-02
2.093123e-02
2.076639e-02
2.060387e-02
2.044517e-02
2.029178e-02
2.014512e-02
2.000660e-02
1.987756e-02
1.975931e-02
1.965311e-02
1.956020e-02
1.948174e-02
1.941889e-02
1.937277e-02
1.934444e-02
1.933489e-02
1.933418e-02
1.735117e-02
1.733869e-02
1.703647e-02
1.675349e-02
1.652514e-02
1.635189e-02
1.621935e-02
1.610988e-02
1.600990e-02
1.591193e-02
1.581322e-02
1.571406e-02
1.561670e-02
1.552476e-02
1.544237e-02
1.537299e-02
1.531857e-02
1.527938e-02
1.525470e-02
1.524358e-02
1.524532e-02
1.525936e-02
1.528500e-02
1.532131e-02
1.536749e-02
1.542303e-02
1.548808e-02
1.556334e-02
1.564967e-02
1.574765e-02
1.585740e-02
1.597867e-02
1.611104e-02
1.625420e-02
1.640804e-02
1.657255e-02
1.674768e-02
1.693319e-02
1.712850e-02
1.733279e-02
1.754509e-02
1.776447e-02
1.799023e-02
1.822191e-02
1.845929e-02
1.870214e-02
1.895005e-02
1.920220e-02
1.945650e-02
1.970948e-02
1.995926e-02
2.020405e-02
2.044232e-02
2.067287e-02
2.089481e-02
2.110742e-02
2.131000e-02
2.150172e-02
2.168161e-02
2.184855e-02
2.200138e-02
2.213899e-02
2.226045e-02
2.236499e-02
2.245212e-02
2.252154e-02
2.257313e-02
2.260689e-02
2.262296e-02
2.262153e-02
2.260291e-02
2.256761e-02
2.251622e-02
2.244937e-02
2.236780e-02
2.227236e-02
2.216403e-02
2.204388e-02
2.191310e-02
2.177293e-02
2.162468e-02
2.146973e-02
2.130948e-02
2.114539e-02
2.097891e-02
2.081153e-02
2.064471e-02
2.047992e-02
2.031858e-02
2.016212e-02
2.001189e-02
1.986922e-02
1.973542e-02
1.961173e-02
1.949935e-02
1.939945e-02
1.931314e-02
1.924150e-02
1.918555e-02
1.914623e-02
1.912440e-02
1.912371e-02
1.747147e-02
1.741373e-02
1.709792e-02
1.683592e-02
1.663610e-02
1.648141e-02
1.635138e-02
1.623074e-02
1.611179e-02
1.599265e-02
1.587459e-02
1.576045e-02
1.565381e-02
1.555833e-02
1.547689e-02
1.541089e-02
1.536021e-02
1.532386e-02
1.530080e-02
1.529029e-02
1.529177e-02
1.530457e-02
1.532776e-02
1.536047e-02
1.540236e-02
1.545362e-02
1.551495e-02
1.558717e-02
1.567078e-02
1.576582e-02
1.587199e-02
1.598895e-02
1.611653e-02
1.625478e-02
1.640386e-02
1.656384e-02
1.673450e-02
1.691527e-02
1.710534e-02
1.730379e-02
1.750983e-02
1.772294e-02
1.794293e-02
1.816984e-02
1.840364e-02
1.864404e-02
1.889024e-02
1.914095e-02
1.939369e-02
1.964435e-02
1.989115e-02
2.013265e-02
2.036776e-02
2.059572e-02
2.081587e-02
2.102745e-02
2.122956e-02
2.142106e-02
2.160066e-02
2.176705e-02
2.191897e-02
2.205538e-02
2.217546e-02
2.227859e-02
2.236440e-02
2.243265e-02
2.248322e-02
2.251608e-02
2.253127e-02
2.252894e-02
2.250932e-02
2.247286e-02
2.242022e-02
2.235202e-02
2.226900e-02
2.217203e-02
2.206210e-02
2.194029e-02
2.180776e-02
2.166576e-02
2.151558e-02
2.135857e-02
2.119614e-02
2.102968e-02
2.086064e-02
2.069044e-02
2.052051e-02
2.035225e-02
2.018704e-02
2.002624e-02
1.987117e-02
1.972310e-02
1.958328e-02
1.945292e-02
1.933316e-02
1.922513e-02
1.912988e-02
1.904841e-02
1.898168e-02
1.893054e-02
1.889575e-02
1.889508e-02
1.754357e-02
1.746956e-02
1.716999e-02
1.693718e-02
1.675654e-02
1.660423e-02
1.646213e-02
1.632125e-02
1.617987e-02
1.604028e-02
1.590625e-02
1.578189e-02
1.567080e-02
1.557544e-02
1.549663e-02
1.543368e-02
1.538522e-02
1.534993e-02
1.532702e-02
1.531593e-02
1.531604e-02
1.532642e-02
1.534617e-02
1.537484e-02
1.541277e-02
1.546063e-02
1.551918e-02
1.558884e-02
1.566956e-02
1.576103e-02
1.586296e-02
1.597533e-02
1.609835e-02
1.623234e-02
1.637743e-02
1.653341e-02
1.669970e-02
1.687544e-02
1.705976e-02
1.725202e-02
1.745194e-02
1.765961e-02
1.787533e-02
1.809929e-02
1.833131e-02
1.857060e-02
1.881578e-02
1.906512e-02
1.931616e-02
1.956447e-02
1.980873e-02
2.004803e-02
2.028172e-02
2.050917e-02
2.072962e-02
2.094202e-02
2.114508e-02
2.133733e-02
2.151731e-02
2.168366e-02
2.183525e-02
2.197116e-02
2.209074e-02
2.219348e-02
2.227903e-02
2.234712e-02
2.239755e-02
2.243020e-02
2.244504e-02
2.244214e-02
2.242172e-02
2.238417e-02
2.233026e-02
2.226060e-02
2.217596e-02
2.207722e-02
2.196537e-02
2.184148e-02
2.170672e-02
2.156231e-02
2.140956e-02
2.124978e-02
2.108436e-02
2.091467e-02
2.074212e-02
2.056809e-02
2.039396e-02
2.022110e-02
2.005085e-02
1.988452e-02
1.972340e-02
1.956874e-02
1.942173e-02
1.928353e-02
1.915528e-02
1.903804e-02
1.893282e-02
1.884057e-02
1.876220e-02
1.869851e-02
1.865018e-02
1.864953e-02
1.759671e-02
1.753258e-02
1.725884e-02
1.704639e-02
1.686820e-02
1.670286e-02
1.653909e-02
1.637444e-02
1.621162e-02
1.605535e-02
1.591047e-02
1.578100e-02
1.566933e-02
1.557587e-02
1.549941e-02
1.543801e-02
1.539002e-02
1.535441e-02
1.533063e-02
1.531805e-02
1.531579e-02
1.532288e-02
1.533879e-02
1.536374e-02
1.539849e-02
1.544373e-02
1.549979e-02
1.556656e-02
1.564369e-02
1.573094e-02
1.582843e-02
1.593653e-02
1.605570e-02
1.618612e-02
1.632758e-02
1.647942e-02
1.664074e-02
1.681070e-02
1.698880e-02
1.717500e-02
1.736971e-02
1.757352e-02
1.778683e-02
1.800955e-02
1.824087e-02
1.847936e-02
1.872324e-02
1.897072e-02
1.921991e-02
1.946638e-02
1.970939e-02
1.994842e-02
2.018290e-02
2.041198e-02
2.063451e-02
2.084901e-02
2.105385e-02
2.124745e-02
2.142835e-02
2.159534e-02
2.174746e-02
2.188398e-02
2.200428e-02
2.210788e-02
2.219435e-02
2.226330e-02
2.231443e-02
2.234753e-02
2.236251e-02
2.235943e-02
2.233848e-02
2.230005e-02
2.224498e-02
2.217391e-02
2.208762e-02
2.198701e-02
2.187304e-02
2.174680e-02
2.160944e-02
2.146218e-02
2.130631e-02
2.114315e-02
2.097402e-02
2.080030e-02
2.062335e-02
2.044452e-02
2.026518e-02
2.008666e-02
1.991027e-02
1.973730e-02
1.956901e-02
1.940663e-02
1.925131e-02
1.910421e-02
1.896639e-02
1.883892e-02
1.872276e-02
1.861884e-02
1.852803e-02
1.845110e-02
1.838872e-02
1.838809e-02
1.765235e-02
1.761395e-02
1.735830e-02
1.714842e-02
1.695595e-02
1.676698e-02
1.657755e-02
1.639004e-02
1.620959e-02
1.604175e-02
1.589110e-02
1.576033e-02
1.564978e-02
1.555790e-02
1.548223e-02
1.542063e-02
1.537177e-02
1.533496e-02
1.530953e-02
1.529459e-02
1.528913e-02
1.529253e-02
1.530484e-02
1.532672e-02
1.535892e-02
1.540168e-02
1.545481e-02
1.551792e-02
1.559083e-02
1.567375e-02
1.576721e-02
1.587178e-02
1.598772e-02
1.611476e-02
1.625217e-02
1.639899e-02
1.655439e-02
1.671798e-02
1.688999e-02
1.707114e-02
1.726232e-02
1.746415e-02
1.767661e-02
1.789887e-02
1.812943e-02
1.836648e-02
1.860830e-02
1.885362e-02
1.910154e-02
1.934764e-02
1.959150e-02
1.983257e-02
2.006994e-02
2.030229e-02
2.052800e-02
2.074528e-02
2.095243e-02
2.114793e-02
2.133053e-02
2.149922e-02
2.165317e-02
2.179170e-02
2.191416e-02
2.201993e-02
2.210846e-02
2.217924e-02
2.223188e-02
2.226610e-02
2.228179e-02
2.227901e-02
2.225796e-02
2.221903e-02
2.216307e-02
2.209079e-02
2.200298e-02
2.190050e-02
2.178436e-02
2.165561e-02
2.151540e-02
2.136496e-02
2.120553e-02
2.103841e-02
2.086494e-02
2.068644e-02
2.050427e-02
2.031976e-02
2.013426e-02
1.994909e-02
1.976555e-02
1.958491e-02
1.940841e-02
1.923725e-02
1.907258e-02
1.891552e-02
1.876713e-02
1.862844e-02
1.850041e-02
1.838396e-02
1.827995e-02
1.818915e-02
1.811221e-02
1.811160e-02
1.771855e-02
1.770953e-02
1.745482e-02
1.722915e-02
1.701053e-02
1.679327e-02
1.657880e-02
1.637206e-02
1.617886e-02
1.600425e-02
1.585136e-02
1.572079e-02
1.561091e-02
1.551894e-02
1.544225e-02
1.537912e-02
1.532858e-02
1.528987e-02
1.526198e-02
1.524384e-02
1.523471e-02
1.523453e-02
1.524374e-02
1.526303e-02
1.529268e-02
1.533242e-02
1.538181e-02
1.544068e-02
1.550931e-02
1.558838e-02
1.567856e-02
1.578015e-02
1.589285e-02
1.601585e-02
1.614808e-02
1.628872e-02
1.643750e-02
1.659488e-02
1.676191e-02
1.693977e-02
1.712928e-02
1.733050e-02
1.754257e-02
1.776392e-02
1.799271e-02
1.822735e-02
1.846679e-02
1.871058e-02
1.895868e-02
1.920668e-02
1.945374e-02
1.969885e-02
1.994057e-02
2.017708e-02
2.040648e-02
2.062698e-02
2.083703e-02
2.103533e-02
2.122086e-02
2.139272e-02
2.155010e-02
2.169220e-02
2.181824e-02
2.192745e-02
2.201913e-02
2.209269e-02
2.214767e-02
2.218377e-02
2.220088e-02
2.219906e-02
2.217852e-02
2.213963e-02
2.208321e-02
2.201008e-02
2.192099e-02
2.181683e-02
2.169857e-02
2.156728e-02
2.142407e-02
2.127017e-02
2.110681e-02
2.093527e-02
2.075686e-02
2.057292e-02
2.038479e-02
2.019380e-02
2.000129e-02
1.980858e-02
1.961696e-02
1.942769e-02
1.924200e-02
1.906107e-02
1.888605e-02
1.871803e-02
1.855807e-02
1.840721e-02
1.826641e-02
1.813659e-02
1.801862e-02
1.791330e-02
1.782131e-02
1.782072e-02
1.779053e-02
1.780510e-02
1.753328e-02
1.727863e-02
1.702848e-02
1.678324e-02
1.654718e-02
1.632584e-02
1.612434e-02
1.594616e-02
1.579229e-02
1.566130e-02
1.555031e-02
1.545636e-02
1.537732e-02
1.531187e-02
1.525903e-02
1.521761e-02
1.518638e-02
1.516444e-02
1.515157e-02
1.514815e-02
1.515461e-02
1.517121e-02
1.519771e-02
1.523359e-02
1.527866e-02
1.533326e-02
1.539815e-02
1.547410e-02
1.556145e-02
1.565988e-02
1.576844e-02
1.588601e-02
1.601172e-02
1.614540e-02
1.628776e-02
1.644013e-02
1.660400e-02
1.678039e-02
1.696941e-02
1.717015e-02
1.738098e-02
1.760006e-02
1.782591e-02
1.805776e-02
1.829551e-02
1.853946e-02
1.878985e-02
1.904208e-02
1.929419e-02
1.954457e-02
1.979126e-02
2.003226e-02
2.026572e-02
2.049007e-02
2.070403e-02
2.090653e-02
2.109662e-02
2.127338e-02
2.143584e-02
2.158305e-02
2.171402e-02
2.182787e-02
2.192378e-02
2.200111e-02
2.205938e-02
2.209830e-02
2.211773e-02
2.211772e-02
2.209847e-02
2.206035e-02
2.200407e-02
2.193058e-02
2.184062e-02
2.173506e-02
2.161487e-02
2.148108e-02
2.133482e-02
2.117728e-02
2.100969e-02
2.083332e-02
2.064950e-02
2.045955e-02
2.026482e-02
2.006665e-02
1.986638e-02
1.966533e-02
1.946478e-02
1.926600e-02
1.907018e-02
1.887853e-02
1.869217e-02
1.851221e-02
1.833973e-02
1.817576e-02
1.802129e-02
1.787727e-02
1.774459e-02
1.762409e-02
1.751650e-02
1.751594e-02
1.785550e-02
1.788337e-02
1.758137e-02
1.729177e-02
1.701027e-02
1.674048e-02
1.648732e-02
1.625557e-02
1.604872e-02
1.586806e-02
1.571249e-02
1.557925e-02
1.546525e-02
1.536801e-02
1.528588e-02
1.521756e-02
1.516161e-02
1.511653e-02
1.508121e-02
1.505523e-02
1.503884e-02
1.503241e-02
1.503596e-02
1.504922e-02
1.507170e-02
1.510315e-02
1.514389e-02
1.519477e-02
1.525662e-02
1.532982e-02
1.541400e-02
1.550812e-02
1.561094e-02
1.572155e-02
1.583988e-02
1.596683e-02
1.610405e-02
1.625330e-02
1.641578e-02
1.659166e-02
1.677995e-02
1.697896e-02
1.718686e-02
1.740231e-02
1.762483e-02
1.785468e-02
1.809251e-02
1.833881e-02
1.859352e-02
1.885161e-02
1.910969e-02
1.936568e-02
1.961750e-02
1.986327e-02
2.010144e-02
2.033077e-02
2.055016e-02
2.075861e-02
2.095509e-02
2.113847e-02
2.130760e-02
2.146133e-02
2.159852e-02
2.171820e-02
2.181950e-02
2.190176e-02
2.196448e-02
2.200734e-02
2.203019e-02
2.203305e-02
2.201607e-02
2.197959e-02
2.192421e-02
2.185101e-02
2.176071e-02
2.165417e-02
2.153232e-02
2.139620e-02
2.124692e-02
2.108566e-02
2.091365e-02
2.073218e-02
2.054256e-02
2.034616e-02
2.014431e-02
1.993837e-02
1.972969e-02
1.951957e-02
1.930930e-02
1.910015e-02
1.889332e-02
1.869001e-02
1.849137e-02
1.829853e-02
1.811257e-02
1.793456e-02
1.776553e-02
1.760647e-02
1.745831e-02
1.732194e-02
1.719816e-02
1.719762e-02
1.789863e-02
1.792959e-02
1.759151e-02
1.726720e-02
1.695800e-02
1.666825e-02
1.640214e-02
1.616285e-02
1.595172e-02
1.576792e-02
1.560891e-02
1.547160e-02
1.535334e-02
1.525217e-02
1.516649e-02
1.509453e-02
1.503447e-02
1.498487e-02
1.494507e-02
1.491515e-02
1.489541e-02
1.488579e-02
1.488575e-02
1.489480e-02
1.491267e-02
1.493967e-02
1.497664e-02
1.502447e-02
1.508357e-02
1.515351e-02
1.523317e-02
1.532115e-02
1.541651e-02
1.551923e-02
1.563044e-02
1.575203e-02
1.588606e-02
1.603388e-02
1.619570e-02
1.637047e-02
1.655639e-02
1.675166e-02
1.695511e-02
1.716654e-02
1.738661e-02
1.761631e-02
1.785638e-02
1.810689e-02
1.836707e-02
1.863160e-02
1.889570e-02
1.915724e-02
1.941437e-02
1.966560e-02
1.990970e-02
2.014562e-02
2.037228e-02
2.058855e-02
2.079316e-02
2.098477e-02
2.116202e-02
2.132361e-02
2.146834e-02
2.159516e-02
2.170320e-02
2.179175e-02
2.186029e-02
2.190845e-02
2.193602e-02
2.194297e-02
2.192941e-02
2.189563e-02
2.184208e-02
2.176995e-02
2.167997e-02
2.157298e-02
2.144988e-02
2.131171e-02
2.115956e-02
2.099463e-02
2.081815e-02
2.063142e-02
2.043579e-02
2.023261e-02
2.002324e-02
1.980903e-02
1.959134e-02
1.937149e-02
1.915077e-02
1.893044e-02
1.871174e-02
1.849588e-02
1.828404e-02
1.807738e-02
1.787701e-02
1.768404e-02
1.749955e-02
1.732458e-02
1.716013e-02
1.700715e-02
1.686653e-02
1.686601e-02
1.790756e-02
1.793436e-02
1.756046e-02
1.720549e-02
1.687349e-02
1.656810e-02