# vtk DataFile Version 3.0
Scalar Field
ASCII
DATASET RECTILINEAR_GRID
DIMENSIONS 102 102 1
X_COORDINATES 102 double
0.000000 0.100000 0.200000 0.300000 0.400000 0.500000 0.600000 0.700000 0.800000 0.900000 1.000000 1.100000 1.200000 1.300000 1.400000 1.500000 1.600000 1.700000 1.800000 1.900000 2.000000 2.100000 2.200000 2.300000 2.400000 2.500000 2.600000 2.700000 2.800000 2.900000 3.000000 3.100000 3.200000 3.300000 3.400000 3.500000 3.600000 3.700000 3.800000 3.900000 4.000000 4.100000 4.200000 4.300000 4.400000 4.500000 4.600000 4.700000 4.800000 4.900000 5.000000 5.100000 5.200000 5.300000 5.400000 5.500000 5.600000 5.700000 5.800000 5.900000 6.000000 6.100000 6.200000 6.300000 6.400000 6.500000 6.600000 6.700000 6.800000 6.900000 7.000000 7.100000 7.200000 7.300000 7.400000 7.500000 7.600000 7.700000 7.800000 7.900000 8.000000 8.100000 8.200000 8.300000 8.400000 8.500000 8.600000 8.700000 8.800000 8.900000 9.000000 9.100000 9.200000 9.300000 9.400000 9.500000 9.600000 9.700000 9.800000 9.900000 10.000000 10.100000 
Y_COORDINATES 102 double
0.000000 0.100000 0.200000 0.300000 0.400000 0.500000 0.600000 0.700000 0.800000 0.900000 1.000000 1.100000 1.200000 1.300000 1.400000 1.500000 1.600000 1.700000 1.800000 1.900000 2.000000 2.100000 2.200000 2.300000 2.400000 2.500000 2.600000 2.700000 2.800000 2.900000 3.000000 3.100000 3.200000 3.300000 3.400000 3.500000 3.600000 3.700000 3.800000 3.900000 4.000000 4.100000 4.200000 4.300000 4.400000 4.500000 4.600000 4.700000 4.800000 4.900000 5.000000 5.100000 5.200000 5.300000 5.400000 5.500000 5.600000 5.700000 5.800000 5.900000 6.000000 6.100000 6.200000 6.300000 6.400000 6.500000 6.600000 6.700000 6.800000 6.900000 7.000000 7.100000 7.200000 7.300000 7.400000 7.500000 7.600000 7.700000 7.800000 7.900000 8.000000 8.100000 8.200000 8.300000 8.400000 8.500000 8.600000 8.700000 8.800000 8.900000 9.000000 9.100000 9.200000 9.300000 9.400000 9.500000 9.600000 9.700000 9.800000 9.900000 10.000000 10.100000 
Z_COORDINATES 1 double
0.0
POINT_DATA 10404
SCALARS Pressure double 1
LOOKUP_TABLE default
0.000000e+00
1.199624e-02
1.203138e-02
1.215036e-02
1.226905e-02
1.231622e-02
1.225247e-02
1.207959e-02
1.183285e-02
1.156290e-02
1.131677e-02
1.112485e-02
1.099673e-02
1.092422e-02
1.088858e-02
1.086840e-02
1.084615e-02
1.081220e-02
1.076623e-02
1.071615e-02
1.067492e-02
1.065639e-02
1.067110e-02
1.072346e-02
1.081108e-02
1.092644e-02
1.105994e-02
1.120337e-02
1.135233e-02
1.150701e-02
1.167130e-02
1.185078e-02
1.205044e-02
1.227305e-02
1.251840e-02
1.278372e-02
1.306472e-02
1.335697e-02
1.365702e-02
1.396298e-02
1.427464e-02
1.459294e-02
1.491927e-02
1.525475e-02
1.559965e-02
1.595316e-02
1.631342e-02
1.667782e-02
1.704336e-02
1.740707e-02
1.776640e-02
1.811937e-02
1.846449e-02
1.880073e-02
1.912726e-02
1.944334e-02
1.974813e-02
2.004066e-02
2.031980e-02
2.058426e-02
2.083265e-02
2.106352e-02
2.127548e-02
2.146722e-02
2.163766e-02
2.178595e-02
2.191156e-02
2.201429e-02
2.209416e-02
2.215144e-02
2.218651e-02
2.219982e-02
2.219185e-02
2.216312e-02
2.211420e-02
2.204577e-02
2.195867e-02
2.185391e-02
2.173268e-02
2.159638e-02
2.144656e-02
2.128492e-02
2.111329e-02
2.093358e-02
2.074783e-02
2.055814e-02
2.036674e-02
2.017595e-02
1.998820e-02
1.980600e-02
1.963201e-02
1.946893e-02
1.931956e-02
1.918675e-02
1.907329e-02
1.898186e-02
1.891475e-02
1.887340e-02
1.885750e-02
1.886314e-02
1.887957e-02
0.000000e+00
1.199624e-02
1.196784e-02
1.209446e-02
1.225918e-02
1.236943e-02
1.236788e-02
1.224093e-02
1.201574e-02
1.174346e-02
1.147807e-02
1.125953e-02
1.110577e-02
1.101364e-02
1.096560e-02
1.093856e-02
1.091175e-02
1.087211e-02
1.081660e-02
1.075171e-02
1.069048e-02
1.064812e-02
1.063742e-02
1.066519e-02
1.073089e-02
1.082778e-02
1.094589e-02
1.107574e-02
1.121134e-02
1.135157e-02
1.149971e-02
1.166151e-02
1.184280e-02
1.204738e-02
1.227599e-02
1.252637e-02
1.279430e-02
1.307500e-02
1.336446e-02
1.366033e-02
1.396207e-02
1.427059e-02
1.458753e-02
1.491440e-02
1.525191e-02
1.559962e-02
1.595590e-02
1.631824e-02
1.668363e-02
1.704900e-02
1.741161e-02
1.776928e-02
1.812045e-02
1.846404e-02
1.879925e-02
1.912538e-02
1.944165e-02
1.974712e-02
2.004064e-02
2.032088e-02
2.058635e-02
2.083550e-02
2.106679e-02
2.127876e-02
2.147016e-02
2.163999e-02
2.178757e-02
2.191251e-02
2.201474e-02
2.209438e-02
2.215168e-02
2.218698e-02
2.220064e-02
2.219305e-02
2.216464e-02
2.211593e-02
2.204760e-02
2.196048e-02
2.185564e-02
2.173431e-02
2.159792e-02
2.144804e-02
2.128638e-02
2.111476e-02
2.093509e-02
2.074937e-02
2.055971e-02
2.036834e-02
2.017756e-02
1.998981e-02
1.980763e-02
1.963363e-02
1.947056e-02
1.932120e-02
1.918839e-02
1.907495e-02
1.898353e-02
1.891642e-02
1.887509e-02
1.885919e-02
1.886485e-02
1.888128e-02
1.887957e-02
1.203646e-02
1.210105e-02
1.228059e-02
1.241158e-02
1.243156e-02
1.233207e-02
1.214174e-02
1.190925e-02
1.168342e-02
1.149852e-02
1.136826e-02
1.128771e-02
1.124018e-02
1.120529e-02
1.116581e-02
1.111209e-02
1.104361e-02
1.096808e-02
1.089846e-02
1.084883e-02
1.083017e-02
1.084753e-02
1.089915e-02
1.097798e-02
1.107472e-02
1.118125e-02
1.129316e-02
1.141064e-02
1.153759e-02
1.167962e-02
1.184182e-02
1.202702e-02
1.223511e-02
1.246340e-02
1.270774e-02
1.296385e-02
1.322845e-02
1.349996e-02
1.377839e-02
1.406498e-02
1.436134e-02
1.466872e-02
1.498749e-02
1.531685e-02
1.565502e-02
1.599948e-02
1.634746e-02
1.669633e-02
1.704380e-02
1.738803e-02
1.772774e-02
1.806201e-02
1.839007e-02
1.871116e-02
1.902438e-02
1.932866e-02
1.962274e-02
1.990520e-02
2.017449e-02
2.042906e-02
2.066737e-02
2.088801e-02
2.108978e-02
2.127172e-02
2.143315e-02
2.157368e-02
2.169312e-02
2.179145e-02
2.186875e-02
2.192512e-02
2.196073e-02
2.197576e-02
2.197048e-02
2.194527e-02
2.190067e-02
2.183742e-02
2.175642e-02
2.165879e-02
2.154576e-02
2.141875e-02
2.127924e-02
2.112886e-02
2.096929e-02
2.080235e-02
2.062993e-02
2.045403e-02
2.027673e-02
2.010024e-02
1.992683e-02
1.975884e-02
1.959871e-02
1.944890e-02
1.931191e-02
1.919019e-02
1.908611e-02
1.900182e-02
1.893901e-02
1.889862e-02
1.888027e-02
1.888168e-02
1.889835e-02
1.889666e-02
1.223650e-02
1.234954e-02
1.248845e-02
1.251427e-02
1.241810e-02
1.223831e-02
1.202808e-02
1.183476e-02
1.168671e-02
1.159011e-02
1.153381e-02
1.149788e-02
1.146211e-02
1.141215e-02
1.134258e-02
1.125724e-02
1.116717e-02
1.108703e-02
1.103073e-02
1.100762e-02
1.102017e-02
1.106404e-02
1.113042e-02
1.120961e-02
1.129450e-02
1.138263e-02
1.147638e-02
1.158129e-02
1.170365e-02
1.184816e-02
1.201649e-02
1.220716e-02
1.241639e-02
1.263954e-02
1.287255e-02
1.311294e-02
1.336013e-02
1.361518e-02
1.387995e-02
1.415631e-02
1.444532e-02
1.474684e-02
1.505953e-02
1.538110e-02
1.570886e-02
1.604012e-02
1.637261e-02
1.670462e-02
1.703495e-02
1.736258e-02
1.768689e-02
1.800721e-02
1.832273e-02
1.863240e-02
1.893497e-02
1.922898e-02
1.951287e-02
1.978500e-02
2.004376e-02
2.028762e-02
2.051524e-02
2.072549e-02
2.091751e-02
2.109070e-02
2.124466e-02
2.137918e-02
2.149410e-02
2.158931e-02
2.166470e-02
2.172020e-02
2.175577e-02
2.177152e-02
2.176768e-02
2.174470e-02
2.170320e-02
2.164400e-02
2.156808e-02
2.147654e-02
2.137062e-02
2.125164e-02
2.112101e-02
2.098025e-02
2.083095e-02
2.067482e-02
2.051368e-02
2.034940e-02
2.018399e-02
2.001951e-02
1.985808e-02
1.970190e-02
1.955317e-02
1.941415e-02
1.928705e-02
1.917405e-02
1.907721e-02
1.899833e-02
1.893889e-02
1.889981e-02
1.888131e-02
1.888294e-02
1.890420e-02
1.890254e-02
1.251279e-02
1.261909e-02
1.264649e-02
1.254523e-02
1.235878e-02
1.214986e-02
1.197019e-02
1.184652e-02
1.177914e-02
1.174963e-02
1.173210e-02
1.170337e-02
1.164940e-02
1.156765e-02
1.146606e-02
1.135974e-02
1.126632e-02
1.120097e-02
1.117246e-02
1.118125e-02
1.122031e-02
1.127840e-02
1.134443e-02
1.141135e-02
1.147811e-02
1.154915e-02
1.163209e-02
1.173450e-02
1.186131e-02
1.201349e-02
1.218826e-02
1.238056e-02
1.258489e-02
1.279700e-02
1.301489e-02
1.323893e-02
1.347121e-02
1.371449e-02
1.397110e-02
1.424210e-02
1.452700e-02
1.482384e-02
1.512980e-02
1.544182e-02
1.575719e-02
1.607389e-02
1.639070e-02
1.670699e-02
1.702245e-02
1.733649e-02
1.764862e-02
1.795803e-02
1.826359e-02
1.856384e-02
1.885714e-02
1.914174e-02
1.941588e-02
1.967788e-02
1.992621e-02
2.015956e-02
2.037691e-02
2.057750e-02
2.076081e-02
2.092651e-02
2.107432e-02
2.120400e-02
2.131527e-02
2.140782e-02
2.148134e-02
2.153560e-02
2.157052e-02
2.158621e-02
2.158300e-02
2.156145e-02
2.152226e-02
2.146631e-02
2.139458e-02
2.130817e-02
2.120821e-02
2.109596e-02
2.097275e-02
2.083999e-02
2.069924e-02
2.055211e-02
2.040034e-02
2.024573e-02
2.009017e-02
1.993559e-02
1.978400e-02
1.963740e-02
1.949785e-02
1.936739e-02
1.924802e-02
1.914171e-02
1.905026e-02
1.897534e-02
1.891834e-02
1.888034e-02
1.886215e-02
1.886450e-02
1.888870e-02
1.888706e-02
1.277906e-02
1.283516e-02
1.273082e-02
1.252875e-02
1.230476e-02
1.211905e-02
1.200187e-02
1.195144e-02
1.194346e-02
1.194521e-02
1.192826e-02
1.187624e-02
1.178729e-02
1.167224e-02
1.155001e-02
1.144169e-02
1.136473e-02
1.132846e-02
1.133228e-02
1.136701e-02
1.141897e-02
1.147516e-02
1.152781e-02
1.157640e-02
1.162697e-02
1.168902e-02
1.177170e-02
1.188068e-02
1.201672e-02
1.217618e-02
1.235280e-02
1.254011e-02
1.273338e-02
1.293075e-02
1.313325e-02
1.334391e-02
1.356637e-02
1.380359e-02
1.405681e-02
1.432532e-02
1.460670e-02
1.489760e-02
1.519455e-02
1.549472e-02
1.579626e-02
1.609834e-02
1.640082e-02
1.670391e-02
1.700767e-02
1.731141e-02
1.761437e-02
1.791534e-02
1.821274e-02
1.850474e-02
1.878941e-02
1.906487e-02
1.932933e-02
1.958125e-02
1.981939e-02
2.004279e-02
2.025080e-02
2.044301e-02
2.061911e-02
2.077881e-02
2.092177e-02
2.104755e-02
2.115566e-02
2.124558e-02
2.131691e-02
2.136940e-02
2.140302e-02
2.141802e-02
2.141486e-02
2.139416e-02
2.135669e-02
2.130333e-02
2.123501e-02
2.115275e-02
2.105763e-02
2.095082e-02
2.083360e-02
2.070733e-02
2.057350e-02
2.043368e-02
2.028953e-02
2.014276e-02
1.999516e-02
1.984855e-02
1.970480e-02
1.956578e-02
1.943337e-02
1.930946e-02
1.919589e-02
1.909442e-02
1.900674e-02
1.893438e-02
1.887873e-02
1.884101e-02
1.882239e-02
1.882417e-02
1.884819e-02
1.884657e-02
1.297480e-02
1.296280e-02
1.275428e-02
1.250695e-02
1.230070e-02
1.217268e-02
1.212335e-02
1.212582e-02
1.214182e-02
1.213695e-02
1.209056e-02
1.199924e-02
1.187484e-02
1.173898e-02
1.161598e-02
1.152592e-02
1.147953e-02
1.147612e-02
1.150522e-02
1.155119e-02
1.159918e-02
1.164027e-02
1.167385e-02
1.170679e-02
1.175001e-02
1.181405e-02
1.190551e-02
1.202538e-02
1.216956e-02
1.233099e-02
1.250232e-02
1.267829e-02
1.285695e-02
1.303969e-02
1.323021e-02
1.343296e-02
1.365145e-02
1.388723e-02
1.413951e-02
1.440555e-02
1.468156e-02
1.496376e-02
1.524917e-02
1.553606e-02
1.582389e-02
1.611294e-02
1.640383e-02
1.669700e-02
1.699239e-02
1.728874e-02
1.758482e-02
1.787894e-02
1.816912e-02
1.845330e-02
1.872944e-02
1.899569e-02
1.925049e-02
1.949265e-02
1.972131e-02
1.993592e-02
2.013613e-02
2.032167e-02
2.049220e-02
2.064729e-02
2.078635e-02
2.090870e-02
2.101367e-02
2.110069e-02
2.116938e-02
2.121961e-02
2.125151e-02
2.126544e-02
2.126197e-02
2.124175e-02
2.120554e-02
2.115414e-02
2.108844e-02
2.100937e-02
2.091796e-02
2.081536e-02
2.070279e-02
2.058159e-02
2.045320e-02
2.031913e-02
2.018096e-02
2.004034e-02
1.989895e-02
1.975850e-02
1.962075e-02
1.948744e-02
1.936032e-02
1.924114e-02
1.913159e-02
1.903331e-02
1.894785e-02
1.887667e-02
1.882114e-02
1.878254e-02
1.876219e-02
1.876154e-02
1.878242e-02
1.878082e-02
1.308152e-02
1.301088e-02
1.275384e-02
1.252036e-02
1.236955e-02
1.230696e-02
1.230672e-02
1.232777e-02
1.233082e-02
1.229040e-02
1.219993e-02
1.207037e-02
1.192447e-02
1.178878e-02
1.168579e-02
1.162796e-02
1.161524e-02
1.163670e-02
1.167548e-02
1.171534e-02
1.174623e-02
1.176712e-02
1.178517e-02
1.181206e-02
1.185933e-02
1.193434e-02
1.203843e-02
1.216739e-02
1.231370e-02
1.246948e-02
1.262905e-02
1.279032e-02
1.295486e-02
1.312684e-02
1.331121e-02
1.351198e-02
1.373094e-02
1.396728e-02
1.421806e-02
1.447920e-02
1.474668e-02
1.501748e-02
1.528999e-02
1.556392e-02
1.583990e-02
1.611888e-02
1.640157e-02
1.668811e-02
1.697792e-02
1.726899e-02
1.755953e-02
1.784748e-02
1.813064e-02
1.840688e-02
1.867430e-02
1.893137e-02
1.917693e-02
1.941024e-02
1.963084e-02
1.983844e-02
2.003276e-02
2.021340e-02
2.037979e-02
2.053119e-02
2.066675e-02
2.078568e-02
2.088725e-02
2.097102e-02
2.103675e-02
2.108449e-02
2.111451e-02
2.112725e-02
2.112330e-02
2.110328e-02
2.106786e-02
2.101780e-02
2.095390e-02
2.087708e-02
2.078833e-02
2.068877e-02
2.057962e-02
2.046219e-02
2.033786e-02
2.020809e-02
2.007440e-02
1.993835e-02
1.980153e-02
1.966558e-02
1.953212e-02
1.940281e-02
1.927929e-02
1.916317e-02
1.905602e-02
1.895937e-02
1.887467e-02
1.880330e-02
1.874658e-02
1.870579e-02
1.868225e-02
1.867735e-02
1.869267e-02
1.869110e-02
1.311974e-02
1.301897e-02
1.277183e-02
1.259328e-02
1.250808e-02
1.249377e-02
1.250943e-02
1.251316e-02
1.247557e-02
1.238648e-02
1.225465e-02
1.210234e-02
1.195705e-02
1.184286e-02
1.177376e-02
1.175065e-02
1.176276e-02
1.179274e-02
1.182353e-02
1.184434e-02
1.185374e-02
1.185889e-02
1.187183e-02
1.190452e-02
1.196477e-02
1.205412e-02
1.216832e-02
1.229967e-02
1.244006e-02
1.258363e-02
1.272829e-02
1.287579e-02
1.303057e-02
1.319796e-02
1.338221e-02
1.358524e-02
1.380618e-02
1.404192e-02
1.428819e-02
1.454088e-02
1.479702e-02
1.505517e-02
1.531536e-02
1.557851e-02
1.584583e-02
1.611823e-02
1.639595e-02
1.667847e-02
1.696456e-02
1.725140e-02
1.753681e-02
1.781851e-02
1.809432e-02
1.836235e-02
1.862110e-02
1.886953e-02
1.910701e-02
1.933318e-02
1.954776e-02
1.975045e-02
1.994072e-02
2.011786e-02
2.028093e-02
2.042896e-02
2.056100e-02
2.067626e-02
2.077420e-02
2.085457e-02
2.091734e-02
2.096268e-02
2.099093e-02
2.100250e-02
2.099796e-02
2.097783e-02
2.094273e-02
2.089334e-02
2.083046e-02
2.075498e-02
2.066791e-02
2.057035e-02
2.046349e-02
2.034862e-02
2.022708e-02
2.010027e-02
1.996965e-02
1.983670e-02
1.970295e-02
1.956994e-02
1.943922e-02
1.931235e-02
1.919085e-02
1.907624e-02
1.896998e-02
1.887350e-02
1.878816e-02
1.871526e-02
1.865606e-02
1.861177e-02
1.858363e-02
1.857288e-02
1.858083e-02
1.857930e-02
1.313267e-02
1.303613e-02
1.283913e-02
1.272773e-02
1.269213e-02
1.269350e-02
1.268970e-02
1.264923e-02
1.255905e-02
1.242537e-02
1.226897e-02
1.211698e-02
1.199404e-02
1.191505e-02
1.188173e-02
1.188369e-02
1.190360e-02
1.192414e-02
1.193425e-02
1.193234e-02
1.192564e-02
1.192630e-02
1.194644e-02
1.199383e-02
1.206994e-02
1.217038e-02
1.228732e-02
1.241258e-02
1.254039e-02
1.266885e-02
1.280000e-02
1.293859e-02
1.309015e-02
1.325908e-02
1.344721e-02
1.365351e-02
1.387464e-02
1.410620e-02
1.434407e-02
1.458542e-02
1.482911e-02
1.507552e-02
1.532590e-02
1.558169e-02
1.584392e-02
1.611291e-02
1.638809e-02
1.666816e-02
1.695122e-02
1.723390e-02
1.751379e-02
1.778871e-02
1.805682e-02
1.831675e-02
1.856760e-02
1.880887e-02
1.904029e-02
1.926161e-02
1.947241e-02
1.967204e-02
1.985956e-02
2.003387e-02
2.019383e-02
2.033838e-02
2.046669e-02
2.057818e-02
2.067257e-02
2.074978e-02
2.080992e-02
2.085319e-02
2.087988e-02
2.089033e-02
2.088503e-02
2.086444e-02
2.082913e-02
2.077978e-02
2.071718e-02
2.064224e-02
2.055596e-02
2.045943e-02
2.035385e-02
2.024044e-02
2.012051e-02
1.999542e-02
1.986656e-02
1.973536e-02
1.960328e-02
1.947179e-02
1.934237e-02
1.921646e-02
1.909553e-02
1.898099e-02
1.887421e-02
1.877653e-02
1.868922e-02
1.861351e-02
1.855058e-02
1.850157e-02
1.846757e-02
1.844968e-02
1.844893e-02
1.844743e-02
1.316541e-02
1.310093e-02
1.296596e-02
1.290617e-02
1.288742e-02
1.286881e-02
1.281863e-02
1.272240e-02
1.258444e-02
1.242378e-02
1.226645e-02
1.213668e-02
1.204950e-02
1.200693e-02
1.199889e-02
1.200821e-02
1.201765e-02
1.201625e-02
1.200262e-02
1.198422e-02
1.197342e-02
1.198234e-02
1.201852e-02
1.208301e-02
1.217107e-02
1.227458e-02
1.238533e-02
1.249774e-02
1.261030e-02
1.272551e-02
1.284851e-02
1.298510e-02
1.313967e-02
1.331389e-02
1.350640e-02
1.371356e-02
1.393077e-02
1.415392e-02
1.438042e-02
1.460951e-02
1.484200e-02
1.507951e-02
1.532375e-02
1.557585e-02
1.583611e-02
1.610389e-02
1.637775e-02
1.665570e-02
1.693541e-02
1.721321e-02
1.748684e-02
1.775458e-02
1.801523e-02
1.826810e-02
1.851286e-02
1.874932e-02
1.897722e-02
1.919600e-02
1.940481e-02
1.960250e-02
1.978776e-02
1.995929e-02
2.011597e-02
2.025691e-02
2.038156e-02
2.048960e-02
2.058093e-02
2.065557e-02
2.071362e-02
2.075521e-02
2.078052e-02
2.078981e-02
2.078351e-02
2.076206e-02
2.072604e-02
2.067614e-02
2.061318e-02
2.053806e-02
2.045179e-02
2.035546e-02
2.025021e-02
2.013725e-02
2.001786e-02
1.989333e-02
1.976503e-02
1.963433e-02
1.950263e-02
1.937133e-02
1.924185e-02
1.911555e-02
1.899382e-02
1.887799e-02
1.876937e-02
1.866919e-02
1.857868e-02
1.849897e-02
1.843117e-02
1.837631e-02
1.833538e-02
1.830930e-02
1.829890e-02
1.829744e-02
1.324831e-02
1.322948e-02
1.314148e-02
1.309972e-02
1.306108e-02
1.299471e-02
1.288613e-02
1.273894e-02
1.257099e-02
1.240714e-02
1.227071e-02
1.217613e-02
1.212519e-02
1.210772e-02
1.210654e-02
1.210454e-02
1.209104e-02
1.206506e-02
1.203457e-02
1.201232e-02
1.201052e-02
1.203647e-02
1.209068e-02
1.216771e-02
1.225902e-02
1.235623e-02
1.245390e-02
1.255099e-02
1.265059e-02
1.275839e-02
1.288053e-02
1.302142e-02
1.318252e-02
1.336205e-02
1.355593e-02
1.375929e-02
1.396801e-02
1.417973e-02
1.439416e-02
1.461258e-02
1.483707e-02
1.506961e-02
1.531147e-02
1.556291e-02
1.582315e-02
1.609059e-02
1.636304e-02
1.663809e-02
1.691337e-02
1.718536e-02
1.745233e-02
1.771332e-02
1.796788e-02
1.821590e-02
1.845725e-02
1.869162e-02
1.891830e-02
1.913619e-02
1.934390e-02
1.953990e-02
1.972279e-02
1.989136e-02
2.004474e-02
2.018236e-02
2.030392e-02
2.040928e-02
2.049837e-02
2.057117e-02
2.062766e-02
2.066786e-02
2.069186e-02
2.069985e-02
2.069227e-02
2.066961e-02
2.063245e-02
2.058152e-02
2.051765e-02
2.044175e-02
2.035481e-02
2.025790e-02
2.015214e-02
2.003871e-02
1.991885e-02
1.979384e-02
1.966498e-02
1.953362e-02
1.940109e-02
1.926874e-02
1.913793e-02
1.900996e-02
1.888616e-02
1.876778e-02
1.865607e-02
1.855220e-02
1.845733e-02
1.837251e-02
1.829878e-02
1.823708e-02
1.818829e-02
1.815320e-02
1.813248e-02
1.813107e-02
1.338891e-02
1.341351e-02
1.334014e-02
1.327814e-02
1.319038e-02
1.306313e-02
1.290030e-02
1.271961e-02
1.254530e-02
1.239982e-02
1.229679e-02
1.223725e-02
1.221049e-02
1.219899e-02
1.218553e-02
1.215962e-02
1.212077e-02
1.207753e-02
1.204327e-02
1.203050e-02
1.204640e-02
1.209097e-02
1.215803e-02
1.223829e-02
1.232305e-02
1.240689e-02
1.248917e-02
1.257361e-02
1.266654e-02
1.277454e-02
1.290219e-02
1.305069e-02
1.321785e-02
1.339907e-02
1.358913e-02
1.378382e-02
1.398101e-02
1.418083e-02
1.438511e-02
1.459642e-02
1.481708e-02
1.504850e-02
1.529090e-02
1.554337e-02
1.580406e-02
1.607060e-02
1.634041e-02
1.661113e-02
1.688086e-02
1.714670e-02
1.740770e-02
1.766370e-02
1.791478e-02
1.816091e-02
1.840168e-02
1.863618e-02
1.886305e-02
1.908064e-02
1.928725e-02
1.948134e-02
1.966170e-02
1.982745e-02
1.997807e-02
2.011323e-02
2.023274e-02
2.033645e-02
2.042419e-02
2.049578e-02
2.055109e-02
2.059004e-02
2.061269e-02
2.061924e-02
2.061017e-02
2.058603e-02
2.054743e-02
2.049511e-02
2.042989e-02
2.035269e-02
2.026448e-02
2.016630e-02
2.005926e-02
1.994451e-02
1.982328e-02
1.969680e-02
1.956635e-02
1.943323e-02
1.929874e-02
1.916418e-02
1.903085e-02
1.890002e-02
1.877294e-02
1.865084e-02
1.853489e-02
1.842622e-02
1.832590e-02
1.823496e-02
1.815434e-02
1.808491e-02
1.802748e-02
1.798272e-02
1.795118e-02
1.794982e-02
1.357310e-02
1.362660e-02
1.353116e-02
1.341812e-02
1.326678e-02
1.308184e-02
1.288166e-02
1.269077e-02
1.253139e-02
1.241650e-02
1.234632e-02
1.230924e-02
1.228701e-02
1.226193e-02
1.222339e-02
1.217119e-02
1.211451e-02
1.206739e-02
1.204284e-02
1.204817e-02
1.208300e-02
1.214048e-02
1.221053e-02
1.228378e-02
1.235475e-02
1.242303e-02
1.249290e-02
1.257135e-02
1.266550e-02
1.278014e-02
1.291636e-02
1.307153e-02
1.324056e-02
1.341781e-02
1.359890e-02
1.378187e-02
1.396727e-02
1.415746e-02
1.435550e-02
1.456409e-02
1.478483e-02
1.501791e-02
1.526225e-02
1.551578e-02
1.577587e-02
1.603981e-02
1.630522e-02
1.657036e-02
1.683427e-02
1.709498e-02
1.735220e-02
1.760620e-02
1.785701e-02
1.810409e-02
1.834631e-02
1.858203e-02
1.880935e-02
1.902642e-02
1.923161e-02
1.942372e-02
1.960192e-02
1.976568e-02
1.991468e-02
2.004867e-02
2.016734e-02
2.027040e-02
2.035749e-02
2.042832e-02
2.048266e-02
2.052043e-02
2.054172e-02
2.054678e-02
2.053613e-02
2.051037e-02
2.047013e-02
2.041616e-02
2.034926e-02
2.027032e-02
2.018029e-02
2.008023e-02
1.997120e-02
1.985436e-02
1.973090e-02
1.960205e-02
1.946904e-02
1.933315e-02
1.919564e-02
1.905778e-02
1.892083e-02
1.878602e-02
1.865457e-02
1.852764e-02
1.840638e-02
1.829186e-02
1.818510e-02
1.808708e-02
1.799868e-02
1.792073e-02
1.785396e-02
1.779898e-02
1.775628e-02
1.775497e-02
1.377269e-02
1.383467e-02
1.368776e-02
1.350806e-02
1.329543e-02
1.306914e-02
1.285468e-02
1.267486e-02
1.254268e-02
1.245780e-02
1.240776e-02
1.237327e-02
1.233576e-02
1.228411e-02
1.221805e-02
1.214719e-02
1.208621e-02
1.204878e-02
1.204249e-02
1.206686e-02
1.211447e-02
1.217450e-02
1.223691e-02
1.229577e-02
1.235084e-02
1.240680e-02
1.247126e-02
1.255186e-02
1.265369e-02
1.277778e-02
1.292117e-02
1.307829e-02
1.324306e-02
1.341093e-02
1.358003e-02
1.375125e-02
1.392747e-02
1.411225e-02
1.430865e-02
1.451847e-02
1.474191e-02
1.497771e-02
1.522355e-02
1.547657e-02
1.573391e-02
1.599319e-02
1.625287e-02
1.651233e-02
1.677177e-02
1.702999e-02
1.728677e-02
1.754213e-02
1.779540e-02
1.804519e-02
1.828958e-02
1.852644e-02
1.875378e-02
1.896998e-02
1.917384e-02
1.936460e-02
1.954178e-02
1.970499e-02
1.985388e-02
1.998802e-02
2.010693e-02
2.021007e-02
2.029700e-02
2.036733e-02
2.042088e-02
2.045762e-02
2.047767e-02
2.048134e-02
2.046916e-02
2.044178e-02
2.039982e-02
2.034401e-02
2.027513e-02
2.019406e-02
2.010176e-02
1.999924e-02
1.988760e-02
1.976796e-02
1.964150e-02
1.950943e-02
1.937296e-02
1.923335e-02
1.909185e-02
1.894968e-02
1.880809e-02
1.866827e-02
1.853140e-02
1.839863e-02
1.827104e-02
1.814968e-02
1.803554e-02
1.792954e-02
1.783255e-02
1.774534e-02
1.766861e-02
1.760295e-02
1.754879e-02
1.754752e-02
1.395560e-02
1.400658e-02
1.379346e-02
1.354886e-02
1.329100e-02
1.304647e-02
1.283930e-02
1.268326e-02
1.257815e-02
1.251095e-02
1.246137e-02
1.240969e-02
1.234385e-02
1.226315e-02
1.217726e-02
1.210136e-02
1.204976e-02
1.203054e-02
1.204327e-02
1.208018e-02
1.212982e-02
1.218147e-02
1.222872e-02
1.227115e-02
1.231380e-02
1.236475e-02
1.243214e-02
1.252135e-02
1.263342e-02
1.276513e-02
1.291046e-02
1.306296e-02
1.321786e-02
1.337335e-02
1.353065e-02
1.369307e-02
1.386464e-02
1.404879e-02
1.424749e-02
1.446096e-02
1.468777e-02
1.492536e-02
1.517062e-02
1.542054e-02
1.567279e-02
1.592607e-02
1.618017e-02
1.643572e-02
1.669370e-02
1.695307e-02
1.721282e-02
1.747209e-02
1.772921e-02
1.798198e-02
1.822810e-02
1.846550e-02
1.869256e-02
1.890819e-02
1.911168e-02
1.930257e-02
1.948041e-02
1.964473e-02
1.979492e-02
1.993030e-02
2.005018e-02
2.015393e-02
2.024104e-02
2.031120e-02
2.036427e-02
2.040027e-02
2.041939e-02
2.042193e-02
2.040839e-02
2.037947e-02
2.033576e-02
2.027797e-02
2.020688e-02
2.012336e-02
2.002837e-02
1.992292e-02
1.980809e-02
1.968501e-02
1.955484e-02
1.941877e-02
1.927804e-02
1.913385e-02
1.898744e-02
1.884005e-02
1.869286e-02
1.854707e-02
1.840382e-02
1.826422e-02
1.812935e-02
1.800022e-02
1.787778e-02
1.776296e-02
1.765658e-02
1.755943e-02
1.747217e-02
1.739538e-02
1.732950e-02
1.732829e-02
1.409517e-02
1.412203e-02
1.384456e-02
1.355125e-02
1.327160e-02
1.303102e-02
1.284468e-02
1.271322e-02
1.262368e-02
1.255507e-02
1.248650e-02
1.240472e-02
1.230815e-02
1.220616e-02
1.211419e-02
1.204709e-02
1.201348e-02
1.201316e-02
1.203820e-02
1.207663e-02
1.211712e-02
1.215277e-02
1.218289e-02
1.221259e-02
1.225042e-02
1.230489e-02
1.238168e-02
1.248184e-02
1.260191e-02
1.273551e-02
1.287582e-02
1.301788e-02
1.315995e-02
1.330351e-02
1.345227e-02
1.361071e-02
1.378257e-02
1.397001e-02
1.417321e-02
1.439060e-02
1.461933e-02
1.485607e-02
1.509771e-02
1.534198e-02
1.558789e-02
1.583564e-02
1.608635e-02
1.634139e-02
1.660171e-02
1.686558e-02
1.713056e-02
1.739466e-02
1.765544e-02
1.791044e-02
1.815758e-02
1.839533e-02
1.862269e-02
1.883905e-02
1.904394e-02
1.923685e-02
1.941712e-02
1.958398e-02
1.973653e-02
1.987389e-02
1.999528e-02
2.010008e-02
2.018784e-02
2.025831e-02
2.031141e-02
2.034719e-02
2.036582e-02
2.036760e-02
2.035295e-02
2.032261e-02
2.027718e-02
2.021733e-02
2.014386e-02
2.005763e-02
1.995961e-02
1.985081e-02
1.973230e-02
1.960520e-02
1.947069e-02
1.932995e-02
1.918420e-02
1.903465e-02
1.888253e-02
1.872904e-02
1.857537e-02
1.842270e-02
1.827214e-02
1.812479e-02
1.798171e-02
1.784389e-02
1.771230e-02
1.758784e-02
1.747133e-02
1.736356e-02
1.726521e-02
1.717687e-02
1.709900e-02
1.709785e-02
1.417620e-02
1.417498e-02
1.384873e-02
1.353074e-02
1.325234e-02
1.303034e-02
1.286685e-02
1.274962e-02
1.265749e-02
1.256863e-02
1.246849e-02
1.235435e-02
1.223492e-02
1.212560e-02
1.204163e-02
1.199215e-02
1.197731e-02
1.198913e-02
1.201529e-02
1.204389e-02
1.206753e-02
1.208528e-02
1.210221e-02
1.212706e-02
1.216879e-02
1.223329e-02
1.232163e-02
1.243010e-02
1.255199e-02
1.268015e-02
1.280945e-02
1.293818e-02
1.306808e-02
1.320328e-02
1.334861e-02
1.350815e-02
1.368418e-02
1.387685e-02
1.408438e-02
1.430368e-02
1.453116e-02
1.476362e-02
1.499894e-02
1.523644e-02
1.547683e-02
1.572170e-02
1.597279e-02
1.623122e-02
1.649700e-02
1.676723e-02
1.703781e-02
1.730607e-02
1.756946e-02
1.782593e-02
1.807409e-02
1.831309e-02
1.854240e-02
1.876153e-02
1.896986e-02
1.916659e-02
1.935070e-02
1.952109e-02
1.967672e-02
1.981664e-02
1.994011e-02
2.004658e-02
2.013568e-02
2.020719e-02
2.026103e-02
2.029723e-02
2.031592e-02
2.031736e-02
2.030190e-02
2.027033e-02
2.022324e-02
2.016133e-02
2.008538e-02
1.999628e-02
1.989496e-02
1.978246e-02
1.965986e-02
1.952828e-02
1.938888e-02
1.924286e-02
1.909143e-02
1.893581e-02
1.877721e-02
1.861683e-02
1.845585e-02
1.829541e-02
1.813666e-02
1.798066e-02
1.782847e-02
1.768110e-02
1.753951e-02
1.740460e-02
1.727723e-02
1.715819e-02
1.704819e-02
1.694786e-02
1.685769e-02
1.685660e-02
1.419699e-02
1.417268e-02
1.382061e-02
1.350181e-02
1.324044e-02
1.304036e-02
1.289066e-02
1.277058e-02
1.265774e-02
1.253642e-02
1.240262e-02
1.226414e-02
1.213603e-02
1.203376e-02
1.196693e-02
1.193608e-02
1.193333e-02
1.194605e-02
1.196186e-02
1.197287e-02
1.197784e-02
1.198182e-02
1.199371e-02
1.202267e-02
1.207489e-02
1.215142e-02
1.224833e-02
1.235854e-02
1.247458e-02
1.259113e-02
1.270656e-02
1.282284e-02
1.294447e-02
1.307667e-02
1.322380e-02
1.338825e-02
1.357012e-02
1.376740e-02
1.397670e-02
1.419420e-02
1.441662e-02
1.464200e-02
1.487006e-02
1.510202e-02
1.534000e-02
1.558608e-02
1.584149e-02
1.610614e-02
1.637861e-02
1.665500e-02
1.693006e-02
1.720118e-02
1.746644e-02
1.772462e-02
1.797504e-02
1.821725e-02
1.845074e-02
1.867477e-02
1.888832e-02
1.909018e-02
1.927904e-02
1.945367e-02
1.961302e-02
1.975620e-02
1.988256e-02
1.999160e-02
2.008297e-02
2.015643e-02
2.021184e-02
2.024918e-02
2.026853e-02
2.027009e-02
2.025420e-02
2.022165e-02
2.017308e-02
2.010918e-02
2.003076e-02
1.993868e-02
1.983391e-02
1.971747e-02
1.959045e-02
1.945398e-02
1.930923e-02
1.915741e-02
1.899972e-02
1.883738e-02
1.867160e-02
1.850357e-02
1.833446e-02
1.816544e-02
1.799762e-02
1.783211e-02
1.766996e-02
1.751218e-02
1.735976e-02
1.721363e-02
1.707466e-02
1.694368e-02
1.682145e-02
1.670864e-02
1.660582e-02
1.660478e-02
1.416722e-02
1.413108e-02
1.377589e-02
1.347299e-02
1.323316e-02
1.304719e-02
1.289523e-02
1.275484e-02
1.260937e-02
1.245356e-02
1.229413e-02
1.214561e-02
1.202351e-02
1.193782e-02
1.188951e-02
1.187082e-02
1.186895e-02
1.187103e-02
1.186867e-02
1.186028e-02
1.185088e-02
1.184950e-02
1.186554e-02
1.190530e-02
1.196993e-02
1.205525e-02
1.215381e-02
1.225777e-02
1.236162e-02
1.246376e-02
1.256640e-02
1.267440e-02
1.279337e-02
1.292793e-02
1.308061e-02
1.325138e-02
1.343801e-02
1.363678e-02
1.384362e-02
1.405517e-02
1.426967e-02
1.448726e-02
1.470973e-02
1.493972e-02
1.517964e-02
1.543081e-02
1.569299e-02
1.596450e-02
1.624273e-02
1.652368e-02
1.680171e-02
1.707505e-02
1.734270e-02
1.760416e-02
1.785907e-02
1.810687e-02
1.834668e-02
1.857727e-02
1.879722e-02
1.900504e-02
1.919934e-02
1.937893e-02
1.954284e-02
1.969029e-02
1.982064e-02
1.993339e-02
2.002814e-02
2.010456e-02
2.016243e-02
2.020167e-02
2.022232e-02
2.022456e-02
2.020872e-02
2.017553e-02
2.012575e-02
2.006006e-02
1.997926e-02
1.988423e-02
1.977593e-02
1.965541e-02
1.952374e-02
1.938209e-02
1.923162e-02
1.907354e-02
1.890906e-02
1.873940e-02
1.856577e-02
1.838936e-02
1.821138e-02
1.803296e-02
1.785527e-02
1.767941e-02
1.750644e-02
1.733743e-02
1.717337e-02
1.701522e-02
1.686391e-02
1.672031e-02
1.658522e-02
1.645939e-02
1.634348e-02
1.634251e-02
1.410298e-02
1.406832e-02
1.372590e-02
1.344424e-02
1.321913e-02
1.303203e-02
1.286081e-02
1.268824e-02
1.250791e-02
1.232541e-02
1.215461e-02
1.201094e-02
1.190475e-02
1.183743e-02
1.180145e-02
1.178382e-02
1.177123e-02
1.175473e-02
1.173234e-02
1.170896e-02
1.169379e-02
1.169650e-02
1.172353e-02
1.177599e-02
1.184959e-02
1.193648e-02
1.202841e-02
1.211963e-02
1.220851e-02
1.229749e-02
1.239177e-02
1.249735e-02
1.261913e-02
1.275975e-02
1.291911e-02
1.309467e-02
1.328240e-02
1.347794e-02
1.367785e-02
1.388057e-02
1.408671e-02
1.429863e-02
1.451950e-02
1.475206e-02
1.499768e-02
1.525594e-02
1.552487e-02
1.580167e-02
1.608350e-02
1.636737e-02
1.664785e-02
1.692420e-02
1.719611e-02
1.746329e-02
1.772513e-02
1.798058e-02
1.822821e-02
1.846639e-02
1.869347e-02
1.890794e-02
1.910849e-02
1.929406e-02
1.946373e-02
1.961674e-02
1.975242e-02
1.987016e-02
1.996944e-02
2.004986e-02
2.011113e-02
2.015311e-02
2.017582e-02
2.017941e-02
2.016420e-02
2.013087e-02
2.008028e-02
2.001311e-02
1.993016e-02
1.983231e-02
1.972053e-02
1.959587e-02
1.945944e-02
1.931238e-02
1.915588e-02
1.899115e-02
1.881941e-02
1.864187e-02
1.845978e-02
1.827434e-02
1.808674e-02
1.789819e-02
1.770983e-02
1.752280e-02
1.733822e-02
1.715714e-02
1.698062e-02
1.680966e-02
1.664523e-02
1.648826e-02
1.633965e-02
1.620020e-02
1.607067e-02
1.606976e-02
1.402061e-02
1.399847e-02
1.367403e-02
1.340740e-02
1.318232e-02
1.297727e-02