# vtk DataFile Version 3.0
Scalar Field
ASCII
DATASET RECTILINEAR_GRID
DIMENSIONS 102 102 1
X_COORDINATES 102 double
0.000000 0.100000 0.200000 0.300000 0.400000 0.500000 0.600000 0.700000 0.800000 0.900000 1.000000 1.100000 1.200000 1.300000 1.400000 1.500000 1.600000 1.700000 1.800000 1.900000 2.000000 2.100000 2.200000 2.300000 2.400000 2.500000 2.600000 2.700000 2.800000 2.900000 3.000000 3.100000 3.200000 3.300000 3.400000 3.500000 3.600000 3.700000 3.800000 3.900000 4.000000 4.100000 4.200000 4.300000 4.400000 4.500000 4.600000 4.700000 4.800000 4.900000 5.000000 5.100000 5.200000 5.300000 5.400000 5.500000 5.600000 5.700000 5.800000 5.900000 6.000000 6.100000 6.200000 6.300000 6.400000 6.500000 6.600000 6.700000 6.800000 6.900000 7.000000 7.100000 7.200000 7.300000 7.400000 7.500000 7.600000 7.700000 7.800000 7.900000 8.000000 8.100000 8.200000 8.300000 8.400000 8.500000 8.600000 8.700000 8.800000 8.900000 9.000000 9.100000 9.200000 9.300000 9.400000 9.500000 9.600000 9.700000 9.800000 9.900000 10.000000 10.100000 
Y_COORDINATES 102 double
0.000000 0.100000 0.200000 0.300000 0.400000 0.500000 0.600000 0.700000 0.800000 0.900000 1.000000 1.100000 1.200000 1.300000 1.400000 1.500000 1.600000 1.700000 1.800000 1.900000 2.000000 2.100000 2.200000 2.300000 2.400000 2.500000 2.600000 2.700000 2.800000 2.900000 3.000000 3.100000 3.200000 3.300000 3.400000 3.500000 3.600000 3.700000 3.800000 3.900000 4.000000 4.100000 4.200000 4.300000 4.400000 4.500000 4.600000 4.700000 4.800000 4.900000 5.000000 5.100000 5.200000 5.300000 5.400000 5.500000 5.600000 5.700000 5.800000 5.900000 6.000000 6.100000 6.200000 6.300000 6.400000 6.500000 6.600000 6.700000 6.800000 6.900000 7.000000 7.100000 7.200000 7.300000 7.400000 7.500000 7.600000 7.700000 7.800000 7.900000 8.000000 8.100000 8.200000 8.300000 8.400000 8.500000 8.600000 8.700000 8.800000 8.900000 9.000000 9.100000 9.200000 9.300000 9.400000 9.500000 9.600000 9.700000 9.800000 9.900000 10.000000 10.100000 
Z_COORDINATES 1 double
0.0
POINT_DATA 10404
SCALARS Pressure double 1
LOOKUP_TABLE default
0.000000e+00
9.260201e-03
9.201005e-03
8.981497e-03
8.720743e-03
8.487831e-03
8.313616e-03
8.198758e-03
8.128541e-03
8.084632e-03
8.050471e-03
8.012252e-03
7.959148e-03
7.884860e-03
7.790005e-03
7.683333e-03
7.580153e-03
7.497995e-03
7.451214e-03
7.446826e-03
7.483213e-03
7.551914e-03
7.641412e-03
7.741207e-03
7.844700e-03
7.950188e-03
8.060124e-03
8.179338e-03
8.313082e-03
8.465520e-03
8.638947e-03
8.833710e-03
9.048585e-03
9.281390e-03
9.529585e-03
9.790768e-03
1.006300e-02
1.034494e-02
1.063586e-02
1.093552e-02
1.124393e-02
1.156115e-02
1.188705e-02
1.222120e-02
1.256275e-02
1.291051e-02
1.326303e-02
1.361875e-02
1.397606e-02
1.433345e-02
1.468947e-02
1.504284e-02
1.539231e-02
1.573669e-02
1.607470e-02
1.640504e-02
1.672634e-02
1.703725e-02
1.733645e-02
1.762272e-02
1.789494e-02
1.815207e-02
1.839323e-02
1.861757e-02
1.882434e-02
1.901287e-02
1.918254e-02
1.933284e-02
1.946335e-02
1.957376e-02
1.966393e-02
1.973383e-02
1.978361e-02
1.981354e-02
1.982403e-02
1.981563e-02
1.978899e-02
1.974488e-02
1.968421e-02
1.960797e-02
1.951727e-02
1.941336e-02
1.929761e-02
1.917148e-02
1.903660e-02
1.889469e-02
1.874760e-02
1.859730e-02
1.844590e-02
1.829561e-02
1.814878e-02
1.800789e-02
1.787556e-02
1.775451e-02
1.764757e-02
1.755762e-02
1.748741e-02
1.743926e-02
1.741436e-02
1.741117e-02
1.742236e-02
0.000000e+00
9.260201e-03
9.314625e-03
9.137427e-03
8.865005e-03
8.610922e-03
8.420441e-03
8.299540e-03
8.231888e-03
8.194659e-03
8.167082e-03
8.132602e-03
8.078809e-03
7.998349e-03
7.891143e-03
7.765982e-03
7.639402e-03
7.531348e-03
7.459163e-03
7.432450e-03
7.450916e-03
7.505839e-03
7.584154e-03
7.673256e-03
7.764691e-03
7.855714e-03
7.948709e-03
8.049223e-03
8.163611e-03
8.297127e-03
8.452857e-03
8.631517e-03
8.831878e-03
9.051482e-03
9.287403e-03
9.536862e-03
9.797639e-03
1.006826e-02
1.034802e-02
1.063676e-02
1.093473e-02
1.124220e-02
1.155926e-02
1.188564e-02
1.222062e-02
1.256305e-02
1.291151e-02
1.326441e-02
1.362017e-02
1.397728e-02
1.433436e-02
1.469011e-02
1.504332e-02
1.539279e-02
1.573727e-02
1.607542e-02
1.640588e-02
1.672722e-02
1.703807e-02
1.733715e-02
1.762327e-02
1.789535e-02
1.815240e-02
1.839354e-02
1.861793e-02
1.882479e-02
1.901340e-02
1.918314e-02
1.933346e-02
1.946393e-02
1.957427e-02
1.966434e-02
1.973414e-02
1.978383e-02
1.981370e-02
1.982417e-02
1.981576e-02
1.978914e-02
1.974507e-02
1.968441e-02
1.960817e-02
1.951746e-02
1.941351e-02
1.929769e-02
1.917149e-02
1.903654e-02
1.889455e-02
1.874739e-02
1.859704e-02
1.844559e-02
1.829527e-02
1.814843e-02
1.800754e-02
1.787521e-02
1.775416e-02
1.764724e-02
1.755730e-02
1.748710e-02
1.743897e-02
1.741407e-02
1.741088e-02
1.742207e-02
1.742236e-02
9.211851e-03
9.145991e-03
8.937164e-03
8.739198e-03
8.599745e-03
8.515564e-03
8.468758e-03
8.439329e-03
8.410811e-03
8.370627e-03
8.309407e-03
8.221977e-03
8.109726e-03
7.982111e-03
7.855299e-03
7.747774e-03
7.674663e-03
7.643310e-03
7.651911e-03
7.691507e-03
7.750095e-03
7.817002e-03
7.885882e-03
7.955635e-03
8.029456e-03
8.112832e-03
8.211433e-03
8.329550e-03
8.469369e-03
8.630976e-03
8.812866e-03
9.012628e-03
9.227619e-03
9.455477e-03
9.694435e-03
9.943433e-03
1.020206e-02
1.047038e-02
1.074866e-02
1.103712e-02
1.133576e-02
1.164415e-02
1.196147e-02
1.228660e-02
1.261817e-02
1.295477e-02
1.329502e-02
1.363766e-02
1.398151e-02
1.432544e-02
1.466825e-02
1.500875e-02
1.534570e-02
1.567776e-02
1.600357e-02
1.632176e-02
1.663101e-02
1.693008e-02
1.721783e-02
1.749319e-02
1.775519e-02
1.800288e-02
1.823539e-02
1.845187e-02
1.865155e-02
1.883372e-02
1.899778e-02
1.914324e-02
1.926974e-02
1.937706e-02
1.946512e-02
1.953394e-02
1.958372e-02
1.961472e-02
1.962736e-02
1.962214e-02
1.959967e-02
1.956068e-02
1.950603e-02
1.943668e-02
1.935371e-02
1.925833e-02
1.915188e-02
1.903579e-02
1.891163e-02
1.878106e-02
1.864584e-02
1.850786e-02
1.836908e-02
1.823159e-02
1.809757e-02
1.796928e-02
1.784907e-02
1.773936e-02
1.764258e-02
1.756112e-02
1.749714e-02
1.745233e-02
1.742750e-02
1.742194e-02
1.743314e-02
1.743340e-02
9.064614e-03
8.943127e-03
8.801495e-03
8.718473e-03
8.685276e-03
8.674129e-03
8.663334e-03
8.639678e-03
8.595391e-03
8.525411e-03
8.427864e-03
8.306679e-03
8.173232e-03
8.044670e-03
7.939039e-03
7.869456e-03
7.840194e-03
7.846376e-03
7.877071e-03
7.920085e-03
7.966279e-03
8.011898e-03
8.058530e-03
8.111334e-03
8.176625e-03
8.259795e-03
8.364113e-03
8.490476e-03
8.637825e-03
8.803902e-03
8.986020e-03
9.181678e-03
9.388952e-03
9.606665e-03
9.834363e-03
1.007215e-02
1.032041e-02
1.057958e-02
1.084984e-02
1.113100e-02
1.142243e-02
1.172314e-02
1.203189e-02
1.234734e-02
1.266823e-02
1.299341e-02
1.332186e-02
1.365263e-02
1.398478e-02
1.431724e-02
1.464875e-02
1.497802e-02
1.530373e-02
1.562450e-02
1.593900e-02
1.624597e-02
1.654425e-02
1.683273e-02
1.711039e-02
1.737624e-02
1.762931e-02
1.786866e-02
1.809340e-02
1.830266e-02
1.849571e-02
1.867186e-02
1.883059e-02
1.897148e-02
1.909424e-02
1.919869e-02
1.928479e-02
1.935260e-02
1.940227e-02
1.943408e-02
1.944840e-02
1.944571e-02
1.942661e-02
1.939180e-02
1.934212e-02
1.927851e-02
1.920206e-02
1.911394e-02
1.901544e-02
1.890796e-02
1.879299e-02
1.867213e-02
1.854704e-02
1.841950e-02
1.829136e-02
1.816455e-02
1.804109e-02
1.792304e-02
1.781253e-02
1.771170e-02
1.762269e-02
1.754752e-02
1.748805e-02
1.744576e-02
1.742168e-02
1.741628e-02
1.743002e-02
1.743026e-02
8.932572e-03
8.817092e-03
8.774096e-03
8.790067e-03
8.822881e-03
8.842839e-03
8.835456e-03
8.795721e-03
8.722523e-03
8.617568e-03
8.487693e-03
8.346691e-03
8.213581e-03
8.107259e-03
8.040191e-03
8.014487e-03
8.022253e-03
8.049785e-03
8.083372e-03
8.114090e-03
8.139917e-03
8.164949e-03
8.196731e-03
8.243154e-03
8.310109e-03
8.400405e-03
8.513889e-03
8.648307e-03
8.800410e-03
8.966925e-03
9.145220e-03
9.333627e-03
9.531479e-03
9.738934e-03
9.956665e-03
1.018550e-02
1.042610e-02
1.067868e-02
1.094294e-02
1.121805e-02
1.150280e-02
1.179585e-02
1.209586e-02
1.240165e-02
1.271228e-02
1.302694e-02
1.334491e-02
1.366541e-02
1.398750e-02
1.431005e-02
1.463158e-02
1.495076e-02
1.526621e-02
1.557666e-02
1.588090e-02
1.617781e-02
1.646636e-02
1.674555e-02
1.701438e-02
1.727186e-02
1.751701e-02
1.774884e-02
1.796648e-02
1.816910e-02
1.835599e-02
1.852657e-02
1.868036e-02
1.881703e-02
1.893632e-02
1.903810e-02
1.912233e-02
1.918904e-02
1.923838e-02
1.927061e-02
1.928609e-02
1.928528e-02
1.926876e-02
1.923726e-02
1.919159e-02
1.913270e-02
1.906163e-02
1.897955e-02
1.888770e-02
1.878742e-02
1.868015e-02
1.856738e-02
1.845070e-02
1.833179e-02
1.821237e-02
1.809425e-02
1.797926e-02
1.786932e-02
1.776635e-02
1.767226e-02
1.758896e-02
1.751824e-02
1.746176e-02
1.742099e-02
1.739716e-02
1.739149e-02
1.740555e-02
1.740577e-02
8.875502e-03
8.804725e-03
8.845279e-03
8.919810e-03
8.976556e-03
8.994749e-03
8.968485e-03
8.898913e-03
8.790935e-03
8.654410e-03
8.505769e-03
8.366290e-03
8.256487e-03
8.189323e-03
8.165961e-03
8.176318e-03
8.204016e-03
8.233156e-03
8.253892e-03
8.264764e-03
8.271579e-03
8.284044e-03
8.311929e-03
8.362231e-03
8.437957e-03
8.538410e-03
8.660381e-03
8.799624e-03
8.952110e-03
9.114837e-03
9.286171e-03
9.465790e-03
9.654379e-03
9.853163e-03
1.006343e-02
1.028612e-02
1.052156e-02
1.076937e-02
1.102859e-02
1.129786e-02
1.157572e-02
1.186081e-02
1.215206e-02
1.244865e-02
1.274998e-02
1.305549e-02
1.336454e-02
1.367630e-02
1.398972e-02
1.430351e-02
1.461605e-02
1.492602e-02
1.523217e-02
1.553337e-02
1.582854e-02
1.611669e-02
1.639684e-02
1.666799e-02
1.692911e-02
1.717918e-02
1.741719e-02
1.764219e-02
1.785332e-02
1.804984e-02
1.823111e-02
1.839662e-02
1.854595e-02
1.867880e-02
1.879494e-02
1.889423e-02
1.897661e-02
1.904210e-02
1.909085e-02
1.912310e-02
1.913921e-02
1.913966e-02
1.912504e-02
1.909606e-02
1.905354e-02
1.899841e-02
1.893170e-02
1.885454e-02
1.876811e-02
1.867372e-02
1.857271e-02
1.846651e-02
1.835663e-02
1.824464e-02
1.813215e-02
1.802084e-02
1.791243e-02
1.780865e-02
1.771127e-02
1.762203e-02
1.754263e-02
1.747469e-02
1.741976e-02
1.737924e-02
1.735449e-02
1.734694e-02
1.735836e-02
1.735857e-02
8.914560e-03
8.901187e-03
8.987334e-03
9.076821e-03
9.123572e-03
9.116840e-03
9.057045e-03
8.950784e-03
8.810457e-03
8.655086e-03
8.508329e-03
8.392674e-03
8.322297e-03
8.298442e-03
8.309899e-03
8.338314e-03
8.365676e-03
8.380633e-03
8.381305e-03
8.374191e-03
8.370439e-03
8.381466e-03
8.415583e-03
8.476482e-03
8.563479e-03
8.672862e-03
8.799626e-03
8.939018e-03
9.087546e-03
9.243418e-03
9.406467e-03
9.577745e-03
9.758930e-03
9.951721e-03
1.015734e-02
1.037626e-02
1.060808e-02
1.085178e-02
1.110590e-02
1.136892e-02
1.163951e-02
1.191666e-02
1.219969e-02
1.248812e-02
1.278154e-02
1.307939e-02
1.338092e-02
1.368513e-02
1.399084e-02
1.429673e-02
1.460111e-02
1.490283e-02
1.520078e-02
1.549396e-02
1.578139e-02
1.606210e-02
1.633507e-02
1.659925e-02
1.685357e-02
1.709700e-02
1.732856e-02
1.754736e-02
1.775262e-02
1.794366e-02
1.811993e-02
1.828095e-02
1.842634e-02
1.855579e-02
1.866905e-02
1.876597e-02
1.884648e-02
1.891061e-02
1.895848e-02
1.899037e-02
1.900666e-02
1.900782e-02
1.899447e-02
1.896732e-02
1.892718e-02
1.887495e-02
1.881165e-02
1.873834e-02
1.865619e-02
1.856642e-02
1.847031e-02
1.836924e-02
1.826462e-02
1.815793e-02
1.805070e-02
1.794450e-02
1.784091e-02
1.774155e-02
1.764802e-02
1.756192e-02
1.748479e-02
1.741812e-02
1.736331e-02
1.732170e-02
1.729462e-02
1.728342e-02
1.728968e-02
1.728986e-02
9.039768e-03
9.077542e-03
9.168677e-03
9.238037e-03
9.250944e-03
9.203952e-03
9.102884e-03
8.961326e-03
8.800365e-03
8.645930e-03
8.522585e-03
8.446056e-03
8.418314e-03
8.427891e-03
8.455320e-03
8.481030e-03
8.492204e-03
8.486044e-03
8.468916e-03
8.452552e-03
8.449386e-03
8.468818e-03
8.515370e-03
8.588745e-03
8.685191e-03
8.799346e-03
8.925953e-03
9.061084e-03
9.202703e-03
9.350637e-03
9.506131e-03
9.671164e-03
9.847738e-03
1.003731e-02
1.024046e-02
1.045685e-02
1.068541e-02
1.092467e-02
1.117313e-02
1.142951e-02
1.169290e-02
1.196274e-02
1.223866e-02
1.252031e-02
1.280722e-02
1.309866e-02
1.339367e-02
1.369113e-02
1.398987e-02
1.428864e-02
1.458582e-02
1.488041e-02
1.517143e-02
1.545794e-02
1.573893e-02
1.601336e-02
1.628015e-02
1.653822e-02
1.678649e-02
1.702399e-02
1.724980e-02
1.746311e-02
1.766323e-02
1.784953e-02
1.802148e-02
1.817862e-02
1.832055e-02
1.844694e-02
1.855754e-02
1.865217e-02
1.873077e-02
1.879337e-02
1.884013e-02
1.887135e-02
1.888742e-02
1.888885e-02
1.887624e-02
1.885031e-02
1.881184e-02
1.876172e-02
1.870091e-02
1.863046e-02
1.855147e-02
1.846510e-02
1.837261e-02
1.827528e-02
1.817448e-02
1.807159e-02
1.796808e-02
1.786540e-02
1.776505e-02
1.766852e-02
1.757729e-02
1.749281e-02
1.741649e-02
1.734968e-02
1.729365e-02
1.724965e-02
1.721885e-02
1.720245e-02
1.720168e-02
1.720185e-02
9.224722e-03
9.297903e-03
9.361711e-03
9.386948e-03
9.350712e-03
9.255461e-03
9.113896e-03
8.947976e-03
8.785428e-03
8.652826e-03
8.567581e-03
8.532695e-03
8.536952e-03
8.560434e-03
8.582666e-03
8.589779e-03
8.578091e-03
8.553447e-03
8.527504e-03
8.513013e-03
8.519931e-03
8.553393e-03
8.613582e-03
8.696983e-03
8.798254e-03
8.911980e-03
9.033993e-03
9.162065e-03
9.295953e-03
9.436955e-03
9.587190e-03
9.748828e-03
9.923455e-03
1.011173e-02
1.031334e-02
1.052724e-02
1.075198e-02
1.098613e-02
1.122854e-02
1.147843e-02
1.173536e-02
1.199906e-02
1.226924e-02
1.254542e-02
1.282689e-02
1.311272e-02
1.340186e-02
1.369320e-02
1.398572e-02
1.427833e-02
1.456948e-02
1.485824e-02
1.514367e-02
1.542474e-02
1.570038e-02
1.596946e-02
1.623089e-02
1.648358e-02
1.672655e-02
1.695888e-02
1.717975e-02
1.738841e-02
1.758421e-02
1.776653e-02
1.793484e-02
1.808865e-02
1.822754e-02
1.835117e-02
1.845926e-02
1.855166e-02
1.862832e-02
1.868930e-02
1.873477e-02
1.876508e-02
1.878064e-02
1.878195e-02
1.876962e-02
1.874434e-02
1.870688e-02
1.865810e-02
1.859893e-02
1.853035e-02
1.845345e-02
1.836935e-02
1.827923e-02
1.818436e-02
1.808602e-02
1.798556e-02
1.788435e-02
1.778378e-02
1.768524e-02
1.759011e-02
1.749977e-02
1.741553e-02
1.733869e-02
1.727046e-02
1.721199e-02
1.716439e-02
1.712868e-02
1.710584e-02
1.709679e-02
1.709694e-02
9.439613e-03
9.529830e-03
9.544578e-03
9.511176e-03
9.418383e-03
9.275767e-03
9.104412e-03
8.932863e-03
8.789367e-03
8.693046e-03
8.648089e-03
8.643762e-03
8.660035e-03
8.675965e-03
8.677104e-03
8.659213e-03
8.627676e-03
8.593812e-03
8.570190e-03
8.566765e-03
8.588834e-03
8.636854e-03
8.707601e-03
8.795938e-03
8.896595e-03
9.005448e-03
9.120242e-03
9.240705e-03
9.368134e-03
9.504673e-03
9.652520e-03
9.813283e-03
9.987619e-03
1.017521e-02
1.037501e-02
1.058565e-02
1.080581e-02
1.103449e-02
1.127109e-02
1.151533e-02
1.176701e-02
1.202590e-02
1.229150e-02
1.256310e-02
1.283976e-02
1.312049e-02
1.340429e-02
1.369025e-02
1.397752e-02
1.426519e-02
1.455162e-02
1.483585e-02
1.511684e-02
1.539349e-02
1.566463e-02
1.592914e-02
1.618595e-02
1.643406e-02
1.667257e-02
1.690062e-02
1.711747e-02
1.732238e-02
1.751469e-02
1.769377e-02
1.785905e-02
1.801001e-02
1.814622e-02
1.826733e-02
1.837308e-02
1.846334e-02
1.853808e-02
1.859739e-02
1.864149e-02
1.867073e-02
1.868554e-02
1.868641e-02
1.867394e-02
1.864878e-02
1.861170e-02
1.856351e-02
1.850512e-02
1.843749e-02
1.836166e-02
1.827872e-02
1.818984e-02
1.809622e-02
1.799912e-02
1.789983e-02
1.779966e-02
1.769990e-02
1.760187e-02
1.750686e-02
1.741612e-02
1.733088e-02
1.725231e-02
1.718150e-02
1.711949e-02
1.706724e-02
1.702564e-02
1.699545e-02
1.697732e-02
1.697745e-02
9.658140e-03
9.747594e-03
9.700451e-03
9.602259e-03
9.454621e-03
9.275758e-03
9.093583e-03
8.937289e-03
8.827542e-03
8.769815e-03
8.753986e-03
8.760022e-03
8.766674e-03
8.759177e-03
8.733078e-03
8.693592e-03
8.651811e-03
8.619974e-03
8.607675e-03
8.619925e-03
8.657076e-03
8.715990e-03
8.791760e-03
8.879362e-03
8.974957e-03
9.076484e-03
9.183771e-03
9.298147e-03
9.421737e-03
9.556681e-03
9.704505e-03
9.865777e-03
1.004012e-02
1.022646e-02
1.042350e-02
1.063005e-02
1.084530e-02
1.106883e-02
1.130054e-02
1.154036e-02
1.178806e-02
1.204315e-02
1.230490e-02
1.257238e-02
1.284462e-02
1.312074e-02
1.339994e-02
1.368151e-02
1.396475e-02
1.424877e-02
1.453171e-02
1.481250e-02
1.508999e-02
1.536300e-02
1.563039e-02
1.589109e-02
1.614412e-02
1.638856e-02
1.662357e-02
1.684835e-02
1.706213e-02
1.726418e-02
1.745377e-02
1.763026e-02
1.779304e-02
1.794158e-02
1.807544e-02
1.819428e-02
1.829789e-02
1.838615e-02
1.845908e-02
1.851679e-02
1.855950e-02
1.858756e-02
1.860142e-02
1.860155e-02
1.858852e-02
1.856298e-02
1.852564e-02
1.847732e-02
1.841890e-02
1.835132e-02
1.827561e-02
1.819283e-02
1.810414e-02
1.801070e-02
1.791373e-02
1.781448e-02
1.771417e-02
1.761406e-02
1.751536e-02
1.741928e-02
1.732698e-02
1.723960e-02
1.715819e-02
1.708376e-02
1.701724e-02
1.695947e-02
1.691118e-02
1.687299e-02
1.684534e-02
1.684545e-02
9.859066e-03
9.931832e-03
9.817693e-03
9.657737e-03
9.467259e-03
9.271844e-03
9.100483e-03
8.974904e-03
8.901836e-03
8.871878e-03
8.865039e-03
8.859744e-03
8.840933e-03
8.804094e-03
8.754555e-03
8.703472e-03
8.662920e-03
8.642069e-03
8.645393e-03
8.672778e-03
8.720851e-03
8.784733e-03
8.859649e-03
8.942060e-03
9.030290e-03
9.124434e-03
9.225954e-03
9.336988e-03
9.459594e-03
9.595158e-03
9.744091e-03
9.905885e-03
1.007942e-02
1.026341e-02
1.045680e-02
1.065895e-02
1.086967e-02
1.108903e-02
1.131708e-02
1.155364e-02
1.179824e-02
1.205011e-02
1.230833e-02
1.257197e-02
1.284025e-02
1.311249e-02
1.338810e-02
1.366649e-02
1.394694e-02
1.422848e-02
1.450893e-02
1.478711e-02
1.506182e-02
1.533193e-02
1.559636e-02
1.585413e-02
1.610436e-02
1.634617e-02
1.657875e-02
1.680126e-02
1.701290e-02
1.721288e-02
1.740045e-02
1.757493e-02
1.773569e-02
1.788221e-02
1.801407e-02
1.813096e-02
1.823270e-02
1.831921e-02
1.839050e-02
1.844671e-02
1.848805e-02
1.851487e-02
1.852759e-02
1.852668e-02
1.851268e-02
1.848623e-02
1.844804e-02
1.839890e-02
1.833969e-02
1.827134e-02
1.819488e-02
1.811137e-02
1.802193e-02
1.792770e-02
1.782987e-02
1.772962e-02
1.762813e-02
1.752657e-02
1.742610e-02
1.732785e-02
1.723292e-02
1.714234e-02
1.705710e-02
1.697813e-02
1.690625e-02
1.684221e-02
1.678663e-02
1.673999e-02
1.670259e-02
1.670269e-02
1.002583e-02
1.006940e-02
9.891627e-03
9.683104e-03
9.470504e-03
9.281292e-03
9.137417e-03
9.046579e-03
9.000121e-03
8.978147e-03
8.958696e-03
8.926283e-03
8.876288e-03
8.814265e-03
8.751703e-03
8.700814e-03
8.670548e-03
8.664843e-03
8.682939e-03
8.720936e-03
8.773702e-03
8.836515e-03
8.906119e-03
8.981166e-03
9.062167e-03
9.150844e-03
9.249436e-03
9.359960e-03
9.483658e-03
9.620754e-03
9.770563e-03
9.931858e-03
1.010334e-02
1.028403e-02
1.047347e-02
1.067167e-02
1.087887e-02
1.109525e-02
1.132071e-02
1.155478e-02
1.179669e-02
1.204552e-02
1.230041e-02
1.256065e-02
1.282571e-02
1.309510e-02
1.336833e-02
1.364472e-02
1.392344e-02
1.420339e-02
1.448208e-02
1.475833e-02
1.503098e-02
1.529898e-02
1.556138e-02
1.581728e-02
1.606580e-02
1.630609e-02
1.653726e-02
1.675844e-02
1.696877e-02
1.716741e-02
1.735358e-02
1.752659e-02
1.768582e-02
1.783077e-02
1.796106e-02
1.807640e-02
1.817663e-02
1.826169e-02
1.833158e-02
1.838644e-02
1.842644e-02
1.845193e-02
1.846332e-02
1.846107e-02
1.844570e-02
1.841785e-02
1.837823e-02
1.832764e-02
1.826696e-02
1.819714e-02
1.811918e-02
1.803414e-02
1.794311e-02
1.784722e-02
1.774760e-02
1.764539e-02
1.754172e-02
1.743770e-02
1.733443e-02
1.723299e-02
1.713442e-02
1.703969e-02
1.694972e-02
1.686538e-02
1.678741e-02
1.671648e-02
1.665313e-02
1.659775e-02
1.655054e-02
1.655062e-02
1.014708e-02
1.015482e-02
9.926293e-03
9.691065e-03
9.480400e-03
9.315573e-03
9.204691e-03
9.139665e-03
9.100684e-03
9.065345e-03
9.017586e-03
8.952496e-03
8.875795e-03
8.799427e-03
8.736016e-03
8.694599e-03
8.678794e-03
8.687235e-03
8.715363e-03
8.757557e-03
8.808894e-03
8.866208e-03
8.928448e-03
8.996421e-03
9.072241e-03
9.158351e-03
9.256813e-03
9.368778e-03
9.494294e-03
9.632484e-03
9.781974e-03
9.941403e-03
1.010984e-02
1.028695e-02
1.047293e-02
1.066818e-02
1.087302e-02
1.108741e-02
1.131091e-02
1.154274e-02
1.178202e-02
1.202796e-02
1.227995e-02
1.253755e-02
1.280042e-02
1.306813e-02
1.334007e-02
1.361542e-02
1.389315e-02
1.417215e-02
1.444972e-02
1.472473e-02
1.499615e-02
1.526304e-02
1.552451e-02
1.577967e-02
1.602762e-02
1.626744e-02
1.649816e-02
1.671886e-02
1.692862e-02
1.712658e-02
1.731196e-02
1.748406e-02
1.764231e-02
1.778623e-02
1.791546e-02
1.802973e-02
1.812888e-02
1.821283e-02
1.828159e-02
1.833523e-02
1.837392e-02
1.839799e-02
1.840785e-02
1.840396e-02
1.838685e-02
1.835716e-02
1.831562e-02
1.826304e-02
1.820032e-02
1.812840e-02
1.804828e-02
1.796101e-02
1.786764e-02
1.776927e-02
1.766699e-02
1.756191e-02
1.745510e-02
1.734766e-02
1.724064e-02
1.713506e-02
1.703193e-02
1.693217e-02
1.683667e-02
1.674621e-02
1.666151e-02
1.658316e-02
1.651166e-02
1.644733e-02
1.639034e-02
1.639040e-02
1.021860e-02
1.019212e-02
9.933938e-03
9.697317e-03
9.508378e-03
9.375142e-03
9.289738e-03
9.232274e-03
9.179800e-03
9.115511e-03
9.033993e-03
8.940960e-03
8.848784e-03
8.770655e-03
8.715977e-03
8.688346e-03
8.686000e-03
8.703777e-03
8.735465e-03
8.775738e-03
8.821291e-03
8.871178e-03
8.926472e-03
8.989514e-03
9.063086e-03
9.149384e-03
9.249555e-03
9.363532e-03
9.490264e-03
9.628216e-03
9.775930e-03
9.932472e-03
1.009760e-02
1.027164e-02
1.045517e-02
1.064860e-02
1.085197e-02
1.106485e-02
1.128650e-02
1.151606e-02
1.175282e-02
1.199627e-02
1.224612e-02
1.250211e-02
1.276391e-02
1.303095e-02
1.330243e-02
1.357736e-02
1.385465e-02
1.413322e-02
1.441037e-02
1.468501e-02
1.495623e-02
1.522315e-02
1.548486e-02
1.574043e-02
1.598887e-02
1.622917e-02
1.646031e-02
1.668129e-02
1.689118e-02
1.708913e-02
1.727436e-02
1.744621e-02
1.760412e-02
1.774764e-02
1.787642e-02
1.799016e-02
1.808869e-02
1.817190e-02
1.823974e-02
1.829229e-02
1.832969e-02
1.835223e-02
1.836038e-02
1.835459e-02
1.833543e-02
1.830355e-02
1.825970e-02
1.820471e-02
1.813947e-02
1.806493e-02
1.798206e-02
1.789190e-02
1.779546e-02
1.769383e-02
1.758806e-02
1.747923e-02
1.736841e-02
1.725664e-02
1.714496e-02
1.703438e-02
1.692584e-02
1.682025e-02
1.671846e-02
1.662121e-02
1.652919e-02
1.644297e-02
1.636299e-02
1.628958e-02
1.622286e-02
1.622290e-02
1.024500e-02
1.019453e-02
9.931261e-03
9.714442e-03
9.556140e-03
9.448499e-03
9.371306e-03
9.300836e-03
9.219321e-03
9.120607e-03
9.010189e-03
8.900750e-03
8.806070e-03
8.736101e-03
8.694688e-03
8.679944e-03
8.686292e-03
8.706984e-03
8.736203e-03
8.770328e-03
8.808306e-03
8.851300e-03
8.901858e-03
8.962911e-03
9.036938e-03
9.125167e-03
9.227496e-03
9.342759e-03
9.469269e-03
9.605460e-03
9.750360e-03
9.903774e-03
1.006614e-02
1.023813e-02
1.042029e-02
1.061269e-02
1.081494e-02
1.102629e-02
1.124595e-02
1.147328e-02
1.170790e-02
1.194964e-02
1.219836e-02
1.245380e-02
1.271544e-02
1.298250e-02
1.325402e-02
1.352896e-02
1.380630e-02
1.408510e-02
1.436270e-02
1.463804e-02
1.491024e-02
1.517838e-02
1.544148e-02
1.569852e-02
1.594840e-02
1.619004e-02
1.642237e-02
1.664438e-02
1.685513e-02
1.705379e-02
1.723962e-02
1.741197e-02
1.757029e-02
1.771413e-02
1.784310e-02
1.795688e-02
1.805525e-02
1.813804e-02
1.820520e-02
1.825676e-02
1.829288e-02
1.831383e-02
1.832015e-02
1.831230e-02
1.829088e-02
1.825657e-02
1.821012e-02
1.815238e-02
1.808422e-02
1.800657e-02
1.792039e-02
1.782670e-02
1.772650e-02
1.762085e-02
1.751080e-02
1.739740e-02
1.728172e-02
1.716479e-02
1.704763e-02
1.693122e-02
1.681649e-02
1.670433e-02
1.659554e-02
1.649089e-02
1.639102e-02
1.629649e-02
1.620775e-02
1.612511e-02
1.604874e-02
1.604876e-02
1.023907e-02
1.018092e-02
9.933490e-03
9.746776e-03
9.614522e-03
9.516132e-03
9.426866e-03
9.327679e-03
9.211376e-03
9.082980e-03
8.955319e-03
8.842722e-03
8.755764e-03
8.698724e-03
8.669831e-03
8.663320e-03
8.672057e-03
8.689776e-03
8.712458e-03
8.738785e-03
8.769823e-03
8.808176e-03
8.856926e-03
8.918642e-03
8.994787e-03
9.085303e-03
9.188973e-03
9.304008e-03
9.428733e-03
9.562121e-03
9.703993e-03
9.854855e-03
1.001549e-02
1.018649e-02
1.036798e-02
1.055957e-02
1.076053e-02
1.097011e-02
1.118775e-02
1.141322e-02
1.164647e-02
1.188749e-02
1.213608e-02
1.239177e-02
1.265381e-02
1.292127e-02
1.319315e-02
1.346852e-02
1.374653e-02
1.402641e-02
1.430557e-02
1.458280e-02
1.485717e-02
1.512767e-02
1.539321e-02
1.565265e-02
1.590483e-02
1.614860e-02
1.638290e-02
1.660671e-02
1.681913e-02
1.701935e-02
1.720663e-02
1.738034e-02
1.753991e-02
1.768482e-02
1.781465e-02
1.792901e-02
1.802763e-02
1.811032e-02
1.817700e-02
1.822772e-02
1.826263e-02
1.828202e-02
1.828649e-02
1.827653e-02
1.825276e-02
1.821586e-02
1.816661e-02
1.810581e-02
1.803435e-02
1.795313e-02
1.786310e-02
1.776526e-02
1.766063e-02
1.755025e-02
1.743517e-02
1.731645e-02
1.719514e-02
1.707227e-02
1.694885e-02
1.682584e-02
1.670418e-02
1.658472e-02
1.646829e-02
1.635563e-02
1.624740e-02
1.614415e-02
1.604637e-02
1.595438e-02
1.586838e-02
1.586839e-02
1.021792e-02
1.016960e-02
9.948779e-03
9.788647e-03
9.666808e-03
9.557444e-03
9.439929e-03
9.305644e-03
9.158821e-03
9.012231e-03
8.880661e-03
8.775331e-03
8.701055e-03
8.656341e-03
8.635425e-03
8.630961e-03
8.636340e-03
8.647165e-03
8.661779e-03
8.681014e-03
8.707378e-03
8.743988e-03
8.793525e-03
8.857501e-03
8.936054e-03
9.027978e-03
9.131426e-03
9.244642e-03
9.366544e-03
9.496949e-03
9.636413e-03
9.785782e-03
9.945708e-03
1.011633e-02
1.029724e-02
1.048771e-02
1.068703e-02
1.089474e-02
1.111072e-02
1.133508e-02
1.156792e-02
1.180914e-02
1.205830e-02
1.231467e-02
1.257736e-02
1.284543e-02
1.311802e-02
1.339441e-02
1.367395e-02
1.395598e-02
1.423789e-02
1.451819e-02
1.479585e-02
1.506973e-02
1.533863e-02
1.560130e-02
1.585657e-02
1.610328e-02
1.634036e-02
1.656686e-02
1.678189e-02
1.698463e-02
1.717434e-02
1.735034e-02
1.751200e-02
1.765874e-02
1.779004e-02
1.790550e-02
1.800479e-02
1.808771e-02
1.815419e-02
1.820427e-02
1.823815e-02
1.825614e-02
1.825885e-02
1.824683e-02
1.822070e-02
1.818113e-02
1.812888e-02
1.806476e-02
1.798962e-02
1.790438e-02
1.780998e-02
1.770742e-02
1.759773e-02
1.748196e-02
1.736118e-02
1.723643e-02
1.710876e-02
1.697922e-02
1.684880e-02
1.671846e-02
1.658915e-02
1.646172e-02
1.633700e-02
1.621575e-02
1.609865e-02
1.598628e-02
1.587914e-02
1.577763e-02
1.568200e-02
1.568200e-02
1.019719e-02
1.017194e-02
9.975373e-03
9.826618e-03
9.694773e-03
9.557474e-03
9.404305e-03
9.238318e-03
9.071954e-03
8.920342e-03
8.795334e-03
8.702337e-03
8.640228e-03
8.603363e-03
8.584306e-03
8.576224e-03
8.574408e-03
8.576868e-03
8.584135e-03
8.598516e-03
8.623049e-03
8.660453e-03
8.712321e-03
8.778804e-03
8.858845e-03
8.950577e-03
9.052191e-03
9.162557e-03
9.281485e-03
9.409568e-03
9.547703e-03
9.696574e-03
9.856317e-03
1.002650e-02
1.020638e-02
1.039526e-02
1.059278e-02
1.079895e-02
1.101402e-02
1.123822e-02
1.147151e-02
1.171352e-02
1.196354e-02
1.222071e-02
1.248416e-02
1.275312e-02
1.302699e-02
1.330523e-02
1.358731e-02
1.387262e-02
1.415845e-02
1.444292e-02
1.472484e-02
1.500297e-02
1.527601e-02
1.554271e-02
1.580187e-02
1.605239e-02
1.629323e-02
1.652344e-02
1.674214e-02
1.694847e-02
1.714163e-02
1.732087e-02
1.748545e-02
1.763472e-02
1.776812e-02
1.788520e-02
1.798561e-02
1.806917e-02
1.813580e-02
1.818560e-02
1.821876e-02
1.823562e-02
1.823677e-02
1.822282e-02
1.819435e-02
1.815204e-02
1.809663e-02
1.802891e-02
1.794975e-02
1.786006e-02
1.776081e-02
1.765301e-02
1.753770e-02
1.741595e-02
1.728882e-02
1.715738e-02
1.702269e-02
1.688577e-02
1.674763e-02
1.660927e-02
1.647160e-02
1.633553e-02
1.620190e-02
1.607148e-02
1.594499e-02
1.582306e-02
1.570625e-02
1.559500e-02
1.548963e-02
1.548963e-02
1.018560e-02
1.018858e-02
1.000257e-02
9.844435e-03
9.684625e-03
9.510669e-03
9.324042e-03
9.136526e-03
8.963419e-03
8.817173e-03
8.703825e-03
8.622681e-03
8.568269e-03
8.533128e-03
8.510260e-03
8.494713e-03
8.484200e-03
8.478953e-03
8.481029e-03
8.493315e-03
8.518492e-03
8.558194e-03
8.612614e-03
8.680659e-03
8.760560e-03
8.850464e-03
8.949202e-03
9.056581e-03
9.173225e-03
9.300077e-03
9.437846e-03
9.586653e-03
9.746025e-03
9.915184e-03
1.009345e-02
1.028053e-02
1.047656e-02
1.068194e-02
1.089700e-02
1.112182e-02
1.135604e-02
1.159900e-02
1.184988e-02
1.210786e-02
1.237228e-02
1.264266e-02
1.291858e-02
1.319966e-02
1.348538e-02
1.377503e-02
1.406580e-02
1.435534e-02
1.464233e-02
1.492546e-02
1.520341e-02
1.547495e-02
1.573893e-02
1.599428e-02
1.623999e-02
1.647507e-02
1.669860e-02
1.690963e-02
1.710726e-02
1.729063e-02
1.745892e-02
1.761144e-02
1.774756e-02
1.786684e-02
1.796893e-02
1.805366e-02
1.812098e-02
1.817098e-02
1.820386e-02
1.821994e-02
1.821980e-02
1.820407e-02
1.817332e-02
1.812821e-02
1.806947e-02
1.799792e-02
1.791443e-02
1.781993e-02
1.771541e-02
1.760190e-02
1.748047e-02
1.735218e-02
1.721813e-02
1.707938e-02
1.693699e-02
1.679202e-02
1.664549e-02
1.649840e-02
1.635171e-02
1.620633e-02
1.606315e-02
1.592297e-02
1.578656e-02
1.565461e-02
1.552773e-02
1.540645e-02
1.529118e-02
1.529117e-02
1.018215e-02
1.020967e-02
1.001478e-02
9.828342e-03
9.630446e-03
9.420676e-03
9.209811e-03
9.013094e-03
8.843515e-03
8.707774e-03
8.605653e-03
8.531886e-03
8.478991e-03
8.439819e-03
8.409189e-03
8.384551e-03
8.365858e-03
8.354922e-03
8.354456e-03
8.367057e-03
8.394357e-03
8.436576e-03
8.492593e-03
8.560544e-03
8.638626e-03
8.725625e-03
8.821339e-03
8.926423e-03
9.041870e-03
9.168416e-03
9.306164e-03
9.454589e-03
9.612868e-03
9.780316e-03
9.956701e-03
1.014227e-02
1.033756e-02
1.054303e-02
1.075881e-02
1.098461e-02
1.121979e-02
1.146356e-02
1.171519e-02
1.197412e-02
1.223998e-02
1.251252e-02
1.279146e-02
1.307640e-02
1.336672e-02
1.366157e-02
1.395811e-02
1.425343e-02
1.454619e-02
1.483503e-02
1.511871e-02
1.539605e-02
1.566594e-02
1.592732e-02
1.617912e-02
1.642031e-02
1.664984e-02
1.686664e-02
1.706970e-02
1.725807e-02
1.743087e-02
1.758737e-02
1.772695e-02
1.784914e-02
1.795363e-02
1.804024e-02
1.810891e-02
1.815971e-02
1.819283e-02
1.820855e-02
1.820741e-02
1.819007e-02
1.815710e-02
1.810915e-02
1.804698e-02
1.797142e-02
1.788335e-02
1.778374e-02
1.767361e-02
1.755400e-02
1.742598e-02
1.729066e-02
1.714912e-02
1.700246e-02
1.685176e-02
1.669808e-02
1.654249e-02
1.638600e-02
1.622960e-02
1.607425e-02
1.592087e-02
1.577033e-02
1.562343e-02
1.548093e-02
1.534353e-02
1.521185e-02
1.508640e-02
1.508638e-02
1.017696e-02
1.021871e-02
9.996740e-03
9.770657e-03
9.534239e-03
9.296963e-03