# vtk DataFile Version 3.0
Scalar Field
ASCII
DATASET RECTILINEAR_GRID
DIMENSIONS 102 102 1
X_COORDINATES 102 double
0.000000 0.100000 0.200000 0.300000 0.400000 0.500000 0.600000 0.700000 0.800000 0.900000 1.000000 1.100000 1.200000 1.300000 1.400000 1.500000 1.600000 1.700000 1.800000 1.900000 2.000000 2.100000 2.200000 2.300000 2.400000 2.500000 2.600000 2.700000 2.800000 2.900000 3.000000 3.100000 3.200000 3.300000 3.400000 3.500000 3.600000 3.700000 3.800000 3.900000 4.000000 4.100000 4.200000 4.300000 4.400000 4.500000 4.600000 4.700000 4.800000 4.900000 5.000000 5.100000 5.200000 5.300000 5.400000 5.500000 5.600000 5.700000 5.800000 5.900000 6.000000 6.100000 6.200000 6.300000 6.400000 6.500000 6.600000 6.700000 6.800000 6.900000 7.000000 7.100000 7.200000 7.300000 7.400000 7.500000 7.600000 7.700000 7.800000 7.900000 8.000000 8.100000 8.200000 8.300000 8.400000 8.500000 8.600000 8.700000 8.800000 8.900000 9.000000 9.100000 9.200000 9.300000 9.400000 9.500000 9.600000 9.700000 9.800000 9.900000 10.000000 10.100000 
Y_COORDINATES 102 double
0.000000 0.100000 0.200000 0.300000 0.400000 0.500000 0.600000 0.700000 0.800000 0.900000 1.000000 1.100000 1.200000 1.300000 1.400000 1.500000 1.600000 1.700000 1.800000 1.900000 2.000000 2.100000 2.200000 2.300000 2.400000 2.500000 2.600000 2.700000 2.800000 2.900000 3.000000 3.100000 3.200000 3.300000 3.400000 3.500000 3.600000 3.700000 3.800000 3.900000 4.000000 4.100000 4.200000 4.300000 4.400000 4.500000 4.600000 4.700000 4.800000 4.900000 5.000000 5.100000 5.200000 5.300000 5.400000 5.500000 5.600000 5.700000 5.800000 5.900000 6.000000 6.100000 6.200000 6.300000 6.400000 6.500000 6.600000 6.700000 6.800000 6.900000 7.000000 7.100000 7.200000 7.300000 7.400000 7.500000 7.600000 7.700000 7.800000 7.900000 8.000000 8.100000 8.200000 8.300000 8.400000 8.500000 8.600000 8.700000 8.800000 8.900000 9.000000 9.100000 9.200000 9.300000 9.400000 9.500000 9.600000 9.700000 9.800000 9.900000 10.000000 10.100000 
Z_COORDINATES 1 double
0.0
POINT_DATA 10404
SCALARS Pressure double 1
LOOKUP_TABLE default
0.000000e+00
8.126369e-03
7.980276e-03
7.700643e-03
7.432871e-03
7.251843e-03
7.172058e-03
7.161063e-03
7.168143e-03
7.151264e-03
7.091285e-03
6.991678e-03
6.869181e-03
6.743036e-03
6.628234e-03
6.534015e-03
6.465654e-03
6.426574e-03
6.418965e-03
6.442911e-03
6.495271e-03
6.569626e-03
6.657773e-03
6.752215e-03
6.848514e-03
6.946514e-03
7.050012e-03
7.165158e-03
7.298316e-03
7.454161e-03
7.634582e-03
7.838554e-03
8.062833e-03
8.303115e-03
8.555252e-03
8.816183e-03
9.084387e-03
9.359812e-03
9.643424e-03
9.936548e-03
1.024025e-02
1.055491e-02
1.088007e-02
1.121456e-02
1.155670e-02
1.190463e-02
1.225654e-02
1.261083e-02
1.296614e-02
1.332130e-02
1.367522e-02
1.402690e-02
1.437535e-02
1.471953e-02
1.505836e-02
1.539067e-02
1.571524e-02
1.603081e-02
1.633605e-02
1.662965e-02
1.691028e-02
1.717674e-02
1.742790e-02
1.766282e-02
1.788075e-02
1.808109e-02
1.826338e-02
1.842729e-02
1.857255e-02
1.869893e-02
1.880626e-02
1.889438e-02
1.896324e-02
1.901283e-02
1.904330e-02
1.905492e-02
1.904812e-02
1.902349e-02
1.898183e-02
1.892408e-02
1.885132e-02
1.876478e-02
1.866581e-02
1.855582e-02
1.843635e-02
1.830898e-02
1.817543e-02
1.803749e-02
1.789711e-02
1.775634e-02
1.761743e-02
1.748275e-02
1.735486e-02
1.723649e-02
1.713050e-02
1.703988e-02
1.696758e-02
1.691626e-02
1.688762e-02
1.688089e-02
1.688983e-02
0.000000e+00
8.126369e-03
8.095738e-03
7.847016e-03
7.554532e-03
7.346464e-03
7.254837e-03
7.251367e-03
7.278411e-03
7.282358e-03
7.234346e-03
7.133596e-03
6.998078e-03
6.851385e-03
6.713149e-03
6.595774e-03
6.505897e-03
6.447160e-03
6.421656e-03
6.429473e-03
6.467481e-03
6.528969e-03
6.604958e-03
6.686822e-03
6.769046e-03
6.850871e-03
6.936200e-03
7.031952e-03
7.145625e-03
7.283008e-03
7.446760e-03
7.636114e-03
7.847591e-03
8.076321e-03
8.317478e-03
8.567428e-03
8.824323e-03
9.088085e-03
9.359908e-03
9.641506e-03
9.934365e-03
1.023922e-02
1.055582e-02
1.088305e-02
1.121919e-02
1.156227e-02
1.191037e-02
1.226184e-02
1.261530e-02
1.296964e-02
1.332390e-02
1.367713e-02
1.402841e-02
1.437677e-02
1.472114e-02
1.506037e-02
1.539323e-02
1.571838e-02
1.603445e-02
1.634003e-02
1.663373e-02
1.691423e-02
1.718032e-02
1.743100e-02
1.766541e-02
1.788292e-02
1.808302e-02
1.826529e-02
1.842939e-02
1.857501e-02
1.870183e-02
1.880960e-02
1.889807e-02
1.896713e-02
1.901674e-02
1.904705e-02
1.905835e-02
1.905113e-02
1.902605e-02
1.898396e-02
1.892586e-02
1.885288e-02
1.876624e-02
1.866727e-02
1.855737e-02
1.843802e-02
1.831078e-02
1.817733e-02
1.803946e-02
1.789909e-02
1.775831e-02
1.761935e-02
1.748462e-02
1.735667e-02
1.723824e-02
1.713222e-02
1.704157e-02
1.696925e-02
1.691793e-02
1.688928e-02
1.688255e-02
1.689149e-02
1.688983e-02
7.990292e-03
7.854828e-03
7.632504e-03
7.483032e-03
7.437584e-03
7.459867e-03
7.494291e-03
7.494820e-03
7.440891e-03
7.337289e-03
7.203629e-03
7.062050e-03
6.929430e-03
6.815723e-03
6.726174e-03
6.663989e-03
6.631280e-03
6.628212e-03
6.651753e-03
6.695546e-03
6.751465e-03
6.812232e-03
6.873859e-03
6.936833e-03
7.005614e-03
7.086842e-03
7.187055e-03
7.310773e-03
7.459500e-03
7.631762e-03
7.823967e-03
8.031669e-03
8.250819e-03
8.478652e-03
8.714053e-03
8.957385e-03
9.209945e-03
9.473263e-03
9.748479e-03
1.003596e-02
1.033520e-02
1.064498e-02
1.096366e-02
1.128946e-02
1.162075e-02
1.195610e-02
1.229438e-02
1.263465e-02
1.297606e-02
1.331781e-02
1.365897e-02
1.399857e-02
1.433556e-02
1.466879e-02
1.499701e-02
1.531889e-02
1.563304e-02
1.593808e-02
1.623263e-02
1.651542e-02
1.678532e-02
1.704135e-02
1.728271e-02
1.750875e-02
1.771894e-02
1.791277e-02
1.808980e-02
1.824957e-02
1.839166e-02
1.851566e-02
1.862123e-02
1.870815e-02
1.877632e-02
1.882580e-02
1.885683e-02
1.886981e-02
1.886534e-02
1.884414e-02
1.880708e-02
1.875513e-02
1.868933e-02
1.861084e-02
1.852085e-02
1.842065e-02
1.831161e-02
1.819522e-02
1.807308e-02
1.794692e-02
1.781858e-02
1.769006e-02
1.756347e-02
1.744104e-02
1.732510e-02
1.721810e-02
1.712253e-02
1.704088e-02
1.697551e-02
1.692838e-02
1.690070e-02
1.689234e-02
1.690144e-02
1.689978e-02
7.779087e-03
7.628426e-03
7.542276e-03
7.559008e-03
7.629151e-03
7.687868e-03
7.691486e-03
7.628786e-03
7.514848e-03
7.376029e-03
7.236184e-03
7.110088e-03
7.004148e-03
6.920615e-03
6.861049e-03
6.826984e-03
6.818406e-03
6.832120e-03
6.861721e-03
6.899546e-03
6.939554e-03
6.979638e-03
7.022275e-03
7.073369e-03
7.139989e-03
7.228017e-03
7.340542e-03
7.477408e-03
7.635785e-03
7.811397e-03
7.999883e-03
8.197912e-03
8.403780e-03
8.617447e-03
8.840093e-03
9.073418e-03
9.318930e-03
9.577424e-03
9.848779e-03
1.013204e-02
1.042569e-02
1.072802e-02
1.103740e-02
1.135242e-02
1.167198e-02
1.199524e-02
1.232149e-02
1.265009e-02
1.298034e-02
1.331146e-02
1.364240e-02
1.397208e-02
1.429930e-02
1.462276e-02
1.494109e-02
1.525287e-02
1.555670e-02
1.585126e-02
1.613535e-02
1.640792e-02
1.666810e-02
1.691515e-02
1.714845e-02
1.736743e-02
1.757151e-02
1.776010e-02
1.793261e-02
1.808844e-02
1.822706e-02
1.834801e-02
1.845098e-02
1.853583e-02
1.860258e-02
1.865144e-02
1.868277e-02
1.869709e-02
1.869504e-02
1.867735e-02
1.864484e-02
1.859839e-02
1.853893e-02
1.846747e-02
1.838513e-02
1.829309e-02
1.819268e-02
1.808533e-02
1.797261e-02
1.785619e-02
1.773786e-02
1.761950e-02
1.750309e-02
1.739068e-02
1.728439e-02
1.718637e-02
1.709881e-02
1.702384e-02
1.696343e-02
1.691930e-02
1.689274e-02
1.688457e-02
1.689559e-02
1.689392e-02
7.633670e-03
7.543008e-03
7.604806e-03
7.730434e-03
7.831135e-03
7.855702e-03
7.795493e-03
7.674155e-03
7.527104e-03
7.383828e-03
7.260261e-03
7.160790e-03
7.084600e-03
7.030755e-03
6.999375e-03
6.989801e-03
6.998463e-03
7.018693e-03
7.042884e-03
7.065709e-03
7.086507e-03
7.109635e-03
7.142735e-03
7.193905e-03
7.269052e-03
7.370385e-03
7.496335e-03
7.642644e-03
7.804030e-03
7.975785e-03
8.154896e-03
8.340461e-03
8.533440e-03
8.735925e-03
8.950224e-03
9.178063e-03
9.420096e-03
9.675828e-03
9.943860e-03
1.022233e-02
1.050932e-02
1.080320e-02
1.110274e-02
1.140709e-02
1.171568e-02
1.202811e-02
1.234396e-02
1.266272e-02
1.298372e-02
1.330607e-02
1.362851e-02
1.394973e-02
1.426835e-02
1.458292e-02
1.489197e-02
1.519411e-02
1.548806e-02
1.577272e-02
1.604714e-02
1.631057e-02
1.656235e-02
1.680190e-02
1.702860e-02
1.724180e-02
1.744076e-02
1.762473e-02
1.779296e-02
1.794476e-02
1.807961e-02
1.819712e-02
1.829710e-02
1.837957e-02
1.844469e-02
1.849283e-02
1.852442e-02
1.854003e-02
1.854025e-02
1.852575e-02
1.849722e-02
1.845543e-02
1.840120e-02
1.833548e-02
1.825931e-02
1.817385e-02
1.808042e-02
1.798044e-02
1.787543e-02
1.776701e-02
1.765689e-02
1.754683e-02
1.743865e-02
1.733422e-02
1.723546e-02
1.714429e-02
1.706263e-02
1.699235e-02
1.693519e-02
1.689277e-02
1.686649e-02
1.685772e-02
1.686819e-02
1.686651e-02
7.620948e-03
7.623668e-03
7.778434e-03
7.926524e-03
7.985707e-03
7.941662e-03
7.820960e-03
7.666702e-03
7.516051e-03
7.389460e-03
7.292070e-03
7.221282e-03
7.173595e-03
7.146996e-03
7.139486e-03
7.146739e-03
7.161653e-03
7.176483e-03
7.186226e-03
7.191151e-03
7.197043e-03
7.213107e-03
7.248671e-03
7.310182e-03
7.399596e-03
7.514478e-03
7.649435e-03
7.798163e-03
7.955346e-03
8.117899e-03
8.285336e-03
8.459342e-03
8.642811e-03
8.838716e-03
9.049169e-03
9.274901e-03
9.515230e-03
9.768439e-03
1.003232e-02
1.030473e-02
1.058394e-02
1.086875e-02
1.115850e-02
1.145289e-02
1.175179e-02
1.205507e-02
1.236244e-02
1.267335e-02
1.298699e-02
1.330225e-02
1.361752e-02
1.393124e-02
1.424187e-02
1.454790e-02
1.484795e-02
1.514081e-02
1.542549e-02
1.570117e-02
1.596723e-02
1.622307e-02
1.646812e-02
1.670173e-02
1.692313e-02
1.713145e-02
1.732577e-02
1.750521e-02
1.766897e-02
1.781645e-02
1.794721e-02
1.806106e-02
1.815798e-02
1.823815e-02
1.830186e-02
1.834950e-02
1.838152e-02
1.839840e-02
1.840064e-02
1.838879e-02
1.836343e-02
1.832524e-02
1.827501e-02
1.821366e-02
1.814223e-02
1.806192e-02
1.797403e-02
1.787995e-02
1.778117e-02
1.767923e-02
1.757571e-02
1.747225e-02
1.737052e-02
1.727223e-02
1.717909e-02
1.709286e-02
1.701523e-02
1.694787e-02
1.689237e-02
1.685021e-02
1.682285e-02
1.681175e-02
1.681870e-02
1.681701e-02
7.747290e-03
7.832434e-03
7.997789e-03
8.093476e-03
8.074380e-03
7.963232e-03
7.806219e-03
7.647059e-03
7.512388e-03
7.410847e-03
7.340341e-03
7.295891e-03
7.273347e-03
7.268815e-03
7.276654e-03
7.288986e-03
7.297733e-03
7.297980e-03
7.290533e-03
7.282109e-03
7.283056e-03
7.303771e-03
7.351417e-03
7.428152e-03
7.531248e-03
7.654678e-03
7.791385e-03
7.935438e-03
8.083440e-03
8.234960e-03
8.392051e-03
8.558151e-03
8.736787e-03
8.930495e-03
9.140223e-03
9.365298e-03
9.603849e-03
9.853449e-03
1.011174e-02
1.037684e-02
1.064756e-02
1.092332e-02
1.120404e-02
1.148983e-02
1.178083e-02
1.207700e-02
1.237795e-02
1.268292e-02
1.299076e-02
1.330003e-02
1.360878e-02
1.391528e-02
1.421802e-02
1.451564e-02
1.480704e-02
1.509136e-02
1.536794e-02
1.563623e-02
1.589570e-02
1.614576e-02
1.638568e-02
1.661455e-02
1.683138e-02
1.703511e-02
1.722473e-02
1.739939e-02
1.755842e-02
1.770139e-02
1.782809e-02
1.793851e-02
1.803278e-02
1.811113e-02
1.817387e-02
1.822131e-02
1.825382e-02
1.827174e-02
1.827547e-02
1.826546e-02
1.824224e-02
1.820651e-02
1.815906e-02
1.810085e-02
1.803297e-02
1.795661e-02
1.787305e-02
1.778365e-02
1.768979e-02
1.759292e-02
1.749451e-02
1.739607e-02
1.729913e-02
1.720526e-02
1.711603e-02
1.703300e-02
1.695772e-02
1.689168e-02
1.683632e-02
1.679299e-02
1.676305e-02
1.674785e-02
1.674888e-02
1.674717e-02
7.970431e-03
8.098776e-03
8.203773e-03
8.208269e-03
8.111064e-03
7.956000e-03
7.789690e-03
7.644040e-03
7.532463e-03
7.455532e-03
7.408637e-03
7.386420e-03
7.383154e-03
7.391475e-03
7.402264e-03
7.406776e-03
7.399955e-03
7.382880e-03
7.362831e-03
7.350875e-03
7.358136e-03
7.392381e-03
7.456141e-03
7.546776e-03
7.658096e-03
7.782704e-03
7.914256e-03
8.049020e-03
8.186409e-03
8.328538e-03
8.479087e-03
8.641919e-03
8.819896e-03
9.014212e-03
9.224313e-03
9.448332e-03
9.683761e-03
9.928124e-03
1.017946e-02
1.043653e-02
1.069882e-02
1.096637e-02
1.123953e-02
1.151868e-02
1.180397e-02
1.209516e-02
1.239152e-02
1.269188e-02
1.299469e-02
1.329826e-02
1.360045e-02
1.389962e-02
1.419453e-02
1.448420e-02
1.476793e-02
1.504518e-02
1.531550e-02
1.557836e-02
1.583311e-02
1.607890e-02
1.631469e-02
1.653933e-02
1.675166e-02
1.695060e-02
1.713527e-02
1.730500e-02
1.745937e-02
1.759817e-02
1.772137e-02
1.782906e-02
1.792137e-02
1.799849e-02
1.806061e-02
1.810792e-02
1.814065e-02
1.815906e-02
1.816348e-02
1.815435e-02
1.813227e-02
1.809796e-02
1.805230e-02
1.799628e-02
1.793099e-02
1.785761e-02
1.777736e-02
1.769150e-02
1.760133e-02
1.750819e-02
1.741346e-02
1.731854e-02
1.722485e-02
1.713383e-02
1.704693e-02
1.696556e-02
1.689112e-02
1.682495e-02
1.676833e-02
1.672249e-02
1.668860e-02
1.666779e-02
1.666122e-02
1.665952e-02
8.227179e-03
8.353972e-03
8.362307e-03
8.275557e-03
8.123802e-03
7.952204e-03
7.795010e-03
7.669610e-03
7.580176e-03
7.524153e-03
7.496476e-03
7.490392e-03
7.496914e-03
7.505366e-03
7.505932e-03
7.493089e-03
7.467952e-03
7.438128e-03
7.415114e-03
7.410445e-03
7.432240e-03
7.483328e-03
7.561285e-03
7.660026e-03
7.772161e-03
7.891234e-03
8.013326e-03
8.137676e-03
8.266305e-03
8.402904e-03
8.551438e-03
8.714923e-03
8.894705e-03
9.090361e-03
9.300105e-03
9.521471e-03
9.751988e-03
9.989686e-03
1.023335e-02
1.048252e-02
1.073737e-02
1.099838e-02
1.126613e-02
1.154092e-02
1.182260e-02
1.211048e-02
1.240328e-02
1.269941e-02
1.299708e-02
1.329459e-02
1.358996e-02
1.388193e-02
1.416968e-02
1.445269e-02
1.473053e-02
1.500280e-02
1.526894e-02
1.552818e-02
1.577951e-02
1.602176e-02
1.625365e-02
1.647393e-02
1.668151e-02
1.687551e-02
1.705529e-02
1.722047e-02
1.737084e-02
1.750634e-02
1.762698e-02
1.773278e-02
1.782378e-02
1.790002e-02
1.796153e-02
1.800838e-02
1.804077e-02
1.805891e-02
1.806319e-02
1.805411e-02
1.803237e-02
1.799874e-02
1.795415e-02
1.789959e-02
1.783612e-02
1.776484e-02
1.768689e-02
1.760346e-02
1.751577e-02
1.742507e-02
1.733266e-02
1.723985e-02
1.714798e-02
1.705838e-02
1.697239e-02
1.689129e-02
1.681634e-02
1.674874e-02
1.668964e-02
1.664010e-02
1.660111e-02
1.657358e-02
1.655831e-02
1.655664e-02
8.461626e-03
8.554520e-03
8.467010e-03
8.314255e-03
8.137276e-03
7.969107e-03
7.828682e-03
7.723013e-03
7.652263e-03
7.612999e-03
7.598693e-03
7.599443e-03
7.603127e-03
7.598590e-03
7.579480e-03
7.546658e-03
7.507871e-03
7.474885e-03
7.459461e-03
7.469859e-03
7.509007e-03
7.574612e-03
7.660753e-03
7.760175e-03
7.866549e-03
7.975992e-03
8.087701e-03
8.203619e-03
8.327362e-03
8.462842e-03
8.613047e-03
8.779329e-03
8.961302e-03
9.157251e-03
9.364796e-03
9.581567e-03
9.805694e-03
1.003606e-02
1.027232e-02
1.051477e-02
1.076404e-02
1.102082e-02
1.128549e-02
1.155795e-02
1.183743e-02
1.212262e-02
1.241181e-02
1.270320e-02
1.299515e-02
1.328632e-02
1.357516e-02
1.386089e-02
1.414314e-02
1.442157e-02
1.469578e-02
1.496513e-02
1.522871e-02
1.548535e-02
1.573370e-02
1.597238e-02
1.620011e-02
1.641581e-02
1.661864e-02
1.680804e-02
1.698366e-02
1.714529e-02
1.729280e-02
1.742611e-02
1.754509e-02
1.764963e-02
1.773960e-02
1.781489e-02
1.787543e-02
1.792128e-02
1.795265e-02
1.796986e-02
1.797337e-02
1.796379e-02
1.794187e-02
1.790844e-02
1.786437e-02
1.781064e-02
1.774821e-02
1.767814e-02
1.760149e-02
1.751939e-02
1.743298e-02
1.734349e-02
1.725213e-02
1.716015e-02
1.706880e-02
1.697933e-02
1.689296e-02
1.681087e-02
1.673420e-02
1.666404e-02
1.660139e-02
1.654716e-02
1.650218e-02
1.646714e-02
1.644256e-02
1.644095e-02
8.641990e-03
8.688250e-03
8.530040e-03
8.343573e-03
8.164088e-03
8.009068e-03
7.886237e-03
7.797717e-03
7.742178e-03
7.714426e-03
7.704711e-03
7.700081e-03
7.688141e-03
7.661475e-03
7.620385e-03
7.572537e-03
7.529858e-03
7.504267e-03
7.504059e-03
7.532109e-03
7.586070e-03
7.660047e-03
7.746910e-03
7.840477e-03
7.937079e-03
8.036066e-03
8.139450e-03
8.250835e-03
8.374045e-03
8.511933e-03
8.665707e-03
8.834877e-03
9.017702e-03
9.211866e-03
9.415128e-03
9.625793e-03
9.842935e-03
1.006640e-02
1.029665e-02
1.053445e-02
1.078058e-02
1.103545e-02
1.129889e-02
1.157006e-02
1.184754e-02
1.212955e-02
1.241430e-02
1.270026e-02
1.298627e-02
1.327164e-02
1.355530e-02
1.383678e-02
1.411583e-02
1.439199e-02
1.466451e-02
1.493230e-02
1.519400e-02
1.544815e-02
1.569328e-02
1.592809e-02
1.615156e-02
1.636293e-02
1.656172e-02
1.674760e-02
1.692034e-02
1.707974e-02
1.722557e-02
1.735758e-02
1.747546e-02
1.757892e-02
1.766772e-02
1.774168e-02
1.780077e-02
1.784509e-02
1.787497e-02
1.789085e-02
1.789326e-02
1.788290e-02
1.786048e-02
1.782683e-02
1.778276e-02
1.772918e-02
1.766701e-02
1.759722e-02
1.752086e-02
1.743901e-02
1.735279e-02
1.726335e-02
1.717188e-02
1.707955e-02
1.698755e-02
1.689703e-02
1.680913e-02
1.672494e-02
1.664551e-02
1.657180e-02
1.650470e-02
1.644499e-02
1.639334e-02
1.635026e-02
1.631607e-02
1.631453e-02
8.762576e-03
8.766302e-03
8.569464e-03
8.375270e-03
8.205630e-03
8.066418e-03
7.959805e-03
7.885824e-03
7.840963e-03
7.816555e-03
7.799738e-03
7.777395e-03
7.741130e-03
7.690492e-03
7.632832e-03
7.580101e-03
7.544340e-03
7.533877e-03
7.551467e-03
7.594565e-03
7.657108e-03
7.731909e-03
7.812884e-03
7.896542e-03
7.982553e-03
8.073197e-03
8.172231e-03
8.283477e-03
8.409639e-03
8.551685e-03
8.708887e-03
8.879347e-03
9.060722e-03
9.250876e-03
9.448315e-03
9.652364e-03
9.863129e-03
1.008129e-02
1.030779e-02
1.054346e-02
1.078871e-02
1.104326e-02
1.130613e-02
1.157576e-02
1.185034e-02
1.212812e-02
1.240771e-02
1.268819e-02
1.296913e-02
1.325040e-02
1.353113e-02
1.381082e-02
1.408893e-02
1.436454e-02
1.463638e-02
1.490294e-02
1.516261e-02
1.541390e-02
1.565554e-02
1.588659e-02
1.610638e-02
1.631448e-02
1.651060e-02
1.669446e-02
1.686575e-02
1.702410e-02
1.716908e-02
1.730022e-02
1.741708e-02
1.751929e-02
1.760658e-02
1.767884e-02
1.773612e-02
1.777865e-02
1.780687e-02
1.782129e-02
1.782250e-02
1.781116e-02
1.778795e-02
1.775362e-02
1.770897e-02
1.765481e-02
1.759206e-02
1.752167e-02
1.744465e-02
1.736207e-02
1.727501e-02
1.718459e-02
1.709194e-02
1.699819e-02
1.690446e-02
1.681183e-02
1.672139e-02
1.663413e-02
1.655101e-02
1.647291e-02
1.640061e-02
1.633478e-02
1.627596e-02
1.622453e-02
1.618066e-02
1.617918e-02
8.835123e-03
8.809472e-03
8.600163e-03
8.413244e-03
8.257922e-03
8.134265e-03
8.041986e-03
7.978572e-03
7.936709e-03
7.904386e-03
7.868527e-03
7.820182e-03
7.758218e-03
7.689534e-03
7.625950e-03
7.579560e-03
7.558732e-03
7.566116e-03
7.598915e-03
7.650744e-03
7.714161e-03
7.782991e-03
7.853879e-03
7.926761e-03
8.004367e-03
8.090797e-03
8.190027e-03
8.304687e-03
8.435489e-03
8.581374e-03
8.740171e-03
8.909399e-03
9.086961e-03
9.271543e-03
9.462739e-03
9.660952e-03
9.867129e-03
1.008240e-02
1.030769e-02
1.054336e-02
1.078901e-02
1.104349e-02
1.130512e-02
1.157202e-02
1.184251e-02
1.211539e-02
1.239002e-02
1.266623e-02
1.294412e-02
1.322375e-02
1.350407e-02
1.378406e-02
1.406263e-02
1.433833e-02
1.460949e-02
1.487444e-02
1.513168e-02
1.538000e-02
1.561854e-02
1.584674e-02
1.606422e-02
1.627068e-02
1.646577e-02
1.664905e-02
1.682000e-02
1.697800e-02
1.712244e-02
1.725274e-02
1.736841e-02
1.746911e-02
1.755466e-02
1.762506e-02
1.768048e-02
1.772125e-02
1.774787e-02
1.776087e-02
1.776079e-02
1.774825e-02
1.772387e-02
1.768836e-02
1.764246e-02
1.758701e-02
1.752290e-02
1.745107e-02
1.737253e-02
1.728832e-02
1.719950e-02
1.710715e-02
1.701237e-02
1.691622e-02
1.681980e-02
1.672414e-02
1.663024e-02
1.653905e-02
1.645145e-02
1.636824e-02
1.629010e-02
1.621762e-02
1.615125e-02
1.609128e-02
1.603780e-02
1.603637e-02
8.877206e-03
8.836996e-03
8.630792e-03
8.457141e-03
8.316675e-03
8.207064e-03
8.125383e-03
8.065078e-03
8.015172e-03
7.963216e-03
7.900292e-03
7.824925e-03
7.743638e-03
7.668043e-03
7.610203e-03
7.578499e-03
7.575505e-03
7.598173e-03
7.639741e-03
7.692363e-03
7.749594e-03
7.808049e-03
7.867923e-03
7.932326e-03
8.005886e-03
8.092893e-03
8.196020e-03
8.315770e-03
8.450734e-03
8.598391e-03
8.756041e-03
8.921543e-03
9.093716e-03
9.272402e-03
9.458301e-03
9.652635e-03
9.856742e-03
1.007163e-02
1.029765e-02
1.053427e-02
1.078018e-02
1.103357e-02
1.129252e-02
1.155545e-02
1.182134e-02
1.208982e-02
1.236102e-02
1.263524e-02
1.291266e-02
1.319307e-02
1.347480e-02
1.375615e-02
1.403547e-02
1.431098e-02
1.458096e-02
1.484395e-02
1.509884e-02
1.534487e-02
1.558156e-02
1.580856e-02
1.602554e-02
1.623204e-02
1.642749e-02
1.661120e-02
1.678238e-02
1.694027e-02
1.708416e-02
1.721348e-02
1.732782e-02
1.742694e-02
1.751079e-02
1.757949e-02
1.763328e-02
1.767251e-02
1.769767e-02
1.770924e-02
1.770773e-02
1.769367e-02
1.766769e-02
1.763044e-02
1.758269e-02
1.752528e-02
1.745910e-02
1.738510e-02
1.730426e-02
1.721760e-02
1.712618e-02
1.703104e-02
1.693325e-02
1.683386e-02
1.673389e-02
1.663436e-02
1.653622e-02
1.644033e-02
1.634753e-02
1.625855e-02
1.617401e-02
1.609443e-02
1.602022e-02
1.595161e-02
1.588865e-02
1.588727e-02
8.903874e-03
8.861500e-03
8.665072e-03
8.505645e-03
8.378554e-03
8.279177e-03
8.200598e-03
8.132360e-03
8.062713e-03
7.983166e-03
7.892322e-03
7.796594e-03
7.707483e-03
7.637010e-03
7.593542e-03
7.579575e-03
7.591837e-03
7.623184e-03
7.665307e-03
7.711361e-03
7.757785e-03
7.804901e-03
7.856219e-03
7.916798e-03
7.991405e-03
8.082866e-03
8.191555e-03
8.315742e-03
8.452547e-03
8.599007e-03
8.752891e-03
8.913094e-03
9.079665e-03
9.253562e-03
9.436259e-03
9.629285e-03
9.833748e-03
1.004997e-02
1.027734e-02
1.051441e-02
1.075927e-02
1.100998e-02
1.126505e-02
1.152369e-02
1.178578e-02
1.205168e-02
1.232191e-02
1.259673e-02
1.287591e-02
1.315861e-02
1.344246e-02
1.372510e-02
1.400466e-02
1.427943e-02
1.454800e-02
1.480938e-02
1.506292e-02
1.530821e-02
1.554490e-02
1.577260e-02
1.599074e-02
1.619859e-02
1.639527e-02
1.657985e-02
1.675143e-02
1.690919e-02
1.705249e-02
1.718084e-02
1.729397e-02
1.739177e-02
1.747428e-02
1.754166e-02
1.759416e-02
1.763208e-02
1.765586e-02
1.766593e-02
1.766274e-02
1.764683e-02
1.761878e-02
1.757931e-02
1.752917e-02
1.746922e-02
1.740034e-02
1.732350e-02
1.723966e-02
1.714983e-02
1.705505e-02
1.695635e-02
1.685479e-02
1.675138e-02
1.664711e-02
1.654296e-02
1.643981e-02
1.633852e-02
1.623983e-02
1.614446e-02
1.605299e-02
1.596592e-02
1.588363e-02
1.580633e-02
1.573407e-02
1.573275e-02
8.924660e-03
8.889246e-03
8.704070e-03
8.557128e-03
8.439353e-03
8.342557e-03
8.255929e-03
8.167939e-03
8.070465e-03
7.962406e-03
7.850359e-03
7.745944e-03
7.661269e-03
7.604737e-03
7.578779e-03
7.579919e-03
7.600646e-03
7.632176e-03
7.667205e-03
7.701885e-03
7.736542e-03
7.774987e-03
7.822737e-03
7.884897e-03
7.964586e-03
8.062114e-03
8.175486e-03
8.301499e-03
8.436940e-03
8.579476e-03
8.728054e-03
8.882878e-03
9.045108e-03
9.216419e-03
9.398487e-03
9.592497e-03
9.798773e-03
1.001663e-02
1.024455e-02
1.048054e-02
1.072269e-02
1.096963e-02
1.122075e-02
1.147616e-02
1.173648e-02
1.200235e-02
1.227412e-02
1.255153e-02
1.283364e-02
1.311894e-02
1.340455e-02
1.368783e-02
1.396709e-02
1.424105e-02
1.450883e-02
1.476989e-02
1.502388e-02
1.527043e-02
1.550906e-02
1.573907e-02
1.595956e-02
1.616948e-02
1.636775e-02
1.655333e-02
1.672532e-02
1.688302e-02
1.702589e-02
1.715360e-02
1.726598e-02
1.736299e-02
1.744469e-02
1.751122e-02
1.756276e-02
1.759953e-02
1.762191e-02
1.763032e-02
1.762521e-02
1.760710e-02
1.757662e-02
1.753449e-02
1.748150e-02
1.741850e-02
1.734639e-02
1.726611e-02
1.717864e-02
1.708500e-02
1.698619e-02
1.688327e-02
1.677724e-02
1.666909e-02
1.655980e-02
1.645029e-02
1.634141e-02
1.623399e-02
1.612876e-02
1.602641e-02
1.592753e-02
1.583261e-02
1.574203e-02
1.565601e-02
1.557463e-02
1.557339e-02
8.944416e-03
8.922394e-03
8.747101e-03
8.608201e-03
8.491943e-03
8.386511e-03
8.279873e-03
8.163786e-03
8.037278e-03
7.907226e-03
7.785596e-03
7.684813e-03
7.613487e-03
7.574079e-03
7.562950e-03
7.572239e-03
7.592691e-03
7.616511e-03
7.639500e-03
7.661891e-03
7.687687e-03
7.722785e-03
7.772658e-03
7.840545e-03
7.926808e-03
8.029237e-03
8.144356e-03
8.268752e-03
8.400023e-03
8.537166e-03
8.680511e-03
8.831368e-03
8.991541e-03
9.162795e-03
9.346359e-03
9.542550e-03
9.750651e-03
9.969091e-03
1.019588e-02
1.042915e-02
1.066765e-02
1.091096e-02
1.115940e-02
1.141377e-02
1.167486e-02
1.194307e-02
1.221810e-02
1.249891e-02
1.278390e-02
1.307116e-02
1.335776e-02
1.364121e-02
1.392032e-02
1.419436e-02
1.446291e-02
1.472565e-02
1.498219e-02
1.523193e-02
1.547402e-02
1.570738e-02
1.593081e-02
1.614306e-02
1.634301e-02
1.652968e-02
1.670229e-02
1.686027e-02
1.700324e-02
1.713096e-02
1.724330e-02
1.734020e-02
1.742167e-02
1.748776e-02
1.753856e-02
1.757426e-02
1.759518e-02
1.760177e-02
1.759451e-02
1.757394e-02
1.754074e-02
1.749562e-02
1.743939e-02
1.737291e-02
1.729708e-02
1.721286e-02
1.712123e-02
1.702320e-02
1.691978e-02
1.681200e-02
1.670083e-02
1.658725e-02
1.647220e-02
1.635657e-02
1.624123e-02
1.612698e-02
1.601457e-02
1.590470e-02
1.579796e-02
1.569487e-02
1.559581e-02
1.550105e-02
1.541069e-02
1.540954e-02
8.965103e-03
8.960501e-03
8.791085e-03
8.652271e-03
8.526347e-03
8.400248e-03
8.264954e-03
8.119106e-03
7.969640e-03
7.828922e-03
7.709918e-03
7.621694e-03
7.566943e-03
7.541972e-03
7.538615e-03
7.547140e-03
7.559235e-03
7.570297e-03
7.580391e-03
7.593629e-03
7.616198e-03
7.653881e-03
7.710067e-03
7.784989e-03
7.876325e-03
7.980371e-03
8.093568e-03
8.213495e-03
8.339232e-03
8.471230e-03
8.610905e-03
8.760129e-03
8.920696e-03
9.093832e-03
9.279836e-03
9.477968e-03
9.686650e-03
9.903918e-03
1.012799e-02
1.035774e-02
1.059290e-02
1.083401e-02
1.108202e-02
1.133784e-02
1.160190e-02
1.187386e-02
1.215261e-02
1.243645e-02
1.272347e-02
1.301183e-02
1.329906e-02
1.358302e-02
1.386313e-02
1.413907e-02
1.441054e-02
1.467711e-02
1.493806e-02
1.519237e-02
1.543880e-02
1.567597e-02
1.590252e-02
1.611722e-02
1.631903e-02
1.650713e-02
1.668090e-02
1.683992e-02
1.698385e-02
1.711246e-02
1.722557e-02
1.732304e-02
1.740476e-02
1.747071e-02
1.752093e-02
1.755557e-02
1.757498e-02
1.757966e-02
1.757012e-02
1.754693e-02
1.751078e-02
1.746241e-02
1.740263e-02
1.733231e-02
1.725237e-02
1.716377e-02
1.706750e-02
1.696456e-02
1.685595e-02
1.674267e-02
1.662567e-02
1.650592e-02
1.638435e-02
1.626187e-02
1.613935e-02
1.601761e-02
1.589744e-02
1.577954e-02
1.566453e-02
1.555296e-02
1.544523e-02
1.534167e-02
1.524241e-02
1.524137e-02
8.986542e-03
9.000463e-03
8.829671e-03
8.679850e-03
8.532242e-03
8.376539e-03
8.210361e-03
8.040201e-03
7.878617e-03
7.739195e-03
7.631705e-03
7.559339e-03
7.518547e-03
7.500956e-03
7.496365e-03
7.495905e-03
7.494501e-03
7.491983e-03
7.492501e-03
7.502473e-03
7.527935e-03
7.572392e-03
7.635975e-03
7.716071e-03
7.808847e-03
7.910634e-03
8.019042e-03
8.133274e-03
8.253916e-03
8.382472e-03
8.520837e-03
8.670783e-03
8.833493e-03
9.009227e-03
9.197227e-03
9.395925e-03
9.603405e-03
9.817977e-03
1.003864e-02
1.026530e-02
1.049865e-02
1.073980e-02
1.098977e-02
1.124901e-02
1.151715e-02
1.179301e-02
1.207483e-02
1.236069e-02
1.264884e-02
1.293802e-02
1.322644e-02
1.351232e-02
1.379543e-02
1.407551e-02
1.435205e-02
1.462421e-02
1.489080e-02
1.515040e-02
1.540150e-02
1.564261e-02
1.587243e-02
1.608986e-02
1.629405e-02
1.648434e-02
1.666024e-02
1.682134e-02
1.696726e-02
1.709769e-02
1.721233e-02
1.731091e-02
1.739326e-02
1.745930e-02
1.750907e-02
1.754275e-02
1.756068e-02
1.756346e-02
1.755160e-02
1.752571e-02
1.748648e-02
1.743466e-02
1.737109e-02
1.729664e-02
1.721226e-02
1.711889e-02
1.701753e-02
1.690914e-02
1.679472e-02
1.667526e-02
1.655171e-02
1.642505e-02
1.629623e-02
1.616619e-02
1.603583e-02
1.590601e-02
1.577753e-02
1.565112e-02
1.552744e-02
1.540706e-02
1.529044e-02
1.517794e-02
1.506980e-02
1.506887e-02
9.005952e-03
9.035847e-03
8.853511e-03
8.680763e-03
8.502283e-03
8.314144e-03
8.121798e-03
7.937567e-03
7.775516e-03
7.646248e-03
7.553713e-03
7.494765e-03
7.460979e-03
7.441739e-03
7.427577e-03
7.412864e-03
7.397109e-03
7.384434e-03
7.381448e-03
7.394418e-03
7.426938e-03
7.479028e-03
7.547797e-03
7.629104e-03
7.719264e-03
7.815940e-03
7.918492e-03
8.027661e-03
8.145036e-03
8.272515e-03
8.411816e-03
8.564051e-03
8.729428e-03
8.907162e-03
9.095695e-03
9.293161e-03
9.497955e-03
9.709200e-03
9.926950e-03
1.015206e-02
1.038579e-02
1.062925e-02
1.088294e-02
1.114645e-02
1.141856e-02
1.169744e-02
1.198118e-02
1.226815e-02
1.255725e-02
1.284796e-02
1.313919e-02
1.342914e-02
1.371755e-02
1.400385e-02
1.428707e-02
1.456585e-02
1.483862e-02
1.510373e-02
1.535960e-02
1.560484e-02
1.583835e-02
1.605923e-02
1.626679e-02
1.646045e-02
1.663970e-02
1.680405e-02
1.695299e-02
1.708606e-02
1.720283e-02
1.730298e-02
1.738629e-02
1.745269e-02
1.750223e-02
1.753513e-02
1.755175e-02
1.755273e-02
1.753861e-02
1.751001e-02
1.746763e-02
1.741225e-02
1.734471e-02
1.726590e-02
1.717675e-02
1.707821e-02
1.697124e-02
1.685683e-02
1.673596e-02
1.660962e-02
1.647881e-02
1.634455e-02
1.620781e-02
1.606959e-02
1.593080e-02
1.579233e-02
1.565502e-02
1.551962e-02
1.538683e-02
1.525726e-02
1.513145e-02
1.500983e-02
1.489273e-02
1.489191e-02
9.017319e-03
9.056999e-03
8.852049e-03
8.647054e-03
8.434305e-03
8.217703e-03
8.008822e-03
7.821887e-03
7.668282e-03
7.552877e-03
7.473167e-03
7.420889e-03
7.385113e-03
7.355769e-03
7.326593e-03
7.296664e-03
7.269997e-03
7.253362e-03
7.253255e-03
7.273372e-03
7.313616e-03
7.370816e-03
7.440515e-03
7.518828e-03
7.603555e-03
7.694218e-03
7.791728e-03
7.897768e-03
8.014228e-03
8.142761e-03
8.284399e-03
8.439288e-03
8.606615e-03
8.784822e-03
8.972072e-03
9.166828e-03
9.368315e-03
9.576723e-03
9.793065e-03
1.001875e-02
1.025499e-02
1.050235e-02
1.076040e-02
1.102785e-02
1.130285e-02
1.158349e-02
1.186825e-02
1.215624e-02
1.244716e-02
1.274110e-02
1.303738e-02
1.333368e-02
1.362937e-02
1.392332e-02
1.421405e-02
1.449984e-02
1.477891e-02
1.504961e-02
1.531051e-02
1.556048e-02
1.579859e-02
1.602412e-02
1.623641e-02
1.643483e-02
1.661871e-02
1.678739e-02
1.694021e-02
1.707660e-02
1.719605e-02
1.729821e-02
1.738289e-02
1.745002e-02
1.749970e-02
1.753214e-02
1.754770e-02
1.754708e-02
1.753083e-02
1.749959e-02
1.745406e-02
1.739505e-02
1.732339e-02
1.723997e-02
1.714570e-02
1.704154e-02
1.692844e-02
1.680740e-02
1.667944e-02
1.654559e-02
1.640690e-02
1.626442e-02
1.611919e-02
1.597220e-02
1.582442e-02
1.567675e-02
1.553006e-02
1.538514e-02
1.524275e-02
1.510356e-02
1.496818e-02
1.483715e-02
1.471090e-02
1.471021e-02
9.011714e-03
9.052582e-03
8.816115e-03
8.575073e-03
8.331383e-03
8.095433e-03