# vtk DataFile Version 3.0
Scalar Field
ASCII
DATASET RECTILINEAR_GRID
DIMENSIONS 102 102 1
X_COORDINATES 102 double
0.000000 0.100000 0.200000 0.300000 0.400000 0.500000 0.600000 0.700000 0.800000 0.900000 1.000000 1.100000 1.200000 1.300000 1.400000 1.500000 1.600000 1.700000 1.800000 1.900000 2.000000 2.100000 2.200000 2.300000 2.400000 2.500000 2.600000 2.700000 2.800000 2.900000 3.000000 3.100000 3.200000 3.300000 3.400000 3.500000 3.600000 3.700000 3.800000 3.900000 4.000000 4.100000 4.200000 4.300000 4.400000 4.500000 4.600000 4.700000 4.800000 4.900000 5.000000 5.100000 5.200000 5.300000 5.400000 5.500000 5.600000 5.700000 5.800000 5.900000 6.000000 6.100000 6.200000 6.300000 6.400000 6.500000 6.600000 6.700000 6.800000 6.900000 7.000000 7.100000 7.200000 7.300000 7.400000 7.500000 7.600000 7.700000 7.800000 7.900000 8.000000 8.100000 8.200000 8.300000 8.400000 8.500000 8.600000 8.700000 8.800000 8.900000 9.000000 9.100000 9.200000 9.300000 9.400000 9.500000 9.600000 9.700000 9.800000 9.900000 10.000000 10.100000 
Y_COORDINATES 102 double
0.000000 0.100000 0.200000 0.300000 0.400000 0.500000 0.600000 0.700000 0.800000 0.900000 1.000000 1.100000 1.200000 1.300000 1.400000 1.500000 1.600000 1.700000 1.800000 1.900000 2.000000 2.100000 2.200000 2.300000 2.400000 2.500000 2.600000 2.700000 2.800000 2.900000 3.000000 3.100000 3.200000 3.300000 3.400000 3.500000 3.600000 3.700000 3.800000 3.900000 4.000000 4.100000 4.200000 4.300000 4.400000 4.500000 4.600000 4.700000 4.800000 4.900000 5.000000 5.100000 5.200000 5.300000 5.400000 5.500000 5.600000 5.700000 5.800000 5.900000 6.000000 6.100000 6.200000 6.300000 6.400000 6.500000 6.600000 6.700000 6.800000 6.900000 7.000000 7.100000 7.200000 7.300000 7.400000 7.500000 7.600000 7.700000 7.800000 7.900000 8.000000 8.100000 8.200000 8.300000 8.400000 8.500000 8.600000 8.700000 8.800000 8.900000 9.000000 9.100000 9.200000 9.300000 9.400000 9.500000 9.600000 9.700000 9.800000 9.900000 10.000000 10.100000 
Z_COORDINATES 1 double
0.0
POINT_DATA 10404
SCALARS Pressure double 1
LOOKUP_TABLE default
0.000000e+00
-9.362594e-04
-9.352092e-04
-9.276583e-04
-9.232549e-04
-9.340328e-04
-9.701093e-04
-1.034273e-03
-1.119741e-03
-1.212540e-03
-1.297322e-03
-1.363648e-03
-1.409547e-03
-1.440677e-03
-1.465707e-03
-1.490464e-03
-1.513878e-03
-1.527724e-03
-1.520134e-03
-1.480980e-03
-1.406415e-03
-1.300466e-03
-1.173142e-03
-1.036243e-03
-8.989725e-04
-7.653402e-04
-6.341707e-04
-5.012062e-04
-3.618388e-04
-2.129606e-04
-5.315181e-05
1.185244e-04
3.040662e-04
5.072391e-04
7.327994e-04
9.844668e-04
1.262608e-03
1.562824e-03
1.876272e-03
2.191790e-03
2.499110e-03
2.791982e-03
3.070056e-03
3.338868e-03
3.607970e-03
3.887895e-03
4.186987e-03
4.509093e-03
4.852733e-03
5.211855e-03
5.577769e-03
5.941565e-03
6.296269e-03
6.638176e-03
6.967154e-03
7.285929e-03
7.598763e-03
7.909965e-03
8.222658e-03
8.538076e-03
8.855449e-03
9.172399e-03
9.485630e-03
9.791678e-03
1.008754e-02
1.037106e-02
1.064104e-02
1.089714e-02
1.113962e-02
1.136903e-02
1.158595e-02
1.179075e-02
1.198349e-02
1.216388e-02
1.233135e-02
1.248511e-02
1.262431e-02
1.274813e-02
1.285586e-02
1.294698e-02
1.302119e-02
1.307841e-02
1.311878e-02
1.314263e-02
1.315043e-02
1.314282e-02
1.312056e-02
1.308453e-02
1.303580e-02
1.297559e-02
1.290532e-02
1.282671e-02
1.274180e-02
1.265304e-02
1.256336e-02
1.247628e-02
1.239601e-02
1.232749e-02
1.227612e-02
1.224695e-02
1.224205e-02
0.000000e+00
-9.362594e-04
-9.421061e-04
-9.223665e-04
-9.036523e-04
-8.981167e-04
-9.162040e-04
-9.632501e-04
-1.036437e-03
-1.125221e-03
-1.215343e-03
-1.294451e-03
-1.356516e-03
-1.402903e-03
-1.439713e-03
-1.472950e-03
-1.504069e-03
-1.528174e-03
-1.535678e-03
-1.516462e-03
-1.464390e-03
-1.380012e-03
-1.270290e-03
-1.145699e-03
-1.016254e-03
-8.882988e-04
-7.633152e-04
-6.388558e-04
-5.106927e-04
-3.748564e-04
-2.285713e-04
-6.989094e-05
1.033591e-04
2.943642e-04
5.070802e-04
7.448665e-04
1.008587e-03
1.295148e-03
1.597334e-03
1.905237e-03
2.208892e-03
2.501189e-03
2.780002e-03
3.048760e-03
3.315281e-03
3.589284e-03
3.879447e-03
4.190929e-03
4.524101e-03
4.874724e-03
5.235386e-03
5.597632e-03
5.954108e-03
6.300114e-03
6.634231e-03
6.958027e-03
7.275012e-03
7.589273e-03
7.904205e-03
8.221643e-03
8.541540e-03
8.862157e-03
9.180615e-03
9.493597e-03
9.798004e-03
1.009141e-02
1.037229e-02
1.063997e-02
1.089448e-02
1.113623e-02
1.136575e-02
1.158345e-02
1.178945e-02
1.198355e-02
1.216523e-02
1.233373e-02
1.248818e-02
1.262769e-02
1.275146e-02
1.285888e-02
1.294951e-02
1.302315e-02
1.307982e-02
1.311971e-02
1.314319e-02
1.315074e-02
1.314301e-02
1.312072e-02
1.308474e-02
1.303611e-02
1.297600e-02
1.290584e-02
1.282733e-02
1.274250e-02
1.265379e-02
1.256414e-02
1.247708e-02
1.239684e-02
1.232833e-02
1.227697e-02
1.224780e-02
1.224290e-02
1.224205e-02
-9.211783e-04
-9.080134e-04
-8.696973e-04
-8.439816e-04
-8.440004e-04
-8.748002e-04
-9.331073e-04
-1.008393e-03
-1.087060e-03
-1.157763e-03
-1.215270e-03
-1.261064e-03
-1.300563e-03
-1.338562e-03
-1.375336e-03
-1.405379e-03
-1.419318e-03
-1.407915e-03
-1.366107e-03
-1.295118e-03
-1.201799e-03
-1.095690e-03
-9.853703e-04
-8.757646e-04
-7.674043e-04
-6.575660e-04
-5.423190e-04
-4.182548e-04
-2.830949e-04
-1.351593e-04
2.762912e-05
2.082985e-04
4.103568e-04
6.363611e-04
8.862067e-04
1.156058e-03
1.438609e-03
1.724773e-03
2.006256e-03
2.278071e-03
2.540043e-03
2.796763e-03
3.056022e-03
3.326301e-03
3.614175e-03
3.922466e-03
4.249641e-03
4.590504e-03
4.937857e-03
5.284486e-03
5.624905e-03
5.956366e-03
6.278978e-03
6.595049e-03
6.908003e-03
7.221145e-03
7.536686e-03
7.855234e-03
8.175772e-03
8.496038e-03
8.813125e-03
9.124107e-03
9.426527e-03
9.718676e-03
9.999641e-03
1.026918e-02
1.052749e-02
1.077493e-02
1.101182e-02
1.123824e-02
1.145402e-02
1.165864e-02
1.185140e-02
1.203143e-02
1.219783e-02
1.234976e-02
1.248652e-02
1.260757e-02
1.271259e-02
1.280145e-02
1.287418e-02
1.293096e-02
1.297211e-02
1.299802e-02
1.300920e-02
1.300623e-02
1.298980e-02
1.296073e-02
1.291999e-02
1.286872e-02
1.280831e-02
1.274038e-02
1.266688e-02
1.259011e-02
1.251276e-02
1.243800e-02
1.236941e-02
1.231097e-02
1.226685e-02
1.224097e-02
1.223650e-02
1.223570e-02
-8.478567e-04
-8.232038e-04
-7.859854e-04
-7.741978e-04
-7.957179e-04
-8.459929e-04
-9.132331e-04
-9.833301e-04
-1.045520e-03
-1.095980e-03
-1.137700e-03
-1.176900e-03
-1.218058e-03
-1.260184e-03
-1.296230e-03
-1.315820e-03
-1.309780e-03
-1.274134e-03
-1.211656e-03
-1.130398e-03
-1.040125e-03
-9.484943e-04
-8.587150e-04
-7.694791e-04
-6.767390e-04
-5.760754e-04
-4.643330e-04
-3.398459e-04
-2.014972e-04
-4.753336e-05
1.248774e-04
3.188678e-04
5.361781e-04
7.754514e-04
1.031518e-03
1.296242e-03
1.560752e-03
1.818252e-03
2.066277e-03
2.307507e-03
2.548836e-03
2.799031e-03
3.065872e-03
3.353750e-03
3.662485e-03
3.987628e-03
4.322004e-03
4.657874e-03
4.988993e-03
5.311953e-03
5.626541e-03
5.935146e-03
6.241537e-03
6.549451e-03
6.861527e-03
7.178613e-03
7.499705e-03
7.822366e-03
8.143424e-03
8.459702e-03
8.768596e-03
9.068387e-03
9.358270e-03
9.638185e-03
9.908508e-03
1.016974e-02
1.042226e-02
1.066613e-02
1.090105e-02
1.112640e-02
1.134130e-02
1.154473e-02
1.173567e-02
1.191316e-02
1.207643e-02
1.222488e-02
1.235815e-02
1.247603e-02
1.257852e-02
1.266570e-02
1.273777e-02
1.279499e-02
1.283766e-02
1.286614e-02
1.288086e-02
1.288233e-02
1.287116e-02
1.284811e-02
1.281408e-02
1.277018e-02
1.271773e-02
1.265829e-02
1.259370e-02
1.252606e-02
1.245782e-02
1.239170e-02
1.233076e-02
1.227821e-02
1.223742e-02
1.221168e-02
1.220426e-02
1.220352e-02
-7.331202e-04
-7.075504e-04
-6.930366e-04
-7.105528e-04
-7.583078e-04
-8.230353e-04
-8.894246e-04
-9.464840e-04
-9.913257e-04
-1.028586e-03
-1.066016e-03
-1.108732e-03
-1.155210e-03
-1.197043e-03
-1.222448e-03
-1.221572e-03
-1.190872e-03
-1.134448e-03
-1.061891e-03
-9.839404e-04
-9.081662e-04
-8.366394e-04
-7.663283e-04
-6.915415e-04
-6.068068e-04
-5.086643e-04
-3.956943e-04
-2.672210e-04
-1.218627e-04
4.292198e-05
2.298411e-04
4.398249e-04
6.702621e-04
9.145542e-04
1.163499e-03
1.408107e-03
1.642737e-03
1.867223e-03
2.087098e-03
2.311775e-03
2.551386e-03
2.813445e-03
3.100515e-03
3.409596e-03
3.733305e-03
4.062294e-03
4.388002e-03
4.704851e-03
5.011283e-03
5.309495e-03
5.604144e-03
5.900545e-03
6.202961e-03
6.513440e-03
6.831587e-03
7.154860e-03
7.479428e-03
7.801195e-03
8.116673e-03
8.423533e-03
8.720740e-03
9.008361e-03
9.287156e-03
9.558110e-03
9.822031e-03
1.007929e-02
1.032972e-02
1.057263e-02
1.080697e-02
1.103147e-02
1.124483e-02
1.144585e-02
1.163355e-02
1.180721e-02
1.196637e-02
1.211082e-02
1.224051e-02
1.235553e-02
1.245605e-02
1.254226e-02
1.261436e-02
1.267255e-02
1.271706e-02
1.274815e-02
1.276616e-02
1.277151e-02
1.276477e-02
1.274664e-02
1.271801e-02
1.267995e-02
1.263371e-02
1.258079e-02
1.252288e-02
1.246190e-02
1.240000e-02
1.233952e-02
1.228299e-02
1.223303e-02
1.219230e-02
1.216342e-02
1.214899e-02
1.214831e-02
-6.022528e-04
-5.850204e-04
-6.065487e-04
-6.571320e-04
-7.250181e-04
-7.935128e-04
-8.507017e-04
-8.938185e-04
-9.286640e-04
-9.646276e-04
-1.008133e-03
-1.058026e-03
-1.105245e-03
-1.136785e-03
-1.141741e-03
-1.116292e-03
-1.065208e-03
-9.993670e-04
-9.307627e-04
-8.675769e-04
-8.115557e-04
-7.585468e-04
-7.013795e-04
-6.332632e-04
-5.499105e-04
-4.496133e-04
-3.317874e-04
-1.953271e-04
-3.807489e-05
1.421104e-04
3.452804e-04
5.676217e-04
8.012302e-04
1.035926e-03
1.262547e-03
1.476370e-03
1.679156e-03
1.878881e-03
2.087187e-03
2.315495e-03
2.571241e-03
2.855562e-03
3.163150e-03
3.484169e-03
3.807415e-03
4.123577e-03
4.427574e-03
4.719339e-03
5.003040e-03
5.285184e-03
5.572346e-03
5.869216e-03
6.177466e-03
6.495585e-03
6.819796e-03
7.145161e-03
7.466867e-03
7.781213e-03
8.086122e-03
8.381141e-03
8.667046e-03
8.945254e-03
9.217218e-03
9.483961e-03
9.745820e-03
1.000240e-02
1.025267e-02
1.049522e-02
1.072845e-02
1.095084e-02
1.116107e-02
1.135814e-02
1.154141e-02
1.171055e-02
1.186546e-02
1.200626e-02
1.213311e-02
1.224622e-02
1.234575e-02
1.243185e-02
1.250461e-02
1.256413e-02
1.261052e-02
1.264394e-02
1.266468e-02
1.267311e-02
1.266980e-02
1.265543e-02
1.263088e-02
1.259719e-02
1.255557e-02
1.250741e-02
1.245427e-02
1.239784e-02
1.233999e-02
1.228270e-02
1.222800e-02
1.217800e-02
1.213473e-02
1.210011e-02
1.207592e-02
1.207530e-02
-4.793426e-04
-4.746246e-04
-5.335451e-04
-6.096814e-04
-6.857013e-04
-7.486038e-04
-7.951118e-04
-8.314623e-04
-8.682565e-04
-9.133258e-04
-9.664677e-04
-1.018747e-03
-1.056536e-03
-1.068022e-03
-1.048757e-03
-1.003540e-03
-9.439481e-04
-8.830080e-04
-8.297734e-04
-7.863082e-04
-7.480850e-04
-7.070158e-04
-6.551563e-04
-5.871569e-04
-5.005556e-04
-3.943886e-04
-2.675346e-04
-1.181667e-04
5.517514e-05
2.515311e-04
4.658657e-04
6.891075e-04
9.103313e-04
1.120390e-03
1.315477e-03
1.499013e-03
1.680930e-03
1.874525e-03
2.092046e-03
2.340670e-03
2.620297e-03
2.923830e-03
3.239676e-03
3.555451e-03
3.861555e-03
4.153516e-03
4.432510e-03
4.704154e-03
4.976178e-03
5.255845e-03
5.547898e-03
5.853540e-03
6.170509e-03
6.494028e-03
6.818498e-03
7.138777e-03
7.451205e-03
7.754032e-03
8.047296e-03
8.332280e-03
8.610805e-03
8.884557e-03
9.154601e-03
9.421151e-03
9.683576e-03
9.940580e-03
1.019048e-02
1.043147e-02
1.066190e-02
1.088042e-02
1.108606e-02
1.127828e-02
1.145684e-02
1.162178e-02
1.177327e-02
1.191154e-02
1.203679e-02
1.214914e-02
1.224864e-02
1.233527e-02
1.240900e-02
1.246981e-02
1.251772e-02
1.255288e-02
1.257556e-02
1.258616e-02
1.258524e-02
1.257351e-02
1.255185e-02
1.252127e-02
1.248291e-02
1.243804e-02
1.238805e-02
1.233444e-02
1.227877e-02
1.222268e-02
1.216780e-02
1.211574e-02
1.206800e-02
1.202591e-02
1.199047e-02
1.198988e-02
-3.792106e-04
-3.848069e-04
-4.717277e-04
-5.598392e-04
-6.332881e-04
-6.881509e-04
-7.305854e-04
-7.718207e-04
-8.207581e-04
-8.782309e-04
-9.358894e-04
-9.800935e-04
-9.985763e-04
-9.863500e-04
-9.479431e-04
-8.951057e-04
-8.414286e-04
-7.966801e-04
-7.634869e-04
-7.375037e-04
-7.103582e-04
-6.734236e-04
-6.204292e-04
-5.479602e-04
-4.542940e-04
-3.379205e-04
-1.971253e-04
-3.110048e-05
1.580983e-04
3.641508e-04
5.768841e-04
7.848381e-04
9.791439e-04
1.157077e-03
1.323644e-03
1.490369e-03
1.671621e-03
1.879852e-03
2.121536e-03
2.395241e-03
2.692393e-03
3.000287e-03
3.306136e-03
3.600731e-03
3.880586e-03
4.148097e-03
4.409936e-03
4.674421e-03
4.948833e-03
5.237436e-03
5.540681e-03
5.855586e-03
6.176912e-03
6.498688e-03
6.815912e-03
7.125311e-03
7.425638e-03
7.717400e-03
8.002210e-03
8.282033e-03
8.558513e-03
8.832533e-03
9.104051e-03
9.372168e-03
9.635359e-03
9.891780e-03
1.013956e-02
1.037705e-02
1.060297e-02
1.081645e-02
1.101705e-02
1.120464e-02
1.137934e-02
1.154135e-02
1.169088e-02
1.182806e-02
1.195294e-02
1.206545e-02
1.216545e-02
1.225278e-02
1.232730e-02
1.238894e-02
1.243775e-02
1.247389e-02
1.249767e-02
1.250954e-02
1.251011e-02
1.250010e-02
1.248037e-02
1.245186e-02
1.241565e-02
1.237286e-02
1.232472e-02
1.227250e-02
1.221749e-02
1.216103e-02
1.210439e-02
1.204879e-02
1.199527e-02
1.194466e-02
1.189744e-02
1.189685e-02
-3.037273e-04
-3.128497e-04
-4.132086e-04
-5.011080e-04
-5.683836e-04
-6.210480e-04
-6.705999e-04
-7.265876e-04
-7.906195e-04
-8.549641e-04
-9.062722e-04
-9.322419e-04
-9.276672e-04
-8.968675e-04
-8.515482e-04
-8.054853e-04
-7.688290e-04
-7.446674e-04
-7.290417e-04
-7.137349e-04
-6.899332e-04
-6.508156e-04
-5.921405e-04
-5.112851e-04
-4.060765e-04
-2.746391e-04
-1.166488e-04
6.479056e-05
2.620642e-04
4.639264e-04
6.585098e-04
8.374327e-04
9.992446e-04
1.150587e-03
1.304384e-03
1.475644e-03
1.676463e-03
1.912102e-03
2.179521e-03
2.468749e-03
2.766399e-03
3.059934e-03
3.341210e-03
3.608222e-03
3.864753e-03
4.118334e-03
4.377407e-03
4.648668e-03
4.935364e-03
5.236853e-03
5.549318e-03
5.867216e-03
6.184824e-03
6.497502e-03
6.802727e-03
7.099971e-03
7.390252e-03
7.675407e-03
7.957331e-03
8.237381e-03
8.516041e-03
8.792864e-03
9.066622e-03
9.335588e-03
9.597849e-03
9.851585e-03
1.009527e-02
1.032780e-02
1.054849e-02
1.075702e-02
1.095339e-02
1.113772e-02
1.131020e-02
1.147096e-02
1.162002e-02
1.175730e-02
1.188257e-02
1.199559e-02
1.209606e-02
1.218376e-02
1.225853e-02
1.232036e-02
1.236935e-02
1.240574e-02
1.242992e-02
1.244238e-02
1.244377e-02
1.243478e-02
1.241624e-02
1.238901e-02
1.235405e-02
1.231236e-02
1.226497e-02
1.221295e-02
1.215737e-02
1.209929e-02
1.203970e-02
1.197948e-02
1.191935e-02
1.185976e-02
1.180080e-02
1.180020e-02
-2.439306e-04
-2.491059e-04
-3.504976e-04
-4.334088e-04
-4.995772e-04
-5.608058e-04
-6.270905e-04
-7.005204e-04
-7.737490e-04
-8.336603e-04
-8.680593e-04
-8.717802e-04
-8.491686e-04
-8.119718e-04
-7.740455e-04
-7.456864e-04
-7.302197e-04
-7.239927e-04
-7.190779e-04
-7.067857e-04
-6.801116e-04
-6.342834e-04
-5.659119e-04
-4.720880e-04
-3.505937e-04
-2.013812e-04
-2.844042e-05
1.594179e-04
3.499420e-04
5.309395e-04
6.946326e-04
8.409674e-04
9.782754e-04
1.120796e-03
1.283925e-03
1.479017e-03
1.709712e-03
1.971075e-03
2.251678e-03
2.537656e-03
2.817145e-03
3.083564e-03
3.336821e-03
3.582312e-03
3.828399e-03
4.083378e-03
4.352967e-03
4.638982e-03
4.939387e-03
5.249410e-03
5.563217e-03
5.875521e-03
6.182626e-03
6.482809e-03
6.776445e-03
7.065135e-03
7.350892e-03
7.635410e-03
7.919586e-03
8.203343e-03
8.485706e-03
8.765065e-03
9.039497e-03
9.307080e-03
9.566133e-03
9.815365e-03
1.005392e-02
1.028136e-02
1.049754e-02
1.070252e-02
1.089646e-02
1.107945e-02
1.125150e-02
1.141246e-02
1.156207e-02
1.169996e-02
1.182574e-02
1.193902e-02
1.203948e-02
1.212693e-02
1.220131e-02
1.226270e-02
1.231130e-02
1.234745e-02
1.237158e-02
1.238422e-02
1.238598e-02
1.237755e-02
1.235964e-02
1.233305e-02
1.229860e-02
1.225714e-02
1.220956e-02
1.215674e-02
1.209956e-02
1.203888e-02
1.197545e-02
1.190991e-02
1.184270e-02
1.177404e-02
1.170375e-02
1.170313e-02
-1.867856e-04
-1.838292e-04
-2.816134e-04
-3.638853e-04
-4.394218e-04
-5.187914e-04
-6.044755e-04
-6.892761e-04
-7.600476e-04
-8.045400e-04
-8.176397e-04
-8.038814e-04
-7.752688e-04
-7.458825e-04
-7.261679e-04
-7.195599e-04
-7.225468e-04
-7.273951e-04
-7.255941e-04
-7.101585e-04
-6.760590e-04
-6.193949e-04
-5.366720e-04
-4.253082e-04
-2.854036e-04
-1.216499e-04
5.612697e-05
2.348101e-04
4.019777e-04
5.505184e-04
6.818093e-04
8.058675e-04
9.381831e-04
1.094397e-03
1.284915e-03
1.511531e-03
1.767237e-03
2.039081e-03
2.312794e-03
2.577380e-03
2.828091e-03
3.066987e-03
3.301232e-03
3.540039e-03
3.791451e-03
4.060018e-03
4.345926e-03
4.645584e-03
4.953194e-03
5.262648e-03
5.569123e-03
5.869973e-03
6.164726e-03
6.454513e-03
6.741550e-03
7.027999e-03
7.315294e-03
7.603791e-03
7.892772e-03
8.180682e-03
8.465502e-03
8.745122e-03
9.017649e-03
9.281600e-03
9.535972e-03
9.780222e-03
1.001417e-02
1.023787e-02
1.045146e-02
1.065505e-02
1.084864e-02
1.103205e-02
1.120494e-02
1.136685e-02
1.151725e-02
1.165559e-02
1.178142e-02
1.189436e-02
1.199419e-02
1.208083e-02
1.215433e-02
1.221491e-02
1.226286e-02
1.229855e-02
1.232245e-02
1.233505e-02
1.233693e-02
1.232869e-02
1.231096e-02
1.228442e-02
1.224978e-02
1.220778e-02
1.215917e-02
1.210470e-02
1.204509e-02
1.198105e-02
1.191314e-02
1.184182e-02
1.176737e-02
1.168979e-02
1.160880e-02
1.160816e-02
-1.231617e-04
-1.132097e-04
-2.118046e-04
-3.037194e-04
-3.983755e-04
-4.988075e-04
-5.979065e-04
-6.822438e-04
-7.391885e-04
-7.634364e-04
-7.596577e-04
-7.402511e-04
-7.197606e-04
-7.089860e-04
-7.115457e-04
-7.239959e-04
-7.386482e-04
-7.470472e-04
-7.422207e-04
-7.190135e-04
-6.732283e-04
-6.010157e-04
-4.995811e-04
-3.691675e-04
-2.150552e-04
-4.790468e-05
1.184855e-04
2.715970e-04
4.050433e-04
5.216178e-04
6.329564e-04
7.557038e-04
9.056440e-04
1.092144e-03
1.315089e-03
1.565368e-03
1.828520e-03
2.089922e-03
2.339515e-03
2.574442e-03
2.798948e-03
3.021965e-03
3.253521e-03
3.501360e-03
3.768830e-03
4.054478e-03
4.353179e-03
4.658155e-03
4.963076e-03
5.263616e-03
5.558107e-03
5.847301e-03
6.133392e-03
6.418909e-03
6.706122e-03
6.996172e-03
7.288868e-03
7.582859e-03
7.876034e-03
8.165993e-03
8.450476e-03
8.727651e-03
8.996258e-03
9.255603e-03
9.505465e-03
9.745929e-03
9.977215e-03
1.019952e-02
1.041289e-02
1.061719e-02
1.081203e-02
1.099686e-02
1.117102e-02
1.133381e-02
1.148457e-02
1.162276e-02
1.174799e-02
1.186002e-02
1.195877e-02
1.204430e-02
1.211680e-02
1.217654e-02
1.222385e-02
1.225912e-02
1.228276e-02
1.229522e-02
1.229699e-02
1.228858e-02
1.227055e-02
1.224348e-02
1.220799e-02
1.216473e-02
1.211435e-02
1.205750e-02
1.199481e-02
1.192683e-02
1.185402e-02
1.177670e-02
1.169502e-02
1.160887e-02
1.151788e-02
1.151723e-02
-5.308786e-05
-4.176320e-05
-1.512503e-04
-2.628339e-04
-3.799783e-04
-4.957871e-04
-5.964371e-04
-6.685999e-04
-7.064013e-04
-7.143776e-04
-7.052713e-04
-6.942522e-04
-6.927448e-04
-7.047855e-04
-7.270947e-04
-7.519686e-04
-7.708562e-04
-7.766595e-04
-7.640602e-04
-7.286546e-04
-6.664067e-04
-5.745053e-04
-4.534611e-04
-3.091281e-04
-1.528958e-04
9.118872e-07
1.398202e-04
2.582371e-04
3.603537e-04
4.593331e-04
5.728541e-04
7.167441e-04
8.992919e-04
1.118505e-03
1.363268e-03
1.617724e-03
1.866990e-03
2.101968e-03
2.321638e-03
2.532309e-03
2.744515e-03
2.968962e-03
3.213028e-03
3.478880e-03
3.763543e-03
4.060537e-03
4.362277e-03
4.662341e-03
4.956945e-03
5.245351e-03
5.529314e-03
5.811952e-03
6.096336e-03
6.384479e-03
6.677196e-03
6.973774e-03
7.272300e-03
7.570196e-03
7.864777e-03
8.153699e-03
8.435238e-03
8.708371e-03
8.972706e-03
9.228312e-03
9.475500e-03
9.714617e-03
9.945868e-03
1.016922e-02
1.038434e-02
1.059067e-02
1.078742e-02
1.097375e-02
1.114882e-02
1.131186e-02
1.146230e-02
1.159973e-02
1.172390e-02
1.183477e-02
1.193238e-02
1.201691e-02
1.208859e-02
1.214771e-02
1.219459e-02
1.222954e-02
1.225292e-02
1.226509e-02
1.226646e-02
1.225748e-02
1.223862e-02
1.221043e-02
1.217345e-02
1.212827e-02
1.207549e-02
1.201569e-02
1.194940e-02
1.187711e-02
1.179915e-02
1.171577e-02
1.162702e-02
1.153272e-02
1.143248e-02
1.143182e-02
1.411253e-05
1.981996e-05
-1.101919e-04
-2.453516e-04
-3.797038e-04
-4.990581e-04
-5.891831e-04
-6.432576e-04
-6.652966e-04
-6.681516e-04
-6.676143e-04
-6.759287e-04
-6.978254e-04
-7.304115e-04
-7.660490e-04
-7.960275e-04
-8.129771e-04
-8.112824e-04
-7.862837e-04
-7.338132e-04
-6.511562e-04
-5.392369e-04
-4.045682e-04
-2.592508e-04
-1.180638e-04
6.651110e-06
1.101526e-04
1.980185e-04
2.848612e-04
3.892828e-04
5.270632e-04
7.053911e-04
9.204703e-04
1.159331e-03
1.404904e-03
1.642188e-03
1.863094e-03
2.068350e-03
2.266125e-03
2.468299e-03
2.686022e-03
2.926171e-03
3.189747e-03
3.472414e-03
3.766588e-03
4.064151e-03
4.358795e-03
4.647370e-03
4.930020e-03
5.209353e-03
5.489075e-03
5.772617e-03
6.061984e-03
6.357310e-03
6.657388e-03
6.959841e-03
7.261756e-03
7.560292e-03
7.853133e-03
8.138724e-03
8.416299e-03
8.685743e-03
8.947365e-03
9.201637e-03
9.448958e-03
9.689489e-03
9.923060e-03
1.014916e-02
1.036701e-02
1.057564e-02
1.077405e-02
1.096127e-02
1.113650e-02
1.129912e-02
1.144873e-02
1.158512e-02
1.170823e-02
1.181813e-02
1.191495e-02
1.199887e-02
1.207013e-02
1.212895e-02
1.217558e-02
1.221025e-02
1.223324e-02
1.224485e-02
1.224543e-02
1.223538e-02
1.221515e-02
1.218525e-02
1.214621e-02
1.209858e-02
1.204291e-02
1.197973e-02
1.190952e-02
1.183267e-02
1.174947e-02
1.166007e-02
1.156449e-02
1.146252e-02
1.135375e-02
1.135306e-02
6.451558e-05
5.996075e-05
-9.414150e-05
-2.480892e-04
-3.878607e-04
-4.982364e-04
-5.711606e-04
-6.097369e-04
-6.265892e-04
-6.379716e-04
-6.569986e-04
-6.893000e-04
-7.326155e-04
-7.795541e-04
-8.213028e-04
-8.501583e-04
-8.600791e-04
-8.460264e-04
-8.036337e-04
-7.302888e-04
-6.273758e-04
-5.021668e-04
-3.675401e-04
-2.387471e-04
-1.280006e-04
-3.919389e-05
3.461273e-05
1.094257e-04
2.046985e-04
3.361086e-04
5.097458e-04
7.200926e-04
9.524826e-04
1.188829e-03
1.414175e-03
1.621507e-03
1.813231e-03
1.999170e-03
2.192270e-03
2.403845e-03
2.640089e-03
2.900815e-03
3.180457e-03
3.470590e-03
3.762862e-03
4.051332e-03
4.333613e-03
4.610726e-03
4.885984e-03
5.163467e-03
5.446602e-03
5.737242e-03
6.035177e-03
6.338402e-03
6.644164e-03
6.949355e-03
7.251127e-03
7.547318e-03
7.836622e-03
8.118558e-03
8.393267e-03
8.661236e-03
8.923016e-03
9.178981e-03
9.429173e-03
9.673242e-03
9.910473e-03
1.013988e-02
1.036034e-02
1.057072e-02
1.077000e-02
1.095735e-02
1.113216e-02
1.129404e-02
1.144282e-02
1.157843e-02
1.170093e-02
1.181042e-02
1.190700e-02
1.199083e-02
1.206202e-02
1.212075e-02
1.216715e-02
1.220140e-02
1.222372e-02
1.223436e-02
1.223368e-02
1.222206e-02
1.219996e-02
1.216788e-02
1.212632e-02
1.207584e-02
1.201694e-02
1.195010e-02
1.187575e-02
1.179422e-02
1.170575e-02
1.161047e-02
1.150833e-02
1.139915e-02
1.128254e-02
1.128182e-02
8.644538e-05
7.176383e-05
-1.015652e-04
-2.626514e-04
-3.948269e-04
-4.886344e-04
-5.459538e-04
-5.788433e-04
-6.037781e-04
-6.346669e-04
-6.781223e-04
-7.326983e-04
-7.914458e-04
-8.455862e-04
-8.871246e-04
-9.095436e-04
-9.073110e-04
-8.757328e-04
-8.121953e-04
-7.184915e-04
-6.026459e-04
-4.784067e-04
-3.615906e-04
-2.643730e-04
-1.898914e-04
-1.299175e-04
-6.710299e-05
1.882837e-05
1.434524e-04
3.118029e-04
5.167346e-04
7.420261e-04
9.687367e-04
1.182094e-03
1.376225e-03
1.555164e-03
1.730224e-03
1.915164e-03
2.121207e-03
2.353675e-03
2.611133e-03
2.886881e-03
3.171865e-03
3.457765e-03
3.739250e-03
4.014845e-03
4.286460e-03
4.558018e-03
4.833788e-03
5.116992e-03
5.409005e-03
5.709225e-03
6.015293e-03
6.323812e-03
6.631597e-03
6.935933e-03
7.234929e-03
7.527615e-03
7.813827e-03
8.093945e-03
8.368582e-03
8.638288e-03
8.903327e-03
9.163553e-03
9.418388e-03
9.666896e-03
9.907902e-03
1.014015e-02
1.036243e-02
1.057371e-02
1.077317e-02
1.096025e-02
1.113459e-02
1.129602e-02
1.144449e-02
1.158001e-02
1.170262e-02
1.181237e-02
1.190927e-02
1.199336e-02
1.206467e-02
1.212328e-02
1.216927e-02
1.220279e-02
1.222403e-02
1.223328e-02
1.223089e-02
1.221728e-02
1.219291e-02
1.215829e-02
1.211392e-02
1.206032e-02
1.199797e-02
1.192729e-02
1.184867e-02
1.176242e-02
1.166872e-02
1.156768e-02
1.145928e-02
1.134333e-02
1.121950e-02
1.121873e-02
7.594587e-05
5.611665e-05
-1.250120e-04
-2.798438e-04
-3.958883e-04
-4.736133e-04
-5.242470e-04
-5.642516e-04
-6.081967e-04
-6.636633e-04
-7.301047e-04
-8.011538e-04
-8.682121e-04
-9.231022e-04
-9.588687e-04
-9.694411e-04
-9.496751e-04
-8.967953e-04
-8.128537e-04
-7.065396e-04
-5.924573e-04
-4.871302e-04
-4.028543e-04
-3.421823e-04
-2.957410e-04
-2.449173e-04
-1.686169e-04
-5.130964e-05
1.110784e-04
3.098926e-04
5.274828e-04
7.441719e-04
9.454626e-04
1.126652e-03
1.293360e-03
1.458262e-03
1.635748e-03
1.836750e-03
2.065568e-03
2.319461e-03
2.590654e-03
2.869613e-03
3.148254e-03
3.422039e-03
3.690527e-03
3.956547e-03
4.224562e-03
4.498900e-03
4.782428e-03
5.075919e-03
5.378130e-03
5.686386e-03
5.997190e-03
6.307002e-03
6.613343e-03
6.914692e-03
7.210484e-03
7.500901e-03
7.786550e-03
8.068123e-03
8.346104e-03
8.620576e-03
8.891143e-03
9.156964e-03
9.416865e-03
9.669500e-03
9.913511e-03
1.014767e-02
1.037095e-02
1.058260e-02
1.078211e-02
1.096916e-02
1.114361e-02
1.130537e-02
1.145442e-02
1.159069e-02
1.171415e-02
1.182469e-02
1.192224e-02
1.200670e-02
1.207803e-02
1.213629e-02
1.218153e-02
1.221392e-02
1.223369e-02
1.224117e-02
1.223675e-02
1.222087e-02
1.219400e-02
1.215664e-02
1.210928e-02
1.205240e-02
1.198644e-02
1.191181e-02
1.182884e-02
1.173782e-02
1.163894e-02
1.153229e-02
1.141788e-02
1.129556e-02
1.116506e-02
1.116423e-02
3.831127e-05
2.098790e-05
-1.548967e-04
-2.941167e-04
-3.934330e-04
-4.630960e-04
-5.193938e-04
-5.774443e-04
-6.457526e-04
-7.246874e-04
-8.085299e-04
-8.889650e-04
-9.577490e-04
-1.007584e-03
-1.031889e-03
-1.025003e-03
-9.838305e-04
-9.104801e-04
-8.141348e-04
-7.101845e-04
-6.158991e-04
-5.439278e-04
-4.964580e-04
-4.631753e-04
-4.243207e-04
-3.579864e-04
-2.485954e-04
-9.288885e-05
9.911994e-05
3.084739e-04
5.148368e-04
7.040153e-04
8.724613e-04
1.027317e-03
1.182521e-03
1.352969e-03
1.549184e-03
1.774358e-03
2.024418e-03
2.290557e-03
2.562865e-03
2.833618e-03
3.099187e-03
3.360231e-03
3.620504e-03
3.884956e-03
4.157895e-03
4.441738e-03
4.736584e-03
5.040518e-03
5.350372e-03
5.662634e-03
5.974012e-03
6.281934e-03
6.585314e-03
6.884028e-03
7.178619e-03
7.469904e-03
7.758618e-03
8.045125e-03
8.329276e-03
8.610385e-03
8.887323e-03
9.158681e-03
9.422959e-03
9.678732e-03
9.924777e-03
1.016014e-02
1.038414e-02
1.059633e-02
1.079646e-02
1.098436e-02
1.115993e-02
1.132305e-02
1.147358e-02
1.161133e-02
1.173611e-02
1.184769e-02
1.194589e-02
1.203055e-02
1.210163e-02
1.215919e-02
1.220333e-02
1.223428e-02
1.225232e-02
1.225783e-02
1.225121e-02
1.223293e-02
1.220345e-02
1.216325e-02
1.211278e-02
1.205250e-02
1.198282e-02
1.190411e-02
1.181671e-02
1.172089e-02
1.161686e-02
1.150473e-02
1.138454e-02
1.125620e-02
1.111950e-02
1.111860e-02
-1.475641e-05
-2.246575e-05
-1.839626e-04
-3.059956e-04
-3.957961e-04
-4.694092e-04
-5.424578e-04
-6.243611e-04
-7.164121e-04
-8.135631e-04
-9.078316e-04
-9.909930e-04
-1.055510e-03
-1.094370e-03
-1.101387e-03
-1.073028e-03
-1.011253e-03
-9.255254e-04
-8.318839e-04
-7.483574e-04
-6.880808e-04
-6.531927e-04
-6.326624e-04
-6.057392e-04
-5.497197e-04
-4.488723e-04
-3.005752e-04
-1.160227e-04
8.464493e-05
2.804800e-04
4.575712e-04
6.134571e-04
7.567133e-04
9.024504e-04
1.065994e-03
1.257407e-03
1.478755e-03
1.724656e-03
1.985323e-03
2.250542e-03
2.513021e-03
2.770081e-03
3.023487e-03
3.277884e-03
3.538660e-03
3.810038e-03
4.093946e-03
4.389793e-03
4.694998e-03
5.005939e-03
5.318942e-03
5.631055e-03
5.940247e-03
6.245454e-03
6.547007e-03
6.845795e-03
7.142820e-03
7.438819e-03
7.734001e-03
8.027950e-03
8.319673e-03
8.607750e-03
8.890552e-03
9.166453e-03
9.433994e-03
9.691994e-03
9.939581e-03
1.017617e-02
1.040139e-02
1.061501e-02
1.081688e-02
1.100681e-02
1.118461e-02
1.135001e-02
1.150269e-02
1.164232e-02
1.176855e-02
1.188109e-02
1.197971e-02
1.206428e-02
1.213479e-02
1.219137e-02
1.223421e-02
1.226357e-02
1.227981e-02
1.228331e-02
1.227448e-02
1.225378e-02
1.222165e-02
1.217852e-02
1.212484e-02
1.206102e-02
1.198746e-02
1.190455e-02
1.181261e-02
1.171194e-02
1.160277e-02
1.148527e-02
1.135950e-02
1.122544e-02
1.108294e-02
1.108198e-02
-7.067645e-05
-6.494265e-05
-2.103593e-04
-3.216631e-04
-4.137379e-04
-5.027258e-04
-5.990092e-04
-7.048555e-04
-8.159168e-04
-9.245661e-04
-1.022646e-03
-1.102462e-03
-1.156657e-03
-1.178556e-03
-1.164115e-03
-1.114973e-03
-1.040646e-03
-9.576599e-04
-8.847688e-04
-8.357261e-04
-8.128343e-04
-8.046829e-04
-7.896731e-04
-7.443348e-04
-6.526689e-04
-5.124961e-04
-3.359990e-04
-1.443775e-04
4.083372e-05
2.059435e-04
3.494666e-04
4.812966e-04
6.176277e-04
7.741704e-04
9.605259e-04
1.177673e-03
1.418986e-03
1.673770e-03
1.931571e-03
2.185556e-03
2.433992e-03
2.679706e-03
2.928167e-03
3.185124e-03
3.454669e-03
3.738222e-03
4.034522e-03
4.340377e-03
4.651773e-03
4.964936e-03
5.277098e-03
5.586828e-03
5.893740e-03
6.198122e-03
6.501176e-03
6.804045e-03
7.107426e-03
7.411339e-03
7.715085e-03
8.017364e-03
8.316487e-03
8.610636e-03
8.898093e-03
9.177402e-03
9.447449e-03
9.707461e-03
9.956946e-03
1.019560e-02
1.042322e-02
1.063961e-02
1.084452e-02
1.103762e-02
1.121853e-02
1.138678e-02
1.154189e-02
1.168340e-02
1.181093e-02
1.192417e-02
1.202294e-02
1.210718e-02
1.217696e-02
1.223249e-02
1.227403e-02
1.230188e-02
1.231640e-02
1.231797e-02
1.230698e-02
1.228384e-02
1.224898e-02
1.220281e-02
1.214574e-02
1.207820e-02
1.200060e-02
1.191332e-02
1.181674e-02
1.171117e-02
1.159688e-02
1.147409e-02
1.134291e-02
1.120338e-02
1.105540e-02
1.105438e-02
-1.214496e-04
-1.028484e-04
-2.381726e-04
-3.502952e-04
-4.564946e-04
-5.681873e-04
-6.887084e-04
-8.144758e-04
-9.382496e-04
-1.051969e-03
-1.147843e-03
-1.218243e-03
-1.256053e-03
-1.256677e-03
-1.221286e-03
-1.159250e-03
-1.087401e-03
-1.025172e-03
-9.870450e-04
-9.757205e-04
-9.796320e-04
-9.765933e-04
-9.423579e-04
-8.605401e-04
-7.291981e-04
-5.613039e-04
-3.790016e-04
-2.044114e-04
-5.109945e-05
8.028241e-05
2.008112e-04
3.276780e-04
4.769552e-04
6.578195e-04
8.702399e-04
1.106438e-03
1.354900e-03
1.604986e-03
1.850341e-03
2.090141e-03
2.328199e-03
2.570714e-03
2.823716e-03
3.091108e-03
3.373795e-03
3.669885e-03
3.975648e-03
4.286760e-03
4.599431e-03
4.911125e-03
5.220816e-03
5.528807e-03
5.836035e-03
6.143437e-03
6.452241e-03
6.763052e-03
7.075671e-03
7.389110e-03
7.701775e-03
8.011746e-03
8.317061e-03
8.615956e-03
8.907014e-03