# vtk DataFile Version 3.0
Scalar Field
ASCII
DATASET RECTILINEAR_GRID
DIMENSIONS 102 102 1
X_COORDINATES 102 double
0.000000 0.100000 0.200000 0.300000 0.400000 0.500000 0.600000 0.700000 0.800000 0.900000 1.000000 1.100000 1.200000 1.300000 1.400000 1.500000 1.600000 1.700000 1.800000 1.900000 2.000000 2.100000 2.200000 2.300000 2.400000 2.500000 2.600000 2.700000 2.800000 2.900000 3.000000 3.100000 3.200000 3.300000 3.400000 3.500000 3.600000 3.700000 3.800000 3.900000 4.000000 4.100000 4.200000 4.300000 4.400000 4.500000 4.600000 4.700000 4.800000 4.900000 5.000000 5.100000 5.200000 5.300000 5.400000 5.500000 5.600000 5.700000 5.800000 5.900000 6.000000 6.100000 6.200000 6.300000 6.400000 6.500000 6.600000 6.700000 6.800000 6.900000 7.000000 7.100000 7.200000 7.300000 7.400000 7.500000 7.600000 7.700000 7.800000 7.900000 8.000000 8.100000 8.200000 8.300000 8.400000 8.500000 8.600000 8.700000 8.800000 8.900000 9.000000 9.100000 9.200000 9.300000 9.400000 9.500000 9.600000 9.700000 9.800000 9.900000 10.000000 10.100000 
Y_COORDINATES 102 double
0.000000 0.100000 0.200000 0.300000 0.400000 0.500000 0.600000 0.700000 0.800000 0.900000 1.000000 1.100000 1.200000 1.300000 1.400000 1.500000 1.600000 1.700000 1.800000 1.900000 2.000000 2.100000 2.200000 2.300000 2.400000 2.500000 2.600000 2.700000 2.800000 2.900000 3.000000 3.100000 3.200000 3.300000 3.400000 3.500000 3.600000 3.700000 3.800000 3.900000 4.000000 4.100000 4.200000 4.300000 4.400000 4.500000 4.600000 4.700000 4.800000 4.900000 5.000000 5.100000 5.200000 5.300000 5.400000 5.500000 5.600000 5.700000 5.800000 5.900000 6.000000 6.100000 6.200000 6.300000 6.400000 6.500000 6.600000 6.700000 6.800000 6.900000 7.000000 7.100000 7.200000 7.300000 7.400000 7.500000 7.600000 7.700000 7.800000 7.900000 8.000000 8.100000 8.200000 8.300000 8.400000 8.500000 8.600000 8.700000 8.800000 8.900000 9.000000 9.100000 9.200000 9.300000 9.400000 9.500000 9.600000 9.700000 9.800000 9.900000 10.000000 10.100000 
Z_COORDINATES 1 double
0.0
POINT_DATA 10404
SCALARS Pressure double 1
LOOKUP_TABLE default
0.000000e+00
4.246155e-03
4.388711e-03
4.373743e-03
4.213692e-03
3.978485e-03
3.748144e-03
3.581973e-03
3.501581e-03
3.491116e-03
3.511416e-03
3.520177e-03
3.489384e-03
3.413893e-03
3.309617e-03
3.204099e-03
3.124607e-03
3.088779e-03
3.100718e-03
3.152719e-03
3.230617e-03
3.319938e-03
3.410510e-03
3.498425e-03
3.585522e-03
3.677353e-03
3.780742e-03
3.901752e-03
4.044409e-03
4.210189e-03
4.398100e-03
4.605197e-03
4.827392e-03
5.060433e-03
5.300852e-03
5.546687e-03
5.797755e-03
6.055438e-03
6.322017e-03
6.599800e-03
6.890324e-03
7.193842e-03
7.509238e-03
7.834338e-03
8.166451e-03
8.502971e-03
8.841844e-03
9.181799e-03
9.522326e-03
9.863444e-03
1.020537e-02
1.054819e-02
1.089160e-02
1.123484e-02
1.157670e-02
1.191561e-02
1.224982e-02
1.257763e-02
1.289749e-02
1.320812e-02
1.350856e-02
1.379805e-02
1.407602e-02
1.434197e-02
1.459535e-02
1.483558e-02
1.506198e-02
1.527382e-02
1.547034e-02
1.565085e-02
1.581473e-02
1.596151e-02
1.609085e-02
1.620255e-02
1.629656e-02
1.637295e-02
1.643187e-02
1.647359e-02
1.649843e-02
1.650684e-02
1.649932e-02
1.647651e-02
1.643915e-02
1.638810e-02
1.632434e-02
1.624901e-02
1.616337e-02
1.606886e-02
1.596705e-02
1.585971e-02
1.574878e-02
1.563643e-02
1.552507e-02
1.541737e-02
1.531632e-02
1.522522e-02
1.514764e-02
1.508733e-02
1.504769e-02
1.503061e-02
1.503352e-02
0.000000e+00
4.246155e-03
4.393252e-03
4.439651e-03
4.331053e-03
4.113961e-03
3.872548e-03
3.679466e-03
3.571637e-03
3.544369e-03
3.562234e-03
3.579424e-03
3.560071e-03
3.490824e-03
3.382356e-03
3.261444e-03
3.158526e-03
3.096408e-03
3.084087e-03
3.116814e-03
3.180890e-03
3.260309e-03
3.342433e-03
3.421054e-03
3.496593e-03
3.574271e-03
3.661449e-03
3.765192e-03
3.890594e-03
4.039994e-03
4.212933e-03
4.406649e-03
4.616935e-03
4.839187e-03
5.069462e-03
5.305312e-03
5.546195e-03
5.793339e-03
6.049121e-03
6.316156e-03
6.596393e-03
6.890485e-03
7.197599e-03
7.515664e-03
7.841924e-03
8.173597e-03
8.508418e-03
8.844952e-03
9.182622e-03
9.521489e-03
9.861902e-03
1.020413e-02
1.054803e-02
1.089297e-02
1.123776e-02
1.158084e-02
1.192042e-02
1.225469e-02
1.258204e-02
1.290110e-02
1.321084e-02
1.351049e-02
1.379946e-02
1.407723e-02
1.434328e-02
1.459698e-02
1.483764e-02
1.506446e-02
1.527661e-02
1.547331e-02
1.565385e-02
1.581763e-02
1.596424e-02
1.609337e-02
1.620488e-02
1.629874e-02
1.637503e-02
1.643389e-02
1.647558e-02
1.650041e-02
1.650880e-02
1.650126e-02
1.647841e-02
1.644099e-02
1.638986e-02
1.632603e-02
1.625062e-02
1.616491e-02
1.607033e-02
1.596847e-02
1.586107e-02
1.575010e-02
1.563772e-02
1.552634e-02
1.541863e-02
1.531757e-02
1.522646e-02
1.514888e-02
1.508857e-02
1.504894e-02
1.503187e-02
1.503478e-02
1.503352e-02
4.402147e-03
4.452641e-03
4.366758e-03
4.183542e-03
3.984244e-03
3.831325e-03
3.752957e-03
3.740120e-03
3.758250e-03
3.766437e-03
3.735359e-03
3.657261e-03
3.545631e-03
3.426753e-03
3.328049e-03
3.268357e-03
3.253412e-03
3.276996e-03
3.325982e-03
3.386441e-03
3.448366e-03
3.507808e-03
3.566484e-03
3.629807e-03
3.704479e-03
3.796457e-03
3.909700e-03
4.045669e-03
4.203425e-03
4.380146e-03
4.571928e-03
4.774743e-03
4.985366e-03
5.202061e-03
5.424840e-03
5.655204e-03
5.895468e-03
6.147884e-03
6.413865e-03
6.693521e-03
6.985634e-03
7.288019e-03
7.598096e-03
7.913485e-03
8.232435e-03
8.554000e-03
8.877951e-03
9.204507e-03
9.533986e-03
9.866483e-03
1.020165e-02
1.053861e-02
1.087601e-02
1.121225e-02
1.154563e-02
1.187453e-02
1.219753e-02
1.251350e-02
1.282157e-02
1.312105e-02
1.341137e-02
1.369194e-02
1.396214e-02
1.422125e-02
1.446845e-02
1.470289e-02
1.492369e-02
1.513007e-02
1.532133e-02
1.549689e-02
1.565631e-02
1.579929e-02
1.592562e-02
1.603522e-02
1.612805e-02
1.620418e-02
1.626375e-02
1.630698e-02
1.633417e-02
1.634574e-02
1.634219e-02
1.632415e-02
1.629237e-02
1.624772e-02
1.619118e-02
1.612388e-02
1.604706e-02
1.596210e-02
1.587054e-02
1.577406e-02
1.567451e-02
1.557392e-02
1.547452e-02
1.537875e-02
1.528925e-02
1.520887e-02
1.514054e-02
1.508721e-02
1.505143e-02
1.503491e-02
1.503803e-02
1.503678e-02
4.455768e-03
4.411134e-03
4.242522e-03
4.065707e-03
3.948724e-03
3.908301e-03
3.924264e-03
3.955408e-03
3.960519e-03
3.915459e-03
3.820334e-03
3.695748e-03
3.571760e-03
3.475329e-03
3.421500e-03
3.410914e-03
3.433148e-03
3.473183e-03
3.517805e-03
3.559599e-03
3.597839e-03
3.636928e-03
3.683736e-03
3.745066e-03
3.825974e-03
3.929019e-03
4.054260e-03
4.199682e-03
4.361883e-03
4.536907e-03
4.721156e-03
4.912194e-03
5.109263e-03
5.313301e-03
5.526468e-03
5.751305e-03
5.989817e-03
6.242795e-03
6.509563e-03
6.788214e-03
7.076166e-03
7.370851e-03
7.670273e-03
7.973305e-03
8.279677e-03
8.589711e-03
8.903934e-03
9.222693e-03
9.545886e-03
9.872840e-03
1.020235e-02
1.053281e-02
1.086244e-02
1.118959e-02
1.151284e-02
1.183105e-02
1.214336e-02
1.244913e-02
1.274782e-02
1.303888e-02
1.332168e-02
1.359545e-02
1.385931e-02
1.411233e-02
1.435354e-02
1.458204e-02
1.479702e-02
1.499781e-02
1.518386e-02
1.535476e-02
1.551020e-02
1.564994e-02
1.577382e-02
1.588174e-02
1.597365e-02
1.604959e-02
1.610967e-02
1.615410e-02
1.618319e-02
1.619734e-02
1.619710e-02
1.618310e-02
1.615609e-02
1.611693e-02
1.606661e-02
1.600620e-02
1.593693e-02
1.586011e-02
1.577720e-02
1.568981e-02
1.559966e-02
1.550865e-02
1.541881e-02
1.533234e-02
1.525158e-02
1.517895e-02
1.511695e-02
1.506803e-02
1.503441e-02
1.501805e-02
1.502089e-02
1.501963e-02
4.411192e-03
4.307592e-03
4.139911e-03
4.038444e-03
4.026842e-03
4.073972e-03
4.128245e-03
4.142459e-03
4.092497e-03
3.983494e-03
3.843284e-03
3.708103e-03
3.607752e-03
3.556220e-03
3.550302e-03
3.574956e-03
3.611718e-03
3.646202e-03
3.672109e-03
3.691274e-03
3.710950e-03
3.740166e-03
3.786717e-03
3.855494e-03
3.948104e-03
4.063311e-03
4.197873e-03
4.347492e-03
4.507798e-03
4.675294e-03
4.848108e-03
5.026357e-03
5.211956e-03
5.407890e-03
5.617150e-03
5.841718e-03
6.081919e-03
6.336351e-03
6.602362e-03
6.876853e-03
7.157113e-03
7.441399e-03
7.729133e-03
8.020705e-03
8.317028e-03
8.619003e-03
8.927081e-03
9.241012e-03
9.559819e-03
9.881960e-03
1.020559e-02
1.052877e-02
1.084980e-02
1.116742e-02
1.148075e-02
1.178922e-02
1.209241e-02
1.238994e-02
1.268130e-02
1.296579e-02
1.324253e-02
1.351051e-02
1.376864e-02
1.401586e-02
1.425123e-02
1.447393e-02
1.468331e-02
1.487886e-02
1.506019e-02
1.522698e-02
1.537897e-02
1.551593e-02
1.563768e-02
1.574409e-02
1.583507e-02
1.591066e-02
1.597095e-02
1.601618e-02
1.604667e-02
1.606286e-02
1.606529e-02
1.605459e-02
1.603154e-02
1.599696e-02
1.595182e-02
1.589716e-02
1.583415e-02
1.576404e-02
1.568823e-02
1.560821e-02
1.552560e-02
1.544213e-02
1.535967e-02
1.528018e-02
1.520569e-02
1.513834e-02
1.508024e-02
1.503347e-02
1.500005e-02
1.498193e-02
1.498125e-02
1.497999e-02
4.325447e-03
4.214650e-03
4.114064e-03
4.113532e-03
4.184414e-03
4.264701e-03
4.297739e-03
4.254311e-03
4.139991e-03
3.987353e-03
3.838939e-03
3.729540e-03
3.675022e-03
3.670771e-03
3.698251e-03
3.735224e-03
3.764791e-03
3.780118e-03
3.784287e-03
3.786776e-03
3.798867e-03
3.829929e-03
3.885449e-03
3.966734e-03
4.071673e-03
4.195927e-03
4.334211e-03
4.481504e-03
4.634111e-03
4.790441e-03
4.951268e-03
5.119366e-03
5.298530e-03
5.492306e-03
5.702820e-03
5.930128e-03
6.172267e-03
6.425941e-03
6.687548e-03
6.954169e-03
7.224200e-03
7.497479e-03
7.774954e-03
8.058059e-03
8.348060e-03
8.645537e-03
8.950151e-03
9.260688e-03
9.575317e-03
9.891960e-03
1.020865e-02
1.052366e-02
1.083576e-02
1.114432e-02
1.144899e-02
1.174956e-02
1.204576e-02
1.233712e-02
1.262289e-02
1.290209e-02
1.317358e-02
1.343617e-02
1.368873e-02
1.393027e-02
1.415997e-02
1.437721e-02
1.458149e-02
1.477244e-02
1.494972e-02
1.511303e-02
1.526209e-02
1.539664e-02
1.551646e-02
1.562139e-02
1.571134e-02
1.578635e-02
1.584656e-02
1.589222e-02
1.592368e-02
1.594139e-02
1.594591e-02
1.593787e-02
1.591800e-02
1.588715e-02
1.584621e-02
1.579620e-02
1.573823e-02
1.567349e-02
1.560331e-02
1.552907e-02
1.545228e-02
1.537453e-02
1.529750e-02
1.522293e-02
1.515263e-02
1.508842e-02
1.503212e-02
1.498552e-02
1.495034e-02
1.492829e-02
1.492118e-02
1.491991e-02
4.267877e-03
4.195420e-03
4.186731e-03
4.265712e-03
4.365399e-03
4.419668e-03
4.391126e-03
4.281300e-03
4.123528e-03
3.964537e-03
3.844249e-03
3.782283e-03
3.775145e-03
3.802902e-03
3.840509e-03
3.868280e-03
3.877696e-03
3.871661e-03
3.860723e-03
3.857851e-03
3.874035e-03
3.915841e-03
3.984926e-03
4.078871e-03
4.192629e-03
4.320070e-03
4.455463e-03
4.594731e-03
4.736312e-03
4.881389e-03
5.033377e-03
5.196752e-03
5.375568e-03
5.572155e-03
5.786444e-03
6.016098e-03
6.257358e-03
6.506248e-03
6.759688e-03
7.016173e-03
7.275850e-03
7.540080e-03
7.810690e-03
8.089211e-03
8.376320e-03
8.671609e-03
8.973690e-03
9.280533e-03
9.589913e-03
9.899808e-03
1.020868e-02
1.051540e-02
1.081935e-02
1.112040e-02
1.141847e-02
1.171336e-02
1.200458e-02
1.229135e-02
1.257259e-02
1.284708e-02
1.311355e-02
1.337084e-02
1.361794e-02
1.385407e-02
1.407859e-02
1.429102e-02
1.449098e-02
1.467810e-02
1.485203e-02
1.501242e-02
1.515895e-02
1.529131e-02
1.540926e-02
1.551265e-02
1.560143e-02
1.567566e-02
1.573553e-02
1.578132e-02
1.581338e-02
1.583218e-02
1.583827e-02
1.583226e-02
1.581487e-02
1.578691e-02
1.574924e-02
1.570283e-02
1.564875e-02
1.558814e-02
1.552222e-02
1.545231e-02
1.537978e-02
1.530610e-02
1.523278e-02
1.516136e-02
1.509342e-02
1.503054e-02
1.497426e-02
1.492609e-02
1.488744e-02
1.485968e-02
1.484410e-02
1.484283e-02
4.290433e-03
4.279563e-03
4.342366e-03
4.447233e-03
4.516047e-03
4.503310e-03
4.403948e-03
4.248336e-03
4.084092e-03
3.954527e-03
3.883124e-03
3.869045e-03
3.893029e-03
3.928950e-03
3.955138e-03
3.961172e-03
3.948832e-03
3.928543e-03
3.913975e-03
3.917229e-03
3.945955e-03
4.002542e-03
4.084815e-03
4.187496e-03
4.303964e-03
4.427918e-03
4.554866e-03
4.683119e-03
4.814051e-03
4.951488e-03
5.100384e-03
5.265163e-03
5.448315e-03
5.649691e-03
5.866714e-03
6.095346e-03
6.331417e-03
6.571819e-03
6.815189e-03
7.061943e-03
7.313742e-03
7.572656e-03
7.840345e-03
8.117484e-03
8.403566e-03
8.697063e-03
8.995829e-03
9.297593e-03
9.600379e-03
9.902772e-03
1.020398e-02
1.050350e-02
1.080115e-02
1.109693e-02
1.139062e-02
1.168170e-02
1.196931e-02
1.225228e-02
1.252934e-02
1.279920e-02
1.306071e-02
1.331289e-02
1.355495e-02
1.378630e-02
1.400645e-02
1.421497e-02
1.441146e-02
1.459548e-02
1.476664e-02
1.492450e-02
1.506872e-02
1.519897e-02
1.531506e-02
1.541686e-02
1.550438e-02
1.557771e-02
1.563706e-02
1.568273e-02
1.571509e-02
1.573459e-02
1.574176e-02
1.573720e-02
1.572160e-02
1.569573e-02
1.566044e-02
1.561666e-02
1.556540e-02
1.550774e-02
1.544484e-02
1.537792e-02
1.530826e-02
1.523719e-02
1.516605e-02
1.509623e-02
1.502910e-02
1.496601e-02
1.490826e-02
1.485708e-02
1.481361e-02
1.477884e-02
1.475360e-02
1.475235e-02
4.409090e-03
4.455608e-03
4.538693e-03
4.608695e-03
4.604408e-03
4.514327e-03
4.363919e-03
4.198796e-03
4.063052e-03
3.982614e-03
3.959316e-03
3.975709e-03
4.006182e-03
4.028444e-03
4.030848e-03
4.013916e-03
3.987221e-03
3.964169e-03
3.957144e-03
3.974420e-03
4.019082e-03
4.089478e-03
4.180554e-03
4.285583e-03
4.398013e-03
4.513065e-03
4.628903e-03
4.746955e-03
4.871270e-03
5.007066e-03
5.158960e-03
5.329477e-03
5.518355e-03
5.722827e-03
5.938705e-03
6.161792e-03
6.389107e-03
6.619541e-03
6.853806e-03
7.093806e-03
7.341743e-03
7.599264e-03
7.866922e-03
8.144041e-03
8.428945e-03
8.719421e-03
9.013240e-03
9.308571e-03
9.604209e-03
9.899578e-03
1.019457e-02
1.048900e-02
1.078269e-02
1.107534e-02
1.136635e-02
1.165471e-02
1.193921e-02
1.221853e-02
1.249141e-02
1.275672e-02
1.301356e-02
1.326119e-02
1.349902e-02
1.372656e-02
1.394332e-02
1.414883e-02
1.434258e-02
1.452407e-02
1.469282e-02
1.484839e-02
1.499042e-02
1.511865e-02
1.523292e-02
1.533316e-02
1.541940e-02
1.549177e-02
1.555049e-02
1.559586e-02
1.562824e-02
1.564806e-02
1.565583e-02
1.565214e-02
1.563766e-02
1.561314e-02
1.557939e-02
1.553732e-02
1.548788e-02
1.543211e-02
1.537110e-02
1.530598e-02
1.523793e-02
1.516815e-02
1.509787e-02
1.502831e-02
1.496066e-02
1.489607e-02
1.483563e-02
1.478033e-02
1.473103e-02
1.468842e-02
1.465296e-02
1.465172e-02
4.601931e-03
4.680184e-03
4.725737e-03
4.717173e-03
4.628223e-03
4.479753e-03
4.314045e-03
4.173857e-03
4.085558e-03
4.052452e-03
4.058764e-03
4.080141e-03
4.094849e-03
4.091083e-03
4.068703e-03
4.036404e-03
4.006807e-03
3.991823e-03
3.999659e-03
4.033677e-03
4.092666e-03
4.171985e-03
4.265161e-03
4.365686e-03
4.468774e-03
4.572553e-03
4.678490e-03
4.790740e-03
4.914625e-03
5.054775e-03
5.213604e-03
5.390639e-03
5.582909e-03
5.786124e-03
5.996170e-03
6.210331e-03
6.427868e-03
6.649860e-03
6.878463e-03
7.115947e-03
7.363852e-03
7.622500e-03
7.890959e-03
8.167364e-03
8.449452e-03
8.735092e-03
9.022678e-03
9.311287e-03
9.600614e-03
9.890739e-03
1.018183e-02
1.047357e-02
1.076532e-02
1.105629e-02
1.134538e-02
1.163127e-02
1.191264e-02
1.218825e-02
1.245707e-02
1.271828e-02
1.297120e-02
1.321526e-02
1.344995e-02
1.367472e-02
1.388901e-02
1.409222e-02
1.428377e-02
1.446308e-02
1.462966e-02
1.478311e-02
1.492312e-02
1.504947e-02
1.516205e-02
1.526083e-02
1.534586e-02
1.541726e-02
1.547526e-02
1.552015e-02
1.555227e-02
1.557203e-02
1.557994e-02
1.557657e-02
1.556258e-02
1.553870e-02
1.550572e-02
1.546450e-02
1.541598e-02
1.536113e-02
1.530098e-02
1.523657e-02
1.516901e-02
1.509939e-02
1.502881e-02
1.495835e-02
1.488906e-02
1.482191e-02
1.475781e-02
1.469753e-02
1.464172e-02
1.459082e-02
1.454501e-02
1.454379e-02
4.822044e-03
4.898072e-03
4.864813e-03
4.765052e-03
4.609940e-03
4.438911e-03
4.292628e-03
4.196406e-03
4.153454e-03
4.148584e-03
4.158389e-03
4.162107e-03
4.148629e-03
4.118029e-03
4.078687e-03
4.042520e-03
4.020621e-03
4.020548e-03
4.045359e-03
4.093902e-03
4.161830e-03
4.243038e-03
4.331335e-03
4.422137e-03
4.513772e-03
4.607841e-03
4.708595e-03
4.821371e-03
4.950689e-03
5.098711e-03
5.264648e-03
5.445254e-03
5.636128e-03
5.833278e-03
6.034328e-03
6.239003e-03
6.448822e-03
6.666233e-03
6.893571e-03
7.132219e-03
7.382202e-03
7.642263e-03
7.910306e-03
8.184003e-03
8.461345e-03
8.740993e-03
9.022361e-03
9.305453e-03
9.590563e-03
9.877934e-03
1.016749e-02
1.045838e-02
1.074934e-02
1.103910e-02
1.132628e-02
1.160953e-02
1.188770e-02
1.215984e-02
1.242522e-02
1.268325e-02
1.293339e-02
1.317507e-02
1.340769e-02
1.363059e-02
1.384309e-02
1.404449e-02
1.423417e-02
1.441157e-02
1.457623e-02
1.472780e-02
1.486603e-02
1.499074e-02
1.510185e-02
1.519933e-02
1.528324e-02
1.535368e-02
1.541086e-02
1.545507e-02
1.548664e-02
1.550597e-02
1.551357e-02
1.551000e-02
1.549592e-02
1.547202e-02
1.543909e-02
1.539797e-02
1.534953e-02
1.529471e-02
1.523448e-02
1.516982e-02
1.510176e-02
1.503129e-02
1.495940e-02
1.488707e-02
1.481520e-02
1.474463e-02
1.467610e-02
1.461023e-02
1.454748e-02
1.448810e-02
1.443208e-02
1.443088e-02
5.018025e-03
5.063720e-03
4.940200e-03
4.767685e-03
4.582995e-03
4.425368e-03
4.318732e-03
4.265131e-03
4.248659e-03
4.245808e-03
4.236333e-03
4.210024e-03
4.167815e-03
4.118533e-03
4.073948e-03
4.044505e-03
4.036899e-03
4.053434e-03
4.092533e-03
4.149792e-03
4.219329e-03
4.295324e-03
4.373591e-03
4.452792e-03
4.534859e-03
4.624220e-03
4.726236e-03
4.845256e-03
4.983113e-03
5.138607e-03
5.308138e-03
5.487142e-03
5.671731e-03
5.859884e-03
6.051825e-03
6.249564e-03
6.455882e-03
6.673202e-03
6.902753e-03
7.144239e-03
7.396049e-03
7.655826e-03
7.921162e-03
8.190170e-03
8.461792e-03
8.735795e-03
9.012511e-03
9.292453e-03
9.575940e-03
9.862840e-03
1.015248e-02
1.044334e-02
1.073368e-02
1.102202e-02
1.130704e-02
1.158764e-02
1.186299e-02
1.213245e-02
1.239551e-02
1.265162e-02
1.290020e-02
1.314057e-02
1.337198e-02
1.359365e-02
1.380480e-02
1.400474e-02
1.419286e-02
1.436865e-02
1.453172e-02
1.468177e-02
1.481857e-02
1.494196e-02
1.505185e-02
1.514821e-02
1.523106e-02
1.530051e-02
1.535675e-02
1.540007e-02
1.543081e-02
1.544936e-02
1.545624e-02
1.545200e-02
1.543727e-02
1.541277e-02
1.537924e-02
1.533749e-02
1.528839e-02
1.523280e-02
1.517166e-02
1.510589e-02
1.503644e-02
1.496424e-02
1.489018e-02
1.481514e-02
1.473991e-02
1.466522e-02
1.459168e-02
1.451977e-02
1.444984e-02
1.438198e-02
1.431609e-02
1.431492e-02
5.153033e-03
5.155760e-03
4.960244e-03
4.752706e-03
4.576310e-03
4.454428e-03
4.387861e-03
4.359141e-03
4.343482e-03
4.320133e-03
4.279259e-03
4.222746e-03
4.160413e-03
4.104577e-03
4.065584e-03
4.049488e-03
4.057719e-03
4.087927e-03
4.135244e-03
4.193693e-03
4.257664e-03
4.323373e-03
4.389950e-03
4.459729e-03
4.537489e-03
4.628692e-03
4.737552e-03
4.865550e-03
5.011032e-03
5.169981e-03
5.337612e-03
5.510086e-03
5.685700e-03
5.865166e-03
6.050988e-03
6.246299e-03
6.453637e-03
6.674097e-03
6.907084e-03
7.150639e-03
7.402148e-03
7.659118e-03
7.919781e-03
8.183354e-03
8.449949e-03
8.720211e-03
8.994860e-03
9.274283e-03
9.558280e-03
9.846038e-03
1.013626e-02
1.042699e-02
1.071633e-02
1.100297e-02
1.128591e-02
1.156441e-02
1.183793e-02
1.210598e-02
1.236805e-02
1.262349e-02
1.287156e-02
1.311142e-02
1.334219e-02
1.356305e-02
1.377322e-02
1.397205e-02
1.415900e-02
1.433362e-02
1.449556e-02
1.464453e-02
1.478030e-02
1.490270e-02
1.501161e-02
1.510697e-02
1.518881e-02
1.525722e-02
1.531239e-02
1.535463e-02
1.538427e-02
1.540173e-02
1.540751e-02
1.540216e-02
1.538631e-02
1.536066e-02
1.532593e-02
1.528292e-02
1.523246e-02
1.517538e-02
1.511258e-02
1.504493e-02
1.497332e-02
1.489861e-02
1.482163e-02
1.474316e-02
1.466392e-02
1.458454e-02
1.450553e-02
1.442730e-02
1.435008e-02
1.427389e-02
1.419856e-02
1.419741e-02
5.215350e-03
5.180135e-03
4.949277e-03
4.746669e-03
4.603458e-03
4.520105e-03
4.477598e-03
4.449121e-03
4.412308e-03
4.356720e-03
4.284690e-03
4.207094e-03
4.137288e-03
4.086157e-03
4.059638e-03
4.058531e-03
4.079648e-03
4.117392e-03
4.165347e-03
4.217824e-03
4.271267e-03
4.325241e-03
4.382574e-03
4.448430e-03
4.528534e-03
4.627052e-03
4.745172e-03
4.880793e-03
5.029463e-03
5.186126e-03
5.346933e-03
5.510441e-03
5.677791e-03
5.851948e-03
6.036384e-03
6.233759e-03
6.445062e-03
6.669429e-03
6.904595e-03
7.147716e-03
7.396238e-03
7.648514e-03
7.904026e-03
8.163205e-03
8.426979e-03
8.696245e-03
8.971427e-03
9.252253e-03
9.537775e-03
9.826563e-03
1.011701e-02
1.040712e-02
1.069521e-02
1.098037e-02
1.126197e-02
1.153954e-02
1.181261e-02
1.208065e-02
1.234296e-02
1.259871e-02
1.284699e-02
1.308685e-02
1.331740e-02
1.353784e-02
1.374746e-02
1.394568e-02
1.413201e-02
1.430602e-02
1.446736e-02
1.461572e-02
1.475084e-02
1.487253e-02
1.498064e-02
1.507511e-02
1.515595e-02
1.522326e-02
1.527726e-02
1.531824e-02
1.534657e-02
1.536266e-02
1.536700e-02
1.536015e-02
1.534274e-02
1.531544e-02
1.527899e-02
1.523413e-02
1.518169e-02
1.512247e-02
1.505734e-02
1.498711e-02
1.491265e-02
1.483474e-02
1.475417e-02
1.467166e-02
1.458786e-02
1.450333e-02
1.441852e-02
1.433377e-02
1.424925e-02
1.416494e-02
1.408064e-02
1.407953e-02
5.217832e-03
5.162566e-03
4.935105e-03
4.764716e-03
4.659874e-03
4.600896e-03
4.558932e-03
4.509276e-03
4.439857e-03
4.352576e-03
4.258927e-03
4.173385e-03
4.107827e-03
4.068645e-03
4.056485e-03
4.067561e-03
4.095520e-03
4.133295e-03
4.174825e-03
4.216516e-03
4.258192e-03
4.303119e-03
4.356914e-03
4.425585e-03
4.513417e-03
4.621404e-03
4.747067e-03
4.885542e-03
5.031484e-03
5.180989e-03
5.332804e-03
5.488433e-03
5.651239e-03
5.824991e-03
6.012456e-03
6.214527e-03
6.430108e-03
6.656671e-03
6.891194e-03
7.131096e-03
7.374876e-03
7.622276e-03
7.874021e-03
8.131282e-03
8.395083e-03
8.665852e-03
8.943227e-03
9.226130e-03
9.513030e-03
9.802276e-03
1.009239e-02
1.038171e-02
1.066895e-02
1.095358e-02
1.123517e-02
1.151328e-02
1.178731e-02
1.205649e-02
1.231993e-02
1.257663e-02
1.282560e-02
1.306589e-02
1.329667e-02
1.351721e-02
1.372688e-02
1.392512e-02
1.411147e-02
1.428547e-02
1.444674e-02
1.459492e-02
1.472974e-02
1.485095e-02
1.495842e-02
1.505208e-02
1.513195e-02
1.519814e-02
1.525088e-02
1.529048e-02
1.531731e-02
1.533178e-02
1.533439e-02
1.532570e-02
1.530633e-02
1.527695e-02
1.523826e-02
1.519103e-02
1.513605e-02
1.507410e-02
1.500601e-02
1.493259e-02
1.485464e-02
1.477293e-02
1.468819e-02
1.460110e-02
1.451226e-02
1.442220e-02
1.433132e-02
1.423993e-02
1.414816e-02
1.405599e-02
1.396319e-02
1.396213e-02
5.188358e-03
5.135102e-03
4.937646e-03
4.806653e-03
4.727575e-03
4.670278e-03
4.607647e-03
4.525290e-03
4.423766e-03
4.314452e-03
4.212601e-03
4.131174e-03
4.077416e-03
4.052313e-03
4.051892e-03
4.069259e-03
4.096693e-03
4.127580e-03
4.158033e-03
4.187889e-03
4.220685e-03
4.262436e-03
4.319497e-03
4.396291e-03
4.493786e-03
4.609230e-03
4.737410e-03
4.872709e-03
5.011142e-03
5.151593e-03
5.295859e-03
5.447632e-03
5.610922e-03
5.788571e-03
5.981369e-03
6.188008e-03
6.405737e-03
6.631406e-03
6.862458e-03
7.097565e-03
7.336738e-03
7.580980e-03
7.831663e-03
8.089895e-03
8.356064e-03
8.629695e-03
8.909583e-03
9.194117e-03
9.481649e-03
9.770782e-03
1.006051e-02
1.034963e-02
1.063716e-02
1.092272e-02
1.120583e-02
1.148585e-02
1.176191e-02
1.203304e-02
1.229818e-02
1.255627e-02
1.280637e-02
1.304761e-02
1.327924e-02
1.350057e-02
1.371102e-02
1.391002e-02
1.409705e-02
1.427162e-02
1.443329e-02
1.458168e-02
1.471647e-02
1.483743e-02
1.494442e-02
1.503738e-02
1.511634e-02
1.518142e-02
1.523285e-02
1.527097e-02
1.529615e-02
1.530880e-02
1.530943e-02
1.529859e-02
1.527690e-02
1.524502e-02
1.520366e-02
1.515357e-02
1.509552e-02
1.503030e-02
1.495869e-02
1.488150e-02
1.479949e-02
1.471341e-02
1.462397e-02
1.453183e-02
1.443754e-02
1.434163e-02
1.424447e-02
1.414636e-02
1.404742e-02
1.394764e-02
1.384683e-02
1.384581e-02
5.156531e-03
5.122906e-03
4.962788e-03
4.859620e-03
4.783954e-03
4.706830e-03
4.611411e-03
4.496307e-03
4.372038e-03
4.254061e-03
4.156166e-03
4.086542e-03
4.046837e-03
4.033298e-03
4.038829e-03
4.055237e-03
4.075349e-03
4.094829e-03
4.113296e-03
4.134340e-03
4.164230e-03
4.209636e-03
4.275185e-03
4.361846e-03
4.466750e-03
4.584423e-03
4.709019e-03
4.836473e-03
4.965768e-03
5.098937e-03
5.239940e-03
5.392975e-03
5.560916e-03
5.744436e-03
5.942016e-03
6.150710e-03
6.367277e-03
6.589226e-03
6.815437e-03
7.046206e-03
7.282805e-03
7.526781e-03
7.779284e-03
8.040627e-03
8.310195e-03
8.586654e-03
8.868333e-03
9.153621e-03
9.441242e-03
9.730353e-03
1.002047e-02
1.031072e-02
1.060012e-02
1.088814e-02
1.117408e-02
1.145698e-02
1.173576e-02
1.200933e-02
1.227659e-02
1.253658e-02
1.278841e-02
1.303131e-02
1.326457e-02
1.348753e-02
1.369956e-02
1.390002e-02
1.408835e-02
1.426400e-02
1.442650e-02
1.457544e-02
1.471050e-02
1.483144e-02
1.493814e-02
1.503054e-02
1.510869e-02
1.517271e-02
1.522283e-02
1.525942e-02
1.528282e-02
1.529349e-02
1.529191e-02
1.527864e-02
1.525430e-02
1.521955e-02
1.517511e-02
1.512171e-02
1.506011e-02
1.499109e-02
1.491544e-02
1.483393e-02
1.474733e-02
1.465638e-02
1.456176e-02
1.446413e-02
1.436404e-02
1.426200e-02
1.415838e-02
1.405349e-02
1.394747e-02
1.384032e-02
1.373190e-02
1.373094e-02
5.142315e-03
5.136173e-03
5.002676e-03
4.904886e-03
4.810362e-03
4.700198e-03
4.570919e-03
4.431717e-03
4.297698e-03
4.183062e-03
4.096752e-03
4.041144e-03
4.012948e-03
4.005182e-03
4.009441e-03
4.018138e-03
4.026467e-03
4.033687e-03
4.043243e-03
4.061479e-03
4.095274e-03
4.149459e-03
4.225066e-03
4.319129e-03
4.426044e-03
4.539794e-03
4.656246e-03
4.774466e-03
4.896686e-03
5.027087e-03
5.170008e-03
5.328326e-03
5.502572e-03
5.691013e-03
5.890517e-03
6.097773e-03
6.310385e-03
6.527465e-03
6.749610e-03
6.978362e-03
7.215426e-03
7.461966e-03
7.718194e-03
7.983336e-03
8.255928e-03
8.534250e-03
8.816754e-03
9.102314e-03
9.390279e-03
9.680344e-03
9.972322e-03
1.026534e-02
1.055811e-02
1.084982e-02
1.113943e-02
1.142579e-02
1.170773e-02
1.198417e-02
1.225411e-02
1.251667e-02
1.277106e-02
1.301651e-02
1.325232e-02
1.347775e-02
1.369209e-02
1.389468e-02
1.408487e-02
1.426207e-02
1.442580e-02
1.457565e-02
1.471129e-02
1.483249e-02
1.493914e-02
1.503118e-02
1.510866e-02
1.517171e-02
1.522055e-02
1.525556e-02
1.527711e-02
1.528564e-02
1.528165e-02
1.526571e-02
1.523842e-02
1.520046e-02
1.515254e-02
1.509539e-02
1.502977e-02
1.495648e-02
1.487628e-02
1.478995e-02
1.469828e-02
1.460198e-02
1.450174e-02
1.439823e-02
1.429201e-02
1.418358e-02
1.407334e-02
1.396161e-02
1.384857e-02
1.373427e-02
1.361861e-02
1.361771e-02
5.150476e-03
5.169121e-03
5.040926e-03
4.925245e-03
4.797267e-03
4.651669e-03
4.496213e-03
4.345344e-03
4.213298e-03
4.109476e-03
4.036833e-03
3.992571e-03
3.969987e-03
3.960697e-03
3.956887e-03
3.953373e-03
3.949027e-03
3.947025e-03
3.953631e-03
3.975805e-03
4.018519e-03
4.082890e-03
4.165903e-03
4.261821e-03
4.364546e-03
4.469897e-03
4.577017e-03
4.688312e-03
4.808157e-03
4.941007e-03
5.089718e-03
5.254668e-03
5.433902e-03
5.624098e-03
5.821883e-03
6.024962e-03
6.232692e-03
6.445980e-03
6.666634e-03
6.896512e-03
7.136780e-03
7.387531e-03
7.647828e-03
7.916074e-03
8.190516e-03
8.469685e-03
8.752624e-03
9.038887e-03
9.328351e-03
9.620949e-03
9.916443e-03
1.021369e-02
1.051092e-02
1.080703e-02
1.110079e-02
1.139101e-02
1.167657e-02
1.195650e-02
1.222990e-02
1.249595e-02
1.275386e-02
1.300283e-02
1.324205e-02
1.347074e-02
1.368810e-02
1.389341e-02
1.408597e-02
1.426521e-02
1.443061e-02
1.458177e-02
1.471837e-02
1.484018e-02
1.494706e-02
1.503897e-02
1.511596e-02
1.517815e-02
1.522576e-02
1.525920e-02
1.527883e-02
1.528511e-02
1.527853e-02
1.525967e-02
1.522915e-02
1.518765e-02
1.513587e-02
1.507456e-02
1.500449e-02
1.492645e-02
1.484123e-02
1.474962e-02
1.465240e-02
1.455031e-02
1.444405e-02
1.433429e-02
1.422161e-02
1.410654e-02
1.398952e-02
1.387088e-02
1.375086e-02
1.362956e-02
1.350695e-02
1.350612e-02
5.171664e-03
5.204926e-03
5.059690e-03
4.910125e-03
4.744917e-03
4.570559e-03
4.400810e-03
4.249785e-03
4.127112e-03
4.036117e-03
3.974369e-03
3.935441e-03
3.911063e-03
3.893347e-03
3.876856e-03
3.860125e-03
3.846030e-03
3.840666e-03
3.850974e-03
3.881994e-03
3.934900e-03
4.006657e-03
4.091400e-03
4.182915e-03
4.277024e-03
4.372937e-03
4.473221e-03
4.582432e-03
4.705133e-03
4.844156e-03
4.999724e-03
5.169658e-03
5.350441e-03
5.538628e-03
5.732017e-03
5.930207e-03
6.134407e-03
6.346690e-03
6.569062e-03
6.802684e-03
7.047530e-03
7.302500e-03
7.565876e-03
7.835884e-03
8.111146e-03
8.390886e-03
8.674865e-03
8.963140e-03
9.255759e-03
9.552521e-03
9.852861e-03
1.015527e-02
1.045756e-02
1.075846e-02
1.105675e-02
1.135133e-02
1.164121e-02
1.192550e-02
1.220336e-02
1.247393e-02
1.273636e-02
1.298976e-02
1.323323e-02
1.346589e-02
1.368690e-02
1.389551e-02
1.409101e-02
1.427280e-02
1.444038e-02
1.459333e-02
1.473132e-02
1.485411e-02
1.496156e-02
1.505362e-02
1.513032e-02
1.519180e-02
1.523827e-02
1.527015e-02
1.528783e-02
1.529174e-02
1.528242e-02
1.526042e-02
1.522640e-02
1.518102e-02
1.512502e-02
1.505915e-02
1.498421e-02
1.490099e-02
1.481031e-02
1.471297e-02
1.460977e-02
1.450147e-02
1.438879e-02
1.427242e-02
1.415297e-02
1.403101e-02
1.390700e-02
1.378135e-02
1.365434e-02
1.352614e-02
1.339680e-02
1.339605e-02
5.188278e-03
5.223456e-03
5.045590e-03
4.857131e-03
4.660480e-03
4.468869e-03
4.296351e-03
4.152744e-03
4.041620e-03
3.960763e-03
3.903904e-03
3.862855e-03
3.829694e-03
3.798814e-03
3.768481e-03
3.741301e-03
3.723188e-03
3.721023e-03
3.739871e-03
3.780933e-03
3.841135e-03
3.914504e-03
3.994659e-03
4.077360e-03
4.161905e-03
4.251005e-03
4.349390e-03
4.461743e-03
4.590885e-03
4.736897e-03
4.897383e-03
5.068625e-03
5.247092e-03
5.430658e-03
5.619139e-03
5.814031e-03
6.017663e-03
6.232179e-03
6.458737e-03
6.697198e-03
6.946309e-03
7.204245e-03
7.469226e-03
7.739980e-03
8.015914e-03
8.296995e-03
8.583451e-03
8.875433e-03
9.172773e-03
9.474888e-03
9.780837e-03
1.008887e-02
1.039653e-02
1.070259e-02
1.100596e-02
1.130568e-02
1.160083e-02
1.189056e-02
1.217395e-02
1.245008e-02
1.271797e-02
1.297662e-02
1.322508e-02
1.346240e-02
1.368773e-02
1.390027e-02
1.409932e-02
1.428428e-02
1.445461e-02
1.460988e-02
1.474975e-02
1.487396e-02
1.498235e-02
1.507485e-02
1.515151e-02
1.521245e-02
1.525789e-02
1.528825e-02
1.530394e-02
1.530540e-02
1.529317e-02
1.526783e-02
1.523004e-02
1.518048e-02
1.511992e-02
1.504912e-02
1.496891e-02
1.488011e-02
1.478354e-02
1.468005e-02
1.457045e-02
1.445552e-02
1.433602e-02
1.421267e-02
1.408613e-02
1.395700e-02
1.382580e-02
1.369298e-02
1.355891e-02
1.342384e-02
1.328790e-02
1.328722e-02
5.181888e-03
5.208365e-03
4.992683e-03
4.770431e-03
4.553678e-03
4.356615e-03