# vtk DataFile Version 3.0
Scalar Field
ASCII
DATASET RECTILINEAR_GRID
DIMENSIONS 102 102 1
X_COORDINATES 102 double
0.000000 0.100000 0.200000 0.300000 0.400000 0.500000 0.600000 0.700000 0.800000 0.900000 1.000000 1.100000 1.200000 1.300000 1.400000 1.500000 1.600000 1.700000 1.800000 1.900000 2.000000 2.100000 2.200000 2.300000 2.400000 2.500000 2.600000 2.700000 2.800000 2.900000 3.000000 3.100000 3.200000 3.300000 3.400000 3.500000 3.600000 3.700000 3.800000 3.900000 4.000000 4.100000 4.200000 4.300000 4.400000 4.500000 4.600000 4.700000 4.800000 4.900000 5.000000 5.100000 5.200000 5.300000 5.400000 5.500000 5.600000 5.700000 5.800000 5.900000 6.000000 6.100000 6.200000 6.300000 6.400000 6.500000 6.600000 6.700000 6.800000 6.900000 7.000000 7.100000 7.200000 7.300000 7.400000 7.500000 7.600000 7.700000 7.800000 7.900000 8.000000 8.100000 8.200000 8.300000 8.400000 8.500000 8.600000 8.700000 8.800000 8.900000 9.000000 9.100000 9.200000 9.300000 9.400000 9.500000 9.600000 9.700000 9.800000 9.900000 10.000000 10.100000 
Y_COORDINATES 102 double
0.000000 0.100000 0.200000 0.300000 0.400000 0.500000 0.600000 0.700000 0.800000 0.900000 1.000000 1.100000 1.200000 1.300000 1.400000 1.500000 1.600000 1.700000 1.800000 1.900000 2.000000 2.100000 2.200000 2.300000 2.400000 2.500000 2.600000 2.700000 2.800000 2.900000 3.000000 3.100000 3.200000 3.300000 3.400000 3.500000 3.600000 3.700000 3.800000 3.900000 4.000000 4.100000 4.200000 4.300000 4.400000 4.500000 4.600000 4.700000 4.800000 4.900000 5.000000 5.100000 5.200000 5.300000 5.400000 5.500000 5.600000 5.700000 5.800000 5.900000 6.000000 6.100000 6.200000 6.300000 6.400000 6.500000 6.600000 6.700000 6.800000 6.900000 7.000000 7.100000 7.200000 7.300000 7.400000 7.500000 7.600000 7.700000 7.800000 7.900000 8.000000 8.100000 8.200000 8.300000 8.400000 8.500000 8.600000 8.700000 8.800000 8.900000 9.000000 9.100000 9.200000 9.300000 9.400000 9.500000 9.600000 9.700000 9.800000 9.900000 10.000000 10.100000 
Z_COORDINATES 1 double
0.0
POINT_DATA 10404
SCALARS Pressure double 1
LOOKUP_TABLE default
0.000000e+00
1.095101e-02
1.101678e-02
1.102295e-02
1.095488e-02
1.081359e-02
1.061673e-02
1.039821e-02
1.019805e-02
1.004632e-02
9.950403e-03
9.893042e-03
9.842885e-03
9.771952e-03
9.670576e-03
9.552002e-03
9.444717e-03
9.377243e-03
9.363804e-03
9.398225e-03
9.458561e-03
9.519221e-03
9.563876e-03
9.592733e-03
9.621219e-03
9.671649e-03
9.762597e-03
9.901131e-03
1.008103e-02
1.028690e-02
1.050157e-02
1.071301e-02
1.091813e-02
1.112228e-02
1.133568e-02
1.156855e-02
1.182725e-02
1.211257e-02
1.242028e-02
1.274335e-02
1.307456e-02
1.340856e-02
1.374280e-02
1.407737e-02
1.441405e-02
1.475507e-02
1.510205e-02
1.545537e-02
1.581399e-02
1.617567e-02
1.653749e-02
1.689633e-02
1.724935e-02
1.759415e-02
1.792898e-02
1.825258e-02
1.856411e-02
1.886291e-02
1.914835e-02
1.941968e-02
1.967599e-02
1.991620e-02
2.013914e-02
2.034366e-02
2.052869e-02
2.069332e-02
2.083688e-02
2.095893e-02
2.105924e-02
2.113781e-02
2.119476e-02
2.123037e-02
2.124500e-02
2.123911e-02
2.121329e-02
2.116819e-02
2.110461e-02
2.102349e-02
2.092591e-02
2.081311e-02
2.068646e-02
2.054747e-02
2.039779e-02
2.023917e-02
2.007347e-02
1.990268e-02
1.972887e-02
1.955423e-02
1.938106e-02
1.921174e-02
1.904880e-02
1.889484e-02
1.875259e-02
1.862481e-02
1.851431e-02
1.842383e-02
1.835582e-02
1.831207e-02
1.829281e-02
1.829510e-02
1.830954e-02
0.000000e+00
1.095101e-02
1.101448e-02
1.106159e-02
1.103898e-02
1.093741e-02
1.076879e-02
1.056191e-02
1.035528e-02
1.018339e-02
1.006286e-02
9.986331e-03
9.928261e-03
9.859592e-03
9.763628e-03
9.644651e-03
9.525075e-03
9.433257e-03
9.388914e-03
9.393875e-03
9.432540e-03
9.481047e-03
9.519825e-03
9.542986e-03
9.560288e-03
9.591493e-03
9.656605e-03
9.767008e-03
9.921408e-03
1.010774e-02
1.030936e-02
1.051223e-02
1.070990e-02
1.090469e-02
1.110519e-02
1.132182e-02
1.156255e-02
1.183030e-02
1.212265e-02
1.243351e-02
1.275559e-02
1.308275e-02
1.341143e-02
1.374084e-02
1.407230e-02
1.440807e-02
1.475016e-02
1.509953e-02
1.545569e-02
1.581686e-02
1.618025e-02
1.654274e-02
1.690130e-02
1.725332e-02
1.759682e-02
1.793038e-02
1.825303e-02
1.856406e-02
1.886282e-02
1.914859e-02
1.942045e-02
1.967733e-02
1.991800e-02
2.014123e-02
2.034582e-02
2.053073e-02
2.069513e-02
2.083842e-02
2.096022e-02
2.106035e-02
2.113882e-02
2.119576e-02
2.123140e-02
2.124609e-02
2.124026e-02
2.121446e-02
2.116935e-02
2.110573e-02
2.102455e-02
2.092689e-02
2.081401e-02
2.068729e-02
2.054825e-02
2.039853e-02
2.023988e-02
2.007416e-02
1.990336e-02
1.972953e-02
1.955487e-02
1.938167e-02
1.921233e-02
1.904937e-02
1.889539e-02
1.875311e-02
1.862531e-02
1.851480e-02
1.842431e-02
1.835629e-02
1.831253e-02
1.829327e-02
1.829555e-02
1.831000e-02
1.830954e-02
1.102408e-02
1.106996e-02
1.107786e-02
1.101311e-02
1.088505e-02
1.071851e-02
1.054821e-02
1.040524e-02
1.030377e-02
1.023593e-02
1.017798e-02
1.010461e-02
1.000335e-02
9.881445e-03
9.761701e-03
9.670286e-03
9.623362e-03
9.619739e-03
9.642948e-03
9.670925e-03
9.687724e-03
9.691194e-03
9.693218e-03
9.713169e-03
9.768486e-03
9.867105e-03
1.000501e-02
1.016932e-02
1.034466e-02
1.051972e-02
1.069095e-02
1.086263e-02
1.104371e-02
1.124353e-02
1.146810e-02
1.171840e-02
1.199086e-02
1.227923e-02
1.257704e-02
1.287949e-02
1.318435e-02
1.349181e-02
1.380359e-02
1.412182e-02
1.444801e-02
1.478255e-02
1.512447e-02
1.547175e-02
1.582172e-02
1.617142e-02
1.651821e-02
1.685989e-02
1.719484e-02
1.752189e-02
1.784019e-02
1.814903e-02
1.844766e-02
1.873519e-02
1.901055e-02
1.927255e-02
1.951988e-02
1.975126e-02
1.996552e-02
2.016163e-02
2.033878e-02
2.049633e-02
2.063387e-02
2.075114e-02
2.084800e-02
2.092445e-02
2.098056e-02
2.101651e-02
2.103259e-02
2.102918e-02
2.100680e-02
2.096611e-02
2.090791e-02
2.083316e-02
2.074293e-02
2.063846e-02
2.052109e-02
2.039227e-02
2.025356e-02
2.010664e-02
1.995326e-02
1.979530e-02
1.963472e-02
1.947357e-02
1.931402e-02
1.915829e-02
1.900872e-02
1.886767e-02
1.873759e-02
1.862090e-02
1.852000e-02
1.843711e-02
1.837409e-02
1.833217e-02
1.831142e-02
1.831017e-02
1.832470e-02
1.832423e-02
1.110972e-02
1.112869e-02
1.108735e-02
1.098353e-02
1.084448e-02
1.070379e-02
1.059036e-02
1.051481e-02
1.046526e-02
1.041534e-02
1.034017e-02
1.023103e-02
1.010057e-02
9.976003e-03
9.884598e-03
9.839814e-03
9.835523e-03
9.850870e-03
9.862418e-03
9.856659e-03
9.836465e-03
9.818772e-03
9.825563e-03
9.873286e-03
9.965958e-03
1.009474e-02
1.024329e-02
1.039565e-02
1.054275e-02
1.068501e-02
1.083046e-02
1.099025e-02
1.117360e-02
1.138454e-02
1.162131e-02
1.187790e-02
1.214691e-02
1.242211e-02
1.270009e-02
1.298045e-02
1.326504e-02
1.355655e-02
1.385733e-02
1.416844e-02
1.448945e-02
1.481860e-02
1.515329e-02
1.549064e-02
1.582795e-02
1.616284e-02
1.649364e-02
1.681923e-02
1.713883e-02
1.745185e-02
1.775761e-02
1.805526e-02
1.834373e-02
1.862172e-02
1.888784e-02
1.914067e-02
1.937887e-02
1.960128e-02
1.980690e-02
1.999496e-02
2.016488e-02
2.031620e-02
2.044861e-02
2.056186e-02
2.065581e-02
2.073037e-02
2.078556e-02
2.082151e-02
2.083846e-02
2.083680e-02
2.081705e-02
2.077990e-02
2.072617e-02
2.065680e-02
2.057287e-02
2.047556e-02
2.036616e-02
2.024606e-02
2.011675e-02
1.997980e-02
1.983690e-02
1.968981e-02
1.954040e-02
1.939061e-02
1.924246e-02
1.909803e-02
1.895946e-02
1.882893e-02
1.870861e-02
1.860066e-02
1.850715e-02
1.842998e-02
1.837075e-02
1.833060e-02
1.831004e-02
1.830898e-02
1.832728e-02
1.832679e-02
1.119280e-02
1.117896e-02
1.109053e-02
1.096514e-02
1.084147e-02
1.074870e-02
1.069583e-02
1.066712e-02
1.063161e-02
1.056152e-02
1.044874e-02
1.030990e-02
1.017751e-02
1.008248e-02
1.003830e-02
1.003530e-02
1.004771e-02
1.004868e-02
1.002478e-02
9.982439e-03
9.943786e-03
9.934892e-03
9.973195e-03
1.006026e-02
1.018274e-02
1.032003e-02
1.045408e-02
1.057674e-02
1.069162e-02
1.081072e-02
1.094813e-02
1.111398e-02
1.131115e-02
1.153537e-02
1.177808e-02
1.203015e-02
1.228505e-02
1.254031e-02
1.279722e-02
1.305934e-02
1.333063e-02
1.361388e-02
1.390995e-02
1.421771e-02
1.453458e-02
1.485728e-02
1.518258e-02
1.550782e-02
1.583111e-02
1.615112e-02
1.646719e-02
1.677899e-02
1.708621e-02
1.738825e-02
1.768420e-02
1.797281e-02
1.825256e-02
1.852187e-02
1.877917e-02
1.902306e-02
1.925239e-02
1.946620e-02
1.966377e-02
1.984455e-02
2.000808e-02
2.015398e-02
2.028193e-02
2.039163e-02
2.048289e-02
2.055554e-02
2.060958e-02
2.064510e-02
2.066238e-02
2.066184e-02
2.064403e-02
2.060966e-02
2.055954e-02
2.049461e-02
2.041591e-02
2.032457e-02
2.022182e-02
2.010899e-02
1.998749e-02
1.985884e-02
1.972463e-02
1.958655e-02
1.944638e-02
1.930594e-02
1.916712e-02
1.903187e-02
1.890215e-02
1.877996e-02
1.866726e-02
1.856598e-02
1.847797e-02
1.840493e-02
1.834834e-02
1.830943e-02
1.828916e-02
1.828843e-02
1.830865e-02
1.830814e-02
1.125965e-02
1.121603e-02
1.109704e-02
1.097762e-02
1.089381e-02
1.085527e-02
1.084426e-02
1.082539e-02
1.076607e-02
1.065559e-02
1.051173e-02
1.037107e-02
1.026910e-02
1.022173e-02
1.021831e-02
1.022945e-02
1.022438e-02
1.018784e-02
1.012766e-02
1.006969e-02
1.004412e-02
1.007061e-02
1.015008e-02
1.026610e-02
1.039426e-02
1.051387e-02
1.061643e-02
1.070751e-02
1.080224e-02
1.091759e-02
1.106518e-02
1.124754e-02
1.145873e-02
1.168802e-02
1.192458e-02
1.216122e-02
1.239593e-02
1.263122e-02
1.287213e-02
1.312380e-02
1.338967e-02
1.367058e-02
1.396493e-02
1.426946e-02
1.458027e-02
1.489378e-02
1.520728e-02
1.551913e-02
1.582865e-02
1.613542e-02
1.643945e-02
1.674067e-02
1.703861e-02
1.733232e-02
1.762038e-02
1.790113e-02
1.817277e-02
1.843365e-02
1.868231e-02
1.891758e-02
1.913854e-02
1.934453e-02
1.953500e-02
1.970949e-02
1.986757e-02
2.000882e-02
2.013285e-02
2.023930e-02
2.032790e-02
2.039851e-02
2.045110e-02
2.048581e-02
2.050298e-02
2.050304e-02
2.048659e-02
2.045432e-02
2.040704e-02
2.034566e-02
2.027116e-02
2.018463e-02
2.008725e-02
1.998029e-02
1.986511e-02
1.974317e-02
1.961599e-02
1.948520e-02
1.935247e-02
1.921953e-02
1.908815e-02
1.896013e-02
1.883730e-02
1.872149e-02
1.861448e-02
1.851803e-02
1.843383e-02
1.836343e-02
1.830826e-02
1.826963e-02
1.824874e-02
1.824695e-02
1.826606e-02
1.826553e-02
1.130676e-02
1.124753e-02
1.112579e-02
1.103909e-02
1.100430e-02
1.100367e-02
1.099884e-02
1.095227e-02
1.084885e-02
1.070469e-02
1.055807e-02
1.044821e-02
1.039444e-02
1.038723e-02
1.039570e-02
1.038620e-02
1.034115e-02
1.026803e-02
1.019457e-02
1.015379e-02
1.016757e-02
1.023725e-02
1.034490e-02
1.046360e-02
1.057054e-02
1.065645e-02
1.072778e-02
1.080162e-02
1.089700e-02
1.102681e-02
1.119371e-02
1.139082e-02
1.160600e-02
1.182723e-02
1.204674e-02
1.226272e-02
1.247845e-02
1.269999e-02
1.293336e-02
1.318250e-02
1.344834e-02
1.372902e-02
1.402083e-02
1.431945e-02
1.462105e-02
1.492287e-02
1.522349e-02
1.552255e-02
1.582036e-02
1.611694e-02
1.641229e-02
1.670602e-02
1.699714e-02
1.728414e-02
1.756520e-02
1.783844e-02
1.810211e-02
1.835472e-02
1.859513e-02
1.882245e-02
1.903603e-02
1.923532e-02
1.941982e-02
1.958906e-02
1.974252e-02
1.987970e-02
2.000014e-02
2.010345e-02
2.018936e-02
2.025776e-02
2.030867e-02
2.034230e-02
2.035901e-02
2.035928e-02
2.034369e-02
2.031292e-02
2.026775e-02
2.020904e-02
2.013774e-02
2.005490e-02
1.996166e-02
1.985925e-02
1.974899e-02
1.963229e-02
1.951062e-02
1.938551e-02
1.925857e-02
1.913142e-02
1.900572e-02
1.888316e-02
1.876543e-02
1.865421e-02
1.855115e-02
1.845786e-02
1.837590e-02
1.830671e-02
1.825167e-02
1.821208e-02
1.818925e-02
1.818459e-02
1.819980e-02
1.819925e-02
1.134713e-02
1.129378e-02
1.119687e-02
1.115489e-02
1.115531e-02
1.115828e-02
1.112227e-02
1.102737e-02
1.088635e-02
1.073700e-02
1.062056e-02
1.055925e-02
1.054557e-02
1.054883e-02
1.053404e-02
1.048199e-02
1.039939e-02
1.031446e-02
1.026154e-02
1.026378e-02
1.032291e-02
1.042039e-02
1.052811e-02
1.062218e-02
1.069305e-02
1.074770e-02
1.080427e-02
1.088282e-02
1.099679e-02
1.114873e-02
1.133116e-02
1.153125e-02
1.173648e-02
1.193897e-02
1.213722e-02
1.233507e-02
1.253915e-02
1.275593e-02
1.298953e-02
1.324087e-02
1.350786e-02
1.378657e-02
1.407249e-02
1.436173e-02
1.465164e-02
1.494102e-02
1.522980e-02
1.551857e-02
1.580799e-02
1.609780e-02
1.638744e-02
1.667585e-02
1.696143e-02
1.724228e-02
1.751647e-02
1.778224e-02
1.803813e-02
1.828302e-02
1.851605e-02
1.873658e-02
1.894404e-02
1.913788e-02
1.931753e-02
1.948237e-02
1.963182e-02
1.976530e-02
1.988233e-02
1.998255e-02
2.006576e-02
2.013187e-02
2.018100e-02
2.021338e-02
2.022940e-02
2.022954e-02
2.021435e-02
2.018450e-02
2.014071e-02
2.008383e-02
2.001477e-02
1.993456e-02
1.984431e-02
1.974524e-02
1.963862e-02
1.952581e-02
1.940822e-02
1.928733e-02
1.916464e-02
1.904170e-02
1.892007e-02
1.880133e-02
1.868704e-02
1.857878e-02
1.847808e-02
1.838642e-02
1.830522e-02
1.823587e-02
1.817964e-02
1.813781e-02
1.811161e-02
1.810236e-02
1.811150e-02
1.811092e-02
1.140648e-02
1.137901e-02
1.132020e-02
1.131157e-02
1.131407e-02
1.128310e-02
1.119435e-02
1.105680e-02
1.090650e-02
1.078521e-02
1.071693e-02
1.069586e-02
1.069202e-02
1.067021e-02
1.061061e-02
1.051964e-02
1.042571e-02
1.036358e-02
1.035659e-02
1.040615e-02
1.049306e-02
1.058861e-02
1.066884e-02
1.072469e-02
1.076408e-02
1.080598e-02
1.087075e-02
1.097153e-02
1.111014e-02
1.127836e-02
1.146293e-02
1.165139e-02
1.183638e-02
1.201708e-02
1.219799e-02
1.238611e-02
1.258795e-02
1.280748e-02
1.304527e-02
1.329896e-02
1.356444e-02
1.383722e-02
1.411357e-02
1.439114e-02
1.466904e-02
1.494751e-02
1.522737e-02
1.550937e-02
1.579381e-02
1.607962e-02
1.636536e-02
1.664933e-02
1.692960e-02
1.720423e-02
1.747153e-02
1.773012e-02
1.797893e-02
1.821718e-02
1.844418e-02
1.865935e-02
1.886202e-02
1.905154e-02
1.922719e-02
1.938825e-02
1.953408e-02
1.966410e-02
1.977788e-02
1.987513e-02
1.995570e-02
2.001959e-02
2.006694e-02
2.009799e-02
2.011314e-02
2.011283e-02
2.009761e-02
2.006808e-02
2.002498e-02
1.996911e-02
1.990140e-02
1.982286e-02
1.973457e-02
1.963773e-02
1.953357e-02
1.942340e-02
1.930859e-02
1.919054e-02
1.907069e-02
1.895049e-02
1.883142e-02
1.871498e-02
1.860264e-02
1.849584e-02
1.839602e-02
1.830456e-02
1.822278e-02
1.815194e-02
1.809327e-02
1.804792e-02
1.801704e-02
1.800177e-02
1.800324e-02
1.800264e-02
1.151043e-02
1.151797e-02
1.148753e-02
1.148025e-02
1.144671e-02
1.135862e-02
1.122130e-02
1.106877e-02
1.094266e-02
1.086789e-02
1.083958e-02
1.082809e-02
1.079806e-02
1.072962e-02
1.062954e-02
1.052691e-02
1.045692e-02
1.044263e-02
1.048441e-02
1.056177e-02
1.064523e-02
1.071106e-02
1.075139e-02
1.077565e-02
1.080399e-02
1.085698e-02
1.094695e-02
1.107437e-02
1.122979e-02
1.139934e-02
1.157086e-02
1.173790e-02
1.190082e-02
1.206506e-02
1.223804e-02
1.242620e-02
1.263298e-02
1.285835e-02
1.309945e-02
1.335193e-02
1.361139e-02
1.387444e-02
1.413918e-02
1.440522e-02
1.467318e-02
1.494407e-02
1.521871e-02
1.549728e-02
1.577917e-02
1.606236e-02
1.634467e-02
1.662411e-02
1.689882e-02
1.716722e-02
1.742805e-02
1.768036e-02
1.792341e-02
1.815653e-02
1.837904e-02
1.859021e-02
1.878924e-02
1.897528e-02
1.914752e-02
1.930521e-02
1.944772e-02
1.957454e-02
1.968531e-02
1.977982e-02
1.985798e-02
1.991982e-02
1.996546e-02
1.999514e-02
2.000922e-02
2.000816e-02
1.999245e-02
1.996270e-02
1.991964e-02
1.986407e-02
1.979691e-02
1.971916e-02
1.963189e-02
1.953627e-02
1.943348e-02
1.932481e-02
1.921156e-02
1.909507e-02
1.897672e-02
1.885790e-02
1.874003e-02
1.862449e-02
1.851269e-02
1.840597e-02
1.830568e-02
1.821310e-02
1.812945e-02
1.805591e-02
1.799361e-02
1.794360e-02
1.790689e-02
1.788445e-02
1.787715e-02
1.787651e-02
1.166946e-02
1.170558e-02
1.167331e-02
1.162862e-02
1.153382e-02
1.139067e-02
1.123134e-02
1.109744e-02
1.101472e-02
1.097881e-02
1.095968e-02
1.092112e-02
1.084287e-02
1.073223e-02
1.061951e-02
1.054099e-02
1.051977e-02
1.055499e-02
1.062436e-02
1.069696e-02
1.074892e-02
1.077361e-02
1.078244e-02
1.079721e-02
1.083908e-02
1.091962e-02
1.103765e-02
1.118199e-02
1.133783e-02
1.149305e-02
1.164228e-02
1.178730e-02
1.193482e-02
1.209296e-02
1.226808e-02
1.246303e-02
1.267696e-02
1.290626e-02
1.314624e-02
1.339251e-02
1.364208e-02
1.389367e-02
1.414748e-02
1.440461e-02
1.466632e-02
1.493345e-02
1.520604e-02
1.548324e-02
1.576351e-02
1.604411e-02
1.632259e-02
1.659714e-02
1.686633e-02
1.712907e-02
1.738456e-02
1.763212e-02
1.787108e-02
1.810069e-02
1.832009e-02
1.852836e-02
1.872453e-02
1.890766e-02
1.907693e-02
1.923162e-02
1.937118e-02
1.949518e-02
1.960334e-02
1.969548e-02
1.977153e-02
1.983152e-02
1.987554e-02
1.990379e-02
1.991663e-02
1.991450e-02
1.989790e-02
1.986745e-02
1.982386e-02
1.976796e-02
1.970064e-02
1.962291e-02
1.953581e-02
1.944046e-02
1.933805e-02
1.922980e-02
1.911696e-02
1.900085e-02
1.888279e-02
1.876410e-02
1.864613e-02
1.853021e-02
1.841765e-02
1.830973e-02
1.820771e-02
1.811277e-02
1.802607e-02
1.794870e-02
1.788169e-02
1.782600e-02
1.778250e-02
1.775200e-02
1.773517e-02
1.773452e-02
1.187037e-02
1.191609e-02
1.184474e-02
1.173539e-02
1.157900e-02
1.140601e-02
1.125848e-02
1.116361e-02
1.111776e-02
1.109020e-02
1.104302e-02
1.095454e-02
1.083203e-02
1.070715e-02
1.061791e-02
1.058827e-02
1.061671e-02
1.067900e-02
1.074227e-02
1.078174e-02
1.079151e-02
1.078488e-02
1.078568e-02
1.081611e-02
1.088743e-02
1.099694e-02
1.113159e-02
1.127521e-02
1.141542e-02
1.154765e-02
1.167515e-02
1.180606e-02
1.194939e-02
1.211166e-02
1.229521e-02
1.249827e-02
1.271643e-02
1.294444e-02
1.317788e-02
1.341410e-02
1.365244e-02
1.389379e-02
1.413979e-02
1.439202e-02
1.465135e-02
1.491766e-02
1.518983e-02
1.546609e-02
1.574434e-02
1.602172e-02
1.629593e-02
1.656571e-02
1.683016e-02
1.708861e-02
1.734048e-02
1.758508e-02
1.782159e-02
1.804904e-02
1.826637e-02
1.847248e-02
1.866633e-02
1.884702e-02
1.901375e-02
1.916592e-02
1.930305e-02
1.942477e-02
1.953083e-02
1.962105e-02
1.969534e-02
1.975368e-02
1.979615e-02
1.982293e-02
1.983436e-02
1.983090e-02
1.981308e-02
1.978151e-02
1.973692e-02
1.968013e-02
1.961204e-02
1.953361e-02
1.944589e-02
1.934997e-02
1.924699e-02
1.913816e-02
1.902470e-02
1.890787e-02
1.878895e-02
1.866923e-02
1.854998e-02
1.843247e-02
1.831794e-02
1.820762e-02
1.810268e-02
1.800425e-02
1.791341e-02
1.783117e-02
1.775848e-02
1.769621e-02
1.764513e-02
1.760591e-02
1.757906e-02
1.757838e-02
1.207981e-02
1.211298e-02
1.197605e-02
1.179937e-02
1.160529e-02
1.143674e-02
1.132323e-02
1.126279e-02
1.122428e-02
1.116761e-02
1.106858e-02
1.093332e-02
1.079428e-02
1.069151e-02
1.065069e-02
1.067051e-02
1.072534e-02
1.078015e-02
1.080859e-02
1.080471e-02
1.078318e-02
1.076977e-02
1.078811e-02
1.084958e-02
1.095047e-02
1.107603e-02
1.120857e-02
1.133517e-02
1.145169e-02
1.156258e-02
1.167737e-02
1.180607e-02
1.195551e-02
1.212767e-02
1.232003e-02
1.252735e-02
1.274379e-02
1.296477e-02
1.318791e-02
1.341314e-02
1.364200e-02
1.387671e-02
1.411917e-02
1.437034e-02
1.462993e-02
1.489660e-02
1.516830e-02
1.544284e-02
1.571820e-02
1.599191e-02
1.626212e-02
1.652814e-02
1.678943e-02
1.704546e-02
1.729556e-02
1.753883e-02
1.777418e-02
1.800042e-02
1.821634e-02
1.842082e-02
1.861286e-02
1.879162e-02
1.895642e-02
1.910674e-02
1.924212e-02
1.936221e-02
1.946675e-02
1.955551e-02
1.962835e-02
1.968524e-02
1.972624e-02
1.975151e-02
1.976141e-02
1.975645e-02
1.973715e-02
1.970414e-02
1.965816e-02
1.960001e-02
1.953057e-02
1.945081e-02
1.936175e-02
1.926445e-02
1.916006e-02
1.904973e-02
1.893467e-02
1.881611e-02
1.869529e-02
1.857343e-02
1.845178e-02
1.833155e-02
1.821393e-02
1.810008e-02
1.799113e-02
1.788815e-02
1.779216e-02
1.770411e-02
1.762487e-02
1.755524e-02
1.749591e-02
1.744745e-02
1.741027e-02
1.740957e-02
1.225852e-02
1.226488e-02
1.205947e-02
1.183802e-02
1.164129e-02
1.150188e-02
1.142064e-02
1.136697e-02
1.129867e-02
1.118828e-02
1.103955e-02
1.088481e-02
1.076585e-02
1.071062e-02
1.071898e-02
1.076465e-02
1.081074e-02
1.082900e-02
1.081269e-02
1.077711e-02
1.074961e-02
1.075529e-02
1.080608e-02
1.089761e-02
1.101387e-02
1.113584e-02
1.124986e-02
1.135196e-02
1.144746e-02
1.154701e-02
1.166153e-02
1.179825e-02
1.195893e-02
1.214048e-02
1.233693e-02
1.254191e-02
1.275067e-02
1.296103e-02
1.317339e-02
1.338991e-02
1.361330e-02
1.384581e-02
1.408845e-02
1.434083e-02
1.460138e-02
1.486788e-02
1.513800e-02
1.540978e-02
1.568182e-02
1.595231e-02
1.621977e-02
1.648379e-02
1.674390e-02
1.699939e-02
1.724929e-02
1.749241e-02
1.772743e-02
1.795307e-02
1.816811e-02
1.837150e-02
1.856235e-02
1.873992e-02
1.890361e-02
1.905289e-02
1.918731e-02
1.930647e-02
1.941004e-02
1.949777e-02
1.956948e-02
1.962512e-02
1.966474e-02
1.968855e-02
1.969688e-02
1.969031e-02
1.966936e-02
1.963467e-02
1.958695e-02
1.952702e-02
1.945574e-02
1.937407e-02
1.928300e-02
1.918362e-02
1.907702e-02
1.896435e-02
1.884680e-02
1.872556e-02
1.860183e-02
1.847682e-02
1.835172e-02
1.822771e-02
1.810593e-02
1.798752e-02
1.787355e-02
1.776504e-02
1.766297e-02
1.756823e-02
1.748166e-02
1.740398e-02
1.733584e-02
1.727772e-02
1.723000e-02
1.722929e-02
1.237918e-02
1.235921e-02
1.210697e-02
1.187643e-02
1.170457e-02
1.159613e-02
1.152220e-02
1.143908e-02
1.131576e-02
1.115272e-02
1.098107e-02
1.084379e-02
1.077120e-02
1.076500e-02
1.079910e-02
1.083522e-02
1.084322e-02
1.081510e-02
1.076620e-02
1.072491e-02
1.071760e-02
1.075693e-02
1.083827e-02
1.094459e-02
1.105589e-02
1.115783e-02
1.124646e-02
1.132769e-02
1.141301e-02
1.151406e-02
1.163837e-02
1.178758e-02
1.195812e-02
1.214347e-02
1.233687e-02
1.253343e-02
1.273117e-02
1.293090e-02
1.313527e-02
1.334744e-02
1.356990e-02
1.380372e-02
1.404840e-02
1.430219e-02
1.456272e-02
1.482764e-02
1.509505e-02
1.536374e-02
1.563308e-02
1.590181e-02
1.616845e-02
1.643252e-02
1.669329e-02
1.694969e-02
1.720043e-02
1.744411e-02
1.767937e-02
1.790493e-02
1.811970e-02
1.832275e-02
1.851329e-02
1.869063e-02
1.885415e-02
1.900330e-02
1.913754e-02
1.925643e-02
1.935957e-02
1.944668e-02
1.951757e-02
1.957220e-02
1.961064e-02
1.963309e-02
1.963991e-02
1.963170e-02
1.960900e-02
1.957243e-02
1.952271e-02
1.946064e-02
1.938708e-02
1.930298e-02
1.920933e-02
1.910719e-02
1.899766e-02
1.888188e-02
1.876099e-02
1.863618e-02
1.850862e-02
1.837949e-02
1.824995e-02
1.812117e-02
1.799426e-02
1.787031e-02
1.775036e-02
1.763541e-02
1.752640e-02
1.742417e-02
1.732954e-02
1.724319e-02
1.716573e-02
1.709762e-02
1.703921e-02
1.703848e-02
1.243826e-02
1.240624e-02
1.214195e-02
1.193245e-02
1.179114e-02
1.169188e-02
1.159027e-02
1.145192e-02
1.127341e-02
1.108376e-02
1.092648e-02
1.083412e-02
1.081060e-02
1.083063e-02
1.085507e-02
1.085201e-02
1.081200e-02
1.075000e-02
1.069504e-02
1.067453e-02
1.070182e-02
1.077222e-02
1.086802e-02
1.096826e-02
1.105817e-02
1.113379e-02
1.120150e-02
1.127345e-02
1.136177e-02
1.147416e-02
1.161206e-02
1.177150e-02
1.194552e-02
1.212710e-02
1.231131e-02
1.249641e-02
1.268361e-02
1.287598e-02
1.307704e-02
1.328942e-02
1.351419e-02
1.375072e-02
1.399712e-02
1.425091e-02
1.450978e-02
1.477196e-02
1.503646e-02
1.530287e-02
1.557111e-02
1.584014e-02
1.610800e-02
1.637387e-02
1.663660e-02
1.689479e-02
1.714698e-02
1.739173e-02
1.762776e-02
1.785395e-02
1.806933e-02
1.827305e-02
1.846437e-02
1.864254e-02
1.880690e-02
1.895679e-02
1.909161e-02
1.921084e-02
1.931407e-02
1.940100e-02
1.947145e-02
1.952540e-02
1.956292e-02
1.958424e-02
1.958968e-02
1.957988e-02
1.955538e-02
1.951681e-02
1.946487e-02
1.940036e-02
1.932414e-02
1.923716e-02
1.914039e-02
1.903491e-02
1.892178e-02
1.880215e-02
1.867714e-02
1.854792e-02
1.841565e-02
1.828151e-02
1.814663e-02
1.801216e-02
1.787919e-02
1.774879e-02
1.762198e-02
1.749973e-02
1.738295e-02
1.727248e-02
1.716910e-02
1.707349e-02
1.698625e-02
1.690783e-02
1.683859e-02
1.683786e-02
1.245560e-02
1.243170e-02
1.218530e-02
1.200619e-02
1.187684e-02
1.175301e-02
1.159714e-02
1.140162e-02
1.119271e-02
1.101387e-02
1.089968e-02
1.085652e-02
1.086033e-02
1.087139e-02
1.085620e-02
1.080371e-02
1.072826e-02
1.065931e-02
1.062521e-02
1.063996e-02
1.069890e-02
1.078371e-02
1.087266e-02
1.095039e-02
1.101311e-02
1.106764e-02
1.112670e-02
1.120282e-02
1.130374e-02
1.143061e-02
1.157902e-02
1.174162e-02
1.191116e-02
1.208282e-02
1.225514e-02
1.242976e-02
1.261017e-02
1.280013e-02
1.300238e-02
1.321790e-02
1.344589e-02
1.368431e-02
1.393062e-02
1.418258e-02
1.443863e-02
1.469802e-02
1.496061e-02
1.522651e-02
1.549573e-02
1.576707e-02
1.603777e-02
1.630655e-02
1.657195e-02
1.683242e-02
1.708651e-02
1.733292e-02
1.757052e-02
1.779834e-02
1.801547e-02
1.822108e-02
1.841434e-02
1.859444e-02
1.876057e-02
1.891202e-02
1.904811e-02
1.916832e-02
1.927220e-02
1.935947e-02
1.942997e-02
1.948366e-02
1.952063e-02
1.954110e-02
1.954538e-02
1.953410e-02
1.950783e-02
1.946718e-02
1.941287e-02
1.934568e-02
1.926648e-02
1.917621e-02
1.907586e-02
1.896648e-02
1.884915e-02
1.872498e-02
1.859512e-02
1.846073e-02
1.832296e-02
1.818297e-02
1.804191e-02
1.790089e-02
1.776100e-02
1.762329e-02
1.748877e-02
1.735839e-02
1.723306e-02
1.711361e-02
1.700082e-02
1.689539e-02
1.679790e-02
1.670887e-02
1.662864e-02
1.662791e-02
1.246223e-02
1.246178e-02
1.224358e-02
1.207933e-02
1.192926e-02
1.175297e-02
1.153840e-02
1.130850e-02
1.110618e-02
1.096800e-02
1.090297e-02
1.088858e-02
1.088480e-02
1.085643e-02
1.079067e-02
1.070104e-02
1.061732e-02
1.056883e-02
1.057037e-02
1.061737e-02
1.069092e-02
1.076846e-02
1.083407e-02
1.088386e-02
1.092524e-02
1.097152e-02
1.103563e-02
1.112532e-02
1.124141e-02
1.137896e-02
1.153019e-02
1.168765e-02
1.184661e-02
1.200599e-02
1.216789e-02
1.233620e-02
1.251496e-02
1.270693e-02
1.291296e-02
1.313204e-02
1.336194e-02
1.360009e-02
1.384433e-02
1.409334e-02
1.434668e-02
1.460448e-02
1.486705e-02
1.513452e-02
1.540656e-02
1.568165e-02
1.595609e-02
1.622833e-02
1.649677e-02
1.675995e-02
1.701658e-02
1.726554e-02
1.750584e-02
1.773655e-02
1.795674e-02
1.816548e-02
1.836182e-02
1.854483e-02
1.871362e-02
1.886741e-02
1.900551e-02
1.912737e-02
1.923258e-02
1.932082e-02
1.939195e-02
1.944592e-02
1.948280e-02
1.950279e-02
1.950619e-02
1.949359e-02
1.946563e-02
1.942290e-02
1.936612e-02
1.929608e-02
1.921364e-02
1.911975e-02
1.901539e-02
1.890162e-02
1.877951e-02
1.865021e-02
1.851484e-02
1.837458e-02
1.823058e-02
1.808399e-02
1.793595e-02
1.778757e-02
1.763993e-02
1.749408e-02
1.735102e-02
1.721171e-02
1.707706e-02
1.694792e-02
1.682508e-02
1.670925e-02
1.660107e-02
1.650107e-02
1.640966e-02
1.640894e-02
1.248306e-02
1.250873e-02
1.230503e-02
1.212408e-02
1.192379e-02
1.168740e-02
1.143401e-02
1.120557e-02
1.104052e-02
1.095088e-02
1.091608e-02
1.089593e-02
1.085341e-02
1.077360e-02
1.066885e-02
1.056919e-02
1.050507e-02
1.049232e-02
1.052668e-02
1.058870e-02
1.065486e-02
1.070850e-02
1.074553e-02
1.077367e-02
1.080699e-02
1.085893e-02
1.093733e-02
1.104269e-02
1.116954e-02
1.130956e-02
1.145504e-02
1.160132e-02
1.174767e-02
1.189667e-02
1.205268e-02
1.221999e-02
1.240142e-02
1.259765e-02
1.280741e-02
1.302828e-02
1.325762e-02
1.349338e-02
1.373450e-02
1.398084e-02
1.423283e-02
1.449102e-02
1.475563e-02
1.502636e-02
1.530236e-02
1.558187e-02
1.586041e-02
1.613637e-02
1.640826e-02
1.667483e-02
1.693499e-02
1.718773e-02
1.743208e-02
1.766706e-02
1.789161e-02
1.810464e-02
1.830510e-02
1.849195e-02
1.866426e-02
1.882122e-02
1.896215e-02
1.908648e-02
1.919379e-02
1.928377e-02
1.935623e-02
1.941110e-02
1.944842e-02
1.946837e-02
1.947124e-02
1.945757e-02
1.942805e-02
1.938330e-02
1.932403e-02
1.925101e-02
1.916513e-02
1.906733e-02
1.895860e-02
1.884001e-02
1.871266e-02
1.857769e-02
1.843623e-02
1.828947e-02
1.813856e-02
1.798465e-02
1.782889e-02
1.767237e-02
1.751619e-02
1.736140e-02
1.720900e-02
1.705997e-02
1.691525e-02
1.677571e-02
1.664216e-02
1.651536e-02
1.639600e-02
1.628465e-02
1.618181e-02
1.618110e-02
1.252355e-02
1.256432e-02
1.234535e-02
1.211678e-02
1.185509e-02
1.157495e-02
1.131686e-02
1.112112e-02
1.100313e-02
1.094486e-02
1.090629e-02
1.084841e-02
1.075370e-02
1.063283e-02
1.051585e-02
1.043442e-02
1.040579e-02
1.042636e-02
1.047629e-02
1.053104e-02
1.057292e-02
1.059737e-02
1.061232e-02
1.063240e-02
1.067177e-02
1.073853e-02
1.083297e-02
1.094910e-02
1.107806e-02
1.121175e-02
1.134549e-02
1.147883e-02
1.161484e-02
1.175832e-02
1.191388e-02
1.208440e-02
1.227041e-02
1.247039e-02
1.268171e-02
1.290162e-02
1.312819e-02
1.336059e-02
1.359901e-02
1.384418e-02
1.409687e-02
1.435742e-02
1.462558e-02
1.490045e-02
1.518076e-02
1.546484e-02
1.574764e-02
1.602771e-02
1.630379e-02
1.657482e-02
1.683981e-02
1.709775e-02
1.734757e-02
1.758813e-02
1.781820e-02
1.803658e-02
1.824212e-02
1.843375e-02
1.861052e-02
1.877161e-02
1.891632e-02
1.904407e-02
1.915441e-02
1.924698e-02
1.932156e-02
1.937802e-02
1.941640e-02
1.943683e-02
1.943958e-02
1.942515e-02
1.939431e-02
1.934766e-02
1.928592e-02
1.920988e-02
1.912043e-02
1.901851e-02
1.890514e-02
1.878140e-02
1.864841e-02
1.850731e-02
1.835925e-02
1.820542e-02
1.804698e-02
1.788508e-02
1.772087e-02
1.755547e-02
1.738997e-02
1.722544e-02
1.706293e-02
1.690342e-02
1.674788e-02
1.659722e-02
1.645230e-02
1.631393e-02
1.618285e-02
1.605971e-02
1.594509e-02
1.594438e-02
1.256694e-02
1.260390e-02
1.233955e-02
1.204888e-02
1.173841e-02
1.144664e-02
1.121558e-02
1.106451e-02
1.097866e-02
1.091869e-02
1.084365e-02
1.073289e-02
1.059480e-02
1.045895e-02
1.035824e-02
1.031168e-02
1.031676e-02
1.035358e-02
1.039654e-02
1.042671e-02
1.043876e-02
1.044055e-02
1.044720e-02
1.047347e-02
1.052801e-02
1.061109e-02
1.071629e-02
1.083419e-02
1.095627e-02
1.107768e-02
1.119815e-02
1.132114e-02
1.145191e-02
1.159539e-02
1.175457e-02
1.192988e-02
1.211957e-02
1.232077e-02
1.253065e-02
1.274733e-02
1.297022e-02
1.319981e-02
1.343713e-02
1.368318e-02
1.393844e-02
1.420266e-02
1.447499e-02
1.475414e-02
1.503867e-02
1.532720e-02
1.561467e-02
1.589962e-02
1.618102e-02
1.645787e-02
1.672915e-02
1.699370e-02
1.725028e-02
1.749756e-02
1.773421e-02
1.795894e-02
1.817057e-02
1.836801e-02
1.855031e-02
1.871663e-02
1.886623e-02
1.899848e-02
1.911287e-02
1.920899e-02
1.928655e-02
1.934540e-02
1.938552e-02
1.940703e-02
1.941017e-02
1.939538e-02
1.936351e-02
1.931518e-02
1.925110e-02
1.917208e-02
1.907901e-02
1.897287e-02
1.885468e-02
1.872555e-02
1.858660e-02
1.843899e-02
1.828388e-02
1.812245e-02
1.795589e-02
1.778536e-02
1.761202e-02
1.743701e-02
1.726144e-02
1.708643e-02
1.691303e-02
1.674227e-02
1.657517e-02
1.641266e-02
1.625568e-02
1.610508e-02
1.596168e-02
1.582623e-02
1.569939e-02
1.569869e-02
1.258274e-02
1.259862e-02
1.227364e-02
1.192985e-02
1.160068e-02
1.132964e-02