# vtk DataFile Version 3.0
Vector Field
ASCII
DATASET RECTILINEAR_GRID
DIMENSIONS 102 102 1
X_COORDINATES 102 double
0.000000 0.100000 0.200000 0.300000 0.400000 0.500000 0.600000 0.700000 0.800000 0.900000 1.000000 1.100000 1.200000 1.300000 1.400000 1.500000 1.600000 1.700000 1.800000 1.900000 2.000000 2.100000 2.200000 2.300000 2.400000 2.500000 2.600000 2.700000 2.800000 2.900000 3.000000 3.100000 3.200000 3.300000 3.400000 3.500000 3.600000 3.700000 3.800000 3.900000 4.000000 4.100000 4.200000 4.300000 4.400000 4.500000 4.600000 4.700000 4.800000 4.900000 5.000000 5.100000 5.200000 5.300000 5.400000 5.500000 5.600000 5.700000 5.800000 5.900000 6.000000 6.100000 6.200000 6.300000 6.400000 6.500000 6.600000 6.700000 6.800000 6.900000 7.000000 7.100000 7.200000 7.300000 7.400000 7.500000 7.600000 7.700000 7.800000 7.900000 8.000000 8.100000 8.200000 8.300000 8.400000 8.500000 8.600000 8.700000 8.800000 8.900000 9.000000 9.100000 9.200000 9.300000 9.400000 9.500000 9.600000 9.700000 9.800000 9.900000 10.000000 10.100000 
Y_COORDINATES 102 double
0.000000 0.100000 0.200000 0.300000 0.400000 0.500000 0.600000 0.700000 0.800000 0.900000 1.000000 1.100000 1.200000 1.300000 1.400000 1.500000 1.600000 1.700000 1.800000 1.900000 2.000000 2.100000 2.200000 2.300000 2.400000 2.500000 2.600000 2.700000 2.800000 2.900000 3.000000 3.100000 3.200000 3.300000 3.400000 3.500000 3.600000 3.700000 3.800000 3.900000 4.000000 4.100000 4.200000 4.300000 4.400000 4.500000 4.600000 4.700000 4.800000 4.900000 5.000000 5.100000 5.200000 5.300000 5.400000 5.500000 5.600000 5.700000 5.800000 5.900000 6.000000 6.100000 6.200000 6.300000 6.400000 6.500000 6.600000 6.700000 6.800000 6.900000 7.000000 7.100000 7.200000 7.300000 7.400000 7.500000 7.600000 7.700000 7.800000 7.900000 8.000000 8.100000 8.200000 8.300000 8.400000 8.500000 8.600000 8.700000 8.800000 8.900000 9.000000 9.100000 9.200000 9.300000 9.400000 9.500000 9.600000 9.700000 9.800000 9.900000 10.000000 10.100000 
Z_COORDINATES 1 double
0.0
POINT_DATA 10404
VECTORS Velocity double
0.000000e+00 0.000000e+00 0.0
-2.008161e-05 0.000000e+00 0.0
-2.526467e-05 0.000000e+00 0.0
-2.343002e-05 0.000000e+00 0.0
-1.564939e-05 0.000000e+00 0.0
-3.216955e-06 0.000000e+00 0.0
1.379631e-05 0.000000e+00 0.0
3.665774e-05 0.000000e+00 0.0
6.713757e-05 0.000000e+00 0.0
1.064568e-04 0.000000e+00 0.0
1.546227e-04 0.000000e+00 0.0
2.104161e-04 0.000000e+00 0.0
2.719230e-04 0.000000e+00 0.0
3.372710e-04 0.000000e+00 0.0
4.051980e-04 0.000000e+00 0.0
4.752353e-04 0.000000e+00 0.0
5.475014e-04 0.000000e+00 0.0
6.222808e-04 0.000000e+00 0.0
6.996194e-04 0.000000e+00 0.0
7.791106e-04 0.000000e+00 0.0
8.599260e-04 0.000000e+00 0.0
9.410275e-04 0.000000e+00 0.0
1.021439e-03 0.000000e+00 0.0
1.100461e-03 0.000000e+00 0.0
1.177763e-03 0.000000e+00 0.0
1.253356e-03 0.000000e+00 0.0
1.327475e-03 0.000000e+00 0.0
1.400438e-03 0.000000e+00 0.0
1.472507e-03 0.000000e+00 0.0
1.543794e-03 0.000000e+00 0.0
1.614201e-03 0.000000e+00 0.0
1.683422e-03 0.000000e+00 0.0
1.750979e-03 0.000000e+00 0.0
1.816305e-03 0.000000e+00 0.0
1.878844e-03 0.000000e+00 0.0
1.938155e-03 0.000000e+00 0.0
1.993974e-03 0.000000e+00 0.0
2.046231e-03 0.000000e+00 0.0
2.095014e-03 0.000000e+00 0.0
2.140486e-03 0.000000e+00 0.0
2.182797e-03 0.000000e+00 0.0
2.222011e-03 0.000000e+00 0.0
2.258073e-03 0.000000e+00 0.0
2.290822e-03 0.000000e+00 0.0
2.320031e-03 0.000000e+00 0.0
2.345466e-03 0.000000e+00 0.0
2.366932e-03 0.000000e+00 0.0
2.384295e-03 0.000000e+00 0.0
2.397488e-03 0.000000e+00 0.0
2.406485e-03 0.000000e+00 0.0
2.411277e-03 0.000000e+00 0.0
2.411848e-03 0.000000e+00 0.0
2.408156e-03 0.000000e+00 0.0
2.400138e-03 0.000000e+00 0.0
2.387713e-03 0.000000e+00 0.0
2.370800e-03 0.000000e+00 0.0
2.349342e-03 0.000000e+00 0.0
2.323325e-03 0.000000e+00 0.0
2.292787e-03 0.000000e+00 0.0
2.257824e-03 0.000000e+00 0.0
2.218571e-03 0.000000e+00 0.0
2.175189e-03 0.000000e+00 0.0
2.127840e-03 0.000000e+00 0.0
2.076670e-03 0.000000e+00 0.0
2.021802e-03 0.000000e+00 0.0
1.963337e-03 0.000000e+00 0.0
1.901370e-03 0.000000e+00 0.0
1.836006e-03 0.000000e+00 0.0
1.767383e-03 0.000000e+00 0.0
1.695686e-03 0.000000e+00 0.0
1.621152e-03 0.000000e+00 0.0
1.544067e-03 0.000000e+00 0.0
1.464755e-03 0.000000e+00 0.0
1.383568e-03 0.000000e+00 0.0
1.300871e-03 0.000000e+00 0.0
1.217033e-03 0.000000e+00 0.0
1.132424e-03 0.000000e+00 0.0
1.047419e-03 0.000000e+00 0.0
9.623998e-04 0.000000e+00 0.0
8.777615e-04 0.000000e+00 0.0
7.939214e-04 0.000000e+00 0.0
7.113210e-04 0.000000e+00 0.0
6.304274e-04 0.000000e+00 0.0
5.517330e-04 0.000000e+00 0.0
4.757524e-04 0.000000e+00 0.0
4.030182e-04 0.000000e+00 0.0
3.340771e-04 0.000000e+00 0.0
2.694856e-04 0.000000e+00 0.0
2.098057e-04 0.000000e+00 0.0
1.556002e-04 0.000000e+00 0.0
1.074259e-04 0.000000e+00 0.0
6.582344e-05 0.000000e+00 0.0
3.130069e-05 0.000000e+00 0.0
4.305556e-06 0.000000e+00 0.0
-1.482133e-05 0.000000e+00 0.0
-2.592617e-05 0.000000e+00 0.0
-2.918546e-05 0.000000e+00 0.0
-2.536949e-05 0.000000e+00 0.0
-1.631364e-05 0.000000e+00 0.0
-5.724211e-06 0.000000e+00 0.0
-0.000000e+00 0.000000e+00 0.0
0.000000e+00 0.000000e+00 0.0
0.000000e+00 -7.225604e-06 0.0
-2.510304e-06 -1.543651e-05 0.0
1.135903e-05 -1.275132e-05 0.0
2.267697e-05 -4.124335e-06 0.0
2.512715e-05 6.039406e-06 0.0
1.630150e-05 1.454655e-05 0.0
-3.559703e-06 2.119659e-05 0.0
-3.270311e-05 2.712473e-05 0.0
-6.908058e-05 3.355966e-05 0.0
-1.112506e-04 4.097645e-05 0.0
-1.587043e-04 4.889082e-05 0.0
-2.116281e-04 5.622141e-05 0.0
-2.703508e-04 6.191711e-05 0.0
-3.348123e-04 6.548976e-05 0.0
-4.043066e-04 6.721047e-05 0.0
-4.775718e-04 6.793224e-05 0.0
-5.531264e-04 6.868123e-05 0.0
-6.296609e-04 7.023454e-05 0.0
-7.063149e-04 7.286255e-05 0.0
-7.827538e-04 7.630435e-05 0.0
-8.590664e-04 7.993348e-05 0.0
-9.355615e-04 8.300860e-05 0.0
-1.012559e-03 8.490333e-05 0.0
-1.090229e-03 8.525298e-05 0.0
-1.168515e-03 8.400578e-05 0.0
-1.247107e-03 8.139816e-05 0.0
-1.325480e-03 7.788081e-05 0.0
-1.402962e-03 7.401606e-05 0.0
-1.478832e-03 7.035974e-05 0.0
-1.552440e-03 6.734302e-05 0.0
-1.623308e-03 6.517861e-05 0.0
-1.691202e-03 6.381806e-05 0.0
-1.756131e-03 6.297925e-05 0.0
-1.818280e-03 6.224110e-05 0.0
-1.877899e-03 6.117673e-05 0.0
-1.935177e-03 5.947994e-05 0.0
-1.990156e-03 5.704164e-05 0.0
-2.042707e-03 5.395274e-05 0.0
-2.092561e-03 5.043910e-05 0.0
-2.139396e-03 4.675969e-05 0.0
-2.182916e-03 4.310963e-05 0.0
-2.222912e-03 3.956339e-05 0.0
-2.259279e-03 3.607317e-05 0.0
-2.291986e-03 3.251485e-05 0.0
-2.321033e-03 2.875704e-05 0.0
-2.346392e-03 2.472388e-05 0.0
-2.367979e-03 2.042885e-05 0.0
-2.385649e-03 1.597068e-05 0.0
-2.399214e-03 1.149697e-05 0.0
-2.408480e-03 7.151674e-06 0.0
-2.413288e-03 3.025730e-06 0.0
-2.413547e-03 -8.721954e-07 0.0
-2.409243e-03 -4.615295e-06 0.0
-2.400434e-03 -8.337866e-06 0.0
-2.387224e-03 -1.219693e-05 0.0
-2.369722e-03 -1.632136e-05 0.0
-2.348017e-03 -2.077213e-05 0.0
-2.322153e-03 -2.552314e-05 0.0
-2.292127e-03 -3.046680e-05 0.0
-2.257901e-03 -3.544150e-05 0.0
-2.219425e-03 -4.027242e-05 0.0
-2.176665e-03 -4.481364e-05 0.0
-2.129640e-03 -4.897965e-05 0.0
-2.078429e-03 -5.275841e-05 0.0
-2.023180e-03 -5.620365e-05 0.0
-1.964099e-03 -5.941050e-05 0.0
-1.901432e-03 -6.248281e-05 0.0
-1.835436e-03 -6.550203e-05 0.0
-1.766371e-03 -6.850591e-05 0.0
-1.694482e-03 -7.148114e-05 0.0
-1.620002e-03 -7.436988e-05 0.0
-1.543158e-03 -7.708622e-05 0.0
-1.464188e-03 -7.953658e-05 0.0
-1.383346e-03 -8.163805e-05 0.0
-1.300923e-03 -8.333066e-05 0.0
-1.217241e-03 -8.458144e-05 0.0
-1.132662e-03 -8.538116e-05 0.0
-1.047579e-03 -8.573636e-05 0.0
-9.624123e-04 -8.565964e-05 0.0
-8.776001e-04 -8.516139e-05 0.0
-7.935973e-04 -8.424377e-05 0.0
-7.108712e-04 -8.289871e-05 0.0
-6.299008e-04 -8.110901e-05 0.0
-5.511777e-04 -7.885147e-05 0.0
-4.752071e-04 -7.610071e-05 0.0
-4.025085e-04 -7.283265e-05 0.0
-3.336160e-04 -6.902713e-05 0.0
-2.690760e-04 -6.466923e-05 0.0
-2.094448e-04 -5.975006e-05 0.0
-1.552829e-04 -5.426749e-05 0.0
-1.071476e-04 -4.822740e-05 0.0
-6.558082e-05 -4.164649e-05 0.0
-3.109223e-05 -3.455843e-05 0.0
-4.130215e-06 -2.702386e-05 0.0
1.496325e-05 -1.915011e-05 0.0
2.603548e-05 -1.112451e-05 0.0
2.926642e-05 -3.276623e-06 0.0
2.542529e-05 3.799894e-06 0.0
1.635520e-05 9.032302e-06 0.0
5.763547e-06 1.055595e-05 0.0
0.000000e+00 5.728459e-06 0.0
0.000000e+00 -5.913115e-06 0.0
0.000000e+00 6.787889e-06 0.0
6.439744e-06 -2.079932e-05 0.0
2.032068e-05 -1.844072e-05 0.0
2.163039e-05 -1.280182e-06 0.0
3.506379e-06 2.315344e-05 0.0
-3.660872e-05 5.013986e-05 0.0
-9.856109e-05 7.815660e-05 0.0
-1.810754e-04 1.068072e-04 0.0
-2.828111e-04 1.355829e-04 0.0
-4.027694e-04 1.634193e-04 0.0
-5.401676e-04 1.889262e-04 0.0
-6.940647e-04 2.109360e-04 0.0
-8.630419e-04 2.289759e-04 0.0
-1.045127e-03 2.434062e-04 0.0
-1.237983e-03 2.551897e-04 0.0
-1.439242e-03 2.654449e-04 0.0
-1.646828e-03 2.750089e-04 0.0
-1.859131e-03 2.841893e-04 0.0
-2.075013e-03 2.927623e-04 0.0
-2.293687e-03 3.001606e-04 0.0
-2.514538e-03 3.057346e-04 0.0
-2.736976e-03 3.089763e-04 0.0
-2.960338e-03 3.096501e-04 0.0
-3.183843e-03 3.078255e-04 0.0
-3.406594e-03 3.038403e-04 0.0
-3.627596e-03 2.982233e-04 0.0
-3.845809e-03 2.915952e-04 0.0
-4.060210e-03 2.845559e-04 0.0
-4.269879e-03 2.775706e-04 0.0
-4.474078e-03 2.708777e-04 0.0
-4.672286e-03 2.644466e-04 0.0
-4.864191e-03 2.580089e-04 0.0
-5.049618e-03 2.511582e-04 0.0
-5.228428e-03 2.434896e-04 0.0
-5.400421e-03 2.347299e-04 0.0
-5.565278e-03 2.248127e-04 0.0
-5.722557e-03 2.138735e-04 0.0
-5.871740e-03 2.021747e-04 0.0
-6.012306e-03 1.899952e-04 0.0
-6.143795e-03 1.775308e-04 0.0
-6.265842e-03 1.648418e-04 0.0
-6.378173e-03 1.518626e-04 0.0
-6.480563e-03 1.384599e-04 0.0
-6.572793e-03 1.245102e-04 0.0
-6.654610e-03 1.099648e-04 0.0
-6.725711e-03 9.487753e-05 0.0
-6.785751e-03 7.938953e-05 0.0
-6.834379e-03 6.368143e-05 0.0
-6.871269e-03 4.791286e-05 0.0
-6.896157e-03 3.217265e-05 0.0
-6.908861e-03 1.645603e-05 0.0
-6.909278e-03 6.760836e-07 0.0
-6.897376e-03 -1.529436e-05 0.0
-6.873169e-03 -3.157917e-05 0.0
-6.836683e-03 -4.825700e-05 0.0
-6.787937e-03 -6.532188e-05 0.0
-6.726933e-03 -8.267167e-05 0.0
-6.653667e-03 -1.001248e-04 0.0
-6.568146e-03 -1.174582e-04 0.0
-6.470414e-03 -1.344538e-04 0.0
-6.360575e-03 -1.509412e-04 0.0
-6.238815e-03 -1.668231e-04 0.0
-6.105408e-03 -1.820790e-04 0.0
-5.960708e-03 -1.967478e-04 0.0
-5.805137e-03 -2.108955e-04 0.0
-5.639170e-03 -2.245791e-04 0.0
-5.463317e-03 -2.378165e-04 0.0
-5.278116e-03 -2.505704e-04 0.0
-5.084131e-03 -2.627482e-04 0.0
-4.881959e-03 -2.742151e-04 0.0
-4.672240e-03 -2.848164e-04 0.0
-4.455670e-03 -2.943992e-04 0.0
-4.233007e-03 -3.028307e-04 0.0
-4.005082e-03 -3.100068e-04 0.0
-3.772792e-03 -3.158529e-04 0.0
-3.537105e-03 -3.203168e-04 0.0
-3.299046e-03 -3.233584e-04 0.0
-3.059699e-03 -3.249392e-04 0.0
-2.820194e-03 -3.250149e-04 0.0
-2.581711e-03 -3.235318e-04 0.0
-2.345472e-03 -3.204258e-04 0.0
-2.112745e-03 -3.156257e-04 0.0
-1.884839e-03 -3.090581e-04 0.0
-1.663107e-03 -3.006522e-04 0.0
-1.448940e-03 -2.903446e-04 0.0
-1.243762e-03 -2.780822e-04 0.0
-1.049025e-03 -2.638247e-04 0.0
-8.661957e-04 -2.475467e-04 0.0
-6.967425e-04 -2.292417e-04 0.0
-5.421159e-04 -2.089272e-04 0.0
-4.037199e-04 -1.866544e-04 0.0
-2.828737e-04 -1.625242e-04 0.0
-1.807529e-04 -1.367113e-04 0.0
-9.830543e-05 -1.095040e-04 0.0
-3.612064e-05 -8.136745e-05 0.0
5.770159e-06 -5.304465e-05 0.0
2.819091e-05 -2.572302e-05 0.0
3.327050e-05 -1.304253e-06 0.0
2.508589e-05 1.719386e-05 0.0
1.047498e-05 2.514403e-05 0.0
0.000000e+00 1.617991e-05 0.0
0.000000e+00 -1.638814e-05 0.0
0.000000e+00 2.058339e-05 0.0
7.786921e-06 -2.156825e-05 0.0
8.639111e-06 -1.519869e-05 0.0
-1.161049e-05 1.777818e-05 0.0
-5.900398e-05 6.606810e-05 0.0
-1.361229e-04 1.226800e-04 0.0
-2.435690e-04 1.834536e-04 0.0
-3.811515e-04 2.453590e-04 0.0
-5.483821e-04 3.056964e-04 0.0
-7.444265e-04 3.620732e-04 0.0
-9.678325e-04 4.127653e-04 0.0
-1.216354e-03 4.570398e-04 0.0
-1.487040e-03 4.951708e-04 0.0
-1.776570e-03 5.281157e-04 0.0
-2.081680e-03 5.570093e-04 0.0
-2.399498e-03 5.827065e-04 0.0
-2.727691e-03 6.055423e-04 0.0
-3.064408e-03 6.253515e-04 0.0
-3.408112e-03 6.416735e-04 0.0
-3.757393e-03 6.540138e-04 0.0
-4.110838e-03 6.620528e-04 0.0
-4.466972e-03 6.657500e-04 0.0
-4.824256e-03 6.653532e-04 0.0
-5.181109e-03 6.613475e-04 0.0
-5.535941e-03 6.543771e-04 0.0
-5.887194e-03 6.451540e-04 0.0
-6.233404e-03 6.343541e-04 0.0
-6.573269e-03 6.225089e-04 0.0
-6.905712e-03 6.099169e-04 0.0
-7.229906e-03 5.966024e-04 0.0
-7.545240e-03 5.823491e-04 0.0
-7.851234e-03 5.668036e-04 0.0
-8.147430e-03 5.496195e-04 0.0
-8.433292e-03 5.305883e-04 0.0
-8.708164e-03 5.097104e-04 0.0
-8.971284e-03 4.871822e-04 0.0
-9.221850e-03 4.633111e-04 0.0
-9.459102e-03 4.383989e-04 0.0
-9.682380e-03 4.126439e-04 0.0
-9.891147e-03 3.860969e-04 0.0
-1.008496e-02 3.586839e-04 0.0
-1.026341e-02 3.302764e-04 0.0
-1.042608e-02 3.007758e-04 0.0
-1.057251e-02 2.701763e-04 0.0
-1.070218e-02 2.385826e-04 0.0
-1.081454e-02 2.061821e-04 0.0
-1.090908e-02 1.731852e-04 0.0
-1.098532e-02 1.397608e-04 0.0
-1.104290e-02 1.059898e-04 0.0
-1.108153e-02 7.185411e-05 0.0
-1.110104e-02 3.726183e-05 0.0
-1.110128e-02 2.101032e-06 0.0
-1.108217e-02 -3.369578e-05 0.0
-1.104361e-02 -7.011544e-05 0.0
-1.098553e-02 -1.070506e-04 0.0
-1.090783e-02 -1.442988e-04 0.0
-1.081046e-02 -1.815905e-04 0.0
-1.069342e-02 -2.186355e-04 0.0
-1.055677e-02 -2.551705e-04 0.0
-1.040069e-02 -2.909967e-04 0.0
-1.022548e-02 -3.259948e-04 0.0
-1.003152e-02 -3.601170e-04 0.0
-9.819322e-03 -3.933585e-04 0.0
-9.589440e-03 -4.257204e-04 0.0
-9.342510e-03 -4.571732e-04 0.0
-9.079212e-03 -4.876323e-04 0.0
-8.800275e-03 -5.169499e-04 0.0
-8.506488e-03 -5.449240e-04 0.0
-8.198707e-03 -5.713182e-04 0.0
-7.877875e-03 -5.958873e-04 0.0
-7.545029e-03 -6.183989e-04 0.0
-7.201311e-03 -6.386482e-04 0.0
-6.847968e-03 -6.564623e-04 0.0
-6.486344e-03 -6.716956e-04 0.0
-6.117881e-03 -6.842202e-04 0.0
-5.744106e-03 -6.939138e-04 0.0
-5.366627e-03 -7.006504e-04 0.0
-4.987128e-03 -7.042947e-04 0.0
-4.607367e-03 -7.047017e-04 0.0
-4.229178e-03 -7.017205e-04 0.0
-3.854463e-03 -6.951975e-04 0.0
-3.485197e-03 -6.849827e-04 0.0
-3.123421e-03 -6.709361e-04 0.0
-2.771237e-03 -6.529319e-04 0.0
-2.430800e-03 -6.308629e-04 0.0
-2.104304e-03 -6.046435e-04 0.0
-1.793966e-03 -5.742142e-04 0.0
-1.502010e-03 -5.395480e-04 0.0
-1.230633e-03 -5.006602e-04 0.0
-9.819793e-04 -4.576239e-04 0.0
-7.580854e-04 -4.105927e-04 0.0
-5.608192e-04 -3.598353e-04 0.0
-3.917876e-04 -3.057860e-04 0.0
-2.522117e-04 -2.491203e-04 0.0
-1.427462e-04 -1.908690e-04 0.0
-6.323189e-05 -1.325886e-04 0.0
-1.236273e-05 -7.661819e-05 0.0
1.276668e-05 -2.645760e-05 0.0
1.722912e-05 1.270799e-05 0.0
8.986502e-06 3.336285e-05 0.0
0.000000e+00 2.514154e-05 0.0
0.000000e+00 -2.536570e-05 0.0
0.000000e+00 2.621267e-05 0.0
3.809922e-06 -1.722501e-05 0.0
-1.534918e-05 2.918580e-06 0.0
-6.350236e-05 6.150166e-05 0.0
-1.453730e-04 1.435785e-04 0.0
-2.636336e-04 2.392734e-04 0.0
-4.198150e-04 3.412305e-04 0.0
-6.147159e-04 4.436749e-04 0.0
-8.482804e-04 5.421041e-04 0.0
-1.119305e-03 6.334191e-04 0.0
-1.425323e-03 7.160453e-04 0.0
-1.762827e-03 7.897707e-04 0.0
-2.127773e-03 8.552778e-04 0.0
-2.516145e-03 9.135379e-04 0.0
-2.924380e-03 9.653045e-04 0.0
-3.349511e-03 1.010864e-03 0.0
-3.789077e-03 1.050068e-03 0.0
-4.240894e-03 1.082552e-03 0.0
-4.702841e-03 1.107989e-03 0.0
-5.172736e-03 1.126281e-03 0.0
-5.648308e-03 1.137626e-03 0.0
-6.127241e-03 1.142498e-03 0.0
-6.607232e-03 1.141581e-03 0.0
-7.086046e-03 1.135678e-03 0.0
-7.561554e-03 1.125637e-03 0.0
-8.031798e-03 1.112247e-03 0.0
-8.495045e-03 1.096146e-03 0.0
-8.949841e-03 1.077727e-03 0.0
-9.395024e-03 1.057104e-03 0.0
-9.829671e-03 1.034147e-03 0.0
-1.025299e-02 1.008592e-03 0.0
-1.066421e-02 9.801851e-04 0.0
-1.106244e-02 9.488195e-04 0.0
-1.144668e-02 9.145964e-04 0.0
-1.181583e-02 8.778020e-04 0.0
-1.216878e-02 8.388117e-04 0.0
-1.250451e-02 7.979663e-04 0.0
-1.282216e-02 7.554766e-04 0.0
-1.312101e-02 7.113915e-04 0.0
-1.340047e-02 6.656362e-04 0.0
-1.365995e-02 6.180972e-04 0.0
-1.389885e-02 5.687134e-04 0.0
-1.411650e-02 5.175337e-04 0.0
-1.431217e-02 4.647239e-04 0.0
-1.448512e-02 4.105220e-04 0.0
-1.463464e-02 3.551678e-04 0.0
-1.476014e-02 2.988350e-04 0.0
-1.486112e-02 2.415924e-04 0.0
-1.493721e-02 1.834078e-04 0.0
-1.498813e-02 1.241905e-04 0.0
-1.501365e-02 6.385775e-05 0.0
-1.501355e-02 2.402002e-06 0.0
-1.498759e-02 -6.005914e-05 0.0
-1.493557e-02 -1.232879e-04 0.0
-1.485727e-02 -1.869611e-04 0.0
-1.475255e-02 -2.507104e-04 0.0
-1.462135e-02 -3.141740e-04 0.0
-1.446373e-02 -3.770428e-04 0.0
-1.427989e-02 -4.390865e-04 0.0
-1.407018e-02 -5.001554e-04 0.0
-1.383505e-02 -5.601577e-04 0.0
-1.357509e-02 -6.190212e-04 0.0
-1.329094e-02 -6.766525e-04 0.0
-1.298331e-02 -7.329040e-04 0.0
-1.265299e-02 -7.875584e-04 0.0
-1.230082e-02 -8.403305e-04 0.0
-1.192773e-02 -8.908863e-04 0.0
-1.153475e-02 -9.388691e-04 0.0
-1.112302e-02 -9.839265e-04 0.0
-1.069385e-02 -1.025730e-03 0.0
-1.024865e-02 -1.063983e-03 0.0
-9.788990e-03 -1.098423e-03 0.0
-9.316545e-03 -1.128805e-03 0.0
-8.833122e-03 -1.154897e-03 0.0
-8.340633e-03 -1.176463e-03 0.0
-7.841093e-03 -1.193257e-03 0.0
-7.336614e-03 -1.205019e-03 0.0
-6.829410e-03 -1.211485e-03 0.0
-6.321794e-03 -1.212384e-03 0.0
-5.816174e-03 -1.207455e-03 0.0
-5.315060e-03 -1.196447e-03 0.0
-4.821046e-03 -1.179125e-03 0.0
-4.336814e-03 -1.155278e-03 0.0
-3.865111e-03 -1.124721e-03 0.0
-3.408743e-03 -1.087298e-03 0.0
-2.970550e-03 -1.042893e-03 0.0
-2.553384e-03 -9.914327e-04 0.0
-2.160080e-03 -9.329047e-04 0.0
-1.793421e-03 -8.673750e-04 0.0
-1.456086e-03 -7.950163e-04 0.0
-1.150587e-03 -7.161466e-04 0.0
-8.791889e-04 -6.312842e-04 0.0
-6.437928e-04 -5.412253e-04 0.0
-4.457939e-04 -4.471557e-04 0.0
-2.858843e-04 -3.508083e-04 0.0
-1.638062e-04 -2.546895e-04 0.0
-7.804629e-05 -1.623995e-04 0.0
-2.544865e-05 -7.907594e-05 0.0
-7.661206e-07 -1.199650e-05 0.0
3.912310e-06 2.866113e-05 0.0
0.000000e+00 2.902927e-05 0.0
0.000000e+00 -2.925337e-05 0.0
0.000000e+00 1.958994e-05 0.0
-4.600368e-06 -7.270507e-06 0.0
-4.611140e-05 4.004992e-05 0.0
-1.245156e-04 1.355263e-04 0.0
-2.435187e-04 2.610212e-04 0.0
-4.059731e-04 4.036073e-04 0.0
-6.139838e-04 5.530120e-04 0.0
-8.685908e-04 7.013841e-04 0.0
-1.169333e-03 8.432197e-04 0.0
-1.514069e-03 9.752873e-04 0.0
-1.899236e-03 1.096270e-03 0.0
-2.320458e-03 1.206122e-03 0.0
-2.773240e-03 1.305326e-03 0.0
-3.253495e-03 1.394303e-03 0.0
-3.757740e-03 1.473124e-03 0.0
-4.282992e-03 1.541542e-03 0.0
-4.826522e-03 1.599211e-03 0.0
-5.385597e-03 1.645929e-03 0.0
-5.957360e-03 1.681801e-03 0.0
-6.538818e-03 1.707272e-03 0.0
-7.126924e-03 1.723068e-03 0.0
-7.718666e-03 1.730098e-03 0.0
-8.311145e-03 1.729372e-03 0.0
-8.901630e-03 1.721909e-03 0.0
-9.487618e-03 1.708657e-03 0.0
-1.006689e-02 1.690398e-03 0.0
-1.063757e-02 1.667663e-03 0.0
-1.119813e-02 1.640694e-03 0.0
-1.174728e-02 1.609482e-03 0.0
-1.228394e-02 1.573887e-03 0.0
-1.280699e-02 1.533784e-03 0.0
-1.331523e-02 1.489202e-03 0.0
-1.380729e-02 1.440378e-03 0.0
-1.428175e-02 1.387721e-03 0.0
-1.473716e-02 1.331707e-03 0.0
-1.517224e-02 1.272739e-03 0.0
-1.558589e-02 1.211061e-03 0.0
-1.597719e-02 1.146736e-03 0.0
-1.634538e-02 1.079701e-03 0.0
-1.668971e-02 1.009870e-03 0.0
-1.700940e-02 9.372290e-04 0.0
-1.730357e-02 8.618941e-04 0.0
-1.757129e-02 7.840992e-04 0.0
-1.781162e-02 7.041376e-04 0.0
-1.802369e-02 6.222786e-04 0.0
-1.820676e-02 5.386990e-04 0.0
-1.836021e-02 4.534538e-04 0.0
-1.848358e-02 3.664981e-04 0.0
-1.857648e-02 2.777491e-04 0.0
-1.863855e-02 1.871637e-04 0.0
-1.866944e-02 9.480913e-05 0.0
-1.866877e-02 9.014404e-07 0.0
-1.863618e-02 -9.419301e-05 0.0
-1.857130e-02 -1.900173e-04 0.0
-1.847390e-02 -2.860981e-04 0.0
-1.834382e-02 -3.820002e-04 0.0
-1.818109e-02 -4.773670e-04 0.0
-1.798589e-02 -5.719329e-04 0.0
-1.775857e-02 -6.655076e-04 0.0
-1.749962e-02 -7.579389e-04 0.0
-1.720962e-02 -8.490657e-04 0.0
-1.688925e-02 -9.386761e-04 0.0
-1.653925e-02 -1.026481e-03 0.0
-1.616043e-02 -1.112108e-03 0.0
-1.575369e-02 -1.195118e-03 0.0
-1.532004e-02 -1.275031e-03 0.0
-1.486063e-02 -1.351357e-03 0.0
-1.437673e-02 -1.423625e-03 0.0
-1.386980e-02 -1.491395e-03 0.0
-1.334148e-02 -1.554265e-03 0.0
-1.279354e-02 -1.611856e-03 0.0
-1.222792e-02 -1.663805e-03 0.0
-1.164667e-02 -1.709746e-03 0.0
-1.105199e-02 -1.749300e-03 0.0
-1.044621e-02 -1.782074e-03 0.0
-9.831757e-03 -1.807660e-03 0.0
-9.211192e-03 -1.825641e-03 0.0
-8.587201e-03 -1.835608e-03 0.0
-7.962590e-03 -1.837161e-03 0.0
-7.340287e-03 -1.829925e-03 0.0
-6.723332e-03 -1.813548e-03 0.0
-6.114866e-03 -1.787706e-03 0.0
-5.518121e-03 -1.752112e-03 0.0
-4.936398e-03 -1.706514e-03 0.0
-4.373052e-03 -1.650707e-03 0.0
-3.831461e-03 -1.584547e-03 0.0
-3.315000e-03 -1.507959e-03 0.0
-2.827004e-03 -1.420968e-03 0.0
-2.370721e-03 -1.323724e-03 0.0
-1.949254e-03 -1.216544e-03 0.0
-1.565486e-03 -1.099966e-03 0.0
-1.221983e-03 -9.748271e-04 0.0
-9.208801e-04 -8.423588e-04 0.0
-6.637260e-04 -7.043331e-04 0.0
-4.513006e-04 -5.632521e-04 0.0
-2.833935e-04 -4.226118e-04 0.0
-1.585528e-04 -2.872575e-04 0.0
-7.378729e-05 -1.638610e-04 0.0
-2.425161e-05 -6.155418e-05 0.0
-2.884020e-06 7.269745e-06 0.0
0.000000e+00 2.612039e-05 0.0
0.000000e+00 -2.632987e-05 0.0
0.000000e+00 4.122265e-08 0.0
-1.543354e-05 9.373416e-06 0.0
-7.897254e-05 9.899779e-05 0.0
-1.881787e-04 2.429131e-04 0.0
-3.460236e-04 4.205894e-04 0.0
-5.552007e-04 6.165370e-04 0.0
-8.175530e-04 8.185180e-04 0.0
-1.133391e-03 1.017621e-03 0.0
-1.501143e-03 1.208061e-03 0.0
-1.917539e-03 1.386669e-03 0.0
-2.378222e-03 1.552074e-03 0.0
-2.878516e-03 1.703813e-03 0.0
-3.414031e-03 1.841628e-03 0.0
-3.980917e-03 1.965118e-03 0.0
-4.575791e-03 2.073739e-03 0.0
-5.195472e-03 2.167010e-03 0.0
-5.836723e-03 2.244744e-03 0.0
-6.496115e-03 2.307174e-03 0.0
-7.170031e-03 2.354948e-03 0.0
-7.854770e-03 2.389025e-03 0.0
-8.546666e-03 2.410551e-03 0.0
-9.242179e-03 2.420758e-03 0.0
-9.937974e-03 2.420874e-03 0.0
-1.063098e-02 2.412041e-03 0.0
-1.131847e-02 2.395228e-03 0.0
-1.199808e-02 2.371139e-03 0.0
-1.266788e-02 2.340185e-03 0.0
-1.332622e-02 2.302516e-03 0.0
-1.397165e-02 2.258149e-03 0.0
-1.460273e-02 2.207124e-03 0.0
-1.521792e-02 2.149638e-03 0.0
-1.581552e-02 2.086100e-03 0.0
-1.639376e-02 2.017080e-03 0.0
-1.695088e-02 1.943182e-03 0.0
-1.748531e-02 1.864909e-03 0.0
-1.799568e-02 1.782565e-03 0.0
-1.848089e-02 1.696249e-03 0.0
-1.893996e-02 1.605931e-03 0.0
-1.937197e-02 1.511568e-03 0.0
-1.977594e-02 1.413209e-03 0.0
-2.015081e-02 1.311045e-03 0.0
-2.049544e-02 1.205387e-03 0.0
-2.080871e-02 1.096586e-03 0.0
-2.108959e-02 9.849423e-04 0.0
-2.133718e-02 8.706367e-04 0.0
-2.155078e-02 7.537124e-04 0.0
-2.172978e-02 6.341166e-04 0.0
-2.187369e-02 5.117820e-04 0.0
-2.198200e-02 3.867161e-04 0.0
-2.205423e-02 2.590707e-04 0.0
-2.208982e-02 1.291683e-04 0.0
-2.208825e-02 -2.516295e-06 0.0
-2.204902e-02 -1.354092e-04 0.0
-2.197175e-02 -2.689319e-04 0.0
-2.185623e-02 -4.025773e-04 0.0
-2.170239e-02 -5.359399e-04 0.0
-2.151038e-02 -6.687122e-04 0.0
-2.128050e-02 -8.006510e-04 0.0
-2.101322e-02 -9.315264e-04 0.0
-2.070908e-02 -1.061068e-03 0.0
-2.036874e-02 -1.188926e-03 0.0
-1.999290e-02 -1.314653e-03 0.0
-1.958236e-02 -1.437710e-03 0.0
-1.913803e-02 -1.557493e-03 0.0
-1.866095e-02 -1.673372e-03 0.0
-1.815231e-02 -1.784717e-03 0.0
-1.761349e-02 -1.890929e-03 0.0
-1.704604e-02 -1.991449e-03 0.0
-1.645171e-02 -2.085747e-03 0.0
-1.583244e-02 -2.173314e-03 0.0
-1.519031e-02 -2.253641e-03 0.0
-1.452756e-02 -2.326205e-03 0.0
-1.384660e-02 -2.390462e-03 0.0
-1.314994e-02 -2.445846e-03 0.0
-1.244027e-02 -2.491776e-03 0.0
-1.172039e-02 -2.527668e-03 0.0
-1.099328e-02 -2.552945e-03 0.0
-1.026203e-02 -2.567052e-03 0.0
-9.529920e-03 -2.569461e-03 0.0
-8.800316e-03 -2.559679e-03 0.0
-8.076731e-03 -2.537246e-03 0.0
-7.362781e-03 -2.501745e-03 0.0
-6.662169e-03 -2.452798e-03 0.0
-5.978666e-03 -2.390087e-03 0.0
-5.316088e-03 -2.313358e-03 0.0
-4.678266e-03 -2.222445e-03 0.0
-4.069008e-03 -2.117292e-03 0.0
-3.492061e-03 -1.997983e-03 0.0
-2.951056e-03 -1.864787e-03 0.0
-2.449440e-03 -1.718204e-03 0.0
-1.990400e-03 -1.559038e-03 0.0
-1.576761e-03 -1.388486e-03 0.0
-1.210872e-03 -1.208262e-03 0.0
-8.944620e-04 -1.020755e-03 0.0
-6.284808e-04 -8.292459e-04 0.0
-4.129169e-04 -6.381899e-04 0.0
-2.466107e-04 -4.535836e-04 0.0
-1.270501e-04 -2.834451e-04 0.0
-5.019304e-05 -1.384371e-04 0.0
-1.031973e-05 -3.263073e-05 0.0
0.000000e+00 1.577303e-05 0.0
0.000000e+00 -1.596096e-05 0.0
0.000000e+00 -3.068564e-05 0.0
-2.643576e-05 3.418347e-05 0.0
-1.107801e-04 1.810878e-04 0.0
-2.509266e-04 3.843156e-04 0.0
-4.489766e-04 6.220202e-04 0.0
-7.067128e-04 8.771880e-04 0.0
-1.024738e-03 1.136807e-03 0.0
-1.401883e-03 1.391778e-03 0.0
-1.835216e-03 1.636344e-03 0.0
-2.320576e-03 1.867168e-03 0.0
-2.853323e-03 2.082305e-03 0.0
-3.428962e-03 2.280391e-03 0.0
-4.043438e-03 2.460210e-03 0.0
-4.693084e-03 2.620646e-03 0.0
-5.374374e-03 2.760865e-03 0.0
-6.083658e-03 2.880519e-03 0.0
-6.817035e-03 2.979831e-03 0.0
-7.570367e-03 3.059550e-03 0.0
-8.339394e-03 3.120805e-03 0.0
-9.119871e-03 3.164945e-03 0.0
-9.907678e-03 3.193416e-03 0.0
-1.069890e-02 3.207666e-03 0.0
-1.148991e-02 3.209059e-03 0.0
-1.227745e-02 3.198779e-03 0.0
-1.305866e-02 3.177743e-03 0.0
-1.383116e-02 3.146563e-03 0.0
-1.459291e-02 3.105587e-03 0.0
-1.534207e-02 3.055022e-03 0.0
-1.607686e-02 2.995106e-03 0.0
-1.679540e-02 2.926240e-03 0.0
-1.749564e-02 2.849036e-03 0.0
-1.817548e-02 2.764258e-03 0.0
-1.883284e-02 2.672680e-03 0.0
-1.946585e-02 2.574933e-03 0.0
-2.007290e-02 2.471416e-03 0.0
-2.065264e-02 2.362297e-03 0.0
-2.120391e-02 2.247606e-03 0.0
-2.172555e-02 2.127365e-03 0.0
-2.221640e-02 2.001705e-03 0.0
-2.267519e-02 1.870903e-03 0.0
-2.310058e-02 1.735353e-03 0.0
-2.349128e-02 1.595471e-03 0.0
-2.384609e-02 1.451591e-03 0.0
-2.416401e-02 1.303898e-03 0.0
-2.444418e-02 1.152429e-03 0.0
-2.468590e-02 9.971325e-04 0.0
-2.488852e-02 8.379665e-04 0.0
-2.505141e-02 6.750000e-04 0.0
-2.517389e-02 5.084773e-04 0.0
-2.525525e-02 3.388303e-04 0.0
-2.529479e-02 1.666392e-04 0.0
-2.529187e-02 -7.439206e-06 0.0
-2.524599e-02 -1.827472e-04 0.0
-2.515682e-02 -3.587107e-04 0.0
-2.502424e-02 -5.348749e-04 0.0
-2.484831e-02 -7.108827e-04 0.0
-2.462928e-02 -8.864240e-04 0.0
-2.436751e-02 -1.061173e-03 0.0
-2.406350e-02 -1.234730e-03 0.0
-2.371780e-02 -1.406593e-03 0.0
-2.333105e-02 -1.576144e-03 0.0
-2.290400e-02 -1.742674e-03 0.0
-2.243751e-02 -1.905413e-03 0.0
-2.193262e-02 -2.063580e-03 0.0
-2.139054e-02 -2.216406e-03 0.0
-2.081266e-02 -2.363161e-03 0.0
-2.020060e-02 -2.503151e-03 0.0
-1.955618e-02 -2.635709e-03 0.0
-1.888141e-02 -2.760173e-03 0.0
-1.817846e-02 -2.875868e-03 0.0
-1.744968e-02 -2.982094e-03 0.0
-1.669759e-02 -3.078120e-03 0.0
-1.592484e-02 -3.163187e-03 0.0
-1.513428e-02 -3.236524e-03 0.0
-1.432889e-02 -3.297360e-03 0.0
-1.351185e-02 -3.344937e-03 0.0
-1.268650e-02 -3.378522e-03 0.0
-1.185632e-02 -3.397416e-03 0.0
-1.102496e-02 -3.400957e-03 0.0
-1.019623e-02 -3.388523e-03 0.0
-9.374021e-03 -3.359539e-03 0.0
-8.562370e-03 -3.313476e-03 0.0
-7.765380e-03 -3.249868e-03 0.0
-6.987226e-03 -3.168325e-03 0.0
-6.232115e-03 -3.068552e-03 0.0
-5.504261e-03 -2.950376e-03 0.0
-4.807841e-03 -2.813776e-03 0.0
-4.146948e-03 -2.658923e-03 0.0
-3.525537e-03 -2.486229e-03 0.0
-2.947352e-03 -2.296406e-03 0.0
-2.415846e-03 -2.090552e-03 0.0
-1.934087e-03 -1.870250e-03 0.0
-1.504650e-03 -1.637706e-03 0.0
-1.129492e-03 -1.395925e-03 0.0
-8.098211e-04 -1.148936e-03 0.0
-5.459607e-04 -9.020739e-04 0.0
-3.372251e-04 -6.623487e-04 0.0
-1.818052e-04 -4.388976e-04 0.0
-7.671155e-05 -2.435640e-04 0.0
-1.780275e-05 -9.157284e-05 0.0
0.000000e+00 -2.062920e-06 0.0
0.000000e+00 1.894769e-06 0.0
0.000000e+00 -6.988341e-05 0.0
-3.590857e-05 6.827538e-05 0.0
-1.401433e-04 2.861065e-04 0.0
-3.115175e-04 5.585752e-04 0.0
-5.506867e-04 8.636947e-04 0.0
-8.576671e-04 1.184151e-03 0.0
-1.231120e-03 1.507117e-03 0.0
-1.668155e-03 1.823713e-03 0.0
-2.164709e-03 2.128069e-03 0.0
-2.716211e-03 2.416240e-03 0.0
-3.318162e-03 2.685297e-03 0.0
-3.966413e-03 2.932820e-03 0.0
-4.657119e-03 3.156802e-03 0.0
-5.386490e-03 3.355781e-03 0.0
-6.150546e-03 3.529014e-03 0.0
-6.944993e-03 3.676523e-03 0.0
-7.765259e-03 3.799008e-03 0.0
-8.606615e-03 3.897649e-03 0.0
-9.464326e-03 3.973920e-03 0.0
-1.033376e-02 4.029437e-03 0.0
-1.121048e-02 4.065847e-03 0.0
-1.209033e-02 4.084738e-03 0.0
-1.296952e-02 4.087528e-03 0.0
-1.384472e-02 4.075371e-03 0.0
-1.471307e-02 4.049111e-03 0.0
-1.557209e-02 4.009323e-03 0.0
-1.641957e-02 3.956439e-03 0.0
-1.725334e-02 3.890926e-03 0.0
-1.807116e-02 3.813419e-03 0.0
-1.887064e-02 3.724768e-03 0.0
-1.964934e-02 3.625964e-03 0.0
-2.040486e-02 3.517980e-03 0.0
-2.113505e-02 3.401618e-03 0.0
-2.183804e-02 3.277405e-03 0.0
-2.251224e-02 3.145613e-03 0.0
-2.315625e-02 3.006366e-03 0.0
-2.376872e-02 2.859780e-03 0.0
-2.434825e-02 2.706089e-03 0.0
-2.489334e-02 2.545675e-03 0.0
-2.540247e-02 2.379028e-03 0.0
-2.587417e-02 2.206630e-03 0.0
-2.630709e-02 2.028855e-03 0.0
-2.670009e-02 1.845899e-03 0.0
-2.705222e-02 1.657798e-03 0.0
-2.736264e-02 1.464514e-03 0.0
-2.763055e-02 1.266042e-03 0.0
-2.785515e-02 1.062525e-03 0.0
-2.803559e-02 8.543055e-04 0.0
-2.817096e-02 6.419257e-04 0.0
-2.826040e-02 4.260629e-04 0.0
-2.830312e-02 2.074446e-04 0.0
-2.829849e-02 -1.323378e-05 0.0
-2.824609e-02 -2.353569e-04 0.0
-2.814570e-02 -4.584221e-04 0.0
-2.799731e-02 -6.820154e-04 0.0
-2.780106e-02 -9.057447e-04 0.0
-2.755720e-02 -1.129170e-03 0.0
-2.726611e-02 -1.351749e-03 0.0
-2.692821e-02 -1.572810e-03 0.0
-2.654405e-02 -1.791563e-03 0.0
-2.611426e-02 -2.007126e-03 0.0
-2.563967e-02 -2.218574e-03 0.0
-2.512123e-02 -2.424976e-03 0.0
-2.456015e-02 -2.625428e-03 0.0
-2.395782e-02 -2.819066e-03 0.0
-2.331587e-02 -3.005054e-03 0.0
-2.263613e-02 -3.182573e-03 0.0
-2.192062e-02 -3.350792e-03 0.0
-2.117155e-02 -3.508851e-03 0.0
-2.039131e-02 -3.655854e-03 0.0
-1.958246e-02 -3.790864e-03 0.0
-1.874775e-02 -3.912918e-03 0.0
-1.789009e-02 -4.021039e-03 0.0
-1.701262e-02 -4.114256e-03 0.0
-1.611862e-02 -4.191613e-03 0.0
-1.521159e-02 -4.252186e-03 0.0
-1.429520e-02 -4.295082e-03 0.0