# vtk DataFile Version 3.0
Vector Field
ASCII
DATASET RECTILINEAR_GRID
DIMENSIONS 102 102 1
X_COORDINATES 102 double
0.000000 0.100000 0.200000 0.300000 0.400000 0.500000 0.600000 0.700000 0.800000 0.900000 1.000000 1.100000 1.200000 1.300000 1.400000 1.500000 1.600000 1.700000 1.800000 1.900000 2.000000 2.100000 2.200000 2.300000 2.400000 2.500000 2.600000 2.700000 2.800000 2.900000 3.000000 3.100000 3.200000 3.300000 3.400000 3.500000 3.600000 3.700000 3.800000 3.900000 4.000000 4.100000 4.200000 4.300000 4.400000 4.500000 4.600000 4.700000 4.800000 4.900000 5.000000 5.100000 5.200000 5.300000 5.400000 5.500000 5.600000 5.700000 5.800000 5.900000 6.000000 6.100000 6.200000 6.300000 6.400000 6.500000 6.600000 6.700000 6.800000 6.900000 7.000000 7.100000 7.200000 7.300000 7.400000 7.500000 7.600000 7.700000 7.800000 7.900000 8.000000 8.100000 8.200000 8.300000 8.400000 8.500000 8.600000 8.700000 8.800000 8.900000 9.000000 9.100000 9.200000 9.300000 9.400000 9.500000 9.600000 9.700000 9.800000 9.900000 10.000000 10.100000 
Y_COORDINATES 102 double
0.000000 0.100000 0.200000 0.300000 0.400000 0.500000 0.600000 0.700000 0.800000 0.900000 1.000000 1.100000 1.200000 1.300000 1.400000 1.500000 1.600000 1.700000 1.800000 1.900000 2.000000 2.100000 2.200000 2.300000 2.400000 2.500000 2.600000 2.700000 2.800000 2.900000 3.000000 3.100000 3.200000 3.300000 3.400000 3.500000 3.600000 3.700000 3.800000 3.900000 4.000000 4.100000 4.200000 4.300000 4.400000 4.500000 4.600000 4.700000 4.800000 4.900000 5.000000 5.100000 5.200000 5.300000 5.400000 5.500000 5.600000 5.700000 5.800000 5.900000 6.000000 6.100000 6.200000 6.300000 6.400000 6.500000 6.600000 6.700000 6.800000 6.900000 7.000000 7.100000 7.200000 7.300000 7.400000 7.500000 7.600000 7.700000 7.800000 7.900000 8.000000 8.100000 8.200000 8.300000 8.400000 8.500000 8.600000 8.700000 8.800000 8.900000 9.000000 9.100000 9.200000 9.300000 9.400000 9.500000 9.600000 9.700000 9.800000 9.900000 10.000000 10.100000 
Z_COORDINATES 1 double
0.0
POINT_DATA 10404
VECTORS Velocity double
0.000000e+00 0.000000e+00 0.0
-5.825415e-06 0.000000e+00 0.0
-6.614938e-06 0.000000e+00 0.0
-1.025796e-05 0.000000e+00 0.0
-1.322215e-05 0.000000e+00 0.0
-1.184594e-05 0.000000e+00 0.0
-2.267746e-06 0.000000e+00 0.0
1.855550e-05 0.000000e+00 0.0
5.198672e-05 0.000000e+00 0.0
9.743066e-05 0.000000e+00 0.0
1.527349e-04 0.000000e+00 0.0
2.150510e-04 0.000000e+00 0.0
2.817776e-04 0.000000e+00 0.0
3.512272e-04 0.000000e+00 0.0
4.228264e-04 0.000000e+00 0.0
4.968663e-04 0.000000e+00 0.0
5.739941e-04 0.000000e+00 0.0
6.546927e-04 0.000000e+00 0.0
7.389473e-04 0.000000e+00 0.0
8.261818e-04 0.000000e+00 0.0
9.154229e-04 0.000000e+00 0.0
1.005574e-03 0.000000e+00 0.0
1.095671e-03 0.000000e+00 0.0
1.185033e-03 0.000000e+00 0.0
1.273286e-03 0.000000e+00 0.0
1.360295e-03 0.000000e+00 0.0
1.446047e-03 0.000000e+00 0.0
1.530549e-03 0.000000e+00 0.0
1.613752e-03 0.000000e+00 0.0
1.695526e-03 0.000000e+00 0.0
1.775650e-03 0.000000e+00 0.0
1.853831e-03 0.000000e+00 0.0
1.929730e-03 0.000000e+00 0.0
2.002991e-03 0.000000e+00 0.0
2.073274e-03 0.000000e+00 0.0
2.140283e-03 0.000000e+00 0.0
2.203790e-03 0.000000e+00 0.0
2.263634e-03 0.000000e+00 0.0
2.319712e-03 0.000000e+00 0.0
2.371948e-03 0.000000e+00 0.0
2.420263e-03 0.000000e+00 0.0
2.464549e-03 0.000000e+00 0.0
2.504651e-03 0.000000e+00 0.0
2.540377e-03 0.000000e+00 0.0
2.571508e-03 0.000000e+00 0.0
2.597820e-03 0.000000e+00 0.0
2.619113e-03 0.000000e+00 0.0
2.635217e-03 0.000000e+00 0.0
2.646009e-03 0.000000e+00 0.0
2.651406e-03 0.000000e+00 0.0
2.651359e-03 0.000000e+00 0.0
2.645853e-03 0.000000e+00 0.0
2.634893e-03 0.000000e+00 0.0
2.618492e-03 0.000000e+00 0.0
2.596669e-03 0.000000e+00 0.0
2.569447e-03 0.000000e+00 0.0
2.536864e-03 0.000000e+00 0.0
2.498972e-03 0.000000e+00 0.0
2.455850e-03 0.000000e+00 0.0
2.407606e-03 0.000000e+00 0.0
2.354382e-03 0.000000e+00 0.0
2.296351e-03 0.000000e+00 0.0
2.233717e-03 0.000000e+00 0.0
2.166714e-03 0.000000e+00 0.0
2.095599e-03 0.000000e+00 0.0
2.020649e-03 0.000000e+00 0.0
1.942160e-03 0.000000e+00 0.0
1.860449e-03 0.000000e+00 0.0
1.775845e-03 0.000000e+00 0.0
1.688701e-03 0.000000e+00 0.0
1.599385e-03 0.000000e+00 0.0
1.508285e-03 0.000000e+00 0.0
1.415808e-03 0.000000e+00 0.0
1.322378e-03 0.000000e+00 0.0
1.228435e-03 0.000000e+00 0.0
1.134430e-03 0.000000e+00 0.0
1.040826e-03 0.000000e+00 0.0
9.480938e-04 0.000000e+00 0.0
8.567106e-04 0.000000e+00 0.0
7.671579e-04 0.000000e+00 0.0
6.799201e-04 0.000000e+00 0.0
5.954822e-04 0.000000e+00 0.0
5.143287e-04 0.000000e+00 0.0
4.369410e-04 0.000000e+00 0.0
3.637958e-04 0.000000e+00 0.0
2.953616e-04 0.000000e+00 0.0
2.320964e-04 0.000000e+00 0.0
1.744428e-04 0.000000e+00 0.0
1.228232e-04 0.000000e+00 0.0
7.763277e-05 0.000000e+00 0.0
3.922942e-05 0.000000e+00 0.0
7.919684e-06 0.000000e+00 0.0
-1.606234e-05 0.000000e+00 0.0
-3.258785e-05 0.000000e+00 0.0
-4.168577e-05 0.000000e+00 0.0
-4.362875e-05 0.000000e+00 0.0
-3.907862e-05 0.000000e+00 0.0
-2.933206e-05 0.000000e+00 0.0
-1.671958e-05 0.000000e+00 0.0
-5.117980e-06 0.000000e+00 0.0
-0.000000e+00 0.000000e+00 0.0
0.000000e+00 0.000000e+00 0.0
0.000000e+00 7.884662e-06 0.0
-2.587718e-06 -1.658108e-05 0.0
1.955449e-05 -8.998161e-06 0.0
3.558296e-05 2.319535e-06 0.0
3.881496e-05 1.133020e-05 0.0
2.757536e-05 1.621095e-05 0.0
3.565240e-06 1.841113e-05 0.0
-2.995956e-05 2.071216e-05 0.0
-6.984464e-05 2.548899e-05 0.0
-1.141486e-04 3.366393e-05 0.0
-1.624765e-04 4.450714e-05 0.0
-2.156036e-04 5.616622e-05 0.0
-2.747020e-04 6.655839e-05 0.0
-3.405658e-04 7.419454e-05 0.0
-4.131458e-04 7.862039e-05 0.0
-4.915101e-04 8.037970e-05 0.0
-5.741530e-04 8.061596e-05 0.0
-6.594516e-04 8.054638e-05 0.0
-7.460631e-04 8.103682e-05 0.0
-8.331309e-04 8.240893e-05 0.0
-9.202800e-04 8.448584e-05 0.0
-1.007466e-03 8.679077e-05 0.0
-1.094774e-03 8.878152e-05 0.0
-1.182257e-03 9.003054e-05 0.0
-1.269840e-03 9.031263e-05 0.0
-1.357296e-03 8.960967e-05 0.0
-1.444275e-03 8.806519e-05 0.0
-1.530342e-03 8.592033e-05 0.0
-1.615024e-03 8.345080e-05 0.0
-1.697860e-03 8.091052e-05 0.0
-1.778439e-03 7.848415e-05 0.0
-1.856439e-03 7.625308e-05 0.0
-1.931642e-03 7.418323e-05 0.0
-2.003928e-03 7.214105e-05 0.0
-2.073244e-03 6.993667e-05 0.0
-2.139558e-03 6.738258e-05 0.0
-2.202805e-03 6.434947e-05 0.0
-2.262853e-03 6.080119e-05 0.0
-2.319497e-03 5.679840e-05 0.0
-2.372466e-03 5.247211e-05 0.0
-2.421464e-03 4.797868e-05 0.0
-2.466205e-03 4.345276e-05 0.0
-2.506443e-03 3.897312e-05 0.0
-2.541994e-03 3.455001e-05 0.0
-2.572727e-03 3.013429e-05 0.0
-2.598554e-03 2.564209e-05 0.0
-2.619407e-03 2.098515e-05 0.0
-2.635220e-03 1.609748e-05 0.0
-2.645917e-03 1.095203e-05 0.0
-2.651402e-03 5.565142e-06 0.0
-2.651576e-03 -9.139388e-09 0.0
-2.646344e-03 -5.689526e-06 0.0
-2.635634e-03 -1.139052e-05 0.0
-2.619398e-03 -1.704321e-05 0.0
-2.597625e-03 -2.260059e-05 0.0
-2.570339e-03 -2.803900e-05 0.0
-2.537601e-03 -3.335431e-05 0.0
-2.499507e-03 -3.855434e-05 0.0
-2.456180e-03 -4.364965e-05 0.0
-2.407765e-03 -4.864522e-05 0.0
-2.354426e-03 -5.353485e-05 0.0
-2.296342e-03 -5.829923e-05 0.0
-2.233709e-03 -6.290736e-05 0.0
-2.166741e-03 -6.732056e-05 0.0
-2.095670e-03 -7.149749e-05 0.0
-2.020755e-03 -7.539890e-05 0.0
-1.942279e-03 -7.899098e-05 0.0
-1.860550e-03 -8.224685e-05 0.0
-1.775903e-03 -8.514628e-05 0.0
-1.688697e-03 -8.767414e-05 0.0
-1.599311e-03 -8.981832e-05 0.0
-1.508142e-03 -9.156770e-05 0.0
-1.415606e-03 -9.291072e-05 0.0
-1.322131e-03 -9.383486e-05 0.0
-1.228155e-03 -9.432681e-05 0.0
-1.134129e-03 -9.437334e-05 0.0
-1.040514e-03 -9.396247e-05 0.0
-9.477753e-04 -9.308354e-05 0.0
-8.563889e-04 -9.172783e-05 0.0
-7.668341e-04 -8.988904e-05 0.0
-6.795946e-04 -8.756348e-05 0.0
-5.951559e-04 -8.475007e-05 0.0
-5.140034e-04 -8.145020e-05 0.0
-4.366195e-04 -7.766757e-05 0.0
-3.634816e-04 -7.340826e-05 0.0
-2.950589e-04 -6.868089e-05 0.0
-2.318094e-04 -6.349713e-05 0.0
-1.741756e-04 -5.787243e-05 0.0
-1.225793e-04 -5.182728e-05 0.0
-7.741509e-05 -4.538906e-05 0.0
-3.904020e-05 -3.859495e-05 0.0
-7.760439e-06 -3.149624e-05 0.0
1.619111e-05 -2.416545e-05 0.0
3.268669e-05 -1.670778e-05 0.0
4.175628e-05 -9.280989e-06 0.0
4.367414e-05 -2.128502e-06 0.0
3.910294e-05 4.360584e-06 0.0
2.934018e-05 9.550834e-06 0.0
1.671575e-05 1.241222e-05 0.0
5.106476e-06 1.139690e-05 0.0
0.000000e+00 4.894167e-06 0.0
0.000000e+00 -4.859830e-06 0.0
0.000000e+00 2.927167e-05 0.0
1.318370e-05 -1.641379e-05 0.0
3.221148e-05 -1.526718e-05 0.0
3.606176e-05 3.873629e-07 0.0
1.798249e-05 2.139715e-05 0.0
-2.400252e-05 4.483103e-05 0.0
-8.898872e-05 7.053523e-05 0.0
-1.750886e-04 9.911337e-05 0.0
-2.806884e-04 1.304352e-04 0.0
-4.049258e-04 1.631669e-04 0.0
-5.475145e-04 1.951253e-04 0.0
-7.082229e-04 2.240643e-04 0.0
-8.863543e-04 2.484349e-04 0.0
-1.080479e-03 2.677857e-04 0.0
-1.288493e-03 2.826980e-04 0.0
-1.507927e-03 2.943681e-04 0.0
-1.736330e-03 3.040717e-04 0.0
-1.971568e-03 3.127372e-04 0.0
-2.211964e-03 3.207563e-04 0.0
-2.456261e-03 3.280333e-04 0.0
-2.703494e-03 3.341836e-04 0.0
-2.952829e-03 3.387631e-04 0.0
-3.203449e-03 3.414410e-04 0.0
-3.454488e-03 3.420804e-04 0.0
-3.705021e-03 3.407400e-04 0.0
-3.954077e-03 3.376300e-04 0.0
-4.200668e-03 3.330514e-04 0.0
-4.443817e-03 3.273344e-04 0.0
-4.682591e-03 3.207816e-04 0.0
-4.916135e-03 3.136186e-04 0.0
-5.143691e-03 3.059576e-04 0.0
-5.364617e-03 2.977856e-04 0.0
-5.578367e-03 2.889840e-04 0.0
-5.784461e-03 2.793763e-04 0.0
-5.982440e-03 2.687928e-04 0.0
-6.171823e-03 2.571285e-04 0.0
-6.352080e-03 2.443774e-04 0.0
-6.522631e-03 2.306319e-04 0.0
-6.682864e-03 2.160512e-04 0.0
-6.832162e-03 2.008119e-04 0.0
-6.969940e-03 1.850595e-04 0.0
-7.095665e-03 1.688763e-04 0.0
-7.208861e-03 1.522732e-04 0.0
-7.309110e-03 1.352040e-04 0.0
-7.396036e-03 1.175954e-04 0.0
-7.469288e-03 9.937933e-05 0.0
-7.528531e-03 8.052091e-05 0.0
-7.573437e-03 6.103305e-05 0.0
-7.603693e-03 4.097852e-05 0.0
-7.619011e-03 2.046134e-05 0.0
-7.619144e-03 -3.867218e-07 0.0
-7.603905e-03 -2.141760e-05 0.0
-7.573180e-03 -4.249513e-05 0.0
-7.526932e-03 -6.351579e-05 0.0
-7.465193e-03 -8.440334e-05 0.0
-7.388070e-03 -1.051005e-04 0.0
-7.295738e-03 -1.255584e-04 0.0
-7.188435e-03 -1.457263e-04 0.0
-7.066461e-03 -1.655432e-04 0.0
-6.930176e-03 -1.849336e-04 0.0
-6.780000e-03 -2.038065e-04 0.0
-6.616413e-03 -2.220594e-04 0.0
-6.439960e-03 -2.395828e-04 0.0
-6.251251e-03 -2.562671e-04 0.0
-6.050964e-03 -2.720070e-04 0.0
-5.839846e-03 -2.867048e-04 0.0
-5.618711e-03 -3.002719e-04 0.0
-5.388435e-03 -3.126278e-04 0.0
-5.149958e-03 -3.236986e-04 0.0
-4.904277e-03 -3.334150e-04 0.0
-4.652443e-03 -3.417109e-04 0.0
-4.395554e-03 -3.485222e-04 0.0
-4.134755e-03 -3.537877e-04 0.0
-3.871230e-03 -3.574489e-04 0.0
-3.606203e-03 -3.594527e-04 0.0
-3.340926e-03 -3.597518e-04 0.0
-3.076683e-03 -3.583069e-04 0.0
-2.814777e-03 -3.550859e-04 0.0
-2.556529e-03 -3.500635e-04 0.0
-2.303276e-03 -3.432225e-04 0.0
-2.056358e-03 -3.345533e-04 0.0
-1.817119e-03 -3.240551e-04 0.0
-1.586895e-03 -3.117354e-04 0.0
-1.367010e-03 -2.976113e-04 0.0
-1.158765e-03 -2.817100e-04 0.0
-9.634312e-04 -2.640711e-04 0.0
-7.822358e-04 -2.447486e-04 0.0
-6.163498e-04 -2.238145e-04 0.0
-4.668691e-04 -2.013640e-04 0.0
-3.347912e-04 -1.775231e-04 0.0
-2.209826e-04 -1.524596e-04 0.0
-1.261353e-04 -1.263998e-04 0.0
-5.070325e-05 -9.965357e-05 0.0
5.185952e-06 -7.265326e-05 0.0
4.186239e-05 -4.601358e-05 0.0
6.030266e-05 -2.062464e-05 0.0
6.240080e-05 2.205956e-06 0.0
5.134248e-05 2.055243e-05 0.0
3.206051e-05 3.163783e-05 0.0
1.168753e-05 3.171377e-05 0.0
0.000000e+00 1.652569e-05 0.0
0.000000e+00 -1.648422e-05 0.0
0.000000e+00 4.151573e-05 0.0
1.816850e-05 -1.574420e-05 0.0
2.085700e-05 -1.600713e-05 0.0
7.109655e-07 1.258524e-05 0.0
-4.805339e-05 5.727845e-05 0.0
-1.275737e-04 1.125293e-04 0.0
-2.382091e-04 1.749302e-04 0.0
-3.798712e-04 2.416560e-04 0.0
-5.525493e-04 3.096025e-04 0.0
-7.561747e-04 3.754696e-04 0.0
-9.901740e-04 4.363435e-04 0.0
-1.253083e-03 4.903057e-04 0.0
-1.542450e-03 5.367208e-04 0.0
-1.855076e-03 5.760904e-04 0.0
-2.187447e-03 6.095838e-04 0.0
-2.536181e-03 6.384773e-04 0.0
-2.898324e-03 6.637238e-04 0.0
-3.271437e-03 6.857704e-04 0.0
-3.653507e-03 7.046140e-04 0.0
-4.042782e-03 7.199980e-04 0.0
-4.437613e-03 7.316306e-04 0.0
-4.836356e-03 7.393408e-04 0.0
-5.237343e-03 7.431438e-04 0.0
-5.638891e-03 7.432326e-04 0.0
-6.039336e-03 7.399319e-04 0.0
-6.437055e-03 7.336414e-04 0.0
-6.830494e-03 7.247789e-04 0.0
-7.218194e-03 7.137256e-04 0.0
-7.598814e-03 7.007759e-04 0.0
-7.971149e-03 6.861011e-04 0.0
-8.334130e-03 6.697381e-04 0.0
-8.686803e-03 6.516123e-04 0.0
-9.028284e-03 6.315906e-04 0.0
-9.357709e-03 6.095493e-04 0.0
-9.674190e-03 5.854337e-04 0.0
-9.976796e-03 5.592894e-04 0.0
-1.026456e-02 5.312567e-04 0.0
-1.053651e-02 5.015331e-04 0.0
-1.079170e-02 4.703213e-04 0.0
-1.102923e-02 4.377815e-04 0.0
-1.124830e-02 4.040028e-04 0.0
-1.144815e-02 3.690022e-04 0.0
-1.162810e-02 3.327455e-04 0.0
-1.178750e-02 2.951815e-04 0.0
-1.192574e-02 2.562768e-04 0.0
-1.204222e-02 2.160426e-04 0.0
-1.213635e-02 1.745467e-04 0.0
-1.220759e-02 1.319118e-04 0.0
-1.225542e-02 8.830406e-05 0.0
-1.227941e-02 4.391670e-05 0.0
-1.227921e-02 -1.042837e-06 0.0
-1.225458e-02 -4.635860e-05 0.0
-1.220537e-02 -9.183207e-05 0.0
-1.213155e-02 -1.372981e-04 0.0
-1.203322e-02 -1.826108e-04 0.0
-1.191053e-02 -2.276287e-04 0.0
-1.176376e-02 -2.722035e-04 0.0
-1.159328e-02 -3.161713e-04 0.0
-1.139953e-02 -3.593498e-04 0.0
-1.118308e-02 -4.015399e-04 0.0
-1.094458e-02 -4.425303e-04 0.0
-1.068479e-02 -4.821044e-04 0.0
-1.040457e-02 -5.200471e-04 0.0
-1.010490e-02 -5.561495e-04 0.0
-9.786857e-03 -5.902118e-04 0.0
-9.451633e-03 -6.220444e-04 0.0
-9.100518e-03 -6.514669e-04 0.0
-8.734898e-03 -6.783068e-04 0.0
-8.356252e-03 -7.023980e-04 0.0
-7.966147e-03 -7.235801e-04 0.0
-7.566234e-03 -7.416994e-04 0.0
-7.158238e-03 -7.566091e-04 0.0
-6.743955e-03 -7.681722e-04 0.0
-6.325250e-03 -7.762628e-04 0.0
-5.904042e-03 -7.807687e-04 0.0
-5.482303e-03 -7.815931e-04 0.0
-5.062049e-03 -7.786560e-04 0.0
-4.645327e-03 -7.718929e-04 0.0
-4.234213e-03 -7.612543e-04 0.0
-3.830797e-03 -7.467072e-04 0.0
-3.437178e-03 -7.282357e-04 0.0
-3.055451e-03 -7.058421e-04 0.0
-2.687697e-03 -6.795488e-04 0.0
-2.335966e-03 -6.494002e-04 0.0
-2.002269e-03 -6.154657e-04 0.0
-1.688554e-03 -5.778440e-04 0.0
-1.396693e-03 -5.366687e-04 0.0
-1.128449e-03 -4.921164e-04 0.0
-8.854528e-04 -4.444180e-04 0.0
-6.691584e-04 -3.938751e-04 0.0
-4.807924e-04 -3.408829e-04 0.0
-3.212855e-04 -2.859636e-04 0.0
-1.911801e-04 -2.298156e-04 0.0
-9.050629e-05 -1.733836e-04 0.0
-1.861409e-05 -1.179619e-04 0.0
2.604745e-05 -6.534208e-05 0.0
4.621552e-05 -1.801880e-05 0.0
4.616639e-05 2.054507e-05 0.0
3.211405e-05 4.563379e-05 0.0
1.270465e-05 5.106701e-05 0.0
0.000000e+00 2.917422e-05 0.0
0.000000e+00 -2.911792e-05 0.0
0.000000e+00 4.016085e-05 0.0
1.306151e-05 -1.364890e-05 0.0
-7.407873e-06 -3.684258e-06 0.0
-5.734759e-05 4.951248e-05 0.0
-1.414985e-04 1.299447e-04 0.0
-2.626066e-04 2.283194e-04 0.0
-4.226733e-04 3.372082e-04 0.0
-6.233399e-04 4.501867e-04 0.0
-8.656403e-04 5.616251e-04 0.0
-1.149500e-03 6.670420e-04 0.0
-1.473387e-03 7.635158e-04 0.0
-1.834342e-03 8.498015e-04 0.0
-2.228395e-03 9.260428e-04 0.0
-2.651177e-03 9.931978e-04 0.0
-3.098489e-03 1.052414e-03 0.0
-3.566642e-03 1.104573e-03 0.0
-4.052528e-03 1.150102e-03 0.0
-4.553483e-03 1.189042e-03 0.0
-5.067068e-03 1.221243e-03 0.0
-5.590898e-03 1.246569e-03 0.0
-6.122550e-03 1.265037e-03 0.0
-6.659562e-03 1.276858e-03 0.0
-7.199480e-03 1.282414e-03 0.0
-7.739911e-03 1.282196e-03 0.0
-8.278562e-03 1.276751e-03 0.0
-8.813269e-03 1.266627e-03 0.0
-9.342015e-03 1.252320e-03 0.0
-9.862949e-03 1.234226e-03 0.0
-1.037440e-02 1.212604e-03 0.0
-1.087486e-02 1.187570e-03 0.0
-1.136297e-02 1.159124e-03 0.0
-1.183743e-02 1.127206e-03 0.0
-1.229696e-02 1.091770e-03 0.0
-1.274028e-02 1.052842e-03 0.0
-1.316604e-02 1.010547e-03 0.0
-1.357290e-02 9.650951e-04 0.0
-1.395951e-02 9.167409e-04 0.0
-1.432458e-02 8.657254e-04 0.0
-1.466693e-02 8.122310e-04 0.0
-1.498546e-02 7.563598e-04 0.0
-1.527915e-02 6.981402e-04 0.0
-1.554706e-02 6.375564e-04 0.0
-1.578830e-02 5.745877e-04 0.0
-1.600197e-02 5.092455e-04 0.0
-1.618721e-02 4.415974e-04 0.0
-1.634319e-02 3.717760e-04 0.0
-1.646909e-02 2.999728e-04 0.0
-1.656419e-02 2.264228e-04 0.0
-1.662783e-02 1.513870e-04 0.0
-1.665947e-02 7.513872e-05 0.0
-1.665869e-02 -2.041344e-06 0.0
-1.662521e-02 -7.985976e-05 0.0
-1.655890e-02 -1.580308e-04 0.0
-1.645972e-02 -2.362882e-04 0.0
-1.632778e-02 -3.143666e-04 0.0
-1.616332e-02 -3.919887e-04 0.0
-1.596667e-02 -4.688564e-04 0.0
-1.573832e-02 -5.446499e-04 0.0
-1.547885e-02 -6.190304e-04 0.0
-1.518901e-02 -6.916472e-04 0.0
-1.486967e-02 -7.621451e-04 0.0
-1.452185e-02 -8.301712e-04 0.0
-1.414671e-02 -8.953799e-04 0.0
-1.374556e-02 -9.574346e-04 0.0
-1.331985e-02 -1.016009e-03 0.0
-1.287116e-02 -1.070786e-03 0.0
-1.240122e-02 -1.121456e-03 0.0
-1.191186e-02 -1.167717e-03 0.0
-1.140505e-02 -1.209278e-03 0.0
-1.088286e-02 -1.245855e-03 0.0
-1.034748e-02 -1.277181e-03 0.0
-9.801202e-03 -1.303002e-03 0.0
-9.246405e-03 -1.323085e-03 0.0
-8.685560e-03 -1.337219e-03 0.0
-8.121213e-03 -1.345218e-03 0.0
-7.555976e-03 -1.346921e-03 0.0
-6.992516e-03 -1.342196e-03 0.0
-6.433545e-03 -1.330936e-03 0.0
-5.881802e-03 -1.313062e-03 0.0
-5.340049e-03 -1.288523e-03 0.0
-4.811047e-03 -1.257297e-03 0.0
-4.297552e-03 -1.219398e-03 0.0
-3.802288e-03 -1.174873e-03 0.0
-3.327939e-03 -1.123811e-03 0.0
-2.877117e-03 -1.066349e-03 0.0
-2.452347e-03 -1.002675e-03 0.0
-2.056034e-03 -9.330430e-04 0.0
-1.690427e-03 -8.577831e-04 0.0
-1.357581e-03 -7.773232e-04 0.0
-1.059300e-03 -6.922141e-04 0.0
-7.970740e-04 -6.031670e-04 0.0
-5.719902e-04 -5.111045e-04 0.0
-3.846291e-04 -4.172333e-04 0.0
-2.349255e-04 -3.231438e-04 0.0
-1.219946e-04 -2.309488e-04 0.0
-4.392043e-05 -1.434718e-04 0.0
2.499662e-06 -6.449538e-05 0.0
2.205629e-05 9.322933e-07 0.0
2.147727e-05 4.615673e-05 0.0
9.930169e-06 6.255815e-05 0.0
0.000000e+00 3.904844e-05 0.0
0.000000e+00 -3.897180e-05 0.0
0.000000e+00 2.525378e-05 0.0
2.406267e-07 -8.566841e-06 0.0
-4.471576e-05 2.751338e-05 0.0
-1.260989e-04 1.188130e-04 0.0
-2.481078e-04 2.465664e-04 0.0
-4.143320e-04 3.972966e-04 0.0
-6.280584e-04 5.597444e-04 0.0
-8.917767e-04 7.246157e-04 0.0
-1.206484e-03 8.847435e-04 0.0
-1.571224e-03 1.035314e-03 0.0
-1.983124e-03 1.173802e-03 0.0
-2.437907e-03 1.299506e-03 0.0
-2.930664e-03 1.412829e-03 0.0
-3.456562e-03 1.514547e-03 0.0
-4.011288e-03 1.605289e-03 0.0
-4.591149e-03 1.685328e-03 0.0
-5.192916e-03 1.754645e-03 0.0
-5.813572e-03 1.813120e-03 0.0
-6.450105e-03 1.860729e-03 0.0
-7.099410e-03 1.897660e-03 0.0
-7.758302e-03 1.924327e-03 0.0
-8.423594e-03 1.941322e-03 0.0
-9.092174e-03 1.949344e-03 0.0
-9.761064e-03 1.949130e-03 0.0
-1.042746e-02 1.941399e-03 0.0
-1.108877e-02 1.926800e-03 0.0
-1.174260e-02 1.905868e-03 0.0
-1.238678e-02 1.878988e-03 0.0
-1.301937e-02 1.846386e-03 0.0
-1.363856e-02 1.808167e-03 0.0
-1.424265e-02 1.764378e-03 0.0
-1.482995e-02 1.715081e-03 0.0
-1.539877e-02 1.660414e-03 0.0
-1.594736e-02 1.600611e-03 0.0
-1.647399e-02 1.535981e-03 0.0
-1.697694e-02 1.466855e-03 0.0
-1.745458e-02 1.393533e-03 0.0
-1.790541e-02 1.316233e-03 0.0
-1.832805e-02 1.235082e-03 0.0
-1.872123e-02 1.150128e-03 0.0
-1.908373e-02 1.061381e-03 0.0
-1.941441e-02 9.688605e-04 0.0
-1.971211e-02 8.726288e-04 0.0
-1.997571e-02 7.728175e-04 0.0
-2.020410e-02 6.696302e-04 0.0
-2.039624e-02 5.633316e-04 0.0
-2.055114e-02 4.542287e-04 0.0
-2.066793e-02 3.426522e-04 0.0
-2.074585e-02 2.289435e-04 0.0
-2.078430e-02 1.134520e-04 0.0
-2.078282e-02 -3.457154e-06 0.0
-2.074110e-02 -1.213866e-04 0.0
-2.065897e-02 -2.399240e-04 0.0
-2.053642e-02 -3.586543e-04 0.0
-2.037357e-02 -4.771444e-04 0.0
-2.017068e-02 -5.949366e-04 0.0
-1.992817e-02 -7.115478e-04 0.0
-1.964662e-02 -8.264746e-04 0.0
-1.932675e-02 -9.392013e-04 0.0
-1.896947e-02 -1.049208e-03 0.0
-1.857587e-02 -1.155977e-03 0.0
-1.814721e-02 -1.258997e-03 0.0
-1.768493e-02 -1.357764e-03 0.0
-1.719064e-02 -1.451784e-03 0.0
-1.666612e-02 -1.540567e-03 0.0
-1.611331e-02 -1.623633e-03 0.0
-1.553431e-02 -1.700509e-03 0.0
-1.493137e-02 -1.770733e-03 0.0
-1.430689e-02 -1.833859e-03 0.0
-1.366340e-02 -1.889457e-03 0.0
-1.300358e-02 -1.937124e-03 0.0
-1.233022e-02 -1.976482e-03 0.0
-1.164623e-02 -2.007185e-03 0.0
-1.095463e-02 -2.028921e-03 0.0
-1.025852e-02 -2.041414e-03 0.0
-9.561090e-03 -2.044429e-03 0.0
-8.865585e-03 -2.037769e-03 0.0
-8.175304e-03 -2.021280e-03 0.0
-7.493580e-03 -1.994848e-03 0.0
-6.823761e-03 -1.958403e-03 0.0
-6.169196e-03 -1.911924e-03 0.0
-5.533217e-03 -1.855441e-03 0.0
-4.919111e-03 -1.789043e-03 0.0
-4.330104e-03 -1.712883e-03 0.0
-3.769329e-03 -1.627189e-03 0.0
-3.239797e-03 -1.532271e-03 0.0
-2.744359e-03 -1.428543e-03 0.0
-2.285668e-03 -1.316535e-03 0.0
-1.866120e-03 -1.196930e-03 0.0
-1.487801e-03 -1.070591e-03 0.0
-1.152405e-03 -9.386207e-04 0.0
-8.611445e-04 -8.024220e-04 0.0
-6.146389e-04 -6.637953e-04 0.0
-4.127788e-04 -5.250597e-04 0.0
-2.545655e-04 -3.892173e-04 0.0
-1.379240e-04 -2.601681e-04 0.0
-5.949140e-05 -1.429838e-04 0.0
-1.437196e-05 -4.424268e-05 0.0
4.146461e-06 2.758285e-05 0.0
4.997617e-06 6.165157e-05 0.0
0.000000e+00 4.399061e-05 0.0
0.000000e+00 -4.388919e-05 0.0
0.000000e+00 -4.592597e-07 0.0
-1.655192e-05 2.185420e-06 0.0
-8.448806e-05 8.203595e-05 0.0
-1.973359e-04 2.251905e-04 0.0
-3.591171e-04 4.105889e-04 0.0
-5.739458e-04 6.210287e-04 0.0
-8.454302e-04 8.424195e-04 0.0
-1.175679e-03 1.063815e-03 0.0
-1.564611e-03 1.277536e-03 0.0
-2.009861e-03 1.478959e-03 0.0
-2.507276e-03 1.665894e-03 0.0
-3.051765e-03 1.837695e-03 0.0
-3.638121e-03 1.994398e-03 0.0
-4.261575e-03 2.136103e-03 0.0
-4.917957e-03 2.262714e-03 0.0
-5.603567e-03 2.373982e-03 0.0
-6.314902e-03 2.469683e-03 0.0
-7.048429e-03 2.549807e-03 0.0
-7.800468e-03 2.614644e-03 0.0
-8.567212e-03 2.664776e-03 0.0
-9.344813e-03 2.700996e-03 0.0
-1.012949e-02 2.724217e-03 0.0
-1.091759e-02 2.735390e-03 0.0
-1.170570e-02 2.735439e-03 0.0
-1.249060e-02 2.725204e-03 0.0
-1.326936e-02 2.705391e-03 0.0
-1.403930e-02 2.676545e-03 0.0
-1.479801e-02 2.639038e-03 0.0
-1.554322e-02 2.593117e-03 0.0
-1.627283e-02 2.538966e-03 0.0
-1.698473e-02 2.476790e-03 0.0
-1.767681e-02 2.406870e-03 0.0
-1.834694e-02 2.329579e-03 0.0
-1.899298e-02 2.245352e-03 0.0
-1.961284e-02 2.154626e-03 0.0
-2.020458e-02 2.057779e-03 0.0
-2.076635e-02 1.955087e-03 0.0
-2.129649e-02 1.846717e-03 0.0
-2.179345e-02 1.732753e-03 0.0
-2.225576e-02 1.613242e-03 0.0
-2.268200e-02 1.488252e-03 0.0
-2.307076e-02 1.357904e-03 0.0
-2.342066e-02 1.222400e-03 0.0
-2.373033e-02 1.082018e-03 0.0
-2.399846e-02 9.370982e-04 0.0
-2.422382e-02 7.880192e-04 0.0
-2.440531e-02 6.351809e-04 0.0
-2.454196e-02 4.789917e-04 0.0
-2.463294e-02 3.198698e-04 0.0
-2.467760e-02 1.582546e-04 0.0
-2.467543e-02 -5.374280e-06 0.0
-2.462608e-02 -1.704746e-04 0.0
-2.452937e-02 -3.364617e-04 0.0
-2.438527e-02 -5.027272e-04 0.0
-2.419389e-02 -6.686334e-04 0.0
-2.395555e-02 -8.335143e-04 0.0
-2.367072e-02 -9.966820e-04 0.0
-2.334008e-02 -1.157436e-03 0.0
-2.296449e-02 -1.315071e-03 0.0
-2.254503e-02 -1.468881e-03 0.0
-2.208297e-02 -1.618167e-03 0.0
-2.157981e-02 -1.762230e-03 0.0
-2.103724e-02 -1.900379e-03 0.0
-2.045712e-02 -2.031923e-03 0.0
-1.984155e-02 -2.156179e-03 0.0
-1.919277e-02 -2.272469e-03 0.0
-1.851324e-02 -2.380129e-03 0.0
-1.780557e-02 -2.478513e-03 0.0
-1.707256e-02 -2.566996e-03 0.0
-1.631716e-02 -2.644987e-03 0.0
-1.554248e-02 -2.711927e-03 0.0
-1.475177e-02 -2.767297e-03 0.0
-1.394842e-02 -2.810624e-03 0.0
-1.313595e-02 -2.841480e-03 0.0
-1.231794e-02 -2.859488e-03 0.0
-1.149811e-02 -2.864324e-03 0.0
-1.068022e-02 -2.855721e-03 0.0
-9.868096e-03 -2.833469e-03 0.0
-9.065589e-03 -2.797420e-03 0.0
-8.276574e-03 -2.747486e-03 0.0
-7.504915e-03 -2.683651e-03 0.0
-6.754450e-03 -2.605975e-03 0.0
-6.028959e-03 -2.514602e-03 0.0
-5.332139e-03 -2.409770e-03 0.0
-4.667572e-03 -2.291822e-03 0.0
-4.038686e-03 -2.161222e-03 0.0
-3.448712e-03 -2.018578e-03 0.0
-2.900641e-03 -1.864667e-03 0.0
-2.397160e-03 -1.700470e-03 0.0
-1.940590e-03 -1.527219e-03 0.0
-1.532805e-03 -1.346462e-03 0.0
-1.175141e-03 -1.160142e-03 0.0
-8.682866e-04 -9.707048e-04 0.0
-6.121607e-04 -7.812402e-04 0.0
-4.057722e-04 -5.956598e-04 0.0
-2.470667e-04 -4.189272e-04 0.0
-1.327619e-04 -2.573436e-04 0.0
-5.816345e-05 -1.188957e-04 0.0
-1.696965e-05 -1.366552e-05 0.0
-1.022950e-06 4.565029e-05 0.0
0.000000e+00 4.291302e-05 0.0
0.000000e+00 -4.278329e-05 0.0
0.000000e+00 -3.366684e-05 0.0
-3.324419e-05 2.179649e-05 0.0
-1.220187e-04 1.626646e-04 0.0
-2.663875e-04 3.704553e-04 0.0
-4.700493e-04 6.223761e-04 0.0
-7.367714e-04 8.987111e-04 0.0
-1.069241e-03 1.183945e-03 0.0
-1.468078e-03 1.466683e-03 0.0
-1.931506e-03 1.739401e-03 0.0
-2.455733e-03 1.997709e-03 0.0
-3.035759e-03 2.239330e-03 0.0
-3.666255e-03 2.463092e-03 0.0
-4.342186e-03 2.668201e-03 0.0
-5.059041e-03 2.853904e-03 0.0
-5.812742e-03 3.019484e-03 0.0
-6.599388e-03 3.164426e-03 0.0
-7.415012e-03 3.288572e-03 0.0
-8.255460e-03 3.392199e-03 0.0
-9.116404e-03 3.475968e-03 0.0
-9.993430e-03 3.540822e-03 0.0
-1.088216e-02 3.587864e-03 0.0
-1.177833e-02 3.618255e-03 0.0
-1.267791e-02 3.633136e-03 0.0
-1.357711e-02 3.633559e-03 0.0
-1.447244e-02 3.620433e-03 0.0
-1.536070e-02 3.594490e-03 0.0
-1.623899e-02 3.556283e-03 0.0
-1.710460e-02 3.506232e-03 0.0
-1.795498e-02 3.444693e-03 0.0
-1.878761e-02 3.372047e-03 0.0
-1.959996e-02 3.288751e-03 0.0
-2.038950e-02 3.195346e-03 0.0
-2.115370e-02 3.092423e-03 0.0
-2.189013e-02 2.980553e-03 0.0
-2.259646e-02 2.860218e-03 0.0
-2.327057e-02 2.731777e-03 0.0
-2.391048e-02 2.595457e-03 0.0
-2.451436e-02 2.451398e-03 0.0
-2.508047e-02 2.299703e-03 0.0
-2.560712e-02 2.140498e-03 0.0
-2.609264e-02 1.973974e-03 0.0
-2.653537e-02 1.800410e-03 0.0
-2.693369e-02 1.620159e-03 0.0
-2.728602e-02 1.433639e-03 0.0
-2.759090e-02 1.241300e-03 0.0
-2.784698e-02 1.043607e-03 0.0
-2.805307e-02 8.410322e-04 0.0
-2.820811e-02 6.340609e-04 0.0
-2.831123e-02 4.232053e-04 0.0
-2.836172e-02 2.090285e-04 0.0
-2.835900e-02 -7.831972e-06 0.0
-2.830269e-02 -2.266445e-04 0.0
-2.819256e-02 -4.466125e-04 0.0
-2.802855e-02 -6.669047e-04 0.0
-2.781081e-02 -8.866583e-04 0.0
-2.753967e-02 -1.104988e-03 0.0
-2.721568e-02 -1.320992e-03 0.0
-2.683961e-02 -1.533765e-03 0.0
-2.641246e-02 -1.742397e-03 0.0
-2.593547e-02 -1.945977e-03 0.0
-2.541009e-02 -2.143592e-03 0.0
-2.483801e-02 -2.334330e-03 0.0
-2.422114e-02 -2.517273e-03 0.0
-2.356160e-02 -2.691506e-03 0.0
-2.286173e-02 -2.856119e-03 0.0
-2.212409e-02 -3.010215e-03 0.0
-2.135142e-02 -3.152913e-03 0.0
-2.054671e-02 -3.283365e-03 0.0
-1.971308e-02 -3.400752e-03 0.0
-1.885388e-02 -3.504301e-03 0.0
-1.797263e-02 -3.593285e-03 0.0
-1.707298e-02 -3.667029e-03 0.0
-1.615877e-02 -3.724915e-03 0.0
-1.523393e-02 -3.766387e-03 0.0
-1.430253e-02 -3.790952e-03 0.0
-1.336873e-02 -3.798191e-03 0.0
-1.243675e-02 -3.787758e-03 0.0
-1.151090e-02 -3.759387e-03 0.0
-1.059550e-02 -3.712891e-03 0.0
-9.694890e-03 -3.648172e-03 0.0
-8.813387e-03 -3.565227e-03 0.0
-7.955279e-03 -3.464155e-03 0.0
-7.124781e-03 -3.345170e-03 0.0
-6.326005e-03 -3.208614e-03 0.0
-5.562924e-03 -3.054969e-03 0.0
-4.839327e-03 -2.884881e-03 0.0
-4.158780e-03 -2.699186e-03 0.0
-3.524567e-03 -2.498940e-03 0.0
-2.939631e-03 -2.285463e-03 0.0
-2.406509e-03 -2.060397e-03 0.0
-1.927250e-03 -1.825776e-03 0.0
-1.503329e-03 -1.584116e-03 0.0
-1.135550e-03 -1.338538e-03 0.0
-8.239345e-04 -1.092909e-03 0.0
-5.676109e-04 -8.520359e-04 0.0
-3.646947e-04 -6.218955e-04 0.0
-2.121718e-04 -4.099204e-04 0.0
-1.057782e-04 -2.253429e-04 0.0
-3.990017e-05 -7.959708e-05 0.0
-7.483523e-06 1.318007e-05 0.0
0.000000e+00 3.537586e-05 0.0
0.000000e+00 -3.521538e-05 0.0
0.000000e+00 -7.203383e-05 0.0
-4.667238e-05 5.288117e-05 0.0
-1.549869e-04 2.702600e-04 0.0
-3.316672e-04 5.540039e-04 0.0
-5.794047e-04 8.803120e-04 0.0
-9.004933e-04 1.228524e-03 0.0
-1.295623e-03 1.583024e-03 0.0
-1.763296e-03 1.932762e-03 0.0
-2.299998e-03 2.270521e-03 0.0
-2.900898e-03 2.591808e-03 0.0
-3.560687e-03 2.893740e-03 0.0
-4.274214e-03 3.174207e-03 0.0
-5.036755e-03 3.431452e-03 0.0
-5.843952e-03 3.664004e-03 0.0
-6.691574e-03 3.870809e-03 0.0
-7.575293e-03 4.051365e-03 0.0
-8.490559e-03 4.205760e-03 0.0
-9.432607e-03 4.334607e-03 0.0
-1.039655e-02 4.438900e-03 0.0
-1.137749e-02 4.519865e-03 0.0
-1.237064e-02 4.578836e-03 0.0
-1.337140e-02 4.617156e-03 0.0
-1.437543e-02 4.636091e-03 0.0
-1.537869e-02 4.636768e-03 0.0
-1.637748e-02 4.620127e-03 0.0
-1.736841e-02 4.586929e-03 0.0
-1.834832e-02 4.537793e-03 0.0
-1.931420e-02 4.473282e-03 0.0
-2.026311e-02 4.393982e-03 0.0
-2.119211e-02 4.300557e-03 0.0
-2.209825e-02 4.193748e-03 0.0
-2.297863e-02 4.074332e-03 0.0
-2.383044e-02 3.943039e-03 0.0
-2.465103e-02 3.800487e-03 0.0
-2.543795e-02 3.647142e-03 0.0
-2.618892e-02 3.483322e-03 0.0
-2.690184e-02 3.309242e-03 0.0
-2.757468e-02 3.125082e-03 0.0
-2.820548e-02 2.931045e-03 0.0
-2.879227e-02 2.727405e-03 0.0
-2.933315e-02 2.514524e-03 0.0
-2.982621e-02 2.292839e-03 0.0
-3.026964e-02 2.062841e-03 0.0
-3.066171e-02 1.825052e-03 0.0
-3.100084e-02 1.579999e-03 0.0
-3.128559e-02 1.328216e-03 0.0
-3.151469e-02 1.070248e-03 0.0
-3.168704e-02 8.066785e-04 0.0
-3.180167e-02 5.381510e-04 0.0
-3.185780e-02 2.653975e-04 0.0
-3.185480e-02 -1.074305e-05 0.0
-3.179221e-02 -2.893155e-04 0.0
-3.166977e-02 -5.692883e-04 0.0
-3.148740e-02 -8.495952e-04 0.0
-3.124525e-02 -1.129144e-03 0.0
-3.094372e-02 -1.406826e-03 0.0
-3.058341e-02 -1.681522e-03 0.0
-3.016521e-02 -1.952104e-03 0.0
-2.969024e-02 -2.217438e-03 0.0
-2.915986e-02 -2.476379e-03 0.0
-2.857569e-02 -2.727771e-03 0.0
-2.793960e-02 -2.970449e-03 0.0
-2.725368e-02 -3.203244e-03 0.0
-2.652029e-02 -3.424988e-03 0.0
-2.574201e-02 -3.634522e-03 0.0
-2.492165e-02 -3.830708e-03 0.0
-2.406226e-02 -4.012436e-03 0.0
-2.316712e-02 -4.178635e-03 0.0
-2.223970e-02 -4.328279e-03 0.0
-2.128370e-02 -4.460398e-03 0.0
-2.030299e-02 -4.574077e-03 0.0
-1.930162e-02 -4.668471e-03 0.0
-1.828380e-02 -4.742802e-03 0.0
-1.725388e-02 -4.796372e-03 0.0
-1.621633e-02 -4.828566e-03 0.0
-1.517573e-02 -4.838858e-03 0.0
-1.413675e-02 -4.826821e-03 0.0
-1.310408e-02 -4.792129e-03 0.0