# vtk DataFile Version 3.0
Vector Field
ASCII
DATASET RECTILINEAR_GRID
DIMENSIONS 102 102 1
X_COORDINATES 102 double
0.000000 0.100000 0.200000 0.300000 0.400000 0.500000 0.600000 0.700000 0.800000 0.900000 1.000000 1.100000 1.200000 1.300000 1.400000 1.500000 1.600000 1.700000 1.800000 1.900000 2.000000 2.100000 2.200000 2.300000 2.400000 2.500000 2.600000 2.700000 2.800000 2.900000 3.000000 3.100000 3.200000 3.300000 3.400000 3.500000 3.600000 3.700000 3.800000 3.900000 4.000000 4.100000 4.200000 4.300000 4.400000 4.500000 4.600000 4.700000 4.800000 4.900000 5.000000 5.100000 5.200000 5.300000 5.400000 5.500000 5.600000 5.700000 5.800000 5.900000 6.000000 6.100000 6.200000 6.300000 6.400000 6.500000 6.600000 6.700000 6.800000 6.900000 7.000000 7.100000 7.200000 7.300000 7.400000 7.500000 7.600000 7.700000 7.800000 7.900000 8.000000 8.100000 8.200000 8.300000 8.400000 8.500000 8.600000 8.700000 8.800000 8.900000 9.000000 9.100000 9.200000 9.300000 9.400000 9.500000 9.600000 9.700000 9.800000 9.900000 10.000000 10.100000 
Y_COORDINATES 102 double
0.000000 0.100000 0.200000 0.300000 0.400000 0.500000 0.600000 0.700000 0.800000 0.900000 1.000000 1.100000 1.200000 1.300000 1.400000 1.500000 1.600000 1.700000 1.800000 1.900000 2.000000 2.100000 2.200000 2.300000 2.400000 2.500000 2.600000 2.700000 2.800000 2.900000 3.000000 3.100000 3.200000 3.300000 3.400000 3.500000 3.600000 3.700000 3.800000 3.900000 4.000000 4.100000 4.200000 4.300000 4.400000 4.500000 4.600000 4.700000 4.800000 4.900000 5.000000 5.100000 5.200000 5.300000 5.400000 5.500000 5.600000 5.700000 5.800000 5.900000 6.000000 6.100000 6.200000 6.300000 6.400000 6.500000 6.600000 6.700000 6.800000 6.900000 7.000000 7.100000 7.200000 7.300000 7.400000 7.500000 7.600000 7.700000 7.800000 7.900000 8.000000 8.100000 8.200000 8.300000 8.400000 8.500000 8.600000 8.700000 8.800000 8.900000 9.000000 9.100000 9.200000 9.300000 9.400000 9.500000 9.600000 9.700000 9.800000 9.900000 10.000000 10.100000 
Z_COORDINATES 1 double
0.0
POINT_DATA 10404
VECTORS Velocity double
0.000000e+00 0.000000e+00 0.0
8.797648e-06 0.000000e+00 0.0
-7.926552e-06 0.000000e+00 0.0
-3.156199e-05 0.000000e+00 0.0
-5.041523e-05 0.000000e+00 0.0
-5.677078e-05 0.000000e+00 0.0
-4.641513e-05 0.000000e+00 0.0
-1.800497e-05 0.000000e+00 0.0
2.774019e-05 0.000000e+00 0.0
8.882839e-05 0.000000e+00 0.0
1.626605e-04 0.000000e+00 0.0
2.465789e-04 0.000000e+00 0.0
3.383213e-04 0.000000e+00 0.0
4.363358e-04 0.000000e+00 0.0
5.398748e-04 0.000000e+00 0.0
6.488240e-04 0.000000e+00 0.0
7.633314e-04 0.000000e+00 0.0
8.833886e-04 0.000000e+00 0.0
1.008538e-03 0.000000e+00 0.0
1.137811e-03 0.000000e+00 0.0
1.269888e-03 0.000000e+00 0.0
1.403382e-03 0.000000e+00 0.0
1.537108e-03 0.000000e+00 0.0
1.670228e-03 0.000000e+00 0.0
1.802243e-03 0.000000e+00 0.0
1.932872e-03 0.000000e+00 0.0
2.061884e-03 0.000000e+00 0.0
2.188974e-03 0.000000e+00 0.0
2.313716e-03 0.000000e+00 0.0
2.435592e-03 0.000000e+00 0.0
2.554060e-03 0.000000e+00 0.0
2.668615e-03 0.000000e+00 0.0
2.778819e-03 0.000000e+00 0.0
2.884284e-03 0.000000e+00 0.0
2.984633e-03 0.000000e+00 0.0
3.079463e-03 0.000000e+00 0.0
3.168331e-03 0.000000e+00 0.0
3.250766e-03 0.000000e+00 0.0
3.326302e-03 0.000000e+00 0.0
3.394509e-03 0.000000e+00 0.0
3.455019e-03 0.000000e+00 0.0
3.507521e-03 0.000000e+00 0.0
3.551746e-03 0.000000e+00 0.0
3.587450e-03 0.000000e+00 0.0
3.614385e-03 0.000000e+00 0.0
3.632304e-03 0.000000e+00 0.0
3.640967e-03 0.000000e+00 0.0
3.640162e-03 0.000000e+00 0.0
3.629754e-03 0.000000e+00 0.0
3.609687e-03 0.000000e+00 0.0
3.579985e-03 0.000000e+00 0.0
3.540746e-03 0.000000e+00 0.0
3.492132e-03 0.000000e+00 0.0
3.434360e-03 0.000000e+00 0.0
3.367693e-03 0.000000e+00 0.0
3.292438e-03 0.000000e+00 0.0
3.208940e-03 0.000000e+00 0.0
3.117586e-03 0.000000e+00 0.0
3.018808e-03 0.000000e+00 0.0
2.913079e-03 0.000000e+00 0.0
2.800924e-03 0.000000e+00 0.0
2.682907e-03 0.000000e+00 0.0
2.559636e-03 0.000000e+00 0.0
2.431757e-03 0.000000e+00 0.0
2.299945e-03 0.000000e+00 0.0
2.164905e-03 0.000000e+00 0.0
2.027364e-03 0.000000e+00 0.0
1.888066e-03 0.000000e+00 0.0
1.747768e-03 0.000000e+00 0.0
1.607238e-03 0.000000e+00 0.0
1.467245e-03 0.000000e+00 0.0
1.328555e-03 0.000000e+00 0.0
1.191930e-03 0.000000e+00 0.0
1.058124e-03 0.000000e+00 0.0
9.278728e-04 0.000000e+00 0.0
8.018964e-04 0.000000e+00 0.0
6.808895e-04 0.000000e+00 0.0
5.655190e-04 0.000000e+00 0.0
4.564187e-04 0.000000e+00 0.0
3.541848e-04 0.000000e+00 0.0
2.593715e-04 0.000000e+00 0.0
1.724852e-04 0.000000e+00 0.0
9.398012e-05 0.000000e+00 0.0
2.425203e-05 0.000000e+00 0.0
-3.636782e-05 0.000000e+00 0.0
-8.761987e-05 0.000000e+00 0.0
-1.293258e-04 0.000000e+00 0.0
-1.613985e-04 0.000000e+00 0.0
-1.838545e-04 0.000000e+00 0.0
-1.968312e-04 0.000000e+00 0.0
-2.006084e-04 0.000000e+00 0.0
-1.956373e-04 0.000000e+00 0.0
-1.825792e-04 0.000000e+00 0.0
-1.623605e-04 0.000000e+00 0.0
-1.362495e-04 0.000000e+00 0.0
-1.059660e-04 0.000000e+00 0.0
-7.383490e-05 0.000000e+00 0.0
-4.298043e-05 0.000000e+00 0.0
-1.748505e-05 0.000000e+00 0.0
-2.116113e-06 0.000000e+00 0.0
-0.000000e+00 0.000000e+00 0.0
0.000000e+00 0.000000e+00 0.0
0.000000e+00 2.979389e-05 0.0
3.833470e-06 -1.785890e-05 0.0
3.752182e-05 -1.484765e-05 0.0
6.345877e-05 -4.689028e-06 0.0
7.408549e-05 4.987197e-06 0.0
6.700828e-05 1.272360e-05 0.0
4.313371e-05 1.903463e-05 0.0
4.853840e-06 2.554551e-05 0.0
-4.514788e-05 3.389200e-05 0.0
-1.046895e-04 4.501847e-05 0.0
-1.725449e-04 5.880839e-05 0.0
-2.485147e-04 7.409544e-05 0.0
-3.331058e-04 8.906489e-05 0.0
-4.269479e-04 1.019043e-04 0.0
-5.301968e-04 1.114348e-04 0.0
-6.421804e-04 1.174574e-04 0.0
-7.614176e-04 1.206867e-04 0.0
-8.859609e-04 1.223441e-04 0.0
-1.013878e-03 1.236232e-04 0.0
-1.143654e-03 1.252692e-04 0.0
-1.274359e-03 1.274232e-04 0.0
-1.405574e-03 1.297427e-04 0.0
-1.537143e-03 1.316851e-04 0.0
-1.668907e-03 1.327976e-04 0.0
-1.800532e-03 1.328856e-04 0.0
-1.931476e-03 1.320185e-04 0.0
-2.061071e-03 1.304114e-04 0.0
-2.188656e-03 1.282715e-04 0.0
-2.313663e-03 1.256954e-04 0.0
-2.435645e-03 1.226563e-04 0.0
-2.554222e-03 1.190680e-04 0.0
-2.669015e-03 1.148742e-04 0.0
-2.779582e-03 1.101078e-04 0.0
-2.885412e-03 1.048924e-04 0.0
-2.985962e-03 9.938853e-05 0.0
-3.080714e-03 9.372077e-05 0.0
-3.169220e-03 8.792229e-05 0.0
-3.251127e-03 8.192376e-05 0.0
-3.326149e-03 7.558757e-05 0.0
-3.394027e-03 6.876820e-05 0.0
-3.454486e-03 6.137058e-05 0.0
-3.507203e-03 5.338334e-05 0.0
-3.551813e-03 4.487772e-05 0.0
-3.587930e-03 3.597829e-05 0.0
-3.615179e-03 2.682144e-05 0.0
-3.633238e-03 1.751934e-05 0.0
-3.641858e-03 8.141868e-06 0.0
-3.640878e-03 -1.278589e-06 0.0
-3.630238e-03 -1.072008e-05 0.0
-3.609963e-03 -2.017167e-05 0.0
-3.580128e-03 -2.962403e-05 0.0
-3.540847e-03 -3.904939e-05 0.0
-3.492269e-03 -4.839684e-05 0.0
-3.434578e-03 -5.759760e-05 0.0
-3.368001e-03 -6.657503e-05 0.0
-3.292813e-03 -7.525448e-05 0.0
-3.209347e-03 -8.357004e-05 0.0
-3.117986e-03 -9.146708e-05 0.0
-3.019172e-03 -9.890112e-05 0.0
-2.913395e-03 -1.058346e-04 0.0
-2.801188e-03 -1.122334e-04 0.0
-2.683127e-03 -1.180640e-04 0.0
-2.559824e-03 -1.232929e-04 0.0
-2.431923e-03 -1.278862e-04 0.0
-2.300097e-03 -1.318114e-04 0.0
-2.165046e-03 -1.350387e-04 0.0
-2.027494e-03 -1.375427e-04 0.0
-1.888183e-03 -1.393029e-04 0.0
-1.747872e-03 -1.403044e-04 0.0
-1.607327e-03 -1.405385e-04 0.0
-1.467317e-03 -1.400024e-04 0.0
-1.328612e-03 -1.386982e-04 0.0
-1.191973e-03 -1.366316e-04 0.0
-1.058152e-03 -1.338126e-04 0.0
-9.278883e-04 -1.302554e-04 0.0
-8.018993e-04 -1.259788e-04 0.0
-6.808801e-04 -1.210062e-04 0.0
-5.654978e-04 -1.153659e-04 0.0
-4.563864e-04 -1.090911e-04 0.0
-3.541427e-04 -1.022195e-04 0.0
-2.593209e-04 -9.479386e-05 0.0
-1.724279e-04 -8.686185e-05 0.0
-9.391812e-05 -7.847629e-05 0.0
-2.418724e-05 -6.969561e-05 0.0
3.643365e-05 -6.058436e-05 0.0
8.768519e-05 -5.121411e-05 0.0
1.293893e-04 -4.166596e-05 0.0
1.614589e-04 -3.203077e-05 0.0
1.839109e-04 -2.241240e-05 0.0
1.968826e-04 -1.293145e-05 0.0
2.006541e-04 -3.730430e-06 0.0
1.956766e-04 5.019403e-06 0.0
1.826116e-04 1.310759e-05 0.0
1.623855e-04 2.026907e-05 0.0
1.362668e-04 2.616182e-05 0.0
1.059758e-04 3.033400e-05 0.0
7.383783e-05 3.218070e-05 0.0
4.297731e-05 3.090244e-05 0.0
1.747732e-05 2.554102e-05 0.0
2.107113e-06 1.541118e-05 0.0
0.000000e+00 2.148027e-06 0.0
0.000000e+00 -2.133780e-06 0.0
0.000000e+00 5.363228e-05 0.0
2.565522e-05 -2.379214e-05 0.0
6.082436e-05 -3.767183e-05 0.0
8.097275e-05 -2.431885e-05 0.0
7.455910e-05 2.689129e-06 0.0
3.584804e-05 3.787877e-05 0.0
-3.705513e-05 7.822144e-05 0.0
-1.437730e-04 1.222867e-04 0.0
-2.828950e-04 1.690807e-04 0.0
-4.528268e-04 2.172909e-04 0.0
-6.521923e-04 2.650237e-04 0.0
-8.798000e-04 3.100299e-04 0.0
-1.134315e-03 3.502508e-04 0.0
-1.413883e-03 3.843928e-04 0.0
-1.715939e-03 4.122366e-04 0.0
-2.037303e-03 4.345412e-04 0.0
-2.374519e-03 4.526093e-04 0.0
-2.724261e-03 4.677308e-04 0.0
-3.083656e-03 4.807522e-04 0.0
-3.450378e-03 4.919216e-04 0.0
-3.822563e-03 5.010152e-04 0.0
-4.198590e-03 5.076262e-04 0.0
-4.576881e-03 5.114487e-04 0.0
-4.955780e-03 5.124336e-04 0.0
-5.333555e-03 5.107752e-04 0.0
-5.708475e-03 5.067829e-04 0.0
-6.078905e-03 5.007274e-04 0.0
-6.443358e-03 4.927461e-04 0.0
-6.800479e-03 4.828468e-04 0.0
-7.148989e-03 4.709848e-04 0.0
-7.487606e-03 4.571577e-04 0.0
-7.815014e-03 4.414603e-04 0.0
-8.129860e-03 4.240736e-04 0.0
-8.430801e-03 4.052003e-04 0.0
-8.716550e-03 3.849864e-04 0.0
-8.985915e-03 3.634695e-04 0.0
-9.237800e-03 3.405787e-04 0.0
-9.471175e-03 3.161815e-04 0.0
-9.685046e-03 2.901540e-04 0.0
-9.878412e-03 2.624422e-04 0.0
-1.005026e-02 2.330924e-04 0.0
-1.019958e-02 2.022431e-04 0.0
-1.032540e-02 1.700892e-04 0.0
-1.042680e-02 1.368370e-04 0.0
-1.050298e-02 1.026704e-04 0.0
-1.055327e-02 6.773739e-05 0.0
-1.057713e-02 3.216189e-05 0.0
-1.057420e-02 -3.926539e-06 0.0
-1.054426e-02 -4.035023e-05 0.0
-1.048730e-02 -7.691182e-05 0.0
-1.040340e-02 -1.134122e-04 0.0
-1.029282e-02 -1.496389e-04 0.0
-1.015595e-02 -1.853688e-04 0.0
-9.993306e-03 -2.203771e-04 0.0
-9.805562e-03 -2.544461e-04 0.0
-9.593534e-03 -2.873712e-04 0.0
-9.358182e-03 -3.189622e-04 0.0
-9.100606e-03 -3.490416e-04 0.0
-8.822035e-03 -3.774415e-04 0.0
-8.523828e-03 -4.040007e-04 0.0
-8.207461e-03 -4.285630e-04 0.0
-7.874521e-03 -4.509781e-04 0.0
-7.526697e-03 -4.711030e-04 0.0
-7.165776e-03 -4.888044e-04 0.0
-6.793629e-03 -5.039619e-04 0.0
-6.412203e-03 -5.164698e-04 0.0
-6.023513e-03 -5.262389e-04 0.0
-5.629622e-03 -5.331978e-04 0.0
-5.232636e-03 -5.372935e-04 0.0
-4.834684e-03 -5.384921e-04 0.0
-4.437908e-03 -5.367805e-04 0.0
-4.044444e-03 -5.321638e-04 0.0
-3.656413e-03 -5.246629e-04 0.0
-3.275909e-03 -5.143153e-04 0.0
-2.904986e-03 -5.011757e-04 0.0
-2.545644e-03 -4.853164e-04 0.0
-2.199815e-03 -4.668278e-04 0.0
-1.869354e-03 -4.458184e-04 0.0
-1.556021e-03 -4.224146e-04 0.0
-1.261470e-03 -3.967615e-04 0.0
-9.872309e-04 -3.690233e-04 0.0
-7.347001e-04 -3.393838e-04 0.0
-5.051206e-04 -3.080476e-04 0.0
-2.995661e-04 -2.752425e-04 0.0
-1.189221e-04 -2.412210e-04 0.0
3.613570e-05 -2.062645e-04 0.0
1.651648e-04 -1.706874e-04 0.0
2.679892e-04 -1.348469e-04 0.0
3.447337e-04 -9.914808e-05 0.0
3.958687e-04 -6.405694e-05 0.0
4.222658e-04 -3.011759e-05 0.0
4.252692e-04 2.026571e-06 0.0
4.067849e-04 3.160255e-05 0.0
3.693966e-04 5.766819e-05 0.0
3.165089e-04 7.906016e-05 0.0
2.525207e-04 9.433267e-05 0.0
1.830069e-04 1.017049e-04 0.0
1.148424e-04 9.907661e-05 0.0
5.609724e-05 8.429623e-05 0.0
1.534059e-05 5.617780e-05 0.0
0.000000e+00 1.749877e-05 0.0
0.000000e+00 -1.748549e-05 0.0
0.000000e+00 6.680237e-05 0.0
3.238779e-05 -3.300292e-05 0.0
5.074454e-05 -5.540427e-05 0.0
4.463010e-05 -2.670841e-05 0.0
1.327230e-06 3.299541e-05 0.0
-8.636239e-05 1.128373e-04 0.0
-2.220394e-04 2.052620e-04 0.0
-4.070084e-04 3.048398e-04 0.0
-6.412855e-04 4.071500e-04 0.0
-9.241770e-04 5.081682e-04 0.0
-1.254399e-03 6.042163e-04 0.0
-1.629892e-03 6.923121e-04 0.0
-2.047596e-03 7.706024e-04 0.0
-2.503440e-03 8.385677e-04 0.0
-2.992619e-03 8.968418e-04 0.0
-3.510083e-03 9.467105e-04 0.0
-4.051035e-03 9.895095e-04 0.0
-4.611246e-03 1.026168e-03 0.0
-5.187119e-03 1.057048e-03 0.0
-5.775528e-03 1.082074e-03 0.0
-6.373561e-03 1.101023e-03 0.0
-6.978319e-03 1.113798e-03 0.0
-7.586833e-03 1.120565e-03 0.0
-8.196108e-03 1.121720e-03 0.0
-8.803247e-03 1.117736e-03 0.0
-9.405548e-03 1.109010e-03 0.0
-1.000054e-02 1.095785e-03 0.0
-1.058594e-02 1.078159e-03 0.0
-1.115956e-02 1.056186e-03 0.0
-1.171921e-02 1.029967e-03 0.0
-1.226270e-02 9.997003e-04 0.0
-1.278781e-02 9.656591e-04 0.0
-1.329239e-02 9.281131e-04 0.0
-1.377442e-02 8.872483e-04 0.0
-1.423197e-02 8.431227e-04 0.0
-1.466326e-02 7.956807e-04 0.0
-1.506657e-02 7.448148e-04 0.0
-1.544022e-02 6.904458e-04 0.0
-1.578251e-02 6.325856e-04 0.0
-1.609175e-02 5.713615e-04 0.0
-1.636627e-02 5.070000e-04 0.0
-1.660448e-02 4.397840e-04 0.0
-1.680492e-02 3.700073e-04 0.0
-1.696626e-02 2.979434e-04 0.0
-1.708738e-02 2.238408e-04 0.0
-1.716733e-02 1.479416e-04 0.0
-1.720533e-02 7.051649e-05 0.0
-1.720085e-02 -8.096250e-06 0.0
-1.715356e-02 -8.745287e-05 0.0
-1.706336e-02 -1.670666e-04 0.0
-1.693039e-02 -2.464585e-04 0.0
-1.675502e-02 -3.251548e-04 0.0
-1.653785e-02 -4.026923e-04 0.0
-1.627973e-02 -4.786236e-04 0.0
-1.598172e-02 -5.525202e-04 0.0
-1.564514e-02 -6.239714e-04 0.0
-1.527149e-02 -6.925822e-04 0.0
-1.486252e-02 -7.579698e-04 0.0
-1.442015e-02 -8.197619e-04 0.0
-1.394652e-02 -8.775970e-04 0.0
-1.344394e-02 -9.311270e-04 0.0
-1.291489e-02 -9.800205e-04 0.0
-1.236203e-02 -1.023968e-03 0.0
-1.178816e-02 -1.062684e-03 0.0
-1.119621e-02 -1.095915e-03 0.0
-1.058925e-02 -1.123437e-03 0.0
-9.970435e-03 -1.145062e-03 0.0
-9.343000e-03 -1.160636e-03 0.0
-8.710251e-03 -1.170046e-03 0.0
-8.075530e-03 -1.173216e-03 0.0
-7.442197e-03 -1.170115e-03 0.0
-6.813611e-03 -1.160751e-03 0.0
-6.193105e-03 -1.145167e-03 0.0
-5.583972e-03 -1.123445e-03 0.0
-4.989440e-03 -1.095703e-03 0.0
-4.412652e-03 -1.062097e-03 0.0
-3.856649e-03 -1.022823e-03 0.0
-3.324343e-03 -9.781166e-04 0.0
-2.818497e-03 -9.282523e-04 0.0
-2.341705e-03 -8.735461e-04 0.0
-1.896365e-03 -8.143562e-04 0.0
-1.484658e-03 -7.510846e-04 0.0
-1.108520e-03 -6.841801e-04 0.0
-7.696141e-04 -6.141423e-04 0.0
-4.693020e-04 -5.415268e-04 0.0
-2.086073e-04 -4.669522e-04 0.0
1.182283e-05 -3.911098e-04 0.0
1.917611e-04 -3.147765e-04 0.0
3.314575e-04 -2.388351e-04 0.0
4.317048e-04 -1.642942e-04 0.0
4.939142e-04 -9.231644e-05 0.0
5.202087e-04 -2.425715e-05 0.0
5.135363e-04 3.828586e-05 0.0
4.778010e-04 9.341419e-05 0.0
4.180110e-04 1.388607e-04 0.0
3.404307e-04 1.719232e-04 0.0
2.527051e-04 1.894406e-04 0.0
1.638950e-04 1.878962e-04 0.0
8.435397e-05 1.638469e-04 0.0
2.547907e-05 1.150624e-04 0.0
0.000000e+00 4.298763e-05 0.0
0.000000e+00 -4.297127e-05 0.0
0.000000e+00 6.663762e-05 0.0
2.497043e-05 -4.001769e-05 0.0
1.540560e-05 -5.491464e-05 0.0
-2.928237e-05 4.628058e-06 0.0
-1.217323e-04 1.128910e-04 0.0
-2.698748e-04 2.531088e-04 0.0
-4.785531e-04 4.127583e-04 0.0
-7.504781e-04 5.820203e-04 0.0
-1.086815e-03 7.528649e-04 0.0
-1.487350e-03 9.187102e-04 0.0
-1.950361e-03 1.074529e-03 0.0
-2.472494e-03 1.217085e-03 0.0
-3.048876e-03 1.344973e-03 0.0
-3.673574e-03 1.458294e-03 0.0
-4.340267e-03 1.558036e-03 0.0
-5.042874e-03 1.645381e-03 0.0
-5.775950e-03 1.721205e-03 0.0
-6.534736e-03 1.785893e-03 0.0
-7.314957e-03 1.839471e-03 0.0
-8.112517e-03 1.881889e-03 0.0
-8.923279e-03 1.913283e-03 0.0
-9.743003e-03 1.934084e-03 0.0
-1.056744e-02 1.944949e-03 0.0
-1.139252e-02 1.946585e-03 0.0
-1.221441e-02 1.939582e-03 0.0
-1.302965e-02 1.924343e-03 0.0
-1.383499e-02 1.901121e-03 0.0
-1.462732e-02 1.870123e-03 0.0
-1.540354e-02 1.831613e-03 0.0
-1.616057e-02 1.785945e-03 0.0
-1.689533e-02 1.733531e-03 0.0
-1.760487e-02 1.674745e-03 0.0
-1.828639e-02 1.609844e-03 0.0
-1.893728e-02 1.538931e-03 0.0
-1.955506e-02 1.461986e-03 0.0
-2.013736e-02 1.378950e-03 0.0
-2.068183e-02 1.289811e-03 0.0
-2.118608e-02 1.194670e-03 0.0
-2.164776e-02 1.093755e-03 0.0
-2.206456e-02 9.873965e-04 0.0
-2.243427e-02 8.759776e-04 0.0
-2.275486e-02 7.598867e-04 0.0
-2.302449e-02 6.394940e-04 0.0
-2.324152e-02 5.151558e-04 0.0
-2.340456e-02 3.872437e-04 0.0
-2.351240e-02 2.561843e-04 0.0
-2.356407e-02 1.224987e-04 0.0
-2.355885e-02 -1.316712e-05 0.0
-2.349630e-02 -1.500227e-04 0.0
-2.337628e-02 -2.872251e-04 0.0
-2.319897e-02 -4.239587e-04 0.0
-2.296486e-02 -5.594358e-04 0.0
-2.267477e-02 -6.928969e-04 0.0
-2.232984e-02 -8.236092e-04 0.0
-2.193148e-02 -9.508624e-04 0.0
-2.148144e-02 -1.073964e-03 0.0
-2.098173e-02 -1.192236e-03 0.0
-2.043464e-02 -1.305014e-03 0.0
-1.984272e-02 -1.411651e-03 0.0
-1.920878e-02 -1.511520e-03 0.0
-1.853589e-02 -1.604021e-03 0.0
-1.782733e-02 -1.688590e-03 0.0
-1.708662e-02 -1.764699e-03 0.0
-1.631745e-02 -1.831866e-03 0.0
-1.552371e-02 -1.889661e-03 0.0
-1.470945e-02 -1.937704e-03 0.0
-1.387885e-02 -1.975673e-03 0.0
-1.303618e-02 -2.003308e-03 0.0
-1.218582e-02 -2.020410e-03 0.0
-1.133219e-02 -2.026849e-03 0.0
-1.047974e-02 -2.022566e-03 0.0
-9.632917e-03 -2.007570e-03 0.0
-8.796145e-03 -1.981936e-03 0.0
-7.973787e-03 -1.945799e-03 0.0
-7.170122e-03 -1.899361e-03 0.0
-6.389323e-03 -1.842890e-03 0.0
-5.635418e-03 -1.776721e-03 0.0
-4.912271e-03 -1.701258e-03 0.0
-4.223545e-03 -1.616972e-03 0.0
-3.572677e-03 -1.524410e-03 0.0
-2.962841e-03 -1.424187e-03 0.0
-2.396922e-03 -1.317000e-03 0.0
-1.877473e-03 -1.203624e-03 0.0
-1.406685e-03 -1.084925e-03 0.0
-9.863405e-04 -9.618646e-04 0.0
-6.177722e-04 -8.355128e-04 0.0
-3.018102e-04 -7.070631e-04 0.0
-3.872462e-05 -5.778526e-04 0.0
1.718378e-04 -4.493874e-04 0.0
3.309304e-04 -3.233763e-04 0.0
4.404013e-04 -2.017766e-04 0.0
5.029890e-04 -8.683404e-05 0.0
5.224369e-04 1.884852e-05 0.0
5.036192e-04 1.122423e-04 0.0
4.526661e-04 1.898238e-04 0.0
3.770826e-04 2.475166e-04 0.0
2.858364e-04 2.806963e-04 0.0
1.894043e-04 2.843374e-04 0.0
9.982368e-05 2.534367e-04 0.0
3.099599e-05 1.838994e-04 0.0
0.000000e+00 7.399302e-05 0.0
0.000000e+00 -7.397075e-05 0.0
0.000000e+00 5.364226e-05 0.0
8.137744e-06 -4.078855e-05 0.0
-3.467147e-05 -2.675765e-05 0.0
-1.253169e-04 8.175987e-05 0.0
-2.753732e-04 2.547863e-04 0.0
-4.929020e-04 4.698732e-04 0.0
-7.834874e-04 7.095603e-04 0.0
-1.150685e-03 9.598085e-04 0.0
-1.596093e-03 1.209406e-03 0.0
-2.119167e-03 1.449842e-03 0.0
-2.717084e-03 1.675343e-03 0.0
-3.384912e-03 1.882721e-03 0.0
-4.116188e-03 2.070871e-03 0.0
-4.903746e-03 2.239987e-03 0.0
-5.740521e-03 2.390741e-03 0.0
-6.620048e-03 2.523687e-03 0.0
-7.536567e-03 2.639035e-03 0.0
-8.484802e-03 2.736763e-03 0.0
-9.459623e-03 2.816902e-03 0.0
-1.045580e-02 2.879769e-03 0.0
-1.146793e-02 2.926051e-03 0.0
-1.249058e-02 2.956689e-03 0.0
-1.351852e-02 2.972672e-03 0.0
-1.454682e-02 2.974842e-03 0.0
-1.557097e-02 2.963822e-03 0.0
-1.658674e-02 2.940074e-03 0.0
-1.759008e-02 2.904017e-03 0.0
-1.857700e-02 2.856131e-03 0.0
-1.954350e-02 2.796987e-03 0.0
-2.048567e-02 2.727183e-03 0.0
-2.139973e-02 2.647246e-03 0.0
-2.228213e-02 2.557543e-03 0.0
-2.312955e-02 2.458258e-03 0.0
-2.393884e-02 2.349440e-03 0.0
-2.470695e-02 2.231104e-03 0.0
-2.543088e-02 2.103331e-03 0.0
-2.610758e-02 1.966333e-03 0.0
-2.673406e-02 1.820457e-03 0.0
-2.730735e-02 1.666153e-03 0.0
-2.782465e-02 1.503912e-03 0.0
-2.828334e-02 1.334221e-03 0.0
-2.868105e-02 1.157550e-03 0.0
-2.901563e-02 9.743642e-04 0.0
-2.928518e-02 7.851648e-04 0.0
-2.948802e-02 5.905384e-04 0.0
-2.962273e-02 3.911950e-04 0.0
-2.968812e-02 1.879938e-04 0.0
-2.968333e-02 -1.804533e-05 0.0
-2.960780e-02 -2.257402e-04 0.0
-2.946140e-02 -4.338546e-04 0.0
-2.924435e-02 -6.411986e-04 0.0
-2.895726e-02 -8.466249e-04 0.0
-2.860117e-02 -1.049022e-03 0.0
-2.817743e-02 -1.247306e-03 0.0
-2.768781e-02 -1.440413e-03 0.0
-2.713441e-02 -1.627295e-03 0.0
-2.651968e-02 -1.806921e-03 0.0
-2.584638e-02 -1.978281e-03 0.0
-2.511764e-02 -2.140393e-03 0.0
-2.433686e-02 -2.292310e-03 0.0
-2.350777e-02 -2.433132e-03 0.0
-2.263437e-02 -2.562011e-03 0.0
-2.172092e-02 -2.678159e-03 0.0
-2.077195e-02 -2.780855e-03 0.0
-1.979216e-02 -2.869451e-03 0.0
-1.878650e-02 -2.943376e-03 0.0
-1.776003e-02 -3.002147e-03 0.0
-1.671797e-02 -3.045366e-03 0.0
-1.566565e-02 -3.072732e-03 0.0
-1.460846e-02 -3.084045e-03 0.0
-1.355181e-02 -3.079208e-03 0.0
-1.250115e-02 -3.058233e-03 0.0
-1.146186e-02 -3.021224e-03 0.0
-1.043927e-02 -2.968385e-03 0.0
-9.438606e-03 -2.900016e-03 0.0
-8.464972e-03 -2.816519e-03 0.0
-7.523290e-03 -2.718398e-03 0.0
-6.618283e-03 -2.606262e-03 0.0
-5.754428e-03 -2.480824e-03 0.0
-4.935926e-03 -2.342909e-03 0.0
-4.166659e-03 -2.193451e-03 0.0
-3.450149e-03 -2.033506e-03 0.0
-2.789517e-03 -1.864251e-03 0.0
-2.187434e-03 -1.687001e-03 0.0
-1.646077e-03 -1.503214e-03 0.0
-1.167069e-03 -1.314512e-03 0.0
-7.514256e-04 -1.122697e-03 0.0
-3.994861e-04 -9.297820e-04 0.0
-1.108413e-04 -7.380218e-04 0.0
1.157474e-04 -5.499545e-04 0.0
2.824320e-04 -3.684509e-04 0.0
3.923915e-04 -1.967833e-04 0.0
4.499293e-04 -3.867943e-05 0.0
4.605847e-04 1.015966e-04 0.0
4.312396e-04 2.191782e-04 0.0
3.702150e-04 3.085503e-04 0.0
2.873616e-04 3.635588e-04 0.0
1.941688e-04 3.775388e-04 0.0
1.039958e-04 3.436184e-04 0.0
3.267639e-05 2.552277e-04 0.0
0.000000e+00 1.066784e-04 0.0
0.000000e+00 -1.066486e-04 0.0
0.000000e+00 2.922942e-05 0.0
-1.386952e-05 -3.157485e-05 0.0
-9.171078e-05 3.569404e-05 0.0
-2.324711e-04 2.129458e-04 0.0
-4.460911e-04 4.669785e-04 0.0
-7.402494e-04 7.703390e-04 0.0
-1.120611e-03 1.101152e-03 0.0
-1.590682e-03 1.441877e-03 0.0
-2.151463e-03 1.778993e-03 0.0
-2.801187e-03 2.102857e-03 0.0
-3.535451e-03 2.407384e-03 0.0
-4.347820e-03 2.689367e-03 0.0
-5.230763e-03 2.947504e-03 0.0
-6.176592e-03 3.181415e-03 0.0
-7.178088e-03 3.390919e-03 0.0
-8.228682e-03 3.575730e-03 0.0
-9.322265e-03 3.735531e-03 0.0
-1.045283e-02 3.870238e-03 0.0
-1.161420e-02 3.980216e-03 0.0
-1.279996e-02 4.066324e-03 0.0
-1.400364e-02 4.129751e-03 0.0
-1.521888e-02 4.171765e-03 0.0
-1.643974e-02 4.193489e-03 0.0
-1.766065e-02 4.195819e-03 0.0
-1.887641e-02 4.179474e-03 0.0
-2.008202e-02 4.145134e-03 0.0
-2.127257e-02 4.093550e-03 0.0
-2.244319e-02 4.025556e-03 0.0
-2.358910e-02 3.941992e-03 0.0
-2.470573e-02 3.843587e-03 0.0
-2.578877e-02 3.730868e-03 0.0
-2.683419e-02 3.604140e-03 0.0
-2.783815e-02 3.463563e-03 0.0
-2.879696e-02 3.309262e-03 0.0
-2.970693e-02 3.141442e-03 0.0
-3.056438e-02 2.960450e-03 0.0
-3.136566e-02 2.766773e-03 0.0
-3.210718e-02 2.560991e-03 0.0
-3.278554e-02 2.343712e-03 0.0
-3.339756e-02 2.115528e-03 0.0
-3.394029e-02 1.877008e-03 0.0
-3.441107e-02 1.628723e-03 0.0
-3.480748e-02 1.371304e-03 0.0
-3.512734e-02 1.105494e-03 0.0
-3.536870e-02 8.321865e-04 0.0
-3.552991e-02 5.524525e-04 0.0
-3.560960e-02 2.675410e-04 0.0
-3.560676e-02 -2.112426e-05 0.0
-3.552080e-02 -3.119501e-04 0.0
-3.535156e-02 -6.032817e-04 0.0
-3.509933e-02 -8.935191e-04 0.0
-3.476485e-02 -1.181106e-03 0.0
-3.434930e-02 -1.464518e-03 0.0
-3.385427e-02 -1.742253e-03 0.0
-3.328178e-02 -2.012825e-03 0.0
-3.263426e-02 -2.274767e-03 0.0
-3.191453e-02 -2.526638e-03 0.0
-3.112579e-02 -2.767027e-03 0.0
-3.027163e-02 -2.994568e-03 0.0
-2.935602e-02 -3.207950e-03 0.0
-2.838325e-02 -3.405924e-03 0.0
-2.735796e-02 -3.587317e-03 0.0
-2.628509e-02 -3.751038e-03 0.0
-2.516987e-02 -3.896085e-03 0.0
-2.401777e-02 -4.021558e-03 0.0
-2.283449e-02 -4.126663e-03 0.0
-2.162592e-02 -4.210721e-03 0.0
-2.039811e-02 -4.273178e-03 0.0
-1.915723e-02 -4.313610e-03 0.0
-1.790955e-02 -4.331731e-03 0.0
-1.666135e-02 -4.327397e-03 0.0
-1.541897e-02 -4.300616e-03 0.0
-1.418866e-02 -4.251526e-03 0.0
-1.297664e-02 -4.180404e-03 0.0
-1.178899e-02 -4.087663e-03 0.0
-1.063165e-02 -3.973858e-03 0.0
-9.510358e-03 -3.839685e-03 0.0
-8.430628e-03 -3.685991e-03 0.0
-7.397683e-03 -3.513767e-03 0.0
-6.416429e-03 -3.324161e-03 0.0
-5.491397e-03 -3.118479e-03 0.0
-4.626707e-03 -2.898191e-03 0.0
-3.826007e-03 -2.664945e-03 0.0
-3.092429e-03 -2.420572e-03 0.0
-2.428528e-03 -2.167107e-03 0.0
-1.836224e-03 -1.906806e-03 0.0
-1.316737e-03 -1.642175e-03 0.0
-8.705145e-04 -1.375994e-03 0.0
-4.971606e-04 -1.111366e-03 0.0
-1.953490e-04 -8.517564e-04 0.0
3.726354e-05 -6.010539e-04 0.0
2.041243e-04 -3.636348e-04 0.0
3.098904e-04 -1.444366e-04 0.0
3.605232e-04 5.097270e-05 0.0
3.633831e-04 2.163269e-04 0.0
3.273198e-04 3.446221e-04 0.0
2.627807e-04 4.281066e-04 0.0
1.819776e-04 4.583499e-04 0.0
9.921332e-05 4.263911e-04 0.0
3.154040e-05 3.229091e-04 0.0
0.000000e+00 1.382274e-04 0.0
0.000000e+00 -1.381891e-04 0.0
0.000000e+00 -5.653317e-06 0.0
-3.713565e-05 -8.950193e-06 0.0
-1.500860e-04 1.369034e-04 0.0
-3.434422e-04 4.032631e-04 0.0
-6.252331e-04 7.542376e-04 0.0
-1.002172e-03 1.158390e-03 0.0
-1.479093e-03 1.590432e-03 0.0
-2.058336e-03 2.030433e-03 0.0
-2.739271e-03 2.463573e-03 0.0
-3.518285e-03 2.879687e-03 0.0
-4.389334e-03 3.272439e-03 0.0
-5.344905e-03 3.638180e-03 0.0
-6.377030e-03 3.974787e-03 0.0
-7.478018e-03 4.280790e-03 0.0
-8.640714e-03 4.554965e-03 0.0
-9.858345e-03 4.796341e-03 0.0
-1.112418e-02 5.004434e-03 0.0
-1.243126e-02 5.179431e-03 0.0
-1.377230e-02 5.322196e-03 0.0
-1.513989e-02 5.434059e-03 0.0
-1.652674e-02 5.516506e-03 0.0
-1.792591e-02 5.570924e-03 0.0
-1.933087e-02 5.598489e-03 0.0
-2.073547e-02 5.600217e-03 0.0
-2.213377e-02 5.577086e-03 0.0
-2.351993e-02 5.530158e-03 0.0
-2.488821e-02 5.460576e-03 0.0
-2.623299e-02 5.369470e-03 0.0
-2.754891e-02 5.257820e-03 0.0
-2.883092e-02 5.126360e-03 0.0
-3.007428e-02 4.975569e-03 0.0
-3.127447e-02 4.805762e-03 0.0
-3.242713e-02 4.617216e-03 0.0
-3.352790e-02 4.410298e-03 0.0
-3.457246e-02 4.185520e-03 0.0
-3.555650e-02 3.943529e-03 0.0
-3.647583e-02 3.685054e-03 0.0
-3.732646e-02 3.410829e-03 0.0
-3.810462e-02 3.121555e-03 0.0
-3.880683e-02 2.817900e-03 0.0
-3.942989e-02 2.500546e-03 0.0
-3.997083e-02 2.170246e-03 0.0
-4.042695e-02 1.827893e-03 0.0
-4.079578e-02 1.474558e-03 0.0
-4.107511e-02 1.111509e-03 0.0
-4.126307e-02 7.402156e-04 0.0
-4.135813e-02 3.623323e-04 0.0
-4.135921e-02 -2.030483e-05 0.0
-4.126565e-02 -4.056797e-04 0.0
-4.107731e-02 -7.916890e-04 0.0
-4.079453e-02 -1.176278e-03 0.0
-4.041814e-02 -1.557424e-03 0.0
-3.994944e-02 -1.933129e-03 0.0
-3.939021e-02 -2.301411e-03 0.0
-3.874269e-02 -2.660306e-03 0.0
-3.800957e-02 -3.007876e-03 0.0
-3.719401e-02 -3.342220e-03 0.0
-3.629958e-02 -3.661484e-03 0.0
-3.533030e-02 -3.963876e-03 0.0
-3.429060e-02 -4.247675e-03 0.0
-3.318529e-02 -4.511244e-03 0.0
-3.201958e-02 -4.753043e-03 0.0
-3.079899e-02 -4.971634e-03 0.0
-2.952938e-02 -5.165701e-03 0.0
-2.821689e-02 -5.334053e-03 0.0
-2.686792e-02 -5.475643e-03 0.0
-2.548907e-02 -5.589571e-03 0.0
-2.408715e-02 -5.675102e-03 0.0
-2.266909e-02 -5.731668e-03 0.0
-2.124194e-02 -5.758883e-03 0.0
-1.981279e-02 -5.756544e-03 0.0
-1.838876e-02 -5.724647e-03 0.0
-1.697692e-02 -5.663364e-03 0.0
-1.558427e-02 -5.573049e-03 0.0
-1.421770e-02 -5.454235e-03 0.0
-1.288391e-02 -5.307646e-03 0.0
-1.158940e-02 -5.134193e-03 0.0
-1.034041e-02 -4.934982e-03 0.0
-9.142858e-03 -4.711318e-03 0.0
-8.002305e-03 -4.464710e-03 0.0
-6.923903e-03 -4.196875e-03 0.0
-5.912335e-03 -3.909753e-03 0.0
-4.971762e-03 -3.605511e-03 0.0
-4.105764e-03 -3.286562e-03 0.0
-3.317279e-03 -2.955582e-03 0.0
-2.608542e-03 -2.615535e-03 0.0
-1.981008e-03 -2.269699e-03 0.0
-1.435290e-03 -1.921704e-03 0.0
-9.710728e-04 -1.575574e-03 0.0
-5.870395e-04 -1.235781e-03 0.0
-2.807828e-04 -9.073022e-04 0.0
-4.872205e-05 -5.956875e-04 0.0
1.139842e-04 -3.071348e-04 0.0
2.135246e-04 -4.855956e-05 0.0
2.575300e-04 1.723294e-04 0.0
2.551677e-04 3.469925e-04 0.0
2.172582e-04 4.660243e-04 0.0
1.564691e-04 5.191467e-04 0.0
8.765219e-05 4.952160e-04 0.0
2.841318e-05 3.821563e-04 0.0
0.000000e+00 1.666488e-04 0.0
0.000000e+00 -1.666017e-04 0.0
0.000000e+00 -5.100211e-05 0.0
-5.849078e-05 2.991738e-05 0.0
-2.062198e-04 2.794858e-04 0.0
-4.540964e-04 6.551038e-04 0.0
-8.079985e-04 1.118474e-03 0.0
-1.272901e-03 1.635478e-03 0.0
-1.851725e-03 2.178731e-03 0.0
-2.544570e-03 2.727121e-03 0.0
-3.348477e-03 3.265315e-03 0.0
-4.257844e-03 3.782831e-03 0.0
-5.265340e-03 4.272765e-03 0.0
-6.362938e-03 4.730471e-03 0.0
-7.542698e-03 5.152539e-03 0.0
-8.797074e-03 5.536257e-03 0.0
-1.011880e-02 5.879552e-03 0.0
-1.150057e-02 6.181158e-03 0.0
-1.293475e-02 6.440777e-03 0.0
-1.441333e-02 6.659034e-03 0.0
-1.592812e-02 6.837214e-03 0.0
-1.747097e-02 6.976898e-03 0.0
-1.903409e-02 7.079658e-03 0.0
-2.061006e-02 7.146913e-03 0.0
-2.219184e-02 7.179967e-03 0.0
-2.377258e-02 7.180124e-03 0.0
-2.534555e-02 7.148780e-03 0.0
-2.690414e-02 7.087421e-03 0.0
-2.844190e-02 6.997506e-03 0.0
-2.995270e-02 6.880308e-03 0.0
-3.143076e-02 6.736817e-03 0.0
-3.287064e-02 6.567735e-03 0.0
-3.426716e-02 6.373579e-03 0.0
-3.561527e-02 6.154829e-03 0.0
-3.690997e-02 5.912052e-03 0.0
-3.814627e-02 5.645963e-03 0.0
-3.931922e-02 5.357397e-03 0.0
-4.042403e-02 5.047249e-03 0.0
-4.145611e-02 4.716391e-03 0.0
-4.241114e-02 4.365643e-03 0.0
-4.328510e-02 3.995780e-03 0.0
-4.407422e-02 3.607590e-03 0.0
-4.477502e-02 3.201950e-03 0.0
-4.538423e-02 2.779895e-03 0.0
-4.589882e-02 2.342663e-03 0.0
-4.631604e-02 1.891706e-03 0.0
-4.663347e-02 1.428692e-03 0.0
-4.684904e-02 9.554906e-04 0.0
-4.696112e-02 4.741609e-04 0.0
-4.696853e-02 -1.304236e-05 0.0
-4.687059e-02 -5.036587e-04 0.0
-4.666714e-02 -9.950937e-04 0.0
-4.635854e-02 -1.484785e-03 0.0
-4.594569e-02 -1.970188e-03 0.0
-4.542998e-02 -2.448776e-03 0.0
-4.481333e-02 -2.918037e-03 0.0
-4.409815e-02 -3.375484e-03 0.0
-4.328738e-02 -3.818669e-03 0.0
-4.238445e-02 -4.245190e-03 0.0
-4.139325e-02 -4.652712e-03 0.0
-4.031818e-02 -5.038974e-03 0.0
-3.916406e-02 -5.401806e-03 0.0
-3.793618e-02 -5.739141e-03 0.0
-3.664020e-02 -6.049030e-03 0.0
-3.528218e-02 -6.329655e-03 0.0
-3.386855e-02 -6.579345e-03 0.0
-3.240601e-02 -6.796589e-03 0.0
-3.090161e-02 -6.980054e-03 0.0
-2.936259e-02 -7.128595e-03 0.0
-2.779642e-02 -7.241268e-03 0.0
-2.621075e-02 -7.317344e-03 0.0
-2.461331e-02 -7.356317e-03 0.0
-2.301194e-02 -7.357913e-03 0.0
-2.141448e-02 -7.322104e-03 0.0
-1.982875e-02 -7.249094e-03 0.0
-1.826249e-02 -7.139311e-03 0.0
-1.672331e-02 -6.993420e-03 0.0
-1.521864e-02 -6.812320e-03 0.0
-1.375568e-02 -6.597152e-03 0.0
-1.234135e-02 -6.349306e-03 0.0
-1.098224e-02 -6.070424e-03 0.0
-9.684540e-03 -5.762405e-03 0.0