# vtk DataFile Version 3.0
Vector Field
ASCII
DATASET RECTILINEAR_GRID
DIMENSIONS 102 102 1
X_COORDINATES 102 double
0.000000 0.100000 0.200000 0.300000 0.400000 0.500000 0.600000 0.700000 0.800000 0.900000 1.000000 1.100000 1.200000 1.300000 1.400000 1.500000 1.600000 1.700000 1.800000 1.900000 2.000000 2.100000 2.200000 2.300000 2.400000 2.500000 2.600000 2.700000 2.800000 2.900000 3.000000 3.100000 3.200000 3.300000 3.400000 3.500000 3.600000 3.700000 3.800000 3.900000 4.000000 4.100000 4.200000 4.300000 4.400000 4.500000 4.600000 4.700000 4.800000 4.900000 5.000000 5.100000 5.200000 5.300000 5.400000 5.500000 5.600000 5.700000 5.800000 5.900000 6.000000 6.100000 6.200000 6.300000 6.400000 6.500000 6.600000 6.700000 6.800000 6.900000 7.000000 7.100000 7.200000 7.300000 7.400000 7.500000 7.600000 7.700000 7.800000 7.900000 8.000000 8.100000 8.200000 8.300000 8.400000 8.500000 8.600000 8.700000 8.800000 8.900000 9.000000 9.100000 9.200000 9.300000 9.400000 9.500000 9.600000 9.700000 9.800000 9.900000 10.000000 10.100000 
Y_COORDINATES 102 double
0.000000 0.100000 0.200000 0.300000 0.400000 0.500000 0.600000 0.700000 0.800000 0.900000 1.000000 1.100000 1.200000 1.300000 1.400000 1.500000 1.600000 1.700000 1.800000 1.900000 2.000000 2.100000 2.200000 2.300000 2.400000 2.500000 2.600000 2.700000 2.800000 2.900000 3.000000 3.100000 3.200000 3.300000 3.400000 3.500000 3.600000 3.700000 3.800000 3.900000 4.000000 4.100000 4.200000 4.300000 4.400000 4.500000 4.600000 4.700000 4.800000 4.900000 5.000000 5.100000 5.200000 5.300000 5.400000 5.500000 5.600000 5.700000 5.800000 5.900000 6.000000 6.100000 6.200000 6.300000 6.400000 6.500000 6.600000 6.700000 6.800000 6.900000 7.000000 7.100000 7.200000 7.300000 7.400000 7.500000 7.600000 7.700000 7.800000 7.900000 8.000000 8.100000 8.200000 8.300000 8.400000 8.500000 8.600000 8.700000 8.800000 8.900000 9.000000 9.100000 9.200000 9.300000 9.400000 9.500000 9.600000 9.700000 9.800000 9.900000 10.000000 10.100000 
Z_COORDINATES 1 double
0.0
POINT_DATA 10404
VECTORS Velocity double
0.000000e+00 0.000000e+00 0.0
-2.747036e-05 0.000000e+00 0.0
-3.537835e-05 0.000000e+00 0.0
-4.095836e-05 0.000000e+00 0.0
-4.045442e-05 0.000000e+00 0.0
-3.039897e-05 0.000000e+00 0.0
-8.862457e-06 0.000000e+00 0.0
2.371143e-05 0.000000e+00 0.0
6.520303e-05 0.000000e+00 0.0
1.134892e-04 0.000000e+00 0.0
1.678794e-04 0.000000e+00 0.0
2.293815e-04 0.000000e+00 0.0
2.997452e-04 0.000000e+00 0.0
3.800222e-04 0.000000e+00 0.0
4.695907e-04 0.000000e+00 0.0
5.661900e-04 0.000000e+00 0.0
6.668417e-04 0.000000e+00 0.0
7.690466e-04 0.000000e+00 0.0
8.715803e-04 0.000000e+00 0.0
9.745397e-04 0.000000e+00 0.0
1.078750e-03 0.000000e+00 0.0
1.184951e-03 0.000000e+00 0.0
1.293222e-03 0.000000e+00 0.0
1.402860e-03 0.000000e+00 0.0
1.512682e-03 0.000000e+00 0.0
1.621489e-03 0.000000e+00 0.0
1.728419e-03 0.000000e+00 0.0
1.833060e-03 0.000000e+00 0.0
1.935324e-03 0.000000e+00 0.0
2.035214e-03 0.000000e+00 0.0
2.132639e-03 0.000000e+00 0.0
2.227332e-03 0.000000e+00 0.0
2.318902e-03 0.000000e+00 0.0
2.406919e-03 0.000000e+00 0.0
2.490997e-03 0.000000e+00 0.0
2.570817e-03 0.000000e+00 0.0
2.646106e-03 0.000000e+00 0.0
2.716589e-03 0.000000e+00 0.0
2.781971e-03 0.000000e+00 0.0
2.841927e-03 0.000000e+00 0.0
2.896132e-03 0.000000e+00 0.0
2.944287e-03 0.000000e+00 0.0
2.986136e-03 0.000000e+00 0.0
3.021464e-03 0.000000e+00 0.0
3.050078e-03 0.000000e+00 0.0
3.071798e-03 0.000000e+00 0.0
3.086442e-03 0.000000e+00 0.0
3.093840e-03 0.000000e+00 0.0
3.093845e-03 0.000000e+00 0.0
3.086365e-03 0.000000e+00 0.0
3.071373e-03 0.000000e+00 0.0
3.048897e-03 0.000000e+00 0.0
3.019011e-03 0.000000e+00 0.0
2.981824e-03 0.000000e+00 0.0
2.937469e-03 0.000000e+00 0.0
2.886103e-03 0.000000e+00 0.0
2.827911e-03 0.000000e+00 0.0
2.763108e-03 0.000000e+00 0.0
2.691950e-03 0.000000e+00 0.0
2.614739e-03 0.000000e+00 0.0
2.531822e-03 0.000000e+00 0.0
2.443590e-03 0.000000e+00 0.0
2.350469e-03 0.000000e+00 0.0
2.252917e-03 0.000000e+00 0.0
2.151417e-03 0.000000e+00 0.0
2.046470e-03 0.000000e+00 0.0
1.938597e-03 0.000000e+00 0.0
1.828335e-03 0.000000e+00 0.0
1.716235e-03 0.000000e+00 0.0
1.602865e-03 0.000000e+00 0.0
1.488805e-03 0.000000e+00 0.0
1.374645e-03 0.000000e+00 0.0
1.260981e-03 0.000000e+00 0.0
1.148410e-03 0.000000e+00 0.0
1.037528e-03 0.000000e+00 0.0
9.289244e-04 0.000000e+00 0.0
8.231787e-04 0.000000e+00 0.0
7.208568e-04 0.000000e+00 0.0
6.225081e-04 0.000000e+00 0.0
5.286612e-04 0.000000e+00 0.0
4.398220e-04 0.000000e+00 0.0
3.564693e-04 0.000000e+00 0.0
2.790522e-04 0.000000e+00 0.0
2.079859e-04 0.000000e+00 0.0
1.436473e-04 0.000000e+00 0.0
8.637009e-05 0.000000e+00 0.0
3.643879e-05 0.000000e+00 0.0
-5.918357e-06 0.000000e+00 0.0
-4.053803e-05 0.000000e+00 0.0
-6.733321e-05 0.000000e+00 0.0
-8.630838e-05 0.000000e+00 0.0
-9.758014e-05 0.000000e+00 0.0
-1.014058e-04 0.000000e+00 0.0
-9.822522e-05 0.000000e+00 0.0
-8.872243e-05 0.000000e+00 0.0
-7.391883e-05 0.000000e+00 0.0
-5.531554e-05 0.000000e+00 0.0
-3.509971e-05 0.000000e+00 0.0
-1.639969e-05 0.000000e+00 0.0
-3.368652e-06 0.000000e+00 0.0
-0.000000e+00 0.000000e+00 0.0
0.000000e+00 0.000000e+00 0.0
0.000000e+00 -1.106061e-05 0.0
3.970099e-06 -1.284063e-05 0.0
1.435454e-05 -2.056659e-05 0.0
2.267575e-05 -2.112878e-05 0.0
2.515586e-05 -1.388869e-05 0.0
2.117589e-05 -4.768200e-07 0.0
9.771001e-06 1.713078e-05 0.0
-1.147389e-05 3.549970e-05 0.0
-4.553141e-05 5.085169e-05 0.0
-9.415930e-05 6.085846e-05 0.0
-1.566645e-04 6.572336e-05 0.0
-2.300395e-04 6.783730e-05 0.0
-3.103209e-04 7.028958e-05 0.0
-3.942932e-04 7.518592e-05 0.0
-4.805679e-04 8.272211e-05 0.0
-5.695641e-04 9.140142e-05 0.0
-6.625883e-04 9.909158e-05 0.0
-7.606629e-04 1.042143e-04 0.0
-8.637571e-04 1.064218e-04 0.0
-9.707262e-04 1.065158e-04 0.0
-1.079833e-03 1.058148e-04 0.0
-1.189448e-03 1.054168e-04 0.0
-1.298531e-03 1.057566e-04 0.0
-1.406716e-03 1.066030e-04 0.0
-1.514058e-03 1.073787e-04 0.0
-1.620671e-03 1.075508e-04 0.0
-1.726463e-03 1.068714e-04 0.0
-1.831076e-03 1.053949e-04 0.0
-1.933991e-03 1.033339e-04 0.0
-2.034674e-03 1.008868e-04 0.0
-2.132688e-03 9.814107e-05 0.0
-2.227702e-03 9.507988e-05 0.0
-2.319438e-03 9.165335e-05 0.0
-2.407605e-03 8.784784e-05 0.0
-2.491864e-03 8.370865e-05 0.0
-2.571848e-03 7.931247e-05 0.0
-2.647194e-03 7.471890e-05 0.0
-2.717584e-03 6.993686e-05 0.0
-2.782750e-03 6.492579e-05 0.0
-2.842458e-03 5.962618e-05 0.0
-2.896479e-03 5.399785e-05 0.0
-2.944562e-03 4.804285e-05 0.0
-2.986436e-03 4.180258e-05 0.0
-3.021825e-03 3.533446e-05 0.0
-3.050474e-03 2.868377e-05 0.0
-3.072167e-03 2.186678e-05 0.0
-3.086737e-03 1.487277e-05 0.0
-3.094060e-03 7.682583e-06 0.0
-3.094045e-03 2.940454e-07 0.0
-3.086629e-03 -7.254703e-06 0.0
-3.071776e-03 -1.489165e-05 0.0
-3.049471e-03 -2.253204e-05 0.0
-3.019730e-03 -3.008980e-05 0.0
-2.982611e-03 -3.749255e-05 0.0
-2.938223e-03 -4.469132e-05 0.0
-2.886733e-03 -5.166136e-05 0.0
-2.828361e-03 -5.839488e-05 0.0
-2.763370e-03 -6.488964e-05 0.0
-2.692060e-03 -7.113803e-05 0.0
-2.614759e-03 -7.711999e-05 0.0
-2.531820e-03 -8.280134e-05 0.0
-2.443618e-03 -8.813689e-05 0.0
-2.350556e-03 -9.307641e-05 0.0
-2.253064e-03 -9.757118e-05 0.0
-2.151603e-03 -1.015790e-04 0.0
-2.046662e-03 -1.050672e-04 0.0
-1.938762e-03 -1.080123e-04 0.0
-1.828447e-03 -1.103990e-04 0.0
-1.716281e-03 -1.122176e-04 0.0
-1.602844e-03 -1.134613e-04 0.0
-1.488727e-03 -1.141249e-04 0.0
-1.374523e-03 -1.142042e-04 0.0
-1.260832e-03 -1.136962e-04 0.0
-1.148247e-03 -1.125991e-04 0.0
-1.037359e-03 -1.109130e-04 0.0
-9.287551e-04 -1.086410e-04 0.0
-8.230094e-04 -1.057902e-04 0.0
-7.206859e-04 -1.023717e-04 0.0
-6.223329e-04 -9.840120e-05 0.0
-5.284798e-04 -9.389868e-05 0.0
-4.396339e-04 -8.888805e-05 0.0
-3.562760e-04 -8.339699e-05 0.0
-2.788566e-04 -7.745677e-05 0.0
-2.077919e-04 -7.110229e-05 0.0
-1.434592e-04 -6.437244e-05 0.0
-8.619193e-05 -5.731067e-05 0.0
-3.627413e-05 -4.996598e-05 0.0
6.066664e-06 -4.239426e-05 0.0
4.066805e-05 -3.465995e-05 0.0
6.744401e-05 -2.683898e-05 0.0
8.639983e-05 -1.902259e-05 0.0
9.765259e-05 -1.132259e-05 0.0
1.014599e-04 -3.879801e-06 0.0
9.826192e-05 3.123058e-06 0.0
8.874298e-05 9.441478e-06 0.0
7.392526e-05 1.473765e-05 0.0
5.531019e-05 1.853231e-05 0.0
3.508546e-05 2.013852e-05 0.0
1.638072e-05 1.861693e-05 0.0
3.349135e-06 1.294277e-05 0.0
0.000000e+00 3.260211e-06 0.0
0.000000e+00 -3.211217e-06 0.0
0.000000e+00 1.007312e-05 0.0
8.500742e-06 -3.154655e-05 0.0
2.443687e-05 -4.267249e-05 0.0
3.137710e-05 -3.053956e-05 0.0
2.191594e-05 1.408888e-07 0.0
-9.542887e-06 4.203157e-05 0.0
-6.779041e-05 8.812187e-05 0.0
-1.563600e-04 1.322703e-04 0.0
-2.764446e-04 1.706757e-04 0.0
-4.263999e-04 2.027087e-04 0.0
-6.023964e-04 2.303306e-04 0.0
-7.999075e-04 2.563963e-04 0.0
-1.015204e-03 2.828366e-04 0.0
-1.246104e-03 3.096901e-04 0.0
-1.491748e-03 3.353543e-04 0.0
-1.751721e-03 3.576951e-04 0.0
-2.025153e-03 3.752540e-04 0.0
-2.310267e-03 3.878873e-04 0.0
-2.604542e-03 3.966112e-04 0.0
-2.905252e-03 4.029022e-04 0.0
-3.210021e-03 4.079359e-04 0.0
-3.517105e-03 4.121666e-04 0.0
-3.825316e-03 4.153739e-04 0.0
-4.133746e-03 4.170248e-04 0.0
-4.441464e-03 4.166741e-04 0.0
-4.747371e-03 4.141888e-04 0.0
-5.050213e-03 4.097312e-04 0.0
-5.348712e-03 4.035905e-04 0.0
-5.641674e-03 3.960059e-04 0.0
-5.928044e-03 3.870827e-04 0.0
-6.206865e-03 3.768199e-04 0.0
-6.477215e-03 3.651939e-04 0.0
-6.738156e-03 3.522273e-04 0.0
-6.988721e-03 3.380022e-04 0.0
-7.227943e-03 3.226225e-04 0.0
-7.454896e-03 3.061619e-04 0.0
-7.668711e-03 2.886355e-04 0.0
-7.868577e-03 2.700109e-04 0.0
-8.053709e-03 2.502472e-04 0.0
-8.223334e-03 2.293353e-04 0.0
-8.376672e-03 2.073166e-04 0.0
-8.512955e-03 1.842731e-04 0.0
-8.631449e-03 1.602992e-04 0.0
-8.731474e-03 1.354733e-04 0.0
-8.812429e-03 1.098460e-04 0.0
-8.873786e-03 8.345017e-05 0.0
-8.915093e-03 5.632581e-05 0.0
-8.935966e-03 2.854810e-05 0.0
-8.936096e-03 2.473574e-07 0.0
-8.915265e-03 -2.838208e-05 0.0
-8.873364e-03 -5.711846e-05 0.0
-8.810398e-03 -8.575848e-05 0.0
-8.726490e-03 -1.141255e-04 0.0
-8.621883e-03 -1.420731e-04 0.0
-8.496942e-03 -1.694805e-04 0.0
-8.352146e-03 -1.962413e-04 0.0
-8.188079e-03 -2.222503e-04 0.0
-8.005424e-03 -2.473934e-04 0.0
-7.804959e-03 -2.715420e-04 0.0
-7.587553e-03 -2.945547e-04 0.0
-7.354166e-03 -3.162827e-04 0.0
-7.105848e-03 -3.365781e-04 0.0
-6.843741e-03 -3.553010e-04 0.0
-6.569073e-03 -3.723250e-04 0.0
-6.283155e-03 -3.875398e-04 0.0
-5.987373e-03 -4.008507e-04 0.0
-5.683180e-03 -4.121770e-04 0.0
-5.372086e-03 -4.214498e-04 0.0
-5.055651e-03 -4.286104e-04 0.0
-4.735473e-03 -4.336093e-04 0.0
-4.413178e-03 -4.364066e-04 0.0
-4.090412e-03 -4.369733e-04 0.0
-3.768831e-03 -4.352932e-04 0.0
-3.450091e-03 -4.313621e-04 0.0
-3.135841e-03 -4.251880e-04 0.0
-2.827711e-03 -4.167922e-04 0.0
-2.527307e-03 -4.062099e-04 0.0
-2.236199e-03 -3.934898e-04 0.0
-1.955911e-03 -3.786950e-04 0.0
-1.687910e-03 -3.619023e-04 0.0
-1.433599e-03 -3.432022e-04 0.0
-1.194302e-03 -3.226993e-04 0.0
-9.712553e-04 -3.005128e-04 0.0
-7.655930e-04 -2.767777e-04 0.0
-5.783355e-04 -2.516467e-04 0.0
-4.103736e-04 -2.252921e-04 0.0
-2.624509e-04 -1.979100e-04 0.0
-1.351426e-04 -1.697245e-04 0.0
-2.882977e-05 -1.409945e-04 0.0
5.633297e-05 -1.120226e-04 0.0
1.204586e-04 -8.316825e-05 0.0
1.639838e-04 -5.486718e-05 0.0
1.877399e-04 -2.765515e-05 0.0
1.930502e-04 -2.206622e-06 0.0
1.818588e-04 2.061279e-05 0.0
1.569009e-04 3.967502e-05 0.0
1.219118e-04 5.349965e-05 0.0
8.185428e-05 6.017405e-05 0.0
4.305950e-05 5.738991e-05 0.0
1.306952e-05 4.291136e-05 0.0
0.000000e+00 1.630875e-05 0.0
0.000000e+00 -1.625662e-05 0.0
0.000000e+00 2.817861e-05 0.0
2.252833e-06 -4.679947e-05 0.0
9.993097e-06 -5.302442e-05 0.0
1.064138e-06 -1.696491e-05 0.0
-3.559373e-05 4.795215e-05 0.0
-1.090886e-04 1.280387e-04 0.0
-2.258370e-04 2.122903e-04 0.0
-3.885193e-04 2.935150e-04 0.0
-5.958691e-04 3.688186e-04 0.0
-8.437802e-04 4.387046e-04 0.0
-1.127226e-03 5.050841e-04 0.0
-1.441992e-03 5.692428e-04 0.0
-1.785425e-03 6.307626e-04 0.0
-2.156046e-03 6.877492e-04 0.0
-2.552532e-03 7.379532e-04 0.0
-2.972785e-03 7.799690e-04 0.0
-3.413605e-03 8.138210e-04 0.0
-3.871052e-03 8.407291e-04 0.0
-4.341142e-03 8.623395e-04 0.0
-4.820464e-03 8.799366e-04 0.0
-5.306401e-03 8.940428e-04 0.0
-5.796954e-03 9.045082e-04 0.0
-6.290373e-03 9.109075e-04 0.0
-6.784828e-03 9.129452e-04 0.0
-7.278293e-03 9.106535e-04 0.0
-7.768622e-03 9.043455e-04 0.0
-8.253713e-03 8.944252e-04 0.0
-8.731636e-03 8.812098e-04 0.0
-9.200654e-03 8.648627e-04 0.0
-9.659159e-03 8.454384e-04 0.0
-1.010558e-02 8.229766e-04 0.0
-1.053835e-02 7.975667e-04 0.0
-1.095588e-02 7.693503e-04 0.0
-1.135661e-02 7.384748e-04 0.0
-1.173905e-02 7.050414e-04 0.0
-1.210181e-02 6.690856e-04 0.0
-1.244355e-02 6.305999e-04 0.0
-1.276296e-02 5.895798e-04 0.0
-1.305874e-02 5.460646e-04 0.0
-1.332962e-02 5.001495e-04 0.0
-1.357433e-02 4.519680e-04 0.0
-1.379167e-02 4.016609e-04 0.0
-1.398055e-02 3.493499e-04 0.0
-1.413997e-02 2.951350e-04 0.0
-1.426901e-02 2.391123e-04 0.0
-1.436688e-02 1.814055e-04 0.0
-1.443284e-02 1.221944e-04 0.0
-1.446629e-02 6.172956e-05 0.0
-1.446673e-02 3.323864e-07 0.0
-1.443383e-02 -6.161363e-05 0.0
-1.436744e-02 -1.237164e-04 0.0
-1.426762e-02 -1.856292e-04 0.0
-1.413459e-02 -2.470449e-04 0.0
-1.396876e-02 -3.076837e-04 0.0
-1.377071e-02 -3.672765e-04 0.0
-1.354120e-02 -4.255504e-04 0.0
-1.328112e-02 -4.822194e-04 0.0
-1.299153e-02 -5.369825e-04 0.0
-1.267362e-02 -5.895277e-04 0.0
-1.232877e-02 -6.395414e-04 0.0
-1.195847e-02 -6.867174e-04 0.0
-1.156439e-02 -7.307652e-04 0.0
-1.114833e-02 -7.714157e-04 0.0
-1.071225e-02 -8.084228e-04 0.0
-1.025820e-02 -8.415637e-04 0.0
-9.788365e-03 -8.706372e-04 0.0
-9.305029e-03 -8.954630e-04 0.0
-8.810558e-03 -9.158807e-04 0.0
-8.307396e-03 -9.317509e-04 0.0
-7.798046e-03 -9.429569e-04 0.0
-7.285061e-03 -9.494066e-04 0.0
-6.771022e-03 -9.510359e-04 0.0
-6.258531e-03 -9.478106e-04 0.0
-5.750192e-03 -9.397255e-04 0.0
-5.248595e-03 -9.268029e-04 0.0
-4.756305e-03 -9.090931e-04 0.0
-4.275846e-03 -8.866752e-04 0.0
-3.809681e-03 -8.596574e-04 0.0
-3.360201e-03 -8.281771e-04 0.0
-2.929706e-03 -7.924013e-04 0.0
-2.520389e-03 -7.525273e-04 0.0
-2.134318e-03 -7.087839e-04 0.0
-1.773414e-03 -6.614335e-04 0.0
-1.439437e-03 -6.107748e-04 0.0
-1.133959e-03 -5.571463e-04 0.0
-8.583419e-04 -5.009321e-04 0.0
-6.137053e-04 -4.425685e-04 0.0
-4.008966e-04 -3.825539e-04 0.0
-2.204485e-04 -3.214619e-04 0.0
-7.253003e-05 -2.599591e-04 0.0
4.311427e-05 -1.988300e-04 0.0
1.272398e-04 -1.390101e-04 0.0
1.812004e-04 -8.163350e-05 0.0
2.070664e-04 -2.809110e-05 0.0
2.077715e-04 1.988824e-05 0.0
1.872861e-04 6.014067e-05 0.0
1.507999e-04 8.996465e-05 0.0
1.048949e-04 1.060582e-04 0.0
5.764991e-05 1.046140e-04 0.0
1.873415e-05 8.180664e-05 0.0
0.000000e+00 3.502279e-05 0.0
0.000000e+00 -3.495966e-05 0.0
0.000000e+00 3.659802e-05 0.0
-6.433618e-06 -5.234800e-05 0.0
-1.489003e-05 -4.016559e-05 0.0
-5.116973e-05 3.054856e-05 0.0
-1.285469e-04 1.379817e-04 0.0
-2.570409e-04 2.637067e-04 0.0
-4.419305e-04 3.949022e-04 0.0
-6.834366e-04 5.246132e-04 0.0
-9.780438e-04 6.504811e-04 0.0
-1.320827e-03 7.724062e-04 0.0
-1.707539e-03 8.902243e-04 0.0
-2.135493e-03 1.002453e-03 0.0
-2.603092e-03 1.106452e-03 0.0
-3.108622e-03 1.199532e-03 0.0
-3.649209e-03 1.280128e-03 0.0
-4.220541e-03 1.348305e-03 0.0
-4.817404e-03 1.405424e-03 0.0
-5.434587e-03 1.453272e-03 0.0
-6.067623e-03 1.493232e-03 0.0
-6.713018e-03 1.525895e-03 0.0
-7.367993e-03 1.551195e-03 0.0
-8.030010e-03 1.568842e-03 0.0
-8.696390e-03 1.578731e-03 0.0
-9.364206e-03 1.581112e-03 0.0
-1.003041e-02 1.576502e-03 0.0
-1.069205e-02 1.565468e-03 0.0
-1.134643e-02 1.548450e-03 0.0
-1.199111e-02 1.525711e-03 0.0
-1.262382e-02 1.497403e-03 0.0
-1.324235e-02 1.463667e-03 0.0
-1.384448e-02 1.424694e-03 0.0
-1.442803e-02 1.380716e-03 0.0
-1.499084e-02 1.331949e-03 0.0
-1.553086e-02 1.278544e-03 0.0
-1.604618e-02 1.220575e-03 0.0
-1.653493e-02 1.158078e-03 0.0
-1.699530e-02 1.091104e-03 0.0
-1.742549e-02 1.019755e-03 0.0
-1.782370e-02 9.441952e-04 0.0
-1.818822e-02 8.646177e-04 0.0
-1.851738e-02 7.812161e-04 0.0
-1.880966e-02 6.941624e-04 0.0
-1.906364e-02 6.036131e-04 0.0
-1.927804e-02 5.097386e-04 0.0
-1.945166e-02 4.127597e-04 0.0
-1.958342e-02 3.129754e-04 0.0
-1.967235e-02 2.107718e-04 0.0
-1.971763e-02 1.066133e-04 0.0
-1.971865e-02 1.026117e-06 0.0
-1.967501e-02 -1.054138e-04 0.0
-1.958656e-02 -2.121308e-04 0.0
-1.945339e-02 -3.185990e-04 0.0
-1.927583e-02 -4.243212e-04 0.0
-1.905444e-02 -5.288073e-04 0.0
-1.878998e-02 -6.315579e-04 0.0
-1.848341e-02 -7.320564e-04 0.0
-1.813591e-02 -8.297707e-04 0.0
-1.774886e-02 -9.241609e-04 0.0
-1.732386e-02 -1.014690e-03 0.0
-1.686270e-02 -1.100838e-03 0.0
-1.636741e-02 -1.182103e-03 0.0
-1.584019e-02 -1.258017e-03 0.0
-1.528345e-02 -1.328138e-03 0.0
-1.469977e-02 -1.392055e-03 0.0
-1.409188e-02 -1.449389e-03 0.0
-1.346268e-02 -1.499788e-03 0.0
-1.281517e-02 -1.542935e-03 0.0
-1.215249e-02 -1.578546e-03 0.0
-1.147788e-02 -1.606376e-03 0.0
-1.079464e-02 -1.626221e-03 0.0
-1.010615e-02 -1.637925e-03 0.0
-9.415837e-03 -1.641379e-03 0.0
-8.727144e-03 -1.636527e-03 0.0
-8.043522e-03 -1.623362e-03 0.0
-7.368406e-03 -1.601926e-03 0.0
-6.705196e-03 -1.572306e-03 0.0
-6.057232e-03 -1.534640e-03 0.0
-5.427778e-03 -1.489115e-03 0.0
-4.819996e-03 -1.435966e-03 0.0
-4.236928e-03 -1.375483e-03 0.0
-3.681466e-03 -1.308006e-03 0.0
-3.156336e-03 -1.233935e-03 0.0
-2.664068e-03 -1.153726e-03 0.0
-2.206965e-03 -1.067901e-03 0.0
-1.787082e-03 -9.770525e-04 0.0
-1.406183e-03 -8.818520e-04 0.0
-1.065709e-03 -7.830617e-04 0.0
-7.667303e-04 -6.815497e-04 0.0
-5.098975e-04 -5.783105e-04 0.0
-2.953798e-04 -4.744922e-04 0.0
-1.227925e-04 -3.714329e-04 0.0
8.889606e-06 -2.707086e-04 0.0
1.014344e-04 -1.741954e-04 0.0
1.574748e-04 -8.414951e-05 0.0
1.806475e-04 -3.303070e-06 0.0
1.757424e-04 6.502676e-05 0.0
1.488546e-04 1.168324e-04 0.0
1.075367e-04 1.473563e-04 0.0
6.097229e-05 1.511588e-04 0.0
2.035473e-05 1.224049e-04 0.0
0.000000e+00 5.535853e-05 0.0
0.000000e+00 -5.527874e-05 0.0
0.000000e+00 3.375166e-05 0.0
-1.380863e-05 -4.379226e-05 0.0
-4.423398e-05 1.530973e-06 0.0
-1.174968e-04 1.167941e-04 0.0
-2.464181e-04 2.743470e-04 0.0
-4.389217e-04 4.537169e-04 0.0
-6.972177e-04 6.419881e-04 0.0
-1.018992e-03 8.323756e-04 0.0
-1.399913e-03 1.021501e-03 0.0
-1.836036e-03 1.206736e-03 0.0
-2.324918e-03 1.384711e-03 0.0
-2.865180e-03 1.551369e-03 0.0
-3.455160e-03 1.703041e-03 0.0
-4.091715e-03 1.837589e-03 0.0
-4.769884e-03 1.954834e-03 0.0
-5.483511e-03 2.056096e-03 0.0
-6.226325e-03 2.143199e-03 0.0
-6.992843e-03 2.217565e-03 0.0
-7.778684e-03 2.279818e-03 0.0
-8.580287e-03 2.329950e-03 0.0
-9.394368e-03 2.367794e-03 0.0
-1.021747e-02 2.393440e-03 0.0
-1.104586e-02 2.407382e-03 0.0
-1.187561e-02 2.410380e-03 0.0
-1.270296e-02 2.403209e-03 0.0
-1.352441e-02 2.386482e-03 0.0
-1.433680e-02 2.360605e-03 0.0
-1.513717e-02 2.325870e-03 0.0
-1.592267e-02 2.282560e-03 0.0
-1.669045e-02 2.231005e-03 0.0
-1.743770e-02 2.171562e-03 0.0
-1.816170e-02 2.104547e-03 0.0
-1.885984e-02 2.030188e-03 0.0
-1.952967e-02 1.948624e-03 0.0
-2.016881e-02 1.859959e-03 0.0
-2.077494e-02 1.764318e-03 0.0
-2.134577e-02 1.661884e-03 0.0
-2.187901e-02 1.552900e-03 0.0
-2.237246e-02 1.437629e-03 0.0
-2.282403e-02 1.316324e-03 0.0
-2.323175e-02 1.189211e-03 0.0
-2.359380e-02 1.056510e-03 0.0
-2.390848e-02 9.184708e-04 0.0
-2.417421e-02 7.754184e-04 0.0
-2.438951e-02 6.277768e-04 0.0
-2.455303e-02 4.760722e-04 0.0
-2.466361e-02 3.209164e-04 0.0
-2.472028e-02 1.629847e-04 0.0
-2.472235e-02 3.001196e-06 0.0
-2.466938e-02 -1.582581e-04 0.0
-2.456124e-02 -3.199998e-04 0.0
-2.439806e-02 -4.814588e-04 0.0
-2.418023e-02 -6.418720e-04 0.0
-2.390843e-02 -8.004617e-04 0.0
-2.358354e-02 -9.564292e-04 0.0
-2.320674e-02 -1.108960e-03 0.0
-2.277945e-02 -1.257234e-03 0.0
-2.230335e-02 -1.400440e-03 0.0
-2.178039e-02 -1.537788e-03 0.0
-2.121278e-02 -1.668516e-03 0.0
-2.060300e-02 -1.791893e-03 0.0
-1.995375e-02 -1.907227e-03 0.0
-1.926795e-02 -2.013860e-03 0.0
-1.854877e-02 -2.111172e-03 0.0
-1.779952e-02 -2.198582e-03 0.0
-1.702373e-02 -2.275554e-03 0.0
-1.622507e-02 -2.341601e-03 0.0
-1.540734e-02 -2.396290e-03 0.0
-1.457450e-02 -2.439252e-03 0.0
-1.373058e-02 -2.470181e-03 0.0
-1.287969e-02 -2.488841e-03 0.0
-1.202601e-02 -2.495073e-03 0.0
-1.117376e-02 -2.488792e-03 0.0
-1.032714e-02 -2.469990e-03 0.0
-9.490336e-03 -2.438728e-03 0.0
-8.667504e-03 -2.395140e-03 0.0
-7.862717e-03 -2.339433e-03 0.0
-7.079954e-03 -2.271889e-03 0.0
-6.323071e-03 -2.192867e-03 0.0
-5.595770e-03 -2.102806e-03 0.0
-4.901573e-03 -2.002228e-03 0.0
-4.243794e-03 -1.891740e-03 0.0
-3.625502e-03 -1.772044e-03 0.0
-3.049488e-03 -1.643937e-03 0.0
-2.518233e-03 -1.508328e-03 0.0
-2.033858e-03 -1.366244e-03 0.0
-1.598087e-03 -1.218848e-03 0.0
-1.212190e-03 -1.067461e-03 0.0
-8.769268e-04 -9.135876e-04 0.0
-5.924787e-04 -7.589545e-04 0.0
-3.583725e-04 -6.055541e-04 0.0
-1.733912e-04 -4.557058e-04 0.0
-3.547351e-05 -3.121296e-04 0.0
5.839690e-05 -1.780371e-04 0.0
1.123140e-04 -5.723764e-05 0.0
1.315791e-04 4.574424e-05 0.0
1.228330e-04 1.255599e-04 0.0
9.421458e-05 1.759565e-04 0.0
5.559537e-05 1.897599e-04 0.0
1.906762e-05 1.589147e-04 0.0
0.000000e+00 7.440849e-05 0.0
0.000000e+00 -7.430796e-05 0.0
0.000000e+00 1.981404e-05 0.0
-1.862191e-05 -1.979660e-05 0.0
-7.648666e-05 7.305580e-05 0.0
-1.944636e-04 2.430053e-04 0.0
-3.819335e-04 4.598211e-04 0.0
-6.426945e-04 7.031729e-04 0.0
-9.756811e-04 9.603375e-04 0.0
-1.377363e-03 1.223380e-03 0.0
-1.844286e-03 1.486128e-03 0.0
-2.374390e-03 1.742411e-03 0.0
-2.966656e-03 1.985959e-03 0.0
-3.619720e-03 2.211430e-03 0.0
-4.330526e-03 2.415530e-03 0.0
-5.093897e-03 2.597381e-03 0.0
-5.903137e-03 2.757931e-03 0.0
-6.751220e-03 2.898828e-03 0.0
-7.631819e-03 3.021399e-03 0.0
-8.539724e-03 3.126211e-03 0.0
-9.470604e-03 3.213252e-03 0.0
-1.042045e-02 3.282423e-03 0.0
-1.138508e-02 3.333977e-03 0.0
-1.236001e-02 3.368629e-03 0.0
-1.334056e-02 3.387393e-03 0.0
-1.432218e-02 3.391286e-03 0.0
-1.530062e-02 3.381130e-03 0.0
-1.627199e-02 3.357522e-03 0.0
-1.723262e-02 3.320935e-03 0.0
-1.817899e-02 3.271834e-03 0.0
-1.910762e-02 3.210726e-03 0.0
-2.001511e-02 3.138125e-03 0.0
-2.089815e-02 3.054481e-03 0.0
-2.175360e-02 2.960133e-03 0.0
-2.257846e-02 2.855319e-03 0.0
-2.336984e-02 2.740237e-03 0.0
-2.412492e-02 2.615111e-03 0.0
-2.484089e-02 2.480224e-03 0.0
-2.551500e-02 2.335911e-03 0.0
-2.614459e-02 2.182515e-03 0.0
-2.672711e-02 2.020353e-03 0.0
-2.726018e-02 1.849713e-03 0.0
-2.774156e-02 1.670883e-03 0.0
-2.816913e-02 1.484199e-03 0.0
-2.854089e-02 1.290091e-03 0.0
-2.885495e-02 1.089109e-03 0.0
-2.910958e-02 8.819167e-04 0.0
-2.930322e-02 6.692687e-04 0.0
-2.943455e-02 4.519851e-04 0.0
-2.950251e-02 2.309382e-04 0.0
-2.950636e-02 7.058553e-06 0.0
-2.944564e-02 -2.186414e-04 0.0
-2.932021e-02 -4.450887e-04 0.0
-2.913020e-02 -6.712052e-04 0.0
-2.887607e-02 -8.958912e-04 0.0
-2.855855e-02 -1.118023e-03 0.0
-2.817867e-02 -1.336459e-03 0.0
-2.773777e-02 -1.550056e-03 0.0
-2.723751e-02 -1.757682e-03 0.0
-2.667984e-02 -1.958231e-03 0.0
-2.606706e-02 -2.150626e-03 0.0
-2.540173e-02 -2.333827e-03 0.0
-2.468672e-02 -2.506832e-03 0.0
-2.392519e-02 -2.668678e-03 0.0
-2.312054e-02 -2.818446e-03 0.0
-2.227640e-02 -2.955266e-03 0.0
-2.139664e-02 -3.078322e-03 0.0
-2.048535e-02 -3.186862e-03 0.0
-1.954678e-02 -3.280205e-03 0.0
-1.858536e-02 -3.357750e-03 0.0
-1.760566e-02 -3.418983e-03 0.0
-1.661239e-02 -3.463483e-03 0.0
-1.561033e-02 -3.490924e-03 0.0
-1.460432e-02 -3.501084e-03 0.0
-1.359928e-02 -3.493844e-03 0.0
-1.260008e-02 -3.469189e-03 0.0
-1.161161e-02 -3.427205e-03 0.0
-1.063868e-02 -3.368075e-03 0.0
-9.686046e-03 -3.292087e-03 0.0
-8.758322e-03 -3.199636e-03 0.0
-7.859993e-03 -3.091224e-03 0.0
-6.995361e-03 -2.967467e-03 0.0
-6.168518e-03 -2.829098e-03 0.0
-5.383308e-03 -2.676975e-03 0.0
-4.643292e-03 -2.512081e-03 0.0
-3.951703e-03 -2.335543e-03 0.0
-3.311408e-03 -2.148637e-03 0.0
-2.724859e-03 -1.952806e-03 0.0
-2.194040e-03 -1.749678e-03 0.0
-1.720416e-03 -1.541097e-03 0.0
-1.304865e-03 -1.329152e-03 0.0
-9.476102e-04 -1.116223e-03 0.0
-6.481440e-04 -9.050349e-04 0.0
-4.051414e-04 -6.987236e-04 0.0
-2.163668e-04 -5.009194e-04 0.0
-7.857556e-05 -3.158440e-04 0.0
1.259324e-05 -1.484221e-04 0.0
6.272549e-05 -4.403649e-06 0.0
7.875614e-05 1.095123e-04 0.0
6.912949e-05 1.855664e-04 0.0
4.404051e-05 2.148323e-04 0.0
1.587885e-05 1.870599e-04 0.0
0.000000e+00 9.027110e-05 0.0
0.000000e+00 -9.014702e-05 0.0
0.000000e+00 -5.670272e-06 0.0
-2.253655e-05 1.786020e-05 0.0
-1.127025e-04 1.727984e-04 0.0
-2.799993e-04 4.094793e-04 0.0
-5.284621e-04 6.976356e-04 0.0
-8.575806e-04 1.017699e-03 0.0
-1.264344e-03 1.356069e-03 0.0
-1.745699e-03 1.702047e-03 0.0
-2.299926e-03 2.045779e-03 0.0
-2.926354e-03 2.377976e-03 0.0
-3.623951e-03 2.690882e-03 0.0
-4.389901e-03 2.979371e-03 0.0
-5.219065e-03 3.241285e-03 0.0
-6.104549e-03 3.476740e-03 0.0
-7.038899e-03 3.686865e-03 0.0
-8.015202e-03 3.872659e-03 0.0
-9.027578e-03 4.034475e-03 0.0
-1.007100e-02 4.172175e-03 0.0
-1.114076e-02 4.285643e-03 0.0
-1.223199e-02 4.375212e-03 0.0
-1.333951e-02 4.441771e-03 0.0
-1.445796e-02 4.486550e-03 0.0
-1.558209e-02 4.510804e-03 0.0
-1.670695e-02 4.515588e-03 0.0
-1.782793e-02 4.501720e-03 0.0
-1.894071e-02 4.469896e-03 0.0
-2.004106e-02 4.420798e-03 0.0
-2.112489e-02 4.355146e-03 0.0
-2.218816e-02 4.273646e-03 0.0
-2.322703e-02 4.176916e-03 0.0
-2.423780e-02 4.065437e-03 0.0
-2.521697e-02 3.939580e-03 0.0
-2.616112e-02 3.799672e-03 0.0
-2.706691e-02 3.646064e-03 0.0
-2.793104e-02 3.479163e-03 0.0
-2.875029e-02 3.299411e-03 0.0
-2.952153e-02 3.107241e-03 0.0
-3.024180e-02 2.903046e-03 0.0
-3.090828e-02 2.687182e-03 0.0
-3.151830e-02 2.460012e-03 0.0
-3.206933e-02 2.221961e-03 0.0
-3.255895e-02 1.973570e-03 0.0
-3.298483e-02 1.715510e-03 0.0
-3.334483e-02 1.448576e-03 0.0
-3.363699e-02 1.173654e-03 0.0
-3.385962e-02 8.916980e-04 0.0
-3.401128e-02 6.037200e-04 0.0
-3.409085e-02 3.108007e-04 0.0
-3.409753e-02 1.411982e-05 0.0
-3.403081e-02 -2.850101e-04 0.0
-3.389051e-02 -5.851649e-04 0.0
-3.367677e-02 -8.848904e-04 0.0
-3.339005e-02 -1.182703e-03 0.0
-3.303116e-02 -1.477101e-03 0.0
-3.260125e-02 -1.766582e-03 0.0
-3.210183e-02 -2.049655e-03 0.0
-3.153476e-02 -2.324855e-03 0.0
-3.090227e-02 -2.590747e-03 0.0
-3.020692e-02 -2.845933e-03 0.0
-2.945162e-02 -3.089051e-03 0.0
-2.863959e-02 -3.318780e-03 0.0
-2.777436e-02 -3.533846e-03 0.0
-2.685974e-02 -3.733030e-03 0.0
-2.589983e-02 -3.915177e-03 0.0
-2.489897e-02 -4.079208e-03 0.0
-2.386174e-02 -4.224129e-03 0.0
-2.279294e-02 -4.349047e-03 0.0
-2.169756e-02 -4.453172e-03 0.0
-2.058074e-02 -4.535830e-03 0.0
-1.944777e-02 -4.596467e-03 0.0
-1.830405e-02 -4.634654e-03 0.0
-1.715504e-02 -4.650095e-03 0.0
-1.600626e-02 -4.642627e-03 0.0
-1.486324e-02 -4.612228e-03 0.0
-1.373145e-02 -4.559006e-03 0.0
-1.261635e-02 -4.483201e-03 0.0
-1.152327e-02 -4.385192e-03 0.0
-1.045744e-02 -4.265498e-03 0.0
-9.423905e-03 -4.124787e-03 0.0
-8.427526e-03 -3.963874e-03 0.0
-7.472914e-03 -3.783734e-03 0.0
-6.564405e-03 -3.585503e-03 0.0
-5.706011e-03 -3.370490e-03 0.0
-4.901378e-03 -3.140189e-03 0.0
-4.153735e-03 -2.896291e-03 0.0
-3.465847e-03 -2.640704e-03 0.0
-2.839957e-03 -2.375579e-03 0.0
-2.277728e-03 -2.103338e-03 0.0
-1.780179e-03 -1.826713e-03 0.0
-1.347616e-03 -1.548800e-03 0.0
-9.795546e-04 -1.273110e-03 0.0
-6.746437e-04 -1.003648e-03 0.0
-4.305794e-04 -7.449971e-04 0.0
-2.440180e-04 -5.024190e-04 0.0
-1.104848e-04 -2.819691e-04 0.0
-2.427896e-05 -9.062343e-05 0.0
2.163345e-05 6.358436e-05 0.0
3.576786e-05 1.714166e-04 0.0
2.832291e-05 2.222619e-04 0.0
1.150620e-05 2.038615e-04 0.0
0.000000e+00 1.017623e-04 0.0
0.000000e+00 -1.016133e-04 0.0
0.000000e+00 -4.419413e-05 0.0
-2.863143e-05 6.557847e-05 0.0
-1.539444e-04 2.988817e-04 0.0
-3.712553e-04 6.173060e-04 0.0
-6.792724e-04 9.916386e-04 0.0
-1.074646e-03 1.402153e-03 0.0
-1.554230e-03 1.832887e-03 0.0
-2.116360e-03 2.269585e-03 0.0
-2.760526e-03 2.699237e-03 0.0
-3.485907e-03 3.110974e-03 0.0
-4.289874e-03 3.497173e-03 0.0
-5.167382e-03 3.853771e-03 0.0
-6.111490e-03 4.179514e-03 0.0
-7.114550e-03 4.474578e-03 0.0
-8.169315e-03 4.739297e-03 0.0
-9.269449e-03 4.973562e-03 0.0
-1.040937e-02 5.176933e-03 0.0
-1.158375e-02 5.349133e-03 0.0
-1.278707e-02 5.490466e-03 0.0
-1.401349e-02 5.601897e-03 0.0
-1.525702e-02 5.684809e-03 0.0
-1.651177e-02 5.740651e-03 0.0
-1.777219e-02 5.770697e-03 0.0
-1.903303e-02 5.776002e-03 0.0
-2.028929e-02 5.757502e-03 0.0
-2.153610e-02 5.716133e-03 0.0
-2.276872e-02 5.652857e-03 0.0
-2.398252e-02 5.568605e-03 0.0
-2.517309e-02 5.464190e-03 0.0
-2.633623e-02 5.340273e-03 0.0
-2.746789e-02 5.197390e-03 0.0
-2.856416e-02 5.036029e-03 0.0
-2.962120e-02 4.856703e-03 0.0
-3.063520e-02 4.659966e-03 0.0
-3.160246e-02 4.446392e-03 0.0
-3.251942e-02 4.216516e-03 0.0
-3.338267e-02 3.970819e-03 0.0
-3.418898e-02 3.709736e-03 0.0
-3.493527e-02 3.433712e-03 0.0
-3.561857e-02 3.143272e-03 0.0
-3.623602e-02 2.839064e-03 0.0
-3.678488e-02 2.521880e-03 0.0
-3.726257e-02 2.192636e-03 0.0
-3.766673e-02 1.852336e-03 0.0
-3.799524e-02 1.502055e-03 0.0
-3.824630e-02 1.142927e-03 0.0
-3.841839e-02 7.761737e-04 0.0
-3.851031e-02 4.031332e-04 0.0
-3.852115e-02 2.530153e-05 0.0
-3.845035e-02 -3.556416e-04 0.0
-3.829766e-02 -7.378663e-04 0.0
-3.806320e-02 -1.119507e-03 0.0
-3.774744e-02 -1.498676e-03 0.0
-3.735128e-02 -1.873485e-03 0.0
-3.687597e-02 -2.242053e-03 0.0
-3.632317e-02 -2.602526e-03 0.0
-3.569494e-02 -2.953072e-03 0.0
-3.499373e-02 -3.291893e-03 0.0
-3.422236e-02 -3.617222e-03 0.0
-3.338400e-02 -3.927332e-03 0.0
-3.248218e-02 -4.220542e-03 0.0
-3.152078e-02 -4.495231e-03 0.0
-3.050398e-02 -4.749847e-03 0.0
-2.943628e-02 -4.982923e-03 0.0
-2.832244e-02 -5.193094e-03 0.0
-2.716751e-02 -5.379104e-03 0.0
-2.597677e-02 -5.539824e-03 0.0
-2.475571e-02 -5.674257e-03 0.0
-2.351000e-02 -5.781549e-03 0.0
-2.224548e-02 -5.860997e-03 0.0
-2.096809e-02 -5.912053e-03 0.0
-1.968385e-02 -5.934336e-03 0.0
-1.839886e-02 -5.927633e-03 0.0
-1.711921e-02 -5.891908e-03 0.0
-1.585095e-02 -5.827290e-03 0.0
-1.460011e-02 -5.734082e-03 0.0
-1.337257e-02 -5.612761e-03 0.0
-1.217411e-02 -5.463986e-03 0.0
-1.101032e-02 -5.288603e-03 0.0