# vtk DataFile Version 3.0
Vector Field
ASCII
DATASET RECTILINEAR_GRID
DIMENSIONS 102 102 1
X_COORDINATES 102 double
0.000000 0.100000 0.200000 0.300000 0.400000 0.500000 0.600000 0.700000 0.800000 0.900000 1.000000 1.100000 1.200000 1.300000 1.400000 1.500000 1.600000 1.700000 1.800000 1.900000 2.000000 2.100000 2.200000 2.300000 2.400000 2.500000 2.600000 2.700000 2.800000 2.900000 3.000000 3.100000 3.200000 3.300000 3.400000 3.500000 3.600000 3.700000 3.800000 3.900000 4.000000 4.100000 4.200000 4.300000 4.400000 4.500000 4.600000 4.700000 4.800000 4.900000 5.000000 5.100000 5.200000 5.300000 5.400000 5.500000 5.600000 5.700000 5.800000 5.900000 6.000000 6.100000 6.200000 6.300000 6.400000 6.500000 6.600000 6.700000 6.800000 6.900000 7.000000 7.100000 7.200000 7.300000 7.400000 7.500000 7.600000 7.700000 7.800000 7.900000 8.000000 8.100000 8.200000 8.300000 8.400000 8.500000 8.600000 8.700000 8.800000 8.900000 9.000000 9.100000 9.200000 9.300000 9.400000 9.500000 9.600000 9.700000 9.800000 9.900000 10.000000 10.100000 
Y_COORDINATES 102 double
0.000000 0.100000 0.200000 0.300000 0.400000 0.500000 0.600000 0.700000 0.800000 0.900000 1.000000 1.100000 1.200000 1.300000 1.400000 1.500000 1.600000 1.700000 1.800000 1.900000 2.000000 2.100000 2.200000 2.300000 2.400000 2.500000 2.600000 2.700000 2.800000 2.900000 3.000000 3.100000 3.200000 3.300000 3.400000 3.500000 3.600000 3.700000 3.800000 3.900000 4.000000 4.100000 4.200000 4.300000 4.400000 4.500000 4.600000 4.700000 4.800000 4.900000 5.000000 5.100000 5.200000 5.300000 5.400000 5.500000 5.600000 5.700000 5.800000 5.900000 6.000000 6.100000 6.200000 6.300000 6.400000 6.500000 6.600000 6.700000 6.800000 6.900000 7.000000 7.100000 7.200000 7.300000 7.400000 7.500000 7.600000 7.700000 7.800000 7.900000 8.000000 8.100000 8.200000 8.300000 8.400000 8.500000 8.600000 8.700000 8.800000 8.900000 9.000000 9.100000 9.200000 9.300000 9.400000 9.500000 9.600000 9.700000 9.800000 9.900000 10.000000 10.100000 
Z_COORDINATES 1 double
0.0
POINT_DATA 10404
VECTORS Velocity double
0.000000e+00 0.000000e+00 0.0
-7.415693e-06 0.000000e+00 0.0
-2.865671e-05 0.000000e+00 0.0
-4.727586e-05 0.000000e+00 0.0
-5.611253e-05 0.000000e+00 0.0
-5.295874e-05 0.000000e+00 0.0
-3.772417e-05 0.000000e+00 0.0
-1.030022e-05 0.000000e+00 0.0
3.027560e-05 0.000000e+00 0.0
8.534297e-05 0.000000e+00 0.0
1.554974e-04 0.000000e+00 0.0
2.397239e-04 0.000000e+00 0.0
3.353912e-04 0.000000e+00 0.0
4.391165e-04 0.000000e+00 0.0
5.479859e-04 0.000000e+00 0.0
6.604518e-04 0.000000e+00 0.0
7.764697e-04 0.000000e+00 0.0
8.968839e-04 0.000000e+00 0.0
1.022470e-03 0.000000e+00 0.0
1.153159e-03 0.000000e+00 0.0
1.287813e-03 0.000000e+00 0.0
1.424571e-03 0.000000e+00 0.0
1.561515e-03 0.000000e+00 0.0
1.697265e-03 0.000000e+00 0.0
1.831234e-03 0.000000e+00 0.0
1.963468e-03 0.000000e+00 0.0
2.094239e-03 0.000000e+00 0.0
2.223614e-03 0.000000e+00 0.0
2.351232e-03 0.000000e+00 0.0
2.476324e-03 0.000000e+00 0.0
2.597942e-03 0.000000e+00 0.0
2.715215e-03 0.000000e+00 0.0
2.827523e-03 0.000000e+00 0.0
2.934514e-03 0.000000e+00 0.0
3.036004e-03 0.000000e+00 0.0
3.131828e-03 0.000000e+00 0.0
3.221729e-03 0.000000e+00 0.0
3.305318e-03 0.000000e+00 0.0
3.382114e-03 0.000000e+00 0.0
3.451611e-03 0.000000e+00 0.0
3.513341e-03 0.000000e+00 0.0
3.566903e-03 0.000000e+00 0.0
3.611957e-03 0.000000e+00 0.0
3.648205e-03 0.000000e+00 0.0
3.675370e-03 0.000000e+00 0.0
3.693194e-03 0.000000e+00 0.0
3.701448e-03 0.000000e+00 0.0
3.699956e-03 0.000000e+00 0.0
3.688630e-03 0.000000e+00 0.0
3.667463e-03 0.000000e+00 0.0
3.636519e-03 0.000000e+00 0.0
3.595916e-03 0.000000e+00 0.0
3.545817e-03 0.000000e+00 0.0
3.486428e-03 0.000000e+00 0.0
3.417993e-03 0.000000e+00 0.0
3.340801e-03 0.000000e+00 0.0
3.255185e-03 0.000000e+00 0.0
3.161533e-03 0.000000e+00 0.0
3.060289e-03 0.000000e+00 0.0
2.951949e-03 0.000000e+00 0.0
2.837066e-03 0.000000e+00 0.0
2.716237e-03 0.000000e+00 0.0
2.590099e-03 0.000000e+00 0.0
2.459325e-03 0.000000e+00 0.0
2.324612e-03 0.000000e+00 0.0
2.186679e-03 0.000000e+00 0.0
2.046267e-03 0.000000e+00 0.0
1.904129e-03 0.000000e+00 0.0
1.761037e-03 0.000000e+00 0.0
1.617771e-03 0.000000e+00 0.0
1.475118e-03 0.000000e+00 0.0
1.333865e-03 0.000000e+00 0.0
1.194794e-03 0.000000e+00 0.0
1.058673e-03 0.000000e+00 0.0
9.262559e-04 0.000000e+00 0.0
7.982729e-04 0.000000e+00 0.0
6.754297e-04 0.000000e+00 0.0
5.584028e-04 0.000000e+00 0.0
4.478359e-04 0.000000e+00 0.0
3.443354e-04 0.000000e+00 0.0
2.484652e-04 0.000000e+00 0.0
1.607408e-04 0.000000e+00 0.0
8.162255e-05 0.000000e+00 0.0
1.150954e-05 0.000000e+00 0.0
-4.926729e-05 0.000000e+00 0.0
-1.004522e-04 0.000000e+00 0.0
-1.418739e-04 0.000000e+00 0.0
-1.734549e-04 0.000000e+00 0.0
-1.952246e-04 0.000000e+00 0.0
-2.073365e-04 0.000000e+00 0.0
-2.100902e-04 0.000000e+00 0.0
-2.039615e-04 0.000000e+00 0.0
-1.896428e-04 0.000000e+00 0.0
-1.680986e-04 0.000000e+00 0.0
-1.406451e-04 0.000000e+00 0.0
-1.090616e-04 0.000000e+00 0.0
-7.574686e-05 0.000000e+00 0.0
-4.391455e-05 0.000000e+00 0.0
-1.774775e-05 0.000000e+00 0.0
-2.093480e-06 0.000000e+00 0.0
-0.000000e+00 0.000000e+00 0.0
0.000000e+00 0.000000e+00 0.0
0.000000e+00 1.400915e-05 0.0
8.157341e-06 -1.319805e-05 0.0
3.090811e-05 -2.035820e-05 0.0
5.335947e-05 -1.509412e-05 0.0
6.660800e-05 -3.833431e-06 0.0
6.481829e-05 8.362280e-06 0.0
4.553805e-05 1.894545e-05 0.0
9.504803e-06 2.803237e-05 0.0
-4.041393e-05 3.738061e-05 0.0
-1.009162e-04 4.882680e-05 0.0
-1.698193e-04 6.294532e-05 0.0
-2.467372e-04 7.858900e-05 0.0
-3.326561e-04 9.346364e-05 0.0
-4.287851e-04 1.053188e-04 0.0
-5.353983e-04 1.130469e-04 0.0
-6.512940e-04 1.171089e-04 0.0
-7.740823e-04 1.191335e-04 0.0
-9.010475e-04 1.209919e-04 0.0
-1.030065e-03 1.238863e-04 0.0
-1.160106e-03 1.279086e-04 0.0
-1.291139e-03 1.322136e-04 0.0
-1.423595e-03 1.356192e-04 0.0
-1.557723e-03 1.372590e-04 0.0
-1.693187e-03 1.369558e-04 0.0
-1.829043e-03 1.351862e-04 0.0
-1.964032e-03 1.327389e-04 0.0
-2.096974e-03 1.302930e-04 0.0
-2.227052e-03 1.281397e-04 0.0
-2.353867e-03 1.261485e-04 0.0
-2.477300e-03 1.239359e-04 0.0
-2.597280e-03 1.211069e-04 0.0
-2.713602e-03 1.174364e-04 0.0
-2.825861e-03 1.129219e-04 0.0
-2.933496e-03 1.077194e-04 0.0
-3.035900e-03 1.020274e-04 0.0
-3.132509e-03 9.599132e-05 0.0
-3.222853e-03 8.966646e-05 0.0
-3.306536e-03 8.303845e-05 0.0
-3.383200e-03 7.606966e-05 0.0
-3.452485e-03 6.873830e-05 0.0
-3.514015e-03 6.105131e-05 0.0
-3.567413e-03 5.303339e-05 0.0
-3.612320e-03 4.470704e-05 0.0
-3.648421e-03 3.607966e-05 0.0
-3.675445e-03 2.714552e-05 0.0
-3.693164e-03 1.789989e-05 0.0
-3.701388e-03 8.357597e-06 0.0
-3.699962e-03 -1.431576e-06 0.0
-3.688787e-03 -1.137024e-05 0.0
-3.667820e-03 -2.134925e-05 0.0
-3.637069e-03 -3.126873e-05 0.0
-3.596603e-03 -4.104202e-05 0.0
-3.546553e-03 -5.060065e-05 0.0
-3.487116e-03 -5.989544e-05 0.0
-3.418556e-03 -6.889290e-05 0.0
-3.341198e-03 -7.756833e-05 0.0
-3.255416e-03 -8.589776e-05 0.0
-3.161635e-03 -9.385119e-05 0.0
-3.060317e-03 -1.013889e-04 0.0
-2.951964e-03 -1.084616e-04 0.0
-2.837114e-03 -1.150140e-04 0.0
-2.716342e-03 -1.209899e-04 0.0
-2.590264e-03 -1.263378e-04 0.0
-2.459530e-03 -1.310144e-04 0.0
-2.324832e-03 -1.349858e-04 0.0
-2.186890e-03 -1.382265e-04 0.0
-2.046450e-03 -1.407171e-04 0.0
-1.904279e-03 -1.424418e-04 0.0
-1.761154e-03 -1.433881e-04 0.0
-1.617859e-03 -1.435467e-04 0.0
-1.475181e-03 -1.429138e-04 0.0
-1.333901e-03 -1.414913e-04 0.0
-1.194799e-03 -1.392874e-04 0.0
-1.058645e-03 -1.363164e-04 0.0
-9.261939e-04 -1.325981e-04 0.0
-7.981823e-04 -1.281565e-04 0.0
-6.753210e-04 -1.230181e-04 0.0
-5.582894e-04 -1.172115e-04 0.0
-4.477312e-04 -1.107674e-04 0.0
-3.442490e-04 -1.037202e-04 0.0
-2.484012e-04 -9.610900e-05 0.0
-1.606971e-04 -8.797928e-05 0.0
-8.159285e-05 -7.938362e-05 0.0
-1.148528e-05 -7.038233e-05 0.0
4.929417e-05 -6.104345e-05 0.0
1.004875e-04 -5.144316e-05 0.0
1.419206e-04 -4.166764e-05 0.0
1.735130e-04 -3.181259e-05 0.0
1.952919e-04 -2.198663e-05 0.0
2.074092e-04 -1.231516e-05 0.0
2.101640e-04 -2.945713e-06 0.0
2.040323e-04 5.945127e-06 0.0
1.897070e-04 1.414073e-05 0.0
1.681536e-04 2.136881e-05 0.0
1.406892e-04 2.727842e-05 0.0
1.090947e-04 3.140677e-05 0.0
7.576995e-05 3.313547e-05 0.0
4.392941e-05 3.164942e-05 0.0
1.775739e-05 2.597992e-05 0.0
2.100486e-06 1.546445e-05 0.0
0.000000e+00 1.908090e-06 0.0
0.000000e+00 -1.910235e-06 0.0
0.000000e+00 3.374612e-05 0.0
2.067075e-05 -3.168289e-05 0.0
5.432651e-05 -4.764173e-05 0.0
7.736095e-05 -3.328978e-05 0.0
7.523296e-05 -1.946250e-06 0.0
3.978984e-05 3.755374e-05 0.0
-3.181870e-05 8.080822e-05 0.0
-1.389198e-04 1.265382e-04 0.0
-2.793629e-04 1.745534e-04 0.0
-4.511291e-04 2.240688e-04 0.0
-6.530072e-04 2.730443e-04 0.0
-8.843066e-04 3.186488e-04 0.0
-1.144036e-03 3.583780e-04 0.0
-1.430164e-03 3.910792e-04 0.0
-1.739430e-03 4.172913e-04 0.0
-2.067775e-03 4.387588e-04 0.0
-2.411139e-03 4.574453e-04 0.0
-2.766163e-03 4.746037e-04 0.0
-3.130479e-03 4.903572e-04 0.0
-3.502517e-03 5.039158e-04 0.0
-3.881011e-03 5.142086e-04 0.0
-4.264513e-03 5.205396e-04 0.0
-4.651154e-03 5.229296e-04 0.0
-5.038709e-03 5.220379e-04 0.0
-5.424876e-03 5.187834e-04 0.0
-5.807573e-03 5.139180e-04 0.0
-6.185095e-03 5.077685e-04 0.0
-6.556101e-03 5.002327e-04 0.0
-6.919452e-03 4.909715e-04 0.0
-7.274030e-03 4.796553e-04 0.0
-7.618621e-03 4.661337e-04 0.0
-7.951892e-03 4.504683e-04 0.0
-8.272448e-03 4.328552e-04 0.0
-8.578910e-03 4.135093e-04 0.0
-8.869971e-03 3.925795e-04 0.0
-9.144406e-03 3.701273e-04 0.0
-9.401049e-03 3.461576e-04 0.0
-9.638765e-03 3.206677e-04 0.0
-9.856434e-03 2.936804e-04 0.0
-1.005296e-02 2.652489e-04 0.0
-1.022727e-02 2.354414e-04 0.0
-1.037839e-02 2.043217e-04 0.0
-1.050539e-02 1.719423e-04 0.0
-1.060744e-02 1.383548e-04 0.0
-1.068380e-02 1.036303e-04 0.0
-1.073381e-02 6.788063e-05 0.0
-1.075692e-02 3.127274e-05 0.0
-1.075269e-02 -5.964799e-06 0.0
-1.072088e-02 -4.353582e-05 0.0
-1.066140e-02 -8.114837e-05 0.0
-1.057434e-02 -1.185495e-04 0.0
-1.045996e-02 -1.555187e-04 0.0
-1.031868e-02 -1.918613e-04 0.0
-1.015108e-02 -2.274000e-04 0.0
-9.957885e-03 -2.619665e-04 0.0
-9.739956e-03 -2.953920e-04 0.0
-9.498302e-03 -3.275021e-04 0.0
-9.234059e-03 -3.581147e-04 0.0
-8.948490e-03 -3.870419e-04 0.0
-8.642982e-03 -4.140959e-04 0.0
-8.319042e-03 -4.390952e-04 0.0
-7.978294e-03 -4.618714e-04 0.0
-7.622472e-03 -4.822726e-04 0.0
-7.253410e-03 -5.001651e-04 0.0
-6.873034e-03 -5.154327e-04 0.0
-6.483344e-03 -5.279749e-04 0.0
-6.086408e-03 -5.377059e-04 0.0
-5.684341e-03 -5.445554e-04 0.0
-5.279298e-03 -5.484697e-04 0.0
-4.873458e-03 -5.494151e-04 0.0
-4.469010e-03 -5.473810e-04 0.0
-4.068140e-03 -5.423769e-04 0.0
-3.673016e-03 -5.344306e-04 0.0
-3.285780e-03 -5.235867e-04 0.0
-2.908528e-03 -5.099061e-04 0.0
-2.543301e-03 -4.934649e-04 0.0
-2.192066e-03 -4.743548e-04 0.0
-1.856707e-03 -4.526838e-04 0.0
-1.539013e-03 -4.285782e-04 0.0
-1.240657e-03 -4.021837e-04 0.0
-9.631910e-04 -3.736677e-04 0.0
-7.080248e-04 -3.432195e-04 0.0
-4.764123e-04 -3.110522e-04 0.0
-2.694330e-04 -2.774030e-04 0.0
-8.797226e-05 -2.425355e-04 0.0
6.730126e-05 -2.067423e-04 0.0
1.959591e-04 -1.703493e-04 0.0
2.978486e-04 -1.337271e-04 0.0
3.731271e-04 -9.729316e-05 0.0
4.223078e-04 -6.152813e-05 0.0
4.463174e-04 -2.699240e-05 0.0
4.465686e-04 5.652051e-06 0.0
4.250522e-04 3.561080e-05 0.0
3.844544e-04 6.191675e-05 0.0
3.283031e-04 8.337740e-05 0.0
2.611430e-04 9.851352e-05 0.0
1.887167e-04 1.055079e-04 0.0
1.180854e-04 1.022271e-04 0.0
5.750264e-05 8.650979e-05 0.0
1.567052e-05 5.724435e-05 0.0
0.000000e+00 1.752674e-05 0.0
0.000000e+00 -1.752776e-05 0.0
0.000000e+00 5.251181e-05 0.0
2.248190e-05 -4.710591e-05 0.0
4.577827e-05 -6.595747e-05 0.0
4.542095e-05 -3.317023e-05 0.0
6.012606e-06 3.118756e-05 0.0
-8.054426e-05 1.145226e-04 0.0
-2.172637e-04 2.094187e-04 0.0
-4.044706e-04 3.112402e-04 0.0
-6.416950e-04 4.160324e-04 0.0
-9.284875e-04 5.195201e-04 0.0
-1.264166e-03 6.173397e-04 0.0
-1.647038e-03 7.060054e-04 0.0
-2.073794e-03 7.838121e-04 0.0
-2.539560e-03 8.510469e-04 0.0
-3.038600e-03 9.093736e-04 0.0
-3.565304e-03 9.607397e-04 0.0
-4.114950e-03 1.006393e-03 0.0
-4.683929e-03 1.046464e-03 0.0
-5.269419e-03 1.080223e-03 0.0
-5.868799e-03 1.106745e-03 0.0
-6.479148e-03 1.125568e-03 0.0
-7.097081e-03 1.136995e-03 0.0
-7.718935e-03 1.141957e-03 0.0
-8.341124e-03 1.141589e-03 0.0
-8.960454e-03 1.136782e-03 0.0
-9.574247e-03 1.127953e-03 0.0
-1.018024e-02 1.115075e-03 0.0
-1.077636e-02 1.097901e-03 0.0
-1.136054e-02 1.076217e-03 0.0
-1.193060e-02 1.049999e-03 0.0
-1.248426e-02 1.019422e-03 0.0
-1.301924e-02 9.847663e-04 0.0
-1.353334e-02 9.462991e-04 0.0
-1.402449e-02 9.042003e-04 0.0
-1.449071e-02 8.585587e-04 0.0
-1.493013e-02 8.094159e-04 0.0
-1.534087e-02 7.568194e-04 0.0
-1.572112e-02 7.008515e-04 0.0
-1.606906e-02 6.416275e-04 0.0
-1.638297e-02 5.792760e-04 0.0
-1.666124e-02 5.139212e-04 0.0
-1.690234e-02 4.456827e-04 0.0
-1.710488e-02 3.746935e-04 0.0
-1.726757e-02 3.011271e-04 0.0
-1.738926e-02 2.252209e-04 0.0
-1.746893e-02 1.472891e-04 0.0
-1.750574e-02 6.772401e-05 0.0
-1.749907e-02 -1.300588e-05 0.0
-1.744855e-02 -9.435309e-05 0.0
-1.735409e-02 -1.757832e-04 0.0
-1.721585e-02 -2.568179e-04 0.0
-1.703428e-02 -3.370186e-04 0.0
-1.681004e-02 -4.159704e-04 0.0
-1.654403e-02 -4.932694e-04 0.0
-1.623740e-02 -5.685125e-04 0.0
-1.589148e-02 -6.412921e-04 0.0
-1.550784e-02 -7.111958e-04 0.0
-1.508826e-02 -7.778110e-04 0.0
-1.463472e-02 -8.407324e-04 0.0
-1.414939e-02 -8.995699e-04 0.0
-1.363466e-02 -9.539561e-04 0.0
-1.309308e-02 -1.003551e-03 0.0
-1.252739e-02 -1.048044e-03 0.0
-1.194046e-02 -1.087152e-03 0.0
-1.133531e-02 -1.120625e-03 0.0
-1.071509e-02 -1.148239e-03 0.0
-1.008303e-02 -1.169806e-03 0.0
-9.442447e-03 -1.185169e-03 0.0
-8.796724e-03 -1.194217e-03 0.0
-8.149282e-03 -1.196877e-03 0.0
-7.503561e-03 -1.193125e-03 0.0
-6.862996e-03 -1.182977e-03 0.0
-6.230996e-03 -1.166486e-03 0.0
-5.610923e-03 -1.143740e-03 0.0
-5.006069e-03 -1.114861e-03 0.0
-4.419639e-03 -1.080011e-03 0.0
-3.854724e-03 -1.039387e-03 0.0
-3.314287e-03 -9.932306e-04 0.0
-2.801135e-03 -9.418233e-04 0.0
-2.317899e-03 -8.854917e-04 0.0
-1.867011e-03 -8.246074e-04 0.0
-1.450678e-03 -7.595887e-04 0.0
-1.070852e-03 -6.909023e-04 0.0
-7.292068e-04 -6.190670e-04 0.0
-4.271021e-04 -5.446582e-04 0.0
-1.655494e-04 -4.683154e-04 0.0
5.482847e-05 -3.907520e-04 0.0
2.338399e-04 -3.127689e-04 0.0
3.717873e-04 -2.352772e-04 0.0
4.695306e-04 -1.593141e-04 0.0
5.285654e-04 -8.607537e-05 0.0
5.511195e-04 -1.695471e-05 0.0
5.402673e-04 4.640717e-05 0.0
5.000632e-04 1.020632e-04 0.0
4.356912e-04 1.476915e-04 0.0
3.536177e-04 1.805301e-04 0.0
2.617119e-04 1.973576e-04 0.0
1.692758e-04 1.946087e-04 0.0
8.689909e-05 1.688332e-04 0.0
2.618268e-05 1.179081e-04 0.0
0.000000e+00 4.365686e-05 0.0
0.000000e+00 -4.365811e-05 0.0
0.000000e+00 6.360448e-05 0.0
1.635659e-05 -5.398948e-05 0.0
1.433606e-05 -6.370663e-05 0.0
-2.536328e-05 4.437534e-07 0.0
-1.163565e-04 1.126143e-04 0.0
-2.658587e-04 2.560301e-04 0.0
-4.774523e-04 4.189202e-04 0.0
-7.531802e-04 5.919101e-04 0.0
-1.094450e-03 7.666568e-04 0.0
-1.501758e-03 9.358016e-04 0.0
-1.973848e-03 1.093730e-03 0.0
-2.507111e-03 1.237305e-03 0.0
-3.095776e-03 1.365921e-03 0.0
-3.732870e-03 1.480715e-03 0.0
-4.411472e-03 1.583318e-03 0.0
-5.125653e-03 1.674776e-03 0.0
-5.870722e-03 1.755092e-03 0.0
-6.642811e-03 1.823505e-03 0.0
-7.438156e-03 1.879183e-03 0.0
-8.252540e-03 1.921884e-03 0.0
-9.081152e-03 1.952222e-03 0.0
-9.918875e-03 1.971458e-03 0.0
-1.076076e-02 1.981017e-03 0.0
-1.160242e-02 1.982011e-03 0.0
-1.244014e-02 1.975011e-03 0.0
-1.327071e-02 1.960121e-03 0.0
-1.409115e-02 1.937235e-03 0.0
-1.489848e-02 1.906303e-03 0.0
-1.568955e-02 1.867479e-03 0.0
-1.646116e-02 1.821104e-03 0.0
-1.721012e-02 1.767598e-03 0.0
-1.793337e-02 1.707327e-03 0.0
-1.862806e-02 1.640546e-03 0.0
-1.929149e-02 1.567406e-03 0.0
-1.992105e-02 1.488013e-03 0.0
-2.051419e-02 1.402483e-03 0.0
-2.106839e-02 1.310972e-03 0.0
-2.158117e-02 1.213669e-03 0.0
-2.205016e-02 1.110776e-03 0.0
-2.247311e-02 1.002489e-03 0.0
-2.284792e-02 8.890086e-04 0.0
-2.317260e-02 7.705645e-04 0.0
-2.344533e-02 6.474477e-04 0.0
-2.366442e-02 5.200357e-04 0.0
-2.382833e-02 3.888039e-04 0.0
-2.393578e-02 2.543229e-04 0.0
-2.398569e-02 1.172521e-04 0.0
-2.397730e-02 -2.166407e-05 0.0
-2.391018e-02 -1.615866e-04 0.0
-2.378426e-02 -3.016820e-04 0.0
-2.359977e-02 -4.411732e-04 0.0
-2.335730e-02 -5.793178e-04 0.0
-2.305774e-02 -7.153893e-04 0.0
-2.270226e-02 -8.486650e-04 0.0
-2.229237e-02 -9.784207e-04 0.0
-2.182982e-02 -1.103931e-03 0.0
-2.131669e-02 -1.224477e-03 0.0
-2.075531e-02 -1.339354e-03 0.0
-2.014831e-02 -1.447881e-03 0.0
-1.949860e-02 -1.549412e-03 0.0
-1.880931e-02 -1.643335e-03 0.0
-1.808384e-02 -1.729082e-03 0.0
-1.732580e-02 -1.806127e-03 0.0
-1.653900e-02 -1.873986e-03 0.0
-1.572744e-02 -1.932225e-03 0.0
-1.489525e-02 -1.980460e-03 0.0
-1.404671e-02 -2.018365e-03 0.0
-1.318623e-02 -2.045679e-03 0.0
-1.231826e-02 -2.062207e-03 0.0
-1.144735e-02 -2.067826e-03 0.0
-1.057804e-02 -2.062486e-03 0.0
-9.714887e-03 -2.046206e-03 0.0
-8.862405e-03 -2.019068e-03 0.0
-8.025046e-03 -1.981213e-03 0.0
-7.207177e-03 -1.932851e-03 0.0
-6.413046e-03 -1.874255e-03 0.0
-5.646755e-03 -1.805774e-03 0.0
-4.912234e-03 -1.727824e-03 0.0
-4.213210e-03 -1.640898e-03 0.0
-3.553171e-03 -1.545562e-03 0.0
-2.935338e-03 -1.442458e-03 0.0
-2.362629e-03 -1.332310e-03 0.0
-1.837622e-03 -1.215921e-03 0.0
-1.362520e-03 -1.094186e-03 0.0
-9.391017e-04 -9.680981e-04 0.0
-5.686849e-04 -8.387617e-04 0.0
-2.520675e-04 -7.074065e-04 0.0
1.052857e-05 -5.754095e-04 0.0
2.195209e-04 -4.443208e-04 0.0
3.760507e-04 -3.159006e-04 0.0
4.820734e-04 -1.921587e-04 0.0
5.404594e-04 -7.540324e-05 0.0
5.551092e-04 3.169460e-05 0.0
5.310810e-04 1.260301e-04 0.0
4.747165e-04 2.039969e-04 0.0
3.937590e-04 2.614312e-04 0.0
2.974379e-04 2.936242e-04 0.0
1.965104e-04 2.954835e-04 0.0
1.033012e-04 2.619905e-04 0.0
3.200173e-05 1.891558e-04 0.0
0.000000e+00 7.560674e-05 0.0
0.000000e+00 -7.560614e-05 0.0
0.000000e+00 6.216381e-05 0.0
4.031657e-06 -5.061999e-05 0.0
-3.227900e-05 -3.305572e-05 0.0
-1.206254e-04 7.924668e-05 0.0
-2.719165e-04 2.557285e-04 0.0
-4.927937e-04 4.747664e-04 0.0
-7.879130e-04 7.192916e-04 0.0
-1.160932e-03 9.749000e-04 0.0
-1.614180e-03 1.229505e-03 0.0
-2.147669e-03 1.473900e-03 0.0
-2.758381e-03 1.702326e-03 0.0
-3.440454e-03 1.912350e-03 0.0
-4.186301e-03 2.103877e-03 0.0
-4.988099e-03 2.277712e-03 0.0
-5.838958e-03 2.434322e-03 0.0
-6.733274e-03 2.573304e-03 0.0
-7.666297e-03 2.693651e-03 0.0
-8.633331e-03 2.794467e-03 0.0
-9.629077e-03 2.875629e-03 0.0
-1.064749e-02 2.938012e-03 0.0
-1.168212e-02 2.983210e-03 0.0
-1.272669e-02 3.012973e-03 0.0
-1.377560e-02 3.028688e-03 0.0
-1.482402e-02 3.031145e-03 0.0
-1.586777e-02 3.020630e-03 0.0
-1.690296e-02 2.997230e-03 0.0
-1.792567e-02 2.961107e-03 0.0
-1.893186e-02 2.912645e-03 0.0
-1.991739e-02 2.852407e-03 0.0
-2.087817e-02 2.781005e-03 0.0
-2.181030e-02 2.698966e-03 0.0
-2.271013e-02 2.606669e-03 0.0
-2.357419e-02 2.504372e-03 0.0
-2.439917e-02 2.392277e-03 0.0
-2.518181e-02 2.270599e-03 0.0
-2.591893e-02 2.139587e-03 0.0
-2.660739e-02 1.999520e-03 0.0
-2.724419e-02 1.850682e-03 0.0
-2.782647e-02 1.693355e-03 0.0
-2.835152e-02 1.527830e-03 0.0
-2.881677e-02 1.354443e-03 0.0
-2.921985e-02 1.173609e-03 0.0
-2.955850e-02 9.858510e-04 0.0
-2.983067e-02 7.918091e-04 0.0
-3.003456e-02 5.922348e-04 0.0
-3.016860e-02 3.879820e-04 0.0
-3.023159e-02 1.800009e-04 0.0
-3.022266e-02 -3.065560e-05 0.0
-3.014135e-02 -2.428130e-04 0.0
-2.998757e-02 -4.552753e-04 0.0
-2.976165e-02 -6.668908e-04 0.0
-2.946428e-02 -8.765305e-04 0.0
-2.909653e-02 -1.083074e-03 0.0
-2.865984e-02 -1.285403e-03 0.0
-2.815598e-02 -1.482402e-03 0.0
-2.758712e-02 -1.672969e-03 0.0
-2.695576e-02 -1.856024e-03 0.0
-2.626475e-02 -2.030517e-03 0.0
-2.551731e-02 -2.195444e-03 0.0
-2.471695e-02 -2.349844e-03 0.0
-2.386752e-02 -2.492811e-03 0.0
-2.297314e-02 -2.623492e-03 0.0
-2.203820e-02 -2.741090e-03 0.0
-2.106734e-02 -2.844876e-03 0.0
-2.006540e-02 -2.934192e-03 0.0
-1.903743e-02 -3.008459e-03 0.0
-1.798863e-02 -3.067189e-03 0.0
-1.692436e-02 -3.109987e-03 0.0
-1.585006e-02 -3.136556e-03 0.0
-1.477125e-02 -3.146704e-03 0.0
-1.369348e-02 -3.140344e-03 0.0
-1.262231e-02 -3.117493e-03 0.0
-1.156323e-02 -3.078265e-03 0.0
-1.052169e-02 -3.022871e-03 0.0
-9.503012e-03 -2.951625e-03 0.0
-8.512398e-03 -2.864946e-03 0.0
-7.554864e-03 -2.763360e-03 0.0
-6.635215e-03 -2.647503e-03 0.0
-5.758009e-03 -2.518119e-03 0.0
-4.927512e-03 -2.376066e-03 0.0
-4.147662e-03 -2.222315e-03 0.0
-3.422023e-03 -2.057960e-03 0.0
-2.753746e-03 -1.884217e-03 0.0
-2.145516e-03 -1.702444e-03 0.0
-1.599509e-03 -1.514143e-03 0.0
-1.117330e-03 -1.320988e-03 0.0
-6.999576e-04 -1.124834e-03 0.0
-3.476754e-04 -9.277529e-04 0.0
-5.999710e-05 -7.320648e-04 0.0
1.644138e-04 -5.403795e-04 0.0
3.278348e-04 -3.556476e-04 0.0
4.335954e-04 -1.812297e-04 0.0
4.861771e-04 -2.094958e-05 0.0
4.913260e-04 1.208227e-04 0.0
4.561595e-04 2.391088e-04 0.0
3.892617e-04 3.282773e-04 0.0
3.007729e-04 3.820628e-04 0.0
2.024979e-04 3.937093e-04 0.0
1.081346e-04 3.563045e-04 0.0
3.389108e-05 2.633498e-04 0.0
0.000000e+00 1.094478e-04 0.0
0.000000e+00 -1.094407e-04 0.0
0.000000e+00 4.500489e-05 0.0
-1.318031e-05 -3.626548e-05 0.0
-8.758992e-05 3.176688e-05 0.0
-2.290284e-04 2.120688e-04 0.0
-4.460539e-04 4.700969e-04 0.0
-7.452454e-04 7.789877e-04 0.0
-1.132159e-03 1.116410e-03 0.0
-1.610947e-03 1.463839e-03 0.0
-2.183203e-03 1.806914e-03 0.0
-2.847044e-03 2.135875e-03 0.0
-3.597164e-03 2.445305e-03 0.0
-4.425967e-03 2.732958e-03 0.0
-5.325208e-03 2.998097e-03 0.0
-6.287360e-03 3.240065e-03 0.0
-7.306125e-03 3.457629e-03 0.0
-8.376046e-03 3.649193e-03 0.0
-9.491674e-03 3.813524e-03 0.0
-1.064684e-02 3.950404e-03 0.0
-1.183448e-02 4.060826e-03 0.0
-1.304699e-02 4.146637e-03 0.0
-1.427691e-02 4.209889e-03 0.0
-1.551745e-02 4.252255e-03 0.0
-1.676271e-02 4.274780e-03 0.0
-1.800749e-02 4.277986e-03 0.0
-1.924694e-02 4.262186e-03 0.0
-2.047624e-02 4.227801e-03 0.0
-2.169046e-02 4.175487e-03 0.0
-2.288455e-02 4.106083e-03 0.0
-2.405355e-02 4.020452e-03 0.0
-2.519272e-02 3.919335e-03 0.0
-2.629760e-02 3.803297e-03 0.0
-2.736395e-02 3.672751e-03 0.0
-2.838774e-02 3.528041e-03 0.0
-2.936501e-02 3.369511e-03 0.0
-3.029192e-02 3.197530e-03 0.0
-3.116468e-02 3.012487e-03 0.0
-3.197966e-02 2.814769e-03 0.0
-3.273339e-02 2.604755e-03 0.0
-3.342256e-02 2.382838e-03 0.0
-3.404405e-02 2.149466e-03 0.0
-3.459487e-02 1.905184e-03 0.0
-3.507223e-02 1.650658e-03 0.0
-3.547353e-02 1.386691e-03 0.0
-3.579642e-02 1.114210e-03 0.0
-3.603882e-02 8.342567e-04 0.0
-3.619903e-02 5.479832e-04 0.0
-3.627569e-02 2.566562e-04 0.0
-3.626787e-02 -3.832266e-05 0.0
-3.617506e-02 -3.353900e-04 0.0
-3.599719e-02 -6.329186e-04 0.0
-3.573462e-02 -9.293085e-04 0.0
-3.538814e-02 -1.222972e-03 0.0
-3.495896e-02 -1.512326e-03 0.0
-3.444872e-02 -1.795799e-03 0.0
-3.385949e-02 -2.071835e-03 0.0
-3.319375e-02 -2.338907e-03 0.0
-3.245440e-02 -2.595528e-03 0.0
-3.164477e-02 -2.840259e-03 0.0
-3.076855e-02 -3.071718e-03 0.0
-2.982985e-02 -3.288581e-03 0.0
-2.883309e-02 -3.489587e-03 0.0
-2.778305e-02 -3.673549e-03 0.0
-2.668481e-02 -3.839357e-03 0.0
-2.554371e-02 -3.985992e-03 0.0
-2.436539e-02 -4.112541e-03 0.0
-2.315569e-02 -4.218199e-03 0.0
-2.192064e-02 -4.302285e-03 0.0
-2.066645e-02 -4.364245e-03 0.0
-1.939943e-02 -4.403659e-03 0.0
-1.812599e-02 -4.420246e-03 0.0
-1.685258e-02 -4.413870e-03 0.0
-1.558564e-02 -4.384547e-03 0.0
-1.433158e-02 -4.332426e-03 0.0
-1.309673e-02 -4.257800e-03 0.0
-1.188731e-02 -4.161105e-03 0.0
-1.070936e-02 -4.042925e-03 0.0
-9.568748e-03 -3.903991e-03 0.0
-8.471070e-03 -3.745185e-03 0.0
-7.421649e-03 -3.567544e-03 0.0
-6.425465e-03 -3.372258e-03 0.0
-5.487118e-03 -3.160679e-03 0.0
-4.610777e-03 -2.934328e-03 0.0
-3.800127e-03 -2.694906e-03 0.0
-3.058316e-03 -2.444303e-03 0.0
-2.387902e-03 -2.184615e-03 0.0
-1.790787e-03 -1.918168e-03 0.0
-1.268152e-03 -1.647540e-03 0.0
-8.203853e-04 -1.375592e-03 0.0
-4.470069e-04 -1.105516e-03 0.0
-1.465825e-04 -8.408739e-04 0.0
8.336542e-05 -5.856608e-04 0.0
2.464451e-04 -3.443691e-04 0.0
3.475064e-04 -1.220654e-04 0.0
3.927317e-04 7.554747e-05 0.0
3.897338e-04 2.420599e-04 0.0
3.476437e-04 3.703219e-04 0.0
2.772215e-04 4.524396e-04 0.0
1.910260e-04 4.798589e-04 0.0
1.037456e-04 4.435381e-04 0.0
3.287751e-05 3.341703e-04 0.0
0.000000e+00 1.422774e-04 0.0
0.000000e+00 -1.422592e-04 0.0
0.000000e+00 1.086707e-05 0.0
-3.323293e-05 -9.584150e-06 0.0
-1.460261e-04 1.352222e-04 0.0
-3.424071e-04 4.048621e-04 0.0
-6.293465e-04 7.613134e-04 0.0
-1.013295e-03 1.172859e-03 0.0
-1.499598e-03 1.613069e-03 0.0
-2.091152e-03 2.060996e-03 0.0
-2.787247e-03 2.501523e-03 0.0
-3.583413e-03 2.925018e-03 0.0
-4.472450e-03 3.326022e-03 0.0
-5.446102e-03 3.701394e-03 0.0
-6.496549e-03 4.048659e-03 0.0
-7.617045e-03 4.365198e-03 0.0
-8.801611e-03 4.648370e-03 0.0
-1.004420e-02 4.896214e-03 0.0
-1.133795e-02 5.108104e-03 0.0
-1.267495e-02 5.284902e-03 0.0
-1.404668e-02 5.428536e-03 0.0
-1.544463e-02 5.541254e-03 0.0
-1.686098e-02 5.624973e-03 0.0
-1.828878e-02 5.680982e-03 0.0
-1.972185e-02 5.710051e-03 0.0
-2.115441e-02 5.712762e-03 0.0
-2.258070e-02 5.689816e-03 0.0
-2.399490e-02 5.642178e-03 0.0
-2.539109e-02 5.571005e-03 0.0
-2.676347e-02 5.477460e-03 0.0
-2.810647e-02 5.362559e-03 0.0
-2.941484e-02 5.227103e-03 0.0
-3.068358e-02 5.071721e-03 0.0
-3.190791e-02 4.896944e-03 0.0
-3.308319e-02 4.703287e-03 0.0
-3.420488e-02 4.491273e-03 0.0
-3.526858e-02 4.261428e-03 0.0
-3.627002e-02 4.014261e-03 0.0
-3.720514e-02 3.750270e-03 0.0
-3.807003e-02 3.469963e-03 0.0
-3.886098e-02 3.173910e-03 0.0
-3.957444e-02 2.862786e-03 0.0
-4.020704e-02 2.537403e-03 0.0
-4.075560e-02 2.198717e-03 0.0
-4.121723e-02 1.847822e-03 0.0
-4.158932e-02 1.485938e-03 0.0
-4.186963e-02 1.114403e-03 0.0
-4.205628e-02 7.346877e-04 0.0
-4.214783e-02 3.484126e-04 0.0
-4.214327e-02 -4.262130e-05 0.0
-4.204202e-02 -4.364024e-04 0.0
-4.184399e-02 -8.308056e-04 0.0
-4.154956e-02 -1.223719e-03 0.0
-4.115961e-02 -1.613038e-03 0.0
-4.067545e-02 -1.996672e-03 0.0
-4.009892e-02 -2.372553e-03 0.0
-3.943231e-02 -2.738645e-03 0.0
-3.867841e-02 -3.092958e-03 0.0
-3.784047e-02 -3.433557e-03 0.0
-3.692221e-02 -3.758564e-03 0.0
-3.592778e-02 -4.066167e-03 0.0
-3.486175e-02 -4.354623e-03 0.0
-3.372907e-02 -4.622273e-03 0.0
-3.253509e-02 -4.867547e-03 0.0
-3.128550e-02 -5.088983e-03 0.0
-2.998628e-02 -5.285240e-03 0.0
-2.864376e-02 -5.455112e-03 0.0
-2.726448e-02 -5.597539e-03 0.0
-2.585522e-02 -5.711619e-03 0.0
-2.442295e-02 -5.796610e-03 0.0
-2.297476e-02 -5.851948e-03 0.0
-2.151788e-02 -5.877247e-03 0.0
-2.005954e-02 -5.872313e-03 0.0
-1.860702e-02 -5.837156e-03 0.0
-1.716754e-02 -5.771966e-03 0.0
-1.574825e-02 -5.677123e-03 0.0
-1.435618e-02 -5.553195e-03 0.0
-1.299817e-02 -5.400944e-03 0.0
-1.168083e-02 -5.221325e-03 0.0
-1.041053e-02 -5.015494e-03 0.0
-9.193288e-03 -4.784804e-03 0.0
-8.034751e-03 -4.530821e-03 0.0
-6.940148e-03 -4.255321e-03 0.0
-5.914219e-03 -3.960307e-03 0.0
-4.961170e-03 -3.648016e-03 0.0
-4.084604e-03 -3.320937e-03 0.0
-3.287466e-03 -2.981827e-03 0.0
-2.571974e-03 -2.633737e-03 0.0
-1.939548e-03 -2.280042e-03 0.0
-1.390738e-03 -1.924476e-03 0.0
-9.251451e-04 -1.571177e-03 0.0
-5.413387e-04 -1.224741e-03 0.0
-2.367730e-04 -8.902800e-04 0.0
-7.698104e-06 -5.734914e-04 0.0
1.509244e-04 -2.807310e-04 0.0
2.455144e-04 -1.908339e-05 0.0
2.839668e-04 2.035671e-04 0.0
2.757437e-04 3.785033e-04 0.0
2.319978e-04 4.961425e-04 0.0
1.657703e-04 5.460416e-04 0.0
9.233705e-05 5.169254e-04 0.0
2.979920e-05 3.966616e-04 0.0
0.000000e+00 1.720299e-04 0.0
0.000000e+00 -1.719987e-04 0.0
0.000000e+00 -3.960311e-05 0.0
-5.338285e-05 3.164955e-05 0.0
-2.033670e-04 2.803907e-04 0.0
-4.559713e-04 6.606112e-04 0.0
-8.168836e-04 1.131436e-03 0.0
-1.291477e-03 1.657621e-03 0.0
-1.883165e-03 2.210543e-03 0.0
-2.591952e-03 2.768569e-03 0.0
-3.414030e-03 3.316713e-03 0.0
-4.342646e-03 3.845252e-03 0.0
-5.369721e-03 4.347711e-03 0.0
-6.487377e-03 4.819018e-03 0.0
-7.688640e-03 5.254507e-03 0.0
-8.967190e-03 5.649939e-03 0.0
-1.031653e-02 6.002148e-03 0.0
-1.172922e-02 6.309689e-03 0.0
-1.319668e-02 6.572956e-03 0.0
-1.470957e-02 6.793693e-03 0.0
-1.625856e-02 6.974159e-03 0.0
-1.783491e-02 7.116392e-03 0.0
-1.943078e-02 7.221860e-03 0.0
-2.103906e-02 7.291553e-03 0.0
-2.265304e-02 7.326312e-03 0.0
-2.426609e-02 7.327147e-03 0.0
-2.587146e-02 7.295348e-03 0.0
-2.746240e-02 7.232416e-03 0.0
-2.903228e-02 7.139855e-03 0.0
-3.057474e-02 7.019001e-03 0.0
-3.208376e-02 6.870947e-03 0.0
-3.355359e-02 6.696586e-03 0.0
-3.497871e-02 6.496693e-03 0.0
-3.635379e-02 6.271997e-03 0.0
-3.767361e-02 6.023217e-03 0.0
-3.893313e-02 5.751047e-03 0.0
-4.012746e-02 5.456152e-03 0.0
-4.125194e-02 5.139168e-03 0.0
-4.230209e-02 4.800737e-03 0.0
-4.327361e-02 4.441563e-03 0.0
-4.416235e-02 4.062459e-03 0.0
-4.496438e-02 3.664381e-03 0.0
-4.567595e-02 3.248433e-03 0.0
-4.629360e-02 2.815865e-03 0.0
-4.681417e-02 2.368058e-03 0.0
-4.723487e-02 1.906524e-03 0.0
-4.755327e-02 1.432917e-03 0.0
-4.776739e-02 9.490595e-04 0.0
-4.787565e-02 4.569740e-04 0.0
-4.787695e-02 -4.108287e-05 0.0
-4.777064e-02 -5.425952e-04 0.0
-4.755659e-02 -1.044884e-03 0.0
-4.723518e-02 -1.545276e-03 0.0
-4.680732e-02 -2.041117e-03 0.0
-4.627445e-02 -2.529772e-03 0.0
-4.563856e-02 -3.008649e-03 0.0
-4.490214e-02 -3.475200e-03 0.0
-4.406824e-02 -3.926932e-03 0.0
-4.314041e-02 -4.361414e-03 0.0
-4.212270e-02 -4.776279e-03 0.0
-4.101963e-02 -5.169236e-03 0.0
-3.983619e-02 -5.538077e-03 0.0
-3.857779e-02 -5.880696e-03 0.0
-3.725026e-02 -6.195105e-03 0.0
-3.585984e-02 -6.479455e-03 0.0
-3.441308e-02 -6.732046e-03 0.0
-3.291692e-02 -6.951351e-03 0.0
-3.137852e-02 -7.136019e-03 0.0
-2.980534e-02 -7.284895e-03 0.0
-2.820503e-02 -7.397028e-03 0.0
-2.658540e-02 -7.471686e-03 0.0
-2.495437e-02 -7.508366e-03 0.0
-2.331995e-02 -7.506805e-03 0.0
-2.169015e-02 -7.466999e-03 0.0
-2.007296e-02 -7.389178e-03 0.0
-1.847628e-02 -7.273807e-03 0.0
-1.690789e-02 -7.121591e-03 0.0
-1.537536e-02 -6.933479e-03 0.0
-1.388603e-02 -6.710663e-03 0.0
-1.244697e-02 -6.454589e-03 0.0
-1.106485e-02 -6.166960e-03 0.0
-9.745979e-03 -5.849744e-03 0.0