# vtk DataFile Version 3.0
Vector Field
ASCII
DATASET RECTILINEAR_GRID
DIMENSIONS 102 102 1
X_COORDINATES 102 double
0.000000 0.100000 0.200000 0.300000 0.400000 0.500000 0.600000 0.700000 0.800000 0.900000 1.000000 1.100000 1.200000 1.300000 1.400000 1.500000 1.600000 1.700000 1.800000 1.900000 2.000000 2.100000 2.200000 2.300000 2.400000 2.500000 2.600000 2.700000 2.800000 2.900000 3.000000 3.100000 3.200000 3.300000 3.400000 3.500000 3.600000 3.700000 3.800000 3.900000 4.000000 4.100000 4.200000 4.300000 4.400000 4.500000 4.600000 4.700000 4.800000 4.900000 5.000000 5.100000 5.200000 5.300000 5.400000 5.500000 5.600000 5.700000 5.800000 5.900000 6.000000 6.100000 6.200000 6.300000 6.400000 6.500000 6.600000 6.700000 6.800000 6.900000 7.000000 7.100000 7.200000 7.300000 7.400000 7.500000 7.600000 7.700000 7.800000 7.900000 8.000000 8.100000 8.200000 8.300000 8.400000 8.500000 8.600000 8.700000 8.800000 8.900000 9.000000 9.100000 9.200000 9.300000 9.400000 9.500000 9.600000 9.700000 9.800000 9.900000 10.000000 10.100000 
Y_COORDINATES 102 double
0.000000 0.100000 0.200000 0.300000 0.400000 0.500000 0.600000 0.700000 0.800000 0.900000 1.000000 1.100000 1.200000 1.300000 1.400000 1.500000 1.600000 1.700000 1.800000 1.900000 2.000000 2.100000 2.200000 2.300000 2.400000 2.500000 2.600000 2.700000 2.800000 2.900000 3.000000 3.100000 3.200000 3.300000 3.400000 3.500000 3.600000 3.700000 3.800000 3.900000 4.000000 4.100000 4.200000 4.300000 4.400000 4.500000 4.600000 4.700000 4.800000 4.900000 5.000000 5.100000 5.200000 5.300000 5.400000 5.500000 5.600000 5.700000 5.800000 5.900000 6.000000 6.100000 6.200000 6.300000 6.400000 6.500000 6.600000 6.700000 6.800000 6.900000 7.000000 7.100000 7.200000 7.300000 7.400000 7.500000 7.600000 7.700000 7.800000 7.900000 8.000000 8.100000 8.200000 8.300000 8.400000 8.500000 8.600000 8.700000 8.800000 8.900000 9.000000 9.100000 9.200000 9.300000 9.400000 9.500000 9.600000 9.700000 9.800000 9.900000 10.000000 10.100000 
Z_COORDINATES 1 double
0.0
POINT_DATA 10404
VECTORS Velocity double
0.000000e+00 0.000000e+00 0.0
-5.673993e-06 0.000000e+00 0.0
-1.275286e-05 0.000000e+00 0.0
-2.471834e-05 0.000000e+00 0.0
-3.465531e-05 0.000000e+00 0.0
-3.624466e-05 0.000000e+00 0.0
-2.484232e-05 0.000000e+00 0.0
1.646716e-06 0.000000e+00 0.0
4.289886e-05 0.000000e+00 0.0
9.711992e-05 0.000000e+00 0.0
1.621601e-04 0.000000e+00 0.0
2.362071e-04 0.000000e+00 0.0
3.178931e-04 0.000000e+00 0.0
4.060611e-04 0.000000e+00 0.0
4.995657e-04 0.000000e+00 0.0
5.973198e-04 0.000000e+00 0.0
6.985262e-04 0.000000e+00 0.0
8.028604e-04 0.000000e+00 0.0
9.104066e-04 0.000000e+00 0.0
1.021336e-03 0.000000e+00 0.0
1.135503e-03 0.000000e+00 0.0
1.252191e-03 0.000000e+00 0.0
1.370164e-03 0.000000e+00 0.0
1.487984e-03 0.000000e+00 0.0
1.604430e-03 0.000000e+00 0.0
1.718794e-03 0.000000e+00 0.0
1.830932e-03 0.000000e+00 0.0
1.941061e-03 0.000000e+00 0.0
2.049440e-03 0.000000e+00 0.0
2.156078e-03 0.000000e+00 0.0
2.260605e-03 0.000000e+00 0.0
2.362329e-03 0.000000e+00 0.0
2.460427e-03 0.000000e+00 0.0
2.554157e-03 0.000000e+00 0.0
2.643001e-03 0.000000e+00 0.0
2.726690e-03 0.000000e+00 0.0
2.805129e-03 0.000000e+00 0.0
2.878269e-03 0.000000e+00 0.0
2.945987e-03 0.000000e+00 0.0
3.008027e-03 0.000000e+00 0.0
3.064010e-03 0.000000e+00 0.0
3.113488e-03 0.000000e+00 0.0
3.156019e-03 0.000000e+00 0.0
3.191233e-03 0.000000e+00 0.0
3.218856e-03 0.000000e+00 0.0
3.238707e-03 0.000000e+00 0.0
3.250676e-03 0.000000e+00 0.0
3.254688e-03 0.000000e+00 0.0
3.250685e-03 0.000000e+00 0.0
3.238635e-03 0.000000e+00 0.0
3.218517e-03 0.000000e+00 0.0
3.190331e-03 0.000000e+00 0.0
3.154117e-03 0.000000e+00 0.0
3.109965e-03 0.000000e+00 0.0
3.058027e-03 0.000000e+00 0.0
2.998514e-03 0.000000e+00 0.0
2.931692e-03 0.000000e+00 0.0
2.857870e-03 0.000000e+00 0.0
2.777399e-03 0.000000e+00 0.0
2.690660e-03 0.000000e+00 0.0
2.598068e-03 0.000000e+00 0.0
2.500067e-03 0.000000e+00 0.0
2.397134e-03 0.000000e+00 0.0
2.289775e-03 0.000000e+00 0.0
2.178527e-03 0.000000e+00 0.0
2.063951e-03 0.000000e+00 0.0
1.946635e-03 0.000000e+00 0.0
1.827185e-03 0.000000e+00 0.0
1.706224e-03 0.000000e+00 0.0
1.584389e-03 0.000000e+00 0.0
1.462327e-03 0.000000e+00 0.0
1.340687e-03 0.000000e+00 0.0
1.220122e-03 0.000000e+00 0.0
1.101278e-03 0.000000e+00 0.0
9.847959e-04 0.000000e+00 0.0
8.713015e-04 0.000000e+00 0.0
7.614066e-04 0.000000e+00 0.0
6.557034e-04 0.000000e+00 0.0
5.547623e-04 0.000000e+00 0.0
4.591280e-04 0.000000e+00 0.0
3.693162e-04 0.000000e+00 0.0
2.858094e-04 0.000000e+00 0.0
2.090520e-04 0.000000e+00 0.0
1.394457e-04 0.000000e+00 0.0
7.734398e-05 0.000000e+00 0.0
2.304622e-05 0.000000e+00 0.0
-2.320888e-05 0.000000e+00 0.0
-6.125095e-05 0.000000e+00 0.0
-9.098823e-05 0.000000e+00 0.0
-1.124199e-04 0.000000e+00 0.0
-1.256533e-04 0.000000e+00 0.0
-1.309268e-04 0.000000e+00 0.0
-1.286424e-04 0.000000e+00 0.0
-1.194107e-04 0.000000e+00 0.0
-1.041175e-04 0.000000e+00 0.0
-8.402096e-05 0.000000e+00 0.0
-6.089260e-05 0.000000e+00 0.0
-3.721651e-05 0.000000e+00 0.0
-1.640606e-05 0.000000e+00 0.0
-2.770302e-06 0.000000e+00 0.0
-0.000000e+00 0.000000e+00 0.0
0.000000e+00 0.000000e+00 0.0
0.000000e+00 1.220600e-05 0.0
5.198329e-06 -1.308485e-05 0.0
3.072181e-05 -1.156123e-05 0.0
4.936556e-05 -4.475158e-06 0.0
5.479882e-05 3.312791e-06 0.0
4.576851e-05 1.070595e-05 0.0
2.341909e-05 1.817218e-05 0.0
-1.065644e-05 2.628892e-05 0.0
-5.518581e-05 3.520349e-05 0.0
-1.091613e-04 4.482372e-05 0.0
-1.715861e-04 5.510851e-05 0.0
-2.414649e-04 6.604843e-05 0.0
-3.180658e-04 7.736762e-05 0.0
-4.011689e-04 8.827916e-05 0.0
-4.910065e-04 9.759672e-05 0.0
-5.878442e-04 1.042209e-04 0.0
-6.914336e-04 1.077211e-04 0.0
-8.006834e-04 1.086381e-04 0.0
-9.137693e-04 1.082961e-04 0.0
-1.028641e-03 1.082064e-04 0.0
-1.143652e-03 1.093840e-04 0.0
-1.257989e-03 1.119320e-04 0.0
-1.371697e-03 1.150873e-04 0.0
-1.485315e-03 1.176656e-04 0.0
-1.599355e-03 1.186519e-04 0.0
-1.713863e-03 1.176408e-04 0.0
-1.828266e-03 1.149432e-04 0.0
-1.941524e-03 1.113564e-04 0.0
-2.052469e-03 1.077533e-04 0.0
-2.160146e-03 1.047037e-04 0.0
-2.264017e-03 1.022876e-04 0.0
-2.363948e-03 1.001497e-04 0.0
-2.460041e-03 9.772711e-05 0.0
-2.552397e-03 9.452236e-05 0.0
-2.640934e-03 9.029735e-05 0.0
-2.725316e-03 8.512390e-05 0.0
-2.805003e-03 7.929854e-05 0.0
-2.879373e-03 7.318471e-05 0.0
-2.947850e-03 6.706131e-05 0.0
-3.009993e-03 6.103664e-05 0.0
-3.065517e-03 5.504697e-05 0.0
-3.114252e-03 4.892124e-05 0.0
-3.156074e-03 4.247172e-05 0.0
-3.190852e-03 3.557080e-05 0.0
-3.218403e-03 2.818899e-05 0.0
-3.238495e-03 2.039046e-05 0.0
-3.250872e-03 1.229885e-05 0.0
-3.255289e-03 4.053754e-06 0.0
-3.251562e-03 -4.222292e-06 0.0
-3.239597e-03 -1.243166e-05 0.0
-3.219387e-03 -2.053502e-05 0.0
-3.190996e-03 -2.852722e-05 0.0
-3.154542e-03 -3.641386e-05 0.0
-3.110184e-03 -4.419323e-05 0.0
-3.058114e-03 -5.184703e-05 0.0
-2.998550e-03 -5.933947e-05 0.0
-2.931742e-03 -6.662210e-05 0.0
-2.857974e-03 -7.364070e-05 0.0
-2.777568e-03 -8.034104e-05 0.0
-2.690888e-03 -8.667228e-05 0.0
-2.598334e-03 -9.258807e-05 0.0
-2.500348e-03 -9.804654e-05 0.0
-2.397405e-03 -1.030102e-04 0.0
-2.290016e-03 -1.074461e-04 0.0
-2.178720e-03 -1.113265e-04 0.0
-2.064087e-03 -1.146290e-04 0.0
-1.946709e-03 -1.173359e-04 0.0
-1.827200e-03 -1.194336e-04 0.0
-1.706191e-03 -1.209110e-04 0.0
-1.584320e-03 -1.217586e-04 0.0
-1.462236e-03 -1.219681e-04 0.0
-1.340584e-03 -1.215340e-04 0.0
-1.220013e-03 -1.204533e-04 0.0
-1.101163e-03 -1.187269e-04 0.0
-9.846715e-04 -1.163607e-04 0.0
-8.711645e-04 -1.133659e-04 0.0
-7.612553e-04 -1.097585e-04 0.0
-6.555390e-04 -1.055588e-04 0.0
-5.545887e-04 -1.007901e-04 0.0
-4.589507e-04 -9.547838e-05 0.0
-3.691405e-04 -8.965251e-05 0.0
-2.856391e-04 -8.334479e-05 0.0
-2.088888e-04 -7.659181e-05 0.0
-1.392894e-04 -6.943528e-05 0.0
-7.719339e-05 -6.192288e-05 0.0
-2.290010e-05 -5.410884e-05 0.0
2.335072e-05 -4.605462e-05 0.0
6.138726e-05 -3.782974e-05 0.0
9.111652e-05 -2.951406e-05 0.0
1.125371e-04 -2.119944e-05 0.0
1.257564e-04 -1.299442e-05 0.0
1.310134e-04 -5.030156e-06 0.0
1.287112e-04 2.530343e-06 0.0
1.194615e-04 9.478481e-06 0.0
1.041511e-04 1.553982e-05 0.0
8.403848e-05 2.034268e-05 0.0
6.089609e-05 2.337271e-05 0.0
3.720828e-05 2.391787e-05 0.0
1.638934e-05 2.104969e-05 0.0
2.752323e-06 1.386784e-05 0.0
0.000000e+00 2.983233e-06 0.0
0.000000e+00 -2.961577e-06 0.0
0.000000e+00 3.753408e-05 0.0
2.080655e-05 -1.968027e-05 0.0
4.609433e-05 -2.986269e-05 0.0
5.714156e-05 -1.723968e-05 0.0
4.523919e-05 8.262084e-06 0.0
5.985441e-06 4.169511e-05 0.0
-6.254834e-05 7.963716e-05 0.0
-1.608144e-04 1.195913e-04 0.0
-2.881265e-04 1.598274e-04 0.0
-4.428779e-04 1.993695e-04 0.0
-6.229521e-04 2.377179e-04 0.0
-8.262568e-04 2.743450e-04 0.0
-1.051087e-03 3.083157e-04 0.0
-1.296095e-03 3.383447e-04 0.0
-1.559901e-03 3.632877e-04 0.0
-1.840632e-03 3.827452e-04 0.0
-2.135704e-03 3.973658e-04 0.0
-2.442015e-03 4.086229e-04 0.0
-2.756440e-03 4.181673e-04 0.0
-3.076376e-03 4.271047e-04 0.0
-3.400031e-03 4.355786e-04 0.0
-3.726352e-03 4.428487e-04 0.0
-4.054654e-03 4.477822e-04 0.0
-4.384167e-03 4.494713e-04 0.0
-4.713726e-03 4.476684e-04 0.0
-5.041716e-03 4.428558e-04 0.0
-5.366272e-03 4.359693e-04 0.0
-5.685567e-03 4.279545e-04 0.0
-5.998071e-03 4.193843e-04 0.0
-6.302648e-03 4.102993e-04 0.0
-6.598483e-03 4.003022e-04 0.0
-6.884902e-03 3.888214e-04 0.0
-7.161177e-03 3.753982e-04 0.0
-7.426412e-03 3.598721e-04 0.0
-7.679521e-03 3.424042e-04 0.0
-7.919308e-03 3.233644e-04 0.0
-8.144575e-03 3.031547e-04 0.0
-8.354223e-03 2.820564e-04 0.0
-8.547298e-03 2.601586e-04 0.0
-8.722982e-03 2.373783e-04 0.0
-8.880547e-03 2.135442e-04 0.0
-9.019300e-03 1.884985e-04 0.0
-9.138548e-03 1.621716e-04 0.0
-9.237591e-03 1.346119e-04 0.0
-9.315735e-03 1.059690e-04 0.0
-9.372333e-03 7.645071e-05 0.0
-9.406821e-03 4.627689e-05 0.0
-9.418755e-03 1.564933e-05 0.0
-9.407833e-03 -1.525281e-05 0.0
-9.373919e-03 -4.624977e-05 0.0
-9.317024e-03 -7.720856e-05 0.0
-9.237284e-03 -1.080104e-04 0.0
-9.134950e-03 -1.385285e-04 0.0
-9.010384e-03 -1.686191e-04 0.0
-8.864056e-03 -1.981223e-04 0.0
-8.696547e-03 -2.268680e-04 0.0
-8.508554e-03 -2.546838e-04 0.0
-8.300887e-03 -2.814007e-04 0.0
-8.074469e-03 -3.068558e-04 0.0
-7.830332e-03 -3.308940e-04 0.0
-7.569615e-03 -3.533680e-04 0.0
-7.293557e-03 -3.741393e-04 0.0
-7.003491e-03 -3.930794e-04 0.0
-6.700840e-03 -4.100712e-04 0.0
-6.387109e-03 -4.250099e-04 0.0
-6.063874e-03 -4.378032e-04 0.0
-5.732779e-03 -4.483704e-04 0.0
-5.395517e-03 -4.566421e-04 0.0
-5.053829e-03 -4.625595e-04 0.0
-4.709483e-03 -4.660757e-04 0.0
-4.364274e-03 -4.671570e-04 0.0
-4.020002e-03 -4.657857e-04 0.0
-3.678472e-03 -4.619599e-04 0.0
-3.341478e-03 -4.556926e-04 0.0
-3.010793e-03 -4.470121e-04 0.0
-2.688164e-03 -4.359615e-04 0.0
-2.375292e-03 -4.225985e-04 0.0
-2.073830e-03 -4.069942e-04 0.0
-1.785362e-03 -3.892334e-04 0.0
-1.511402e-03 -3.694151e-04 0.0
-1.253374e-03 -3.476537e-04 0.0
-1.012605e-03 -3.240801e-04 0.0
-7.903116e-04 -2.988430e-04 0.0
-5.875847e-04 -2.721108e-04 0.0
-4.053765e-04 -2.440727e-04 0.0
-2.444814e-04 -2.149414e-04 0.0
-1.055166e-04 -1.849558e-04 0.0
1.110259e-05 -1.543864e-04 0.0
1.051904e-04 -1.235418e-04 0.0
1.768284e-04 -9.277995e-05 0.0
2.264109e-04 -6.252137e-05 0.0
2.547038e-04 -3.326828e-05 0.0
2.629212e-04 -5.632363e-06 0.0
2.528273e-04 1.962777e-05 0.0
2.268674e-04 4.155602e-05 0.0
1.883348e-04 5.893232e-05 0.0
1.415657e-04 7.019895e-05 0.0
9.212493e-05 7.341640e-05 0.0
4.685906e-05 6.637333e-05 0.0
1.356415e-05 4.722058e-05 0.0
0.000000e+00 1.660513e-05 0.0
0.000000e+00 -1.659046e-05 0.0
0.000000e+00 5.292126e-05 0.0
2.275002e-05 -2.776776e-05 0.0
3.267089e-05 -4.150632e-05 0.0
2.035204e-05 -1.156506e-05 0.0
-2.435914e-05 4.545834e-05 0.0
-1.078914e-04 1.191937e-04 0.0
-2.340029e-04 2.018522e-04 0.0
-4.041315e-04 2.879601e-04 0.0
-6.177450e-04 3.739938e-04 0.0
-8.729931e-04 4.577775e-04 0.0
-1.167501e-03 5.377018e-04 0.0
-1.498922e-03 6.121400e-04 0.0
-1.865001e-03 6.793787e-04 0.0
-2.263215e-03 7.380447e-04 0.0
-2.690355e-03 7.876718e-04 0.0
-3.142401e-03 8.289609e-04 0.0
-3.614847e-03 8.634984e-04 0.0
-4.103321e-03 8.930489e-04 0.0
-4.604157e-03 9.187984e-04 0.0
-5.114642e-03 9.409421e-04 0.0
-5.632823e-03 9.588012e-04 0.0
-6.157036e-03 9.713574e-04 0.0
-6.685413e-03 9.778903e-04 0.0
-7.215614e-03 9.783916e-04 0.0
-7.744874e-03 9.735830e-04 0.0
-8.270294e-03 9.645882e-04 0.0
-8.789193e-03 9.524592e-04 0.0
-9.299341e-03 9.377985e-04 0.0
-9.798996e-03 9.206343e-04 0.0
-1.028674e-02 9.005624e-04 0.0
-1.076125e-02 8.770448e-04 0.0
-1.122106e-02 8.497069e-04 0.0
-1.166451e-02 8.185052e-04 0.0
-1.208976e-02 7.837202e-04 0.0
-1.249489e-02 7.458113e-04 0.0
-1.287809e-02 7.052258e-04 0.0
-1.323770e-02 6.622508e-04 0.0
-1.357225e-02 6.169613e-04 0.0
-1.388045e-02 5.692664e-04 0.0
-1.416106e-02 5.190134e-04 0.0
-1.441285e-02 4.660975e-04 0.0
-1.463462e-02 4.105322e-04 0.0
-1.482513e-02 3.524669e-04 0.0
-1.498320e-02 2.921566e-04 0.0
-1.510776e-02 2.299114e-04 0.0
-1.519785e-02 1.660498e-04 0.0
-1.525270e-02 1.008734e-04 0.0
-1.527172e-02 3.466954e-05 0.0
-1.525452e-02 -3.226374e-05 0.0
-1.520092e-02 -9.957789e-05 0.0
-1.511092e-02 -1.669436e-04 0.0
-1.498470e-02 -2.340294e-04 0.0
-1.482265e-02 -3.004910e-04 0.0
-1.462529e-02 -3.659725e-04 0.0
-1.439336e-02 -4.301123e-04 0.0
-1.412778e-02 -4.925502e-04 0.0
-1.382964e-02 -5.529328e-04 0.0
-1.350022e-02 -6.109157e-04 0.0
-1.314099e-02 -6.661652e-04 0.0
-1.275358e-02 -7.183598e-04 0.0
-1.233978e-02 -7.671919e-04 0.0
-1.190154e-02 -8.123706e-04 0.0
-1.144095e-02 -8.536244e-04 0.0
-1.096026e-02 -8.907029e-04 0.0
-1.046183e-02 -9.233778e-04 0.0
-9.948139e-03 -9.514434e-04 0.0
-9.421749e-03 -9.747172e-04 0.0
-8.885322e-03 -9.930408e-04 0.0
-8.341583e-03 -1.006282e-03 0.0
-7.793310e-03 -1.014338e-03 0.0
-7.243315e-03 -1.017139e-03 0.0
-6.694434e-03 -1.014650e-03 0.0
-6.149501e-03 -1.006870e-03 0.0
-5.611338e-03 -9.938300e-04 0.0
-5.082735e-03 -9.755903e-04 0.0
-4.566433e-03 -9.522424e-04 0.0
-4.065105e-03 -9.239079e-04 0.0
-3.581342e-03 -8.907394e-04 0.0
-3.117633e-03 -8.529217e-04 0.0
-2.676347e-03 -8.106732e-04 0.0
-2.259716e-03 -7.642478e-04 0.0
-1.869812e-03 -7.139363e-04 0.0
-1.508531e-03 -6.600686e-04 0.0
-1.177566e-03 -6.030163e-04 0.0
-8.783804e-04 -5.431960e-04 0.0
-6.121860e-04 -4.810751e-04 0.0
-3.799055e-04 -4.171786e-04 0.0
-1.821368e-04 -3.521005e-04 0.0
-1.910903e-05 -2.865173e-04 0.0
1.093705e-04 -2.212084e-04 0.0
2.039823e-04 -1.570818e-04 0.0
2.659774e-04 -9.521080e-05 0.0
2.972747e-04 -3.687571e-05 0.0
3.005834e-04 1.637441e-05 0.0
2.795470e-04 6.264881e-05 0.0
2.389033e-04 9.963282e-05 0.0
1.846434e-04 1.245154e-04 0.0
1.241304e-04 1.339862e-04 0.0
6.612347e-05 1.244366e-04 0.0
2.075574e-05 9.264471e-05 0.0
0.000000e+00 3.741721e-05 0.0
0.000000e+00 -3.740224e-05 0.0
0.000000e+00 5.380135e-05 0.0
1.422887e-05 -3.273497e-05 0.0
3.273419e-07 -3.467436e-05 0.0
-4.520599e-05 2.639541e-05 0.0
-1.332310e-04 1.278602e-04 0.0
-2.711996e-04 2.539668e-04 0.0
-4.634795e-04 3.931319e-04 0.0
-7.116068e-04 5.373373e-04 0.0
-1.014995e-03 6.811708e-04 0.0
-1.371901e-03 8.207239e-04 0.0
-1.780148e-03 9.527498e-04 0.0
-2.237289e-03 1.074419e-03 0.0
-2.740268e-03 1.183643e-03 0.0
-3.285013e-03 1.279562e-03 0.0
-3.866387e-03 1.362724e-03 0.0
-4.478648e-03 1.434706e-03 0.0
-5.116235e-03 1.497308e-03 0.0
-5.774445e-03 1.551739e-03 0.0
-6.449685e-03 1.598207e-03 0.0
-7.139190e-03 1.636075e-03 0.0
-7.840433e-03 1.664445e-03 0.0
-8.550551e-03 1.682822e-03 0.0
-9.266089e-03 1.691497e-03 0.0
-9.983128e-03 1.691505e-03 0.0
-1.069769e-02 1.684218e-03 0.0
-1.140616e-02 1.670845e-03 0.0
-1.210555e-02 1.652054e-03 0.0
-1.279349e-02 1.627892e-03 0.0
-1.346795e-02 1.597983e-03 0.0
-1.412698e-02 1.561863e-03 0.0
-1.476842e-02 1.519289e-03 0.0
-1.538986e-02 1.470379e-03 0.0
-1.598871e-02 1.415572e-03 0.0
-1.656234e-02 1.355443e-03 0.0
-1.710829e-02 1.290499e-03 0.0
-1.762437e-02 1.221042e-03 0.0
-1.810859e-02 1.147139e-03 0.0
-1.855918e-02 1.068703e-03 0.0
-1.897441e-02 9.856149e-04 0.0
-1.935256e-02 8.978406e-04 0.0
-1.969188e-02 8.054959e-04 0.0
-1.999062e-02 7.088465e-04 0.0
-2.024711e-02 6.082643e-04 0.0
-2.045980e-02 5.041696e-04 0.0
-2.062734e-02 3.969854e-04 0.0
-2.074857e-02 2.871207e-04 0.0
-2.082257e-02 1.749827e-04 0.0
-2.084863e-02 6.100767e-05 0.0
-2.082626e-02 -5.430101e-05 0.0
-2.075523e-02 -1.703372e-04 0.0
-2.063552e-02 -2.864914e-04 0.0
-2.046735e-02 -4.021492e-04 0.0
-2.025120e-02 -5.166921e-04 0.0
-1.998777e-02 -6.295022e-04 0.0
-1.967804e-02 -7.399678e-04 0.0
-1.932323e-02 -8.474871e-04 0.0
-1.892480e-02 -9.514694e-04 0.0
-1.848445e-02 -1.051337e-03 0.0
-1.800413e-02 -1.146529e-03 0.0
-1.748600e-02 -1.236502e-03 0.0
-1.693243e-02 -1.320736e-03 0.0
-1.634601e-02 -1.398740e-03 0.0
-1.572952e-02 -1.470051e-03 0.0
-1.508592e-02 -1.534239e-03 0.0
-1.441834e-02 -1.590909e-03 0.0
-1.373005e-02 -1.639704e-03 0.0
-1.302445e-02 -1.680304e-03 0.0
-1.230505e-02 -1.712435e-03 0.0
-1.157547e-02 -1.735870e-03 0.0
-1.083936e-02 -1.750437e-03 0.0
-1.010048e-02 -1.756017e-03 0.0
-9.362558e-03 -1.752553e-03 0.0
-8.629369e-03 -1.740042e-03 0.0
-7.904647e-03 -1.718535e-03 0.0
-7.192088e-03 -1.688134e-03 0.0
-6.495325e-03 -1.648993e-03 0.0
-5.817900e-03 -1.601319e-03 0.0
-5.163243e-03 -1.545375e-03 0.0
-4.534652e-03 -1.481483e-03 0.0
-3.935261e-03 -1.410022e-03 0.0
-3.368021e-03 -1.331436e-03 0.0
-2.835671e-03 -1.246230e-03 0.0
-2.340703e-03 -1.154976e-03 0.0
-1.885341e-03 -1.058320e-03 0.0
-1.471499e-03 -9.569827e-04 0.0
-1.100747e-03 -8.517754e-04 0.0
-7.742694e-04 -7.436075e-04 0.0
-4.928169e-04 -6.335059e-04 0.0
-2.566507e-04 -5.226362e-04 0.0
-6.547840e-05 -4.123320e-04 0.0
8.162304e-05 -3.041324e-04 0.0
1.862941e-04 -1.998290e-04 0.0
2.510035e-04 -1.015307e-04 0.0
2.791643e-04 -1.173108e-05 0.0
2.752657e-04 6.660304e-05 0.0
2.450075e-04 1.299466e-04 0.0
1.954245e-04 1.741531e-04 0.0
1.349980e-04 1.944675e-04 0.0
7.378374e-05 1.857054e-04 0.0
2.376235e-05 1.427207e-04 0.0
0.000000e+00 6.123415e-05 0.0
0.000000e+00 -6.121326e-05 0.0
0.000000e+00 4.084494e-05 0.0
-2.568701e-07 -3.047277e-05 0.0
-4.182285e-05 -1.559290e-06 0.0
-1.270172e-04 1.054742e-04 0.0
-2.661542e-04 2.637628e-04 0.0
-4.662808e-04 4.533559e-04 0.0
-7.312416e-04 6.597372e-04 0.0
-1.062221e-03 8.725494e-04 0.0
-1.458707e-03 1.084162e-03 0.0
-1.919303e-03 1.288540e-03 0.0
-2.441964e-03 1.480797e-03 0.0
-3.023679e-03 1.657376e-03 0.0
-3.660054e-03 1.816452e-03 0.0
-4.345287e-03 1.958004e-03 0.0
-5.072728e-03 2.083316e-03 0.0
-5.835815e-03 2.194039e-03 0.0
-6.628896e-03 2.291285e-03 0.0
-7.447540e-03 2.375184e-03 0.0
-8.288228e-03 2.445070e-03 0.0
-9.147662e-03 2.500121e-03 0.0
-1.002211e-02 2.540045e-03 0.0
-1.090714e-02 2.565443e-03 0.0
-1.179774e-02 2.577698e-03 0.0
-1.268889e-02 2.578492e-03 0.0
-1.357602e-02 2.569243e-03 0.0
-1.445532e-02 2.550734e-03 0.0
-1.532373e-02 2.523075e-03 0.0
-1.617858e-02 2.485956e-03 0.0
-1.701730e-02 2.439027e-03 0.0
-1.783706e-02 2.382216e-03 0.0
-1.863474e-02 2.315847e-03 0.0
-1.940700e-02 2.240553e-03 0.0
-2.015053e-02 2.157058e-03 0.0
-2.086225e-02 2.065957e-03 0.0
-2.153936e-02 1.967584e-03 0.0
-2.217941e-02 1.862016e-03 0.0
-2.278011e-02 1.749182e-03 0.0
-2.333924e-02 1.629011e-03 0.0
-2.385459e-02 1.501556e-03 0.0
-2.432388e-02 1.367048e-03 0.0
-2.474488e-02 1.225877e-03 0.0
-2.511539e-02 1.078538e-03 0.0
-2.543342e-02 9.255617e-04 0.0
-2.569715e-02 7.674768e-04 0.0
-2.590503e-02 6.047996e-04 0.0
-2.605576e-02 4.380593e-04 0.0
-2.614825e-02 2.678371e-04 0.0
-2.618168e-02 9.480476e-05 0.0
-2.615547e-02 -8.024529e-05 0.0
-2.606929e-02 -2.563822e-04 0.0
-2.592311e-02 -4.326627e-04 0.0
-2.571720e-02 -6.081470e-04 0.0
-2.545213e-02 -7.819034e-04 0.0
-2.512878e-02 -9.530110e-04 0.0
-2.474832e-02 -1.120561e-03 0.0
-2.431226e-02 -1.283658e-03 0.0
-2.382239e-02 -1.441422e-03 0.0
-2.328077e-02 -1.592988e-03 0.0
-2.268978e-02 -1.737517e-03 0.0
-2.205204e-02 -1.874197e-03 0.0
-2.137047e-02 -2.002249e-03 0.0
-2.064821e-02 -2.120935e-03 0.0
-1.988865e-02 -2.229556e-03 0.0
-1.909538e-02 -2.327461e-03 0.0
-1.827223e-02 -2.414049e-03 0.0
-1.742316e-02 -2.488776e-03 0.0
-1.655231e-02 -2.551157e-03 0.0
-1.566398e-02 -2.600781e-03 0.0
-1.476255e-02 -2.637309e-03 0.0
-1.385250e-02 -2.660481e-03 0.0
-1.293839e-02 -2.670121e-03 0.0
-1.202479e-02 -2.666138e-03 0.0
-1.111630e-02 -2.648527e-03 0.0
-1.021746e-02 -2.617358e-03 0.0
-9.332805e-03 -2.572782e-03 0.0
-8.466754e-03 -2.515030e-03 0.0
-7.623633e-03 -2.444416e-03 0.0
-6.807632e-03 -2.361341e-03 0.0
-6.022776e-03 -2.266294e-03 0.0
-5.272890e-03 -2.159855e-03 0.0
-4.561573e-03 -2.042697e-03 0.0
-3.892157e-03 -1.915588e-03 0.0
-3.267679e-03 -1.779402e-03 0.0
-2.690833e-03 -1.635116e-03 0.0
-2.163940e-03 -1.483830e-03 0.0
-1.688896e-03 -1.326777e-03 0.0
-1.267124e-03 -1.165337e-03 0.0
-8.995211e-04 -1.001064e-03 0.0
-5.863950e-04 -8.357155e-04 0.0
-3.273925e-04 -6.712852e-04 0.0
-1.214200e-04 -5.100533e-04 0.0
3.344726e-05 -3.546433e-04 0.0
1.400626e-04 -2.080926e-04 0.0
2.023215e-04 -7.393644e-05 0.0
2.252730e-04 4.370479e-05 0.0
2.152347e-04 1.400379e-04 0.0
1.799040e-04 2.095360e-04 0.0
1.284965e-04 2.459275e-04 0.0
7.197559e-05 2.422789e-04 0.0
2.357788e-05 1.911711e-04 0.0
0.000000e+00 8.486471e-05 0.0
0.000000e+00 -8.483441e-05 0.0
0.000000e+00 1.655833e-05 0.0
-1.697865e-05 -1.757877e-05 0.0
-8.807924e-05 6.228526e-05 0.0
-2.172673e-04 2.306422e-04 0.0
-4.129032e-04 4.582743e-04 0.0
-6.804404e-04 7.224587e-04 0.0
-1.022652e-03 1.006311e-03 0.0
-1.440379e-03 1.297050e-03 0.0
-1.933286e-03 1.584609e-03 0.0
-2.500085e-03 1.860972e-03 0.0
-3.138213e-03 2.120205e-03 0.0
-3.843388e-03 2.358761e-03 0.0
-4.609569e-03 2.575450e-03 0.0
-5.429583e-03 2.770804e-03 0.0
-6.296161e-03 2.946001e-03 0.0
-7.202888e-03 3.101830e-03 0.0
-8.144601e-03 3.238179e-03 0.0
-9.117090e-03 3.354230e-03 0.0
-1.011636e-02 3.449136e-03 0.0
-1.113792e-02 3.522729e-03 0.0
-1.217646e-02 3.575874e-03 0.0
-1.322603e-02 3.610290e-03 0.0
-1.428064e-02 3.627987e-03 0.0
-1.533480e-02 3.630640e-03 0.0
-1.638388e-02 3.619198e-03 0.0
-1.742409e-02 3.593883e-03 0.0
-1.845209e-02 3.554496e-03 0.0
-1.946464e-02 3.500840e-03 0.0
-2.045826e-02 3.433051e-03 0.0
-2.142911e-02 3.351692e-03 0.0
-2.237318e-02 3.257625e-03 0.0
-2.328650e-02 3.151759e-03 0.0
-2.416535e-02 3.034806e-03 0.0
-2.500639e-02 2.907164e-03 0.0
-2.580662e-02 2.768945e-03 0.0
-2.656325e-02 2.620120e-03 0.0
-2.727358e-02 2.460683e-03 0.0
-2.793487e-02 2.290788e-03 0.0
-2.854436e-02 2.110788e-03 0.0
-2.909928e-02 1.921205e-03 0.0
-2.959697e-02 1.722654e-03 0.0
-3.003493e-02 1.515778e-03 0.0
-3.041094e-02 1.301206e-03 0.0
-3.072299e-02 1.079557e-03 0.0
-3.096937e-02 8.514809e-04 0.0
-3.114860e-02 6.177023e-04 0.0
-3.125944e-02 3.790625e-04 0.0
-3.130092e-02 1.365458e-04 0.0
-3.127236e-02 -1.087100e-04 0.0
-3.117336e-02 -3.554130e-04 0.0
-3.100390e-02 -6.022567e-04 0.0
-3.076427e-02 -8.479473e-04 0.0
-3.045515e-02 -1.091205e-03 0.0
-3.007755e-02 -1.330764e-03 0.0
-2.963285e-02 -1.565371e-03 0.0
-2.912279e-02 -1.793789e-03 0.0
-2.854944e-02 -2.014797e-03 0.0
-2.791521e-02 -2.227202e-03 0.0
-2.722283e-02 -2.429840e-03 0.0
-2.647538e-02 -2.621586e-03 0.0
-2.567620e-02 -2.801359e-03 0.0
-2.482896e-02 -2.968129e-03 0.0
-2.393757e-02 -3.120921e-03 0.0
-2.300621e-02 -3.258822e-03 0.0
-2.203928e-02 -3.380992e-03 0.0
-2.104141e-02 -3.486673e-03 0.0
-2.001739e-02 -3.575192e-03 0.0
-1.897221e-02 -3.645979e-03 0.0
-1.791096e-02 -3.698564e-03 0.0
-1.683885e-02 -3.732586e-03 0.0
-1.576117e-02 -3.747796e-03 0.0
-1.468324e-02 -3.744061e-03 0.0
-1.361039e-02 -3.721367e-03 0.0
-1.254793e-02 -3.679808e-03 0.0
-1.150110e-02 -3.619589e-03 0.0
-1.047508e-02 -3.541031e-03 0.0
-9.474880e-03 -3.444575e-03 0.0
-8.505393e-03 -3.330781e-03 0.0
-7.571302e-03 -3.200333e-03 0.0
-6.677063e-03 -3.054041e-03 0.0
-5.826861e-03 -2.892847e-03 0.0
-5.024577e-03 -2.717826e-03 0.0
-4.273740e-03 -2.530198e-03 0.0
-3.577484e-03 -2.331333e-03 0.0
-2.938506e-03 -2.122770e-03 0.0
-2.359010e-03 -1.906233e-03 0.0
-1.840658e-03 -1.683647e-03 0.0
-1.384502e-03 -1.457175e-03 0.0
-9.909272e-04 -1.229243e-03 0.0
-6.595716e-04 -1.002591e-03 0.0
-3.892506e-04 -7.803240e-04 0.0
-1.778696e-04 -5.659738e-04 0.0
-2.233224e-05 -3.635795e-04 0.0
8.155468e-05 -1.777732e-04 0.0
1.391807e-04 -1.387121e-05 0.0
1.572366e-04 1.220324e-04 0.0
1.438245e-04 2.229981e-04 0.0
1.086157e-04 2.811866e-04 0.0
6.311985e-05 2.878255e-04 0.0
2.120081e-05 2.331410e-04 0.0
0.000000e+00 1.061164e-04 0.0
0.000000e+00 -1.060743e-04 0.0
0.000000e+00 -1.719674e-05 0.0
-3.355473e-05 8.081235e-06 0.0
-1.353156e-04 1.588560e-04 0.0
-3.111249e-04 4.044400e-04 0.0
-5.664203e-04 7.145833e-04 0.0
-9.045809e-04 1.064746e-03 0.0
-1.327319e-03 1.435849e-03 0.0
-1.835196e-03 1.812661e-03 0.0
-2.427719e-03 2.182980e-03 0.0
-3.102934e-03 2.537550e-03 0.0
-3.856903e-03 2.870256e-03 0.0
-4.683647e-03 3.178017e-03 0.0
-5.575775e-03 3.460029e-03 0.0
-6.525603e-03 3.716537e-03 0.0
-7.526191e-03 3.947663e-03 0.0
-8.571809e-03 4.152801e-03 0.0
-9.657666e-03 4.330786e-03 0.0
-1.077915e-02 4.480580e-03 0.0
-1.193109e-02 4.602013e-03 0.0
-1.310739e-02 4.696111e-03 0.0
-1.430129e-02 4.764863e-03 0.0
-1.550594e-02 4.810579e-03 0.0
-1.671503e-02 4.835201e-03 0.0
-1.792316e-02 4.839884e-03 0.0
-1.912580e-02 4.825003e-03 0.0
-2.031892e-02 4.790516e-03 0.0
-2.149860e-02 4.736421e-03 0.0
-2.266065e-02 4.663094e-03 0.0
-2.380056e-02 4.571367e-03 0.0
-2.491366e-02 4.462362e-03 0.0
-2.599533e-02 4.337201e-03 0.0
-2.704128e-02 4.196748e-03 0.0
-2.804760e-02 4.041501e-03 0.0
-2.901079e-02 3.871641e-03 0.0
-2.992752e-02 3.687211e-03 0.0
-3.079459e-02 3.488299e-03 0.0
-3.160874e-02 3.275173e-03 0.0
-3.236669e-02 3.048321e-03 0.0
-3.306517e-02 2.808395e-03 0.0
-3.370104e-02 2.556132e-03 0.0
-3.427135e-02 2.292279e-03 0.0
-3.477340e-02 2.017560e-03 0.0
-3.520476e-02 1.732696e-03 0.0
-3.556328e-02 1.438449e-03 0.0
-3.584703e-02 1.135682e-03 0.0
-3.605435e-02 8.253993e-04 0.0
-3.618384e-02 5.087724e-04 0.0
-3.623438e-02 1.871421e-04 0.0
-3.620518e-02 -1.379837e-04 0.0
-3.609582e-02 -4.649363e-04 0.0
-3.590625e-02 -7.920248e-04 0.0
-3.563682e-02 -1.117572e-03 0.0
-3.528827e-02 -1.439912e-03 0.0
-3.486176e-02 -1.757392e-03 0.0
-3.435883e-02 -2.068369e-03 0.0
-3.378141e-02 -2.371220e-03 0.0
-3.313183e-02 -2.664347e-03 0.0
-3.241280e-02 -2.946181e-03 0.0
-3.162737e-02 -3.215195e-03 0.0
-3.077899e-02 -3.469908e-03 0.0
-2.987141e-02 -3.708895e-03 0.0
-2.890874e-02 -3.930792e-03 0.0
-2.789536e-02 -4.134309e-03 0.0
-2.683598e-02 -4.318242e-03 0.0
-2.573552e-02 -4.481484e-03 0.0
-2.459919e-02 -4.623035e-03 0.0
-2.343238e-02 -4.742015e-03 0.0
-2.224070e-02 -4.837672e-03 0.0
-2.102987e-02 -4.909386e-03 0.0
-1.980578e-02 -4.956677e-03 0.0
-1.857436e-02 -4.979210e-03 0.0
-1.734161e-02 -4.976799e-03 0.0
-1.611355e-02 -4.949417e-03 0.0
-1.489615e-02 -4.897182e-03 0.0
-1.369535e-02 -4.820361e-03 0.0
-1.251696e-02 -4.719377e-03 0.0
-1.136668e-02 -4.594809e-03 0.0
-1.025002e-02 -4.447395e-03 0.0
-9.172272e-03 -4.278036e-03 0.0
-8.138472e-03 -4.087799e-03 0.0
-7.153354e-03 -3.877927e-03 0.0
-6.221306e-03 -3.649840e-03 0.0
-5.346323e-03 -3.405148e-03 0.0
-4.531957e-03 -3.145665e-03 0.0
-3.781267e-03 -2.873423e-03 0.0
-3.096766e-03 -2.590694e-03 0.0
-2.480358e-03 -2.300012e-03 0.0
-1.933279e-03 -2.004209e-03 0.0
-1.456028e-03 -1.706448e-03 0.0
-1.048293e-03 -1.410279e-03 0.0
-7.088796e-04 -1.119691e-03 0.0
-4.356255e-04 -8.391815e-04 0.0
-2.253205e-04 -5.738379e-04 0.0
-7.362098e-05 -3.294258e-04 0.0
2.503827e-05 -1.124828e-04 0.0
7.753473e-05 6.958436e-05 0.0
9.217415e-05 2.084071e-04 0.0
7.884357e-05 2.945660e-04 0.0
4.925943e-05 3.174590e-04 0.0
1.737746e-05 2.650723e-04 0.0
0.000000e+00 1.235430e-04 0.0
0.000000e+00 -1.234872e-04 0.0
0.000000e+00 -6.009363e-05 0.0
-4.890689e-05 4.731248e-05 0.0
-1.819029e-04 2.887765e-04 0.0
-4.054301e-04 6.281233e-04 0.0
-7.218345e-04 1.034560e-03 0.0
-1.132596e-03 1.482088e-03 0.0
-1.638508e-03 1.949552e-03 0.0
-2.239524e-03 2.419709e-03 0.0
-2.934157e-03 2.879111e-03 0.0
-3.718825e-03 3.318258e-03 0.0
-4.587701e-03 3.731429e-03 0.0
-5.533338e-03 4.115826e-03 0.0
-6.547828e-03 4.470222e-03 0.0
-7.623905e-03 4.793633e-03 0.0
-8.755449e-03 5.084619e-03 0.0
-9.937228e-03 5.341389e-03 0.0
-1.116412e-02 5.562495e-03 0.0
-1.243033e-02 5.747573e-03 0.0
-1.372911e-02 5.897658e-03 0.0
-1.505294e-02 6.014895e-03 0.0
-1.639421e-02 6.101821e-03 0.0
-1.774592e-02 6.160605e-03 0.0
-1.910195e-02 6.192608e-03 0.0
-2.045709e-02 6.198392e-03 0.0
-2.180667e-02 6.178103e-03 0.0
-2.314603e-02 6.131969e-03 0.0
-2.447029e-02 6.060638e-03 0.0
-2.577426e-02 5.965241e-03 0.0
-2.705260e-02 5.847184e-03 0.0
-2.830009e-02 5.707827e-03 0.0
-2.951187e-02 5.548220e-03 0.0
-3.068353e-02 5.368993e-03 0.0
-3.181103e-02 5.170439e-03 0.0
-3.289055e-02 4.952706e-03 0.0
-3.391835e-02 4.716009e-03 0.0
-3.489064e-02 4.460755e-03 0.0
-3.580363e-02 4.187575e-03 0.0
-3.665354e-02 3.897259e-03 0.0
-3.743674e-02 3.590662e-03 0.0
-3.814984e-02 3.268629e-03 0.0
-3.878968e-02 2.931977e-03 0.0
-3.935341e-02 2.581518e-03 0.0
-3.983839e-02 2.218124e-03 0.0
-4.024227e-02 1.842787e-03 0.0
-4.056291e-02 1.456665e-03 0.0
-4.079844e-02 1.061102e-03 0.0
-4.094730e-02 6.576299e-04 0.0
-4.100825e-02 2.479606e-04 0.0
-4.098040e-02 -1.660204e-04 0.0
-4.086330e-02 -5.822550e-04 0.0
-4.065688e-02 -9.986420e-04 0.0
-4.036152e-02 -1.413086e-03 0.0
-3.997805e-02 -1.823498e-03 0.0
-3.950770e-02 -2.227795e-03 0.0
-3.895217e-02 -2.623910e-03 0.0
-3.831355e-02 -3.009796e-03 0.0
-3.759439e-02 -3.383438e-03 0.0
-3.679765e-02 -3.742854e-03 0.0
-3.592668e-02 -4.086113e-03 0.0
-3.498523e-02 -4.411335e-03 0.0
-3.397742e-02 -4.716710e-03 0.0
-3.290773e-02 -5.000507e-03 0.0
-3.178099e-02 -5.261091e-03 0.0
-3.060234e-02 -5.496937e-03 0.0
-2.937721e-02 -5.706645e-03 0.0
-2.811132e-02 -5.888952e-03 0.0
-2.681059e-02 -6.042745e-03 0.0
-2.548120e-02 -6.167067e-03 0.0
-2.412945e-02 -6.261127e-03 0.0
-2.276181e-02 -6.324309e-03 0.0
-2.138484e-02 -6.356175e-03 0.0
-2.000514e-02 -6.356480e-03 0.0
-1.862936e-02 -6.325177e-03 0.0
-1.726410e-02 -6.262409e-03 0.0
-1.591592e-02 -6.168509e-03 0.0
-1.459125e-02 -6.044007e-03 0.0
-1.329638e-02 -5.889630e-03 0.0
-1.203743e-02 -5.706307e-03 0.0
-1.082026e-02 -5.495174e-03 0.0