# vtk DataFile Version 3.0
Vector Field
ASCII
DATASET RECTILINEAR_GRID
DIMENSIONS 102 102 1
X_COORDINATES 102 double
0.000000 0.100000 0.200000 0.300000 0.400000 0.500000 0.600000 0.700000 0.800000 0.900000 1.000000 1.100000 1.200000 1.300000 1.400000 1.500000 1.600000 1.700000 1.800000 1.900000 2.000000 2.100000 2.200000 2.300000 2.400000 2.500000 2.600000 2.700000 2.800000 2.900000 3.000000 3.100000 3.200000 3.300000 3.400000 3.500000 3.600000 3.700000 3.800000 3.900000 4.000000 4.100000 4.200000 4.300000 4.400000 4.500000 4.600000 4.700000 4.800000 4.900000 5.000000 5.100000 5.200000 5.300000 5.400000 5.500000 5.600000 5.700000 5.800000 5.900000 6.000000 6.100000 6.200000 6.300000 6.400000 6.500000 6.600000 6.700000 6.800000 6.900000 7.000000 7.100000 7.200000 7.300000 7.400000 7.500000 7.600000 7.700000 7.800000 7.900000 8.000000 8.100000 8.200000 8.300000 8.400000 8.500000 8.600000 8.700000 8.800000 8.900000 9.000000 9.100000 9.200000 9.300000 9.400000 9.500000 9.600000 9.700000 9.800000 9.900000 10.000000 10.100000 
Y_COORDINATES 102 double
0.000000 0.100000 0.200000 0.300000 0.400000 0.500000 0.600000 0.700000 0.800000 0.900000 1.000000 1.100000 1.200000 1.300000 1.400000 1.500000 1.600000 1.700000 1.800000 1.900000 2.000000 2.100000 2.200000 2.300000 2.400000 2.500000 2.600000 2.700000 2.800000 2.900000 3.000000 3.100000 3.200000 3.300000 3.400000 3.500000 3.600000 3.700000 3.800000 3.900000 4.000000 4.100000 4.200000 4.300000 4.400000 4.500000 4.600000 4.700000 4.800000 4.900000 5.000000 5.100000 5.200000 5.300000 5.400000 5.500000 5.600000 5.700000 5.800000 5.900000 6.000000 6.100000 6.200000 6.300000 6.400000 6.500000 6.600000 6.700000 6.800000 6.900000 7.000000 7.100000 7.200000 7.300000 7.400000 7.500000 7.600000 7.700000 7.800000 7.900000 8.000000 8.100000 8.200000 8.300000 8.400000 8.500000 8.600000 8.700000 8.800000 8.900000 9.000000 9.100000 9.200000 9.300000 9.400000 9.500000 9.600000 9.700000 9.800000 9.900000 10.000000 10.100000 
Z_COORDINATES 1 double
0.0
POINT_DATA 10404
VECTORS Velocity double
0.000000e+00 0.000000e+00 0.0
-1.525719e-06 0.000000e+00 0.0
-2.203338e-06 0.000000e+00 0.0
-1.435062e-06 0.000000e+00 0.0
3.221307e-06 0.000000e+00 0.0
1.294835e-05 0.000000e+00 0.0
2.889907e-05 0.000000e+00 0.0
5.233389e-05 0.000000e+00 0.0
8.436845e-05 0.000000e+00 0.0
1.256010e-04 0.000000e+00 0.0
1.758235e-04 0.000000e+00 0.0
2.339387e-04 0.000000e+00 0.0
2.981231e-04 0.000000e+00 0.0
3.661885e-04 0.000000e+00 0.0
4.360343e-04 0.000000e+00 0.0
5.060534e-04 0.000000e+00 0.0
5.753737e-04 0.000000e+00 0.0
6.438742e-04 0.000000e+00 0.0
7.119894e-04 0.000000e+00 0.0
7.803827e-04 0.000000e+00 0.0
8.496035e-04 0.000000e+00 0.0
9.198395e-04 0.000000e+00 0.0
9.908282e-04 0.000000e+00 0.0
1.061935e-03 0.000000e+00 0.0
1.132347e-03 0.000000e+00 0.0
1.201294e-03 0.000000e+00 0.0
1.268229e-03 0.000000e+00 0.0
1.332902e-03 0.000000e+00 0.0
1.395332e-03 0.000000e+00 0.0
1.455696e-03 0.000000e+00 0.0
1.514201e-03 0.000000e+00 0.0
1.570967e-03 0.000000e+00 0.0
1.625981e-03 0.000000e+00 0.0
1.679101e-03 0.000000e+00 0.0
1.730106e-03 0.000000e+00 0.0
1.778769e-03 0.000000e+00 0.0
1.824906e-03 0.000000e+00 0.0
1.868408e-03 0.000000e+00 0.0
1.909236e-03 0.000000e+00 0.0
1.947390e-03 0.000000e+00 0.0
1.982883e-03 0.000000e+00 0.0
2.015705e-03 0.000000e+00 0.0
2.045812e-03 0.000000e+00 0.0
2.073127e-03 0.000000e+00 0.0
2.097549e-03 0.000000e+00 0.0
2.118972e-03 0.000000e+00 0.0
2.137300e-03 0.000000e+00 0.0
2.152456e-03 0.000000e+00 0.0
2.164384e-03 0.000000e+00 0.0
2.173048e-03 0.000000e+00 0.0
2.178427e-03 0.000000e+00 0.0
2.180505e-03 0.000000e+00 0.0
2.179267e-03 0.000000e+00 0.0
2.174705e-03 0.000000e+00 0.0
2.166807e-03 0.000000e+00 0.0
2.155562e-03 0.000000e+00 0.0
2.140956e-03 0.000000e+00 0.0
2.122979e-03 0.000000e+00 0.0
2.101626e-03 0.000000e+00 0.0
2.076899e-03 0.000000e+00 0.0
2.048807e-03 0.000000e+00 0.0
2.017368e-03 0.000000e+00 0.0
1.982611e-03 0.000000e+00 0.0
1.944575e-03 0.000000e+00 0.0
1.903305e-03 0.000000e+00 0.0
1.858860e-03 0.000000e+00 0.0
1.811305e-03 0.000000e+00 0.0
1.760717e-03 0.000000e+00 0.0
1.707183e-03 0.000000e+00 0.0
1.650799e-03 0.000000e+00 0.0
1.591677e-03 0.000000e+00 0.0
1.529939e-03 0.000000e+00 0.0
1.465724e-03 0.000000e+00 0.0
1.399187e-03 0.000000e+00 0.0
1.330500e-03 0.000000e+00 0.0
1.259857e-03 0.000000e+00 0.0
1.187472e-03 0.000000e+00 0.0
1.113583e-03 0.000000e+00 0.0
1.038455e-03 0.000000e+00 0.0
9.623792e-04 0.000000e+00 0.0
8.856785e-04 0.000000e+00 0.0
8.087084e-04 0.000000e+00 0.0
7.318598e-04 0.000000e+00 0.0
6.555613e-04 0.000000e+00 0.0
5.802819e-04 0.000000e+00 0.0
5.065334e-04 0.000000e+00 0.0
4.348715e-04 0.000000e+00 0.0
3.658977e-04 0.000000e+00 0.0
3.002594e-04 0.000000e+00 0.0
2.386491e-04 0.000000e+00 0.0
1.818016e-04 0.000000e+00 0.0
1.304883e-04 0.000000e+00 0.0
8.550543e-05 0.000000e+00 0.0
4.765389e-05 0.000000e+00 0.0
1.770049e-05 0.000000e+00 0.0
-3.693376e-06 0.000000e+00 0.0
-1.610861e-05 0.000000e+00 0.0
-1.963692e-05 0.000000e+00 0.0
-1.541263e-05 0.000000e+00 0.0
-6.615016e-06 0.000000e+00 0.0
-0.000000e+00 0.000000e+00 0.0
0.000000e+00 0.000000e+00 0.0
0.000000e+00 1.127523e-05 0.0
-1.079346e-05 -2.362636e-05 0.0
6.166983e-06 -1.553780e-05 0.0
1.933417e-05 -7.664529e-08 0.0
2.297612e-05 1.583398e-05 0.0
1.406854e-05 2.833517e-05 0.0
-8.212840e-06 3.587102e-05 0.0
-4.289451e-05 3.881171e-05 0.0
-8.767775e-05 3.882788e-05 0.0
-1.395876e-04 3.816104e-05 0.0
-1.956999e-04 3.886352e-05 0.0
-2.537726e-04 4.218696e-05 0.0
-3.126177e-04 4.827611e-05 0.0
-3.721274e-04 5.623567e-05 0.0
-4.329795e-04 6.451880e-05 0.0
-4.961443e-04 7.148564e-05 0.0
-5.623747e-04 7.593453e-05 0.0
-6.318444e-04 7.743383e-05 0.0
-7.040359e-04 7.636527e-05 0.0
-7.778827e-04 7.369760e-05 0.0
-8.520812e-04 7.060079e-05 0.0
-9.254422e-04 6.805270e-05 0.0
-9.971554e-04 6.657234e-05 0.0
-1.066892e-03 6.615131e-05 0.0
-1.134736e-03 6.637294e-05 0.0
-1.200999e-03 6.664558e-05 0.0
-1.266007e-03 6.644725e-05 0.0
-1.329931e-03 6.549405e-05 0.0
-1.392721e-03 6.378814e-05 0.0
-1.454131e-03 6.155353e-05 0.0
-1.513820e-03 5.910657e-05 0.0
-1.571454e-03 5.672221e-05 0.0
-1.626796e-03 5.454532e-05 0.0
-1.679734e-03 5.256929e-05 0.0
-1.730260e-03 5.067433e-05 0.0
-1.778422e-03 4.869831e-05 0.0
-1.824260e-03 4.650707e-05 0.0
-1.867769e-03 4.403935e-05 0.0
-1.908883e-03 4.131626e-05 0.0
-1.947481e-03 3.842014e-05 0.0
-1.983421e-03 3.545717e-05 0.0
-2.016560e-03 3.251987e-05 0.0
-2.046784e-03 2.966185e-05 0.0
-2.074015e-03 2.688965e-05 0.0
-2.098206e-03 2.417018e-05 0.0
-2.119337e-03 2.144746e-05 0.0
-2.137395e-03 1.866169e-05 0.0
-2.152367e-03 1.576470e-05 0.0
-2.164228e-03 1.272883e-05 0.0
-2.172942e-03 9.548991e-06 0.0
-2.178462e-03 6.239232e-06 0.0
-2.180735e-03 2.826711e-06 0.0
-2.179708e-03 -6.544699e-07 0.0
-2.175338e-03 -4.166815e-06 0.0
-2.167591e-03 -7.681478e-06 0.0
-2.156443e-03 -1.117834e-05 0.0
-2.141880e-03 -1.464519e-05 0.0
-2.123899e-03 -1.807648e-05 0.0
-2.102504e-03 -2.147142e-05 0.0
-2.077711e-03 -2.483185e-05 0.0
-2.049541e-03 -2.816025e-05 0.0
-2.018023e-03 -3.145806e-05 0.0
-1.983193e-03 -3.472465e-05 0.0
-1.945090e-03 -3.795688e-05 0.0
-1.903765e-03 -4.114919e-05 0.0
-1.859272e-03 -4.429400e-05 0.0
-1.811677e-03 -4.738227e-05 0.0
-1.761054e-03 -5.040391e-05 0.0
-1.707488e-03 -5.334793e-05 0.0
-1.651076e-03 -5.620245e-05 0.0
-1.591927e-03 -5.895439e-05 0.0
-1.530164e-03 -6.158919e-05 0.0
-1.465926e-03 -6.409052e-05 0.0
-1.399365e-03 -6.644014e-05 0.0
-1.330655e-03 -6.861794e-05 0.0
-1.259987e-03 -7.060205e-05 0.0
-1.187575e-03 -7.236905e-05 0.0
-1.113657e-03 -7.389404e-05 0.0
-1.038498e-03 -7.515063e-05 0.0
-9.623902e-04 -7.611083e-05 0.0
-8.856576e-04 -7.674479e-05 0.0
-8.086574e-04 -7.702055e-05 0.0
-7.317821e-04 -7.690388e-05 0.0
-6.554614e-04 -7.635796e-05 0.0
-5.801654e-04 -7.534312e-05 0.0
-5.064058e-04 -7.381713e-05 0.0
-4.347385e-04 -7.173568e-05 0.0
-3.657646e-04 -6.905301e-05 0.0
-3.001310e-04 -6.572290e-05 0.0
-2.385296e-04 -6.169994e-05 0.0
-1.816947e-04 -5.694166e-05 0.0
-1.303968e-04 -5.141163e-05 0.0
-8.543176e-05 -4.508491e-05 0.0
-4.759947e-05 -3.795749e-05 0.0
-1.766579e-05 -3.006371e-05 0.0
3.709161e-06 -2.150937e-05 0.0
1.610784e-05 -1.253709e-05 0.0
1.962416e-05 -3.658291e-06 0.0
1.539507e-05 4.084355e-06 0.0
6.601543e-06 8.647183e-06 0.0
0.000000e+00 6.454886e-06 0.0
0.000000e+00 -6.423684e-06 0.0
0.000000e+00 2.666496e-05 0.0
5.889726e-07 -2.291442e-05 0.0
1.356980e-05 -1.302134e-05 0.0
1.200662e-05 1.329402e-05 0.0
-1.120000e-05 4.396033e-05 0.0
-5.913466e-05 7.319779e-05 0.0
-1.318187e-04 9.869181e-05 0.0
-2.272000e-04 1.205797e-04 0.0
-3.420933e-04 1.402532e-04 0.0
-4.730333e-04 1.593324e-04 0.0
-6.169464e-04 1.788906e-04 0.0
-7.715424e-04 1.990472e-04 0.0
-9.353838e-04 2.189740e-04 0.0
-1.107675e-03 2.372473e-04 0.0
-1.287888e-03 2.523847e-04 0.0
-1.475375e-03 2.633604e-04 0.0
-1.669110e-03 2.699207e-04 0.0
-1.867630e-03 2.726119e-04 0.0
-2.069167e-03 2.725411e-04 0.0
-2.271903e-03 2.709843e-04 0.0
-2.474232e-03 2.689966e-04 0.0
-2.674945e-03 2.671572e-04 0.0
-2.873273e-03 2.655163e-04 0.0
-3.068805e-03 2.637281e-04 0.0
-3.261326e-03 2.612893e-04 0.0
-3.450646e-03 2.577805e-04 0.0
-3.636483e-03 2.530220e-04 0.0
-3.818423e-03 2.471072e-04 0.0
-3.995954e-03 2.403264e-04 0.0
-4.168544e-03 2.330331e-04 0.0
-4.335716e-03 2.255136e-04 0.0
-4.497101e-03 2.179095e-04 0.0
-4.652441e-03 2.102081e-04 0.0
-4.801559e-03 2.022913e-04 0.0
-4.944315e-03 1.940103e-04 0.0
-5.080560e-03 1.852554e-04 0.0
-5.210109e-03 1.759946e-04 0.0
-5.332733e-03 1.662764e-04 0.0
-5.448180e-03 1.562030e-04 0.0
-5.556188e-03 1.458904e-04 0.0
-5.656516e-03 1.354320e-04 0.0
-5.748947e-03 1.248767e-04 0.0
-5.833300e-03 1.142249e-04 0.0
-5.909424e-03 1.034398e-04 0.0
-5.977183e-03 9.246622e-05 0.0
-6.036451e-03 8.124985e-05 0.0
-6.087105e-03 6.975239e-05 0.0
-6.129016e-03 5.795876e-05 0.0
-6.162052e-03 4.587770e-05 0.0
-6.186081e-03 3.353749e-05 0.0
-6.200976e-03 2.097917e-05 0.0
-6.206621e-03 8.250276e-06 0.0
-6.202914e-03 -4.599378e-06 0.0
-6.189777e-03 -1.751775e-05 0.0
-6.167153e-03 -3.046753e-05 0.0
-6.135005e-03 -4.342235e-05 0.0
-6.093315e-03 -5.636325e-05 0.0
-6.042084e-03 -6.927562e-05 0.0
-5.981329e-03 -8.214640e-05 0.0
-5.911089e-03 -9.496177e-05 0.0
-5.831416e-03 -1.077054e-04 0.0
-5.742384e-03 -1.203576e-04 0.0
-5.644085e-03 -1.328947e-04 0.0
-5.536632e-03 -1.452895e-04 0.0
-5.420161e-03 -1.575117e-04 0.0
-5.294832e-03 -1.695280e-04 0.0
-5.160830e-03 -1.813028e-04 0.0
-5.018370e-03 -1.927974e-04 0.0
-4.867697e-03 -2.039703e-04 0.0
-4.709089e-03 -2.147760e-04 0.0
-4.542859e-03 -2.251648e-04 0.0
-4.369360e-03 -2.350820e-04 0.0
-4.188987e-03 -2.444677e-04 0.0
-4.002181e-03 -2.532564e-04 0.0
-3.809435e-03 -2.613769e-04 0.0
-3.611297e-03 -2.687522e-04 0.0
-3.408375e-03 -2.752990e-04 0.0
-3.201345e-03 -2.809276e-04 0.0
-2.990956e-03 -2.855410e-04 0.0
-2.778031e-03 -2.890349e-04 0.0
-2.563478e-03 -2.912966e-04 0.0
-2.348295e-03 -2.922055e-04 0.0
-2.133571e-03 -2.916331e-04 0.0
-1.920497e-03 -2.894428e-04 0.0
-1.710364e-03 -2.854906e-04 0.0
-1.504574e-03 -2.796268e-04 0.0
-1.304634e-03 -2.716981e-04 0.0
-1.112160e-03 -2.615512e-04 0.0
-9.288721e-04 -2.490367e-04 0.0
-7.565819e-04 -2.340162e-04 0.0
-5.971779e-04 -2.163720e-04 0.0
-4.525945e-04 -1.960216e-04 0.0
-3.247645e-04 -1.729418e-04 0.0
-2.155423e-04 -1.472072e-04 0.0
-1.265800e-04 -1.190546e-04 0.0
-5.912680e-05 -8.899212e-05 0.0
-1.370689e-05 -5.798767e-05 0.0
1.039626e-05 -2.779304e-05 0.0
1.593588e-05 -1.487413e-06 0.0
8.862817e-06 1.568834e-05 0.0
0.000000e+00 1.528637e-05 0.0
0.000000e+00 -1.524706e-05 0.0
0.000000e+00 3.360957e-05 0.0
6.088896e-06 -1.610934e-05 0.0
3.319548e-06 1.572434e-06 0.0
-2.418377e-05 4.544311e-05 0.0
-8.281677e-05 9.923963e-05 0.0
-1.747887e-04 1.552811e-04 0.0
-2.992820e-04 2.099798e-04 0.0
-4.536655e-04 2.623728e-04 0.0
-6.345807e-04 3.126246e-04 0.0
-8.387622e-04 3.609493e-04 0.0
-1.063496e-03 4.070031e-04 0.0
-1.306707e-03 4.497609e-04 0.0
-1.566748e-03 4.877850e-04 0.0
-1.842056e-03 5.197045e-04 0.0
-2.130817e-03 5.446839e-04 0.0
-2.430807e-03 5.626990e-04 0.0
-2.739423e-03 5.745279e-04 0.0
-3.053907e-03 5.814855e-04 0.0
-3.371636e-03 5.850184e-04 0.0
-3.690378e-03 5.863175e-04 0.0
-4.008432e-03 5.860773e-04 0.0
-4.324599e-03 5.844641e-04 0.0
-4.638043e-03 5.812648e-04 0.0
-4.948099e-03 5.761325e-04 0.0
-5.254095e-03 5.688187e-04 0.0
-5.555267e-03 5.593133e-04 0.0
-5.850754e-03 5.478578e-04 0.0
-6.139666e-03 5.348548e-04 0.0
-6.421171e-03 5.207299e-04 0.0
-6.694571e-03 5.058088e-04 0.0
-6.959322e-03 4.902530e-04 0.0
-7.215014e-03 4.740667e-04 0.0
-7.461319e-03 4.571560e-04 0.0
-7.697929e-03 4.394087e-04 0.0
-7.924517e-03 4.207601e-04 0.0
-8.140716e-03 4.012243e-04 0.0
-8.346127e-03 3.808886e-04 0.0
-8.540343e-03 3.598812e-04 0.0
-8.722974e-03 3.383307e-04 0.0
-8.893666e-03 3.163323e-04 0.0
-9.052106e-03 2.939311e-04 0.0
-9.198020e-03 2.711245e-04 0.0
-9.331162e-03 2.478767e-04 0.0
-9.451299e-03 2.241396e-04 0.0
-9.558205e-03 1.998721e-04 0.0
-9.651651e-03 1.750532e-04 0.0
-9.731409e-03 1.496870e-04 0.0
-9.797251e-03 1.238016e-04 0.0
-9.848958e-03 9.744398e-05 0.0
-9.886324e-03 7.067248e-05 0.0
-9.909161e-03 4.355075e-05 0.0
-9.917306e-03 1.614362e-05 0.0
-9.910621e-03 -1.148388e-05 0.0
-9.889004e-03 -3.926348e-05 0.0
-9.852379e-03 -6.714330e-05 0.0
-9.800700e-03 -9.508107e-05 0.0
-9.733946e-03 -1.230391e-04 0.0
-9.652123e-03 -1.509803e-04 0.0
-9.555263e-03 -1.788654e-04 0.0
-9.443426e-03 -2.066511e-04 0.0
-9.316698e-03 -2.342889e-04 0.0
-9.175195e-03 -2.617253e-04 0.0
-9.019067e-03 -2.889016e-04 0.0
-8.848495e-03 -3.157545e-04 0.0
-8.663700e-03 -3.422161e-04 0.0
-8.464940e-03 -3.682138e-04 0.0
-8.252515e-03 -3.936698e-04 0.0
-8.026772e-03 -4.185003e-04 0.0
-7.788104e-03 -4.426141e-04 0.0
-7.536958e-03 -4.659125e-04 0.0
-7.273837e-03 -4.882874e-04 0.0
-6.999306e-03 -5.096215e-04 0.0
-6.713998e-03 -5.297869e-04 0.0
-6.418618e-03 -5.486451e-04 0.0
-6.113954e-03 -5.660457e-04 0.0
-5.800879e-03 -5.818259e-04 0.0
-5.480363e-03 -5.958090e-04 0.0
-5.153478e-03 -6.078040e-04 0.0
-4.821406e-03 -6.176038e-04 0.0
-4.485448e-03 -6.249853e-04 0.0
-4.147034e-03 -6.297087e-04 0.0
-3.807724e-03 -6.315182e-04 0.0
-3.469222e-03 -6.301429e-04 0.0
-3.133379e-03 -6.252984e-04 0.0
-2.802198e-03 -6.166885e-04 0.0
-2.477833e-03 -6.040096e-04 0.0
-2.162595e-03 -5.869563e-04 0.0
-1.858936e-03 -5.652298e-04 0.0
-1.569444e-03 -5.385485e-04 0.0
-1.296815e-03 -5.066645e-04 0.0
-1.043821e-03 -4.693861e-04 0.0
-8.132504e-04 -4.266123e-04 0.0
-6.078297e-04 -3.783841e-04 0.0
-4.300962e-04 -3.249640e-04 0.0
-2.822166e-04 -2.669591e-04 0.0
-1.657193e-04 -2.055158e-04 0.0
-8.110956e-05 -1.426252e-04 0.0
-2.733049e-05 -8.160113e-05 0.0
-1.037920e-06 -2.780930e-05 0.0
4.348604e-06 1.027281e-05 0.0
0.000000e+00 1.960658e-05 0.0
0.000000e+00 -1.954836e-05 0.0
0.000000e+00 2.872258e-05 0.0
6.176863e-06 -2.986021e-06 0.0
-1.948601e-05 3.222404e-05 0.0
-7.937702e-05 1.020143e-04 0.0
-1.777858e-04 1.877441e-04 0.0
-3.155370e-04 2.800158e-04 0.0
-4.911750e-04 3.735910e-04 0.0
-7.020990e-04 4.657171e-04 0.0
-9.454616e-04 5.546552e-04 0.0
-1.218684e-03 6.388004e-04 0.0
-1.519560e-03 7.163671e-04 0.0
-1.846049e-03 7.855236e-04 0.0
-2.195934e-03 8.447721e-04 0.0
-2.566530e-03 8.933379e-04 0.0
-2.954589e-03 9.313741e-04 0.0
-3.356445e-03 9.598903e-04 0.0
-3.768330e-03 9.804377e-04 0.0
-4.186741e-03 9.946746e-04 0.0
-4.608731e-03 1.003972e-03 0.0
-5.032017e-03 1.009188e-03 0.0
-5.454918e-03 1.010651e-03 0.0
-5.876147e-03 1.008335e-03 0.0
-6.294573e-03 1.002107e-03 0.0
-6.709035e-03 9.919567e-04 0.0
-7.118263e-03 9.781099e-04 0.0
-7.520913e-03 9.610217e-04 0.0
-7.915660e-03 9.412659e-04 0.0
-8.301319e-03 9.193907e-04 0.0
-8.676911e-03 8.958027e-04 0.0
-9.041674e-03 8.707186e-04 0.0
-9.395017e-03 8.441901e-04 0.0
-9.736442e-03 8.161762e-04 0.0
-1.006547e-02 7.866282e-04 0.0
-1.038158e-02 7.555510e-04 0.0
-1.068423e-02 7.230264e-04 0.0
-1.097284e-02 6.891977e-04 0.0
-1.124684e-02 6.542322e-04 0.0
-1.150571e-02 6.182794e-04 0.0
-1.174897e-02 5.814421e-04 0.0
-1.197622e-02 5.437663e-04 0.0
-1.218709e-02 5.052500e-04 0.0
-1.238124e-02 4.658634e-04 0.0
-1.255836e-02 4.255712e-04 0.0
-1.271811e-02 3.843514e-04 0.0
-1.286017e-02 3.422062e-04 0.0
-1.298421e-02 2.991647e-04 0.0
-1.308992e-02 2.552795e-04 0.0
-1.317697e-02 2.106201e-04 0.0
-1.324509e-02 1.652652e-04 0.0
-1.329402e-02 1.192973e-04 0.0
-1.332353e-02 7.279840e-05 0.0
-1.333341e-02 2.584983e-05 0.0
-1.332352e-02 -2.146581e-05 0.0
-1.329373e-02 -6.905934e-05 0.0
-1.324395e-02 -1.168557e-04 0.0
-1.317412e-02 -1.647852e-04 0.0
-1.308423e-02 -2.127786e-04 0.0
-1.297428e-02 -2.607634e-04 0.0
-1.284432e-02 -3.086615e-04 0.0
-1.269443e-02 -3.563886e-04 0.0
-1.252473e-02 -4.038537e-04 0.0
-1.233537e-02 -4.509592e-04 0.0
-1.212657e-02 -4.976015e-04 0.0
-1.189857e-02 -5.436704e-04 0.0
-1.165168e-02 -5.890488e-04 0.0
-1.138623e-02 -6.336113e-04 0.0
-1.110265e-02 -6.772234e-04 0.0
-1.080140e-02 -7.197400e-04 0.0
-1.048301e-02 -7.610040e-04 0.0
-1.014808e-02 -8.008452e-04 0.0
-9.797303e-03 -8.390791e-04 0.0
-9.431427e-03 -8.755061e-04 0.0
-9.051307e-03 -9.099098e-04 0.0
-8.657891e-03 -9.420557e-04 0.0
-8.252236e-03 -9.716895e-04 0.0
-7.835510e-03 -9.985351e-04 0.0
-7.409008e-03 -1.022293e-03 0.0
-6.974156e-03 -1.042639e-03 0.0
-6.532525e-03 -1.059222e-03 0.0
-6.085839e-03 -1.071665e-03 0.0
-5.635983e-03 -1.079565e-03 0.0
-5.185013e-03 -1.082494e-03 0.0
-4.735164e-03 -1.080002e-03 0.0
-4.288853e-03 -1.071621e-03 0.0
-3.848686e-03 -1.056869e-03 0.0
-3.417452e-03 -1.035256e-03 0.0
-2.998121e-03 -1.006300e-03 0.0
-2.593826e-03 -9.695360e-04 0.0
-2.207846e-03 -9.245405e-04 0.0
-1.843564e-03 -8.709589e-04 0.0
-1.504419e-03 -8.085455e-04 0.0
-1.193825e-03 -7.372219e-04 0.0
-9.150671e-04 -6.571598e-04 0.0
-6.711484e-04 -5.689031e-04 0.0
-4.645815e-04 -4.735483e-04 0.0
-2.971116e-04 -3.730095e-04 0.0
-1.693519e-04 -2.704103e-04 0.0
-8.032674e-05 -1.706528e-04 0.0
-2.692592e-05 -8.123655e-05 0.0
-3.276398e-06 -1.340270e-05 0.0
0.000000e+00 1.630484e-05 0.0
0.000000e+00 -1.621979e-05 0.0
0.000000e+00 1.128938e-05 0.0
1.019994e-06 1.535269e-05 0.0
-5.033922e-05 8.062127e-05 0.0
-1.447160e-04 1.865510e-04 0.0
-2.837750e-04 3.137961e-04 0.0
-4.669450e-04 4.513507e-04 0.0
-6.924437e-04 5.920335e-04 0.0
-9.580907e-04 7.308940e-04 0.0
-1.261790e-03 8.640453e-04 0.0
-1.601609e-03 9.881370e-04 0.0
-1.975539e-03 1.100330e-03 0.0
-2.381124e-03 1.198551e-03 0.0
-2.815180e-03 1.281775e-03 0.0
-3.273738e-03 1.350134e-03 0.0
-3.752266e-03 1.404755e-03 0.0
-4.246081e-03 1.447377e-03 0.0
-4.750812e-03 1.479860e-03 0.0
-5.262743e-03 1.503771e-03 0.0
-5.778946e-03 1.520156e-03 0.0
-6.297191e-03 1.529542e-03 0.0
-6.815698e-03 1.532131e-03 0.0
-7.332859e-03 1.528051e-03 0.0
-7.847024e-03 1.517579e-03 0.0
-8.356423e-03 1.501239e-03 0.0
-8.859215e-03 1.479762e-03 0.0
-9.353620e-03 1.453955e-03 0.0
-9.838050e-03 1.424550e-03 0.0
-1.031119e-02 1.392089e-03 0.0
-1.077202e-02 1.356891e-03 0.0
-1.121971e-02 1.319097e-03 0.0
-1.165357e-02 1.278757e-03 0.0
-1.207292e-02 1.235918e-03 0.0
-1.247706e-02 1.190683e-03 0.0
-1.286524e-02 1.143227e-03 0.0
-1.323671e-02 1.093771e-03 0.0
-1.359074e-02 1.042540e-03 0.0
-1.392665e-02 9.897182e-04 0.0
-1.424387e-02 9.354281e-04 0.0
-1.454186e-02 8.797260e-04 0.0
-1.482016e-02 8.226188e-04 0.0
-1.507836e-02 7.640894e-04 0.0
-1.531604e-02 7.041214e-04 0.0
-1.553277e-02 6.427179e-04 0.0
-1.572814e-02 5.799094e-04 0.0
-1.590172e-02 5.157544e-04 0.0
-1.605310e-02 4.503340e-04 0.0
-1.618189e-02 3.837433e-04 0.0
-1.628771e-02 3.160845e-04 0.0
-1.637024e-02 2.474609e-04 0.0
-1.642917e-02 1.779738e-04 0.0
-1.646425e-02 1.077230e-04 0.0
-1.647526e-02 3.680935e-05 0.0
-1.646202e-02 -3.466052e-05 0.0
-1.642440e-02 -1.065689e-04 0.0
-1.636228e-02 -1.788065e-04 0.0
-1.627562e-02 -2.512645e-04 0.0
-1.616438e-02 -3.238303e-04 0.0
-1.602858e-02 -3.963848e-04 0.0
-1.586829e-02 -4.688018e-04 0.0
-1.568359e-02 -5.409473e-04 0.0
-1.547466e-02 -6.126794e-04 0.0
-1.524167e-02 -6.838488e-04 0.0
-1.498491e-02 -7.542976e-04 0.0
-1.470467e-02 -8.238584e-04 0.0
-1.440133e-02 -8.923532e-04 0.0
-1.407533e-02 -9.595912e-04 0.0
-1.372719e-02 -1.025368e-03 0.0
-1.335748e-02 -1.089462e-03 0.0
-1.296685e-02 -1.151638e-03 0.0
-1.255607e-02 -1.211637e-03 0.0
-1.212597e-02 -1.269185e-03 0.0
-1.167749e-02 -1.323981e-03 0.0
-1.121168e-02 -1.375704e-03 0.0
-1.072971e-02 -1.424001e-03 0.0
-1.023288e-02 -1.468492e-03 0.0
-9.722627e-03 -1.508763e-03 0.0
-9.200530e-03 -1.544368e-03 0.0
-8.668333e-03 -1.574819e-03 0.0
-8.127949e-03 -1.599597e-03 0.0
-7.581473e-03 -1.618139e-03 0.0
-7.031187e-03 -1.629853e-03 0.0
-6.479575e-03 -1.634111e-03 0.0
-5.929328e-03 -1.630256e-03 0.0
-5.383343e-03 -1.617611e-03 0.0
-4.844732e-03 -1.595484e-03 0.0
-4.316809e-03 -1.563183e-03 0.0
-3.803082e-03 -1.520030e-03 0.0
-3.307232e-03 -1.465389e-03 0.0
-2.833083e-03 -1.398695e-03 0.0
-2.384551e-03 -1.319499e-03 0.0
-1.965582e-03 -1.227525e-03 0.0
-1.580060e-03 -1.122757e-03 0.0
-1.231689e-03 -1.005547e-03 0.0
-9.238305e-04 -8.767808e-04 0.0
-6.593017e-04 -7.380974e-04 0.0
-4.401243e-04 -5.922085e-04 0.0
-2.672236e-04 -4.433340e-04 0.0
-1.400924e-04 -2.978076e-04 0.0
-5.645153e-05 -1.649006e-04 0.0
-1.195049e-05 -5.792639e-05 0.0
0.000000e+00 4.332336e-06 0.0
0.000000e+00 -4.215375e-06 0.0
0.000000e+00 -1.750687e-05 0.0
-8.978615e-06 3.799590e-05 0.0
-8.571474e-05 1.476069e-04 0.0
-2.136167e-04 3.012832e-04 0.0
-3.918924e-04 4.800448e-04 0.0
-6.189011e-04 6.712983e-04 0.0
-8.928309e-04 8.657990e-04 0.0
-1.212021e-03 1.056380e-03 0.0
-1.574933e-03 1.237244e-03 0.0
-1.979825e-03 1.403798e-03 0.0
-2.424314e-03 1.552784e-03 0.0
-2.905049e-03 1.682451e-03 0.0
-3.417659e-03 1.792558e-03 0.0
-3.957009e-03 1.884110e-03 0.0
-4.517695e-03 1.958879e-03 0.0
-5.094579e-03 2.018843e-03 0.0
-5.683208e-03 2.065724e-03 0.0
-6.279987e-03 2.100749e-03 0.0
-6.882093e-03 2.124652e-03 0.0
-7.487214e-03 2.137879e-03 0.0
-8.093239e-03 2.140847e-03 0.0
-8.698023e-03 2.134158e-03 0.0
-9.299303e-03 2.118675e-03 0.0
-9.894752e-03 2.095460e-03 0.0
-1.048213e-02 2.065613e-03 0.0
-1.105942e-02 2.030111e-03 0.0
-1.162495e-02 1.989694e-03 0.0
-1.217737e-02 1.944842e-03 0.0
-1.271558e-02 1.895840e-03 0.0
-1.323866e-02 1.842873e-03 0.0
-1.374569e-02 1.786122e-03 0.0
-1.423578e-02 1.725825e-03 0.0
-1.470797e-02 1.662278e-03 0.0
-1.516132e-02 1.595806e-03 0.0
-1.559495e-02 1.526715e-03 0.0
-1.600804e-02 1.455244e-03 0.0
-1.639985e-02 1.381554e-03 0.0
-1.676976e-02 1.305725e-03 0.0
-1.711721e-02 1.227787e-03 0.0
-1.744167e-02 1.147745e-03 0.0
-1.774262e-02 1.065611e-03 0.0
-1.801956e-02 9.814197e-04 0.0
-1.827197e-02 8.952345e-04 0.0
-1.849933e-02 8.071482e-04 0.0
-1.870115e-02 7.172733e-04 0.0
-1.887694e-02 6.257339e-04 0.0
-1.902626e-02 5.326576e-04 0.0
-1.914870e-02 4.381704e-04 0.0
-1.924388e-02 3.423950e-04 0.0
-1.931148e-02 2.454515e-04 0.0
-1.935123e-02 1.474612e-04 0.0
-1.936288e-02 4.855175e-05 0.0
-1.934625e-02 -5.113658e-05 0.0
-1.930117e-02 -1.514479e-04 0.0
-1.922754e-02 -2.522276e-04 0.0
-1.912529e-02 -3.533173e-04 0.0
-1.899439e-02 -4.545518e-04 0.0
-1.883486e-02 -5.557582e-04 0.0
-1.864678e-02 -6.567552e-04 0.0
-1.843027e-02 -7.573527e-04 0.0
-1.818552e-02 -8.573516e-04 0.0
-1.791277e-02 -9.565425e-04 0.0
-1.761232e-02 -1.054704e-03 0.0
-1.728456e-02 -1.151602e-03 0.0
-1.692993e-02 -1.246986e-03 0.0
-1.654894e-02 -1.340588e-03 0.0
-1.614220e-02 -1.432123e-03 0.0
-1.571039e-02 -1.521282e-03 0.0
-1.525430e-02 -1.607737e-03 0.0
-1.477480e-02 -1.691132e-03 0.0
-1.427288e-02 -1.771085e-03 0.0
-1.374965e-02 -1.847184e-03 0.0
-1.320634e-02 -1.918979e-03 0.0
-1.264432e-02 -1.985986e-03 0.0
-1.206510e-02 -2.047678e-03 0.0
-1.147036e-02 -2.103482e-03 0.0
-1.086193e-02 -2.152779e-03 0.0
-1.024183e-02 -2.194904e-03 0.0
-9.612282e-03 -2.229139e-03 0.0
-8.975698e-03 -2.254721e-03 0.0
-8.334706e-03 -2.270844e-03 0.0
-7.692158e-03 -2.276657e-03 0.0
-7.051128e-03 -2.271282e-03 0.0
-6.414921e-03 -2.253812e-03 0.0
-5.787068e-03 -2.223332e-03 0.0
-5.171314e-03 -2.178931e-03 0.0
-4.571606e-03 -2.119734e-03 0.0
-3.992064e-03 -2.044930e-03 0.0
-3.436944e-03 -1.953818e-03 0.0
-2.910581e-03 -1.845868e-03 0.0
-2.417319e-03 -1.720797e-03 0.0
-1.961416e-03 -1.578673e-03 0.0
-1.546921e-03 -1.420058e-03 0.0
-1.177522e-03 -1.246197e-03 0.0
-8.563693e-04 -1.059268e-03 0.0
-5.858649e-04 -8.627313e-04 0.0
-3.674464e-04 -6.617723e-04 0.0
-2.013746e-04 -4.638994e-04 0.0
-8.658216e-05 -2.797124e-04 0.0
-2.064430e-05 -1.238831e-04 0.0
0.000000e+00 -1.633023e-05 0.0
0.000000e+00 1.648242e-05 0.0
0.000000e+00 -5.546306e-05 0.0
-2.255774e-05 6.488594e-05 0.0
-1.222978e-04 2.338138e-04 0.0
-2.809948e-04 4.473992e-04 0.0
-4.959770e-04 6.874353e-04 0.0
-7.649471e-04 9.397889e-04 0.0
-1.086170e-03 1.193313e-03 0.0
-1.458251e-03 1.439028e-03 0.0
-1.879664e-03 1.669869e-03 0.0
-2.348191e-03 1.880737e-03 0.0
-2.860508e-03 2.068589e-03 0.0
-3.412082e-03 2.232347e-03 0.0
-3.997431e-03 2.372532e-03 0.0
-4.610642e-03 2.490690e-03 0.0
-5.245979e-03 2.588740e-03 0.0
-5.898347e-03 2.668454e-03 0.0
-6.563521e-03 2.731175e-03 0.0
-7.238081e-03 2.777813e-03 0.0
-7.919158e-03 2.809046e-03 0.0
-8.604112e-03 2.825583e-03 0.0
-9.290294e-03 2.828365e-03 0.0
-9.974945e-03 2.818618e-03 0.0
-1.065526e-02 2.797770e-03 0.0
-1.132856e-02 2.767263e-03 0.0
-1.199239e-02 2.728377e-03 0.0
-1.264470e-02 2.682112e-03 0.0
-1.328379e-02 2.629176e-03 0.0
-1.390826e-02 2.570053e-03 0.0
-1.451689e-02 2.505120e-03 0.0
-1.510851e-02 2.434742e-03 0.0
-1.568198e-02 2.359329e-03 0.0
-1.623615e-02 2.279334e-03 0.0
-1.676989e-02 2.195218e-03 0.0
-1.728213e-02 2.107392e-03 0.0
-1.777190e-02 2.016179e-03 0.0
-1.823835e-02 1.921799e-03 0.0
-1.868072e-02 1.824381e-03 0.0
-1.909833e-02 1.723992e-03 0.0
-1.949054e-02 1.620677e-03 0.0
-1.985675e-02 1.514487e-03 0.0
-2.019634e-02 1.405496e-03 0.0
-2.050871e-02 1.293808e-03 0.0
-2.079324e-02 1.179555e-03 0.0
-2.104935e-02 1.062885e-03 0.0
-2.127647e-02 9.439525e-04 0.0
-2.147408e-02 8.229135e-04 0.0
-2.164169e-02 6.999189e-04 0.0
-2.177886e-02 5.751141e-04 0.0
-2.188520e-02 4.486416e-04 0.0
-2.196036e-02 3.206450e-04 0.0
-2.200405e-02 1.912754e-04 0.0
-2.201600e-02 6.069737e-05 0.0
-2.199602e-02 -7.090464e-05 0.0
-2.194392e-02 -2.033263e-04 0.0
-2.185958e-02 -3.363591e-04 0.0
-2.174293e-02 -4.697879e-04 0.0
-2.159395e-02 -6.033896e-04 0.0
-2.141265e-02 -7.369322e-04 0.0
-2.119914e-02 -8.701745e-04 0.0
-2.095356e-02 -1.002865e-03 0.0
-2.067613e-02 -1.134739e-03 0.0
-2.036713e-02 -1.265521e-03 0.0
-2.002692e-02 -1.394916e-03 0.0
-1.965592e-02 -1.522612e-03 0.0
-1.925464e-02 -1.648279e-03 0.0
-1.882369e-02 -1.771562e-03 0.0
-1.836374e-02 -1.892085e-03 0.0
-1.787557e-02 -2.009443e-03 0.0
-1.736009e-02 -2.123206e-03 0.0
-1.681828e-02 -2.232908e-03 0.0
-1.625128e-02 -2.338047e-03 0.0
-1.566034e-02 -2.438083e-03 0.0
-1.504685e-02 -2.532427e-03 0.0
-1.441235e-02 -2.620442e-03 0.0
-1.375857e-02 -2.701437e-03 0.0
-1.308736e-02 -2.774664e-03 0.0
-1.240081e-02 -2.839316e-03 0.0
-1.170118e-02 -2.894528e-03 0.0
-1.099093e-02 -2.939372e-03 0.0
-1.027278e-02 -2.972867e-03 0.0
-9.549637e-03 -2.993974e-03 0.0
-8.824670e-03 -3.001611e-03 0.0
-8.101281e-03 -2.994656e-03 0.0
-7.383113e-03 -2.971965e-03 0.0
-6.674046e-03 -2.932386e-03 0.0
-5.978179e-03 -2.874787e-03 0.0
-5.299818e-03 -2.798090e-03 0.0
-4.643437e-03 -2.701310e-03 0.0
-4.013641e-03 -2.583617e-03 0.0
-3.415106e-03 -2.444410e-03 0.0
-2.852507e-03 -2.283406e-03 0.0
-2.330421e-03 -2.100771e-03 0.0
-1.853217e-03 -1.897276e-03 0.0
-1.424920e-03 -1.674508e-03 0.0
-1.049065e-03 -1.435137e-03 0.0
-7.285458e-04 -1.183265e-03 0.0
-4.654700e-04 -9.248639e-04 0.0
-2.610626e-04 -6.683222e-04 0.0
-1.156625e-04 -4.251274e-04 0.0
-2.887508e-05 -2.106850e-04 0.0
0.000000e+00 -4.521934e-05 0.0
0.000000e+00 4.540894e-05 0.0
0.000000e+00 -1.001024e-04 0.0
-3.767815e-05 9.689206e-05 0.0
-1.570607e-04 3.397636e-04 0.0
-3.432612e-04 6.250440e-04 0.0
-5.923942e-04 9.352181e-04 0.0
-9.017676e-04 1.254839e-03 0.0
-1.269531e-03 1.571350e-03 0.0
-1.694008e-03 1.874705e-03 0.0
-2.172974e-03 2.157412e-03 0.0
-2.703112e-03 2.414585e-03 0.0
-3.279818e-03 2.643807e-03 0.0
-3.897414e-03 2.844689e-03 0.0
-4.549660e-03 3.018205e-03 0.0
-5.230381e-03 3.165958e-03 0.0
-5.933972e-03 3.289583e-03 0.0
-6.655660e-03 3.390417e-03 0.0
-7.391465e-03 3.469465e-03 0.0
-8.137964e-03 3.527589e-03 0.0
-8.891980e-03 3.565756e-03 0.0
-9.650340e-03 3.585232e-03 0.0
-1.040979e-02 3.587611e-03 0.0
-1.116705e-02 3.574702e-03 0.0
-1.191899e-02 3.548320e-03 0.0
-1.266277e-02 3.510094e-03 0.0
-1.339593e-02 3.461339e-03 0.0
-1.411642e-02 3.403052e-03 0.0
-1.482250e-02 3.335983e-03 0.0
-1.551263e-02 3.260760e-03 0.0
-1.618535e-02 3.177984e-03 0.0
-1.683926e-02 3.088285e-03 0.0
-1.747296e-02 2.992316e-03 0.0
-1.808513e-02 2.890706e-03 0.0
-1.867452e-02 2.784008e-03 0.0
-1.924000e-02 2.672657e-03 0.0
-1.978058e-02 2.556961e-03 0.0
-2.029538e-02 2.437123e-03 0.0
-2.078359e-02 2.313274e-03 0.0
-2.124445e-02 2.185517e-03 0.0
-2.167726e-02 2.053957e-03 0.0
-2.208128e-02 1.918721e-03 0.0
-2.245581e-02 1.779964e-03 0.0
-2.280015e-02 1.637860e-03 0.0
-2.311362e-02 1.492598e-03 0.0
-2.339558e-02 1.344369e-03 0.0
-2.364542e-02 1.193357e-03 0.0
-2.386258e-02 1.039742e-03 0.0
-2.404655e-02 8.836926e-04 0.0
-2.419687e-02 7.253764e-04 0.0
-2.431312e-02 5.649610e-04 0.0
-2.439493e-02 4.026227e-04 0.0
-2.444200e-02 2.385532e-04 0.0
-2.445403e-02 7.296493e-05 0.0
-2.443081e-02 -9.390432e-05 0.0
-2.437214e-02 -2.617942e-04 0.0
-2.427789e-02 -4.304372e-04 0.0
-2.414798e-02 -5.995577e-04 0.0
-2.398239e-02 -7.688711e-04 0.0
-2.378117e-02 -9.380826e-04 0.0
-2.354440e-02 -1.106886e-03 0.0
-2.327228e-02 -1.274962e-03 0.0
-2.296504e-02 -1.441976e-03 0.0
-2.262300e-02 -1.607572e-03 0.0
-2.224656e-02 -1.771377e-03 0.0
-2.183620e-02 -1.932996e-03 0.0
-2.139249e-02 -2.092007e-03 0.0
-2.091609e-02 -2.247964e-03 0.0
-2.040777e-02 -2.400392e-03 0.0
-1.986840e-02 -2.548783e-03 0.0
-1.929897e-02 -2.692591e-03 0.0
-1.870060e-02 -2.831231e-03 0.0
-1.807452e-02 -2.964071e-03 0.0
-1.742213e-02 -3.090426e-03 0.0
-1.674497e-02 -3.209553e-03 0.0
-1.604473e-02 -3.320650e-03 0.0
-1.532329e-02 -3.422847e-03 0.0
-1.458273e-02 -3.515208e-03 0.0
-1.382530e-02 -3.596726e-03 0.0