# vtk DataFile Version 3.0
Vector Field
ASCII
DATASET RECTILINEAR_GRID
DIMENSIONS 102 102 1
X_COORDINATES 102 double
0.000000 0.100000 0.200000 0.300000 0.400000 0.500000 0.600000 0.700000 0.800000 0.900000 1.000000 1.100000 1.200000 1.300000 1.400000 1.500000 1.600000 1.700000 1.800000 1.900000 2.000000 2.100000 2.200000 2.300000 2.400000 2.500000 2.600000 2.700000 2.800000 2.900000 3.000000 3.100000 3.200000 3.300000 3.400000 3.500000 3.600000 3.700000 3.800000 3.900000 4.000000 4.100000 4.200000 4.300000 4.400000 4.500000 4.600000 4.700000 4.800000 4.900000 5.000000 5.100000 5.200000 5.300000 5.400000 5.500000 5.600000 5.700000 5.800000 5.900000 6.000000 6.100000 6.200000 6.300000 6.400000 6.500000 6.600000 6.700000 6.800000 6.900000 7.000000 7.100000 7.200000 7.300000 7.400000 7.500000 7.600000 7.700000 7.800000 7.900000 8.000000 8.100000 8.200000 8.300000 8.400000 8.500000 8.600000 8.700000 8.800000 8.900000 9.000000 9.100000 9.200000 9.300000 9.400000 9.500000 9.600000 9.700000 9.800000 9.900000 10.000000 10.100000 
Y_COORDINATES 102 double
0.000000 0.100000 0.200000 0.300000 0.400000 0.500000 0.600000 0.700000 0.800000 0.900000 1.000000 1.100000 1.200000 1.300000 1.400000 1.500000 1.600000 1.700000 1.800000 1.900000 2.000000 2.100000 2.200000 2.300000 2.400000 2.500000 2.600000 2.700000 2.800000 2.900000 3.000000 3.100000 3.200000 3.300000 3.400000 3.500000 3.600000 3.700000 3.800000 3.900000 4.000000 4.100000 4.200000 4.300000 4.400000 4.500000 4.600000 4.700000 4.800000 4.900000 5.000000 5.100000 5.200000 5.300000 5.400000 5.500000 5.600000 5.700000 5.800000 5.900000 6.000000 6.100000 6.200000 6.300000 6.400000 6.500000 6.600000 6.700000 6.800000 6.900000 7.000000 7.100000 7.200000 7.300000 7.400000 7.500000 7.600000 7.700000 7.800000 7.900000 8.000000 8.100000 8.200000 8.300000 8.400000 8.500000 8.600000 8.700000 8.800000 8.900000 9.000000 9.100000 9.200000 9.300000 9.400000 9.500000 9.600000 9.700000 9.800000 9.900000 10.000000 10.100000 
Z_COORDINATES 1 double
0.0
POINT_DATA 10404
VECTORS Velocity double
0.000000e+00 0.000000e+00 0.0
-8.825647e-06 0.000000e+00 0.0
-1.970165e-05 0.000000e+00 0.0
-2.552831e-05 0.000000e+00 0.0
-2.279447e-05 0.000000e+00 0.0
-1.039369e-05 0.000000e+00 0.0
1.128984e-05 0.000000e+00 0.0
4.112121e-05 0.000000e+00 0.0
7.782362e-05 0.000000e+00 0.0
1.204062e-04 0.000000e+00 0.0
1.683356e-04 0.000000e+00 0.0
2.214351e-04 0.000000e+00 0.0
2.796018e-04 0.000000e+00 0.0
3.425078e-04 0.000000e+00 0.0
4.094468e-04 0.000000e+00 0.0
4.794031e-04 0.000000e+00 0.0
5.512982e-04 0.000000e+00 0.0
6.242791e-04 0.000000e+00 0.0
6.979005e-04 0.000000e+00 0.0
7.721114e-04 0.000000e+00 0.0
8.470636e-04 0.000000e+00 0.0
9.228470e-04 0.000000e+00 0.0
9.992832e-04 0.000000e+00 0.0
1.075873e-03 0.000000e+00 0.0
1.151908e-03 0.000000e+00 0.0
1.226673e-03 0.000000e+00 0.0
1.299645e-03 0.000000e+00 0.0
1.370578e-03 0.000000e+00 0.0
1.439468e-03 0.000000e+00 0.0
1.506420e-03 0.000000e+00 0.0
1.571503e-03 0.000000e+00 0.0
1.634662e-03 0.000000e+00 0.0
1.695727e-03 0.000000e+00 0.0
1.754491e-03 0.000000e+00 0.0
1.810812e-03 0.000000e+00 0.0
1.864669e-03 0.000000e+00 0.0
1.916145e-03 0.000000e+00 0.0
1.965345e-03 0.000000e+00 0.0
2.012286e-03 0.000000e+00 0.0
2.056817e-03 0.000000e+00 0.0
2.098605e-03 0.000000e+00 0.0
2.137201e-03 0.000000e+00 0.0
2.172152e-03 0.000000e+00 0.0
2.203121e-03 0.000000e+00 0.0
2.229972e-03 0.000000e+00 0.0
2.252782e-03 0.000000e+00 0.0
2.271790e-03 0.000000e+00 0.0
2.287293e-03 0.000000e+00 0.0
2.299539e-03 0.000000e+00 0.0
2.308636e-03 0.000000e+00 0.0
2.314522e-03 0.000000e+00 0.0
2.316980e-03 0.000000e+00 0.0
2.315705e-03 0.000000e+00 0.0
2.310387e-03 0.000000e+00 0.0
2.300786e-03 0.000000e+00 0.0
2.286776e-03 0.000000e+00 0.0
2.268357e-03 0.000000e+00 0.0
2.245639e-03 0.000000e+00 0.0
2.218797e-03 0.000000e+00 0.0
2.188020e-03 0.000000e+00 0.0
2.153477e-03 0.000000e+00 0.0
2.115286e-03 0.000000e+00 0.0
2.073513e-03 0.000000e+00 0.0
2.028187e-03 0.000000e+00 0.0
1.979319e-03 0.000000e+00 0.0
1.926928e-03 0.000000e+00 0.0
1.871062e-03 0.000000e+00 0.0
1.811808e-03 0.000000e+00 0.0
1.749299e-03 0.000000e+00 0.0
1.683710e-03 0.000000e+00 0.0
1.615250e-03 0.000000e+00 0.0
1.544157e-03 0.000000e+00 0.0
1.470687e-03 0.000000e+00 0.0
1.395112e-03 0.000000e+00 0.0
1.317715e-03 0.000000e+00 0.0
1.238791e-03 0.000000e+00 0.0
1.158648e-03 0.000000e+00 0.0
1.077612e-03 0.000000e+00 0.0
9.960278e-04 0.000000e+00 0.0
9.142629e-04 0.000000e+00 0.0
8.327113e-04 0.000000e+00 0.0
7.517939e-04 0.000000e+00 0.0
6.719601e-04 0.000000e+00 0.0
5.936886e-04 0.000000e+00 0.0
5.174863e-04 0.000000e+00 0.0
4.438881e-04 0.000000e+00 0.0
3.734547e-04 0.000000e+00 0.0
3.067707e-04 0.000000e+00 0.0
2.444419e-04 0.000000e+00 0.0
1.870905e-04 0.000000e+00 0.0
1.353502e-04 0.000000e+00 0.0
8.985571e-05 0.000000e+00 0.0
5.122716e-05 0.000000e+00 0.0
2.004549e-05 0.000000e+00 0.0
-3.191916e-06 0.000000e+00 0.0
-1.814796e-05 0.000000e+00 0.0
-2.479353e-05 0.000000e+00 0.0
-2.367533e-05 0.000000e+00 0.0
-1.640036e-05 0.000000e+00 0.0
-6.429231e-06 0.000000e+00 0.0
-0.000000e+00 0.000000e+00 0.0
0.000000e+00 0.000000e+00 0.0
0.000000e+00 3.994864e-06 0.0
4.869827e-06 -7.862834e-06 0.0
1.200523e-05 -1.178339e-05 0.0
1.639166e-05 -8.223765e-06 0.0
1.474181e-05 -2.739065e-07 0.0
5.308684e-06 9.496797e-06 0.0
-1.281491e-05 1.932679e-05 0.0
-3.986063e-05 2.816102e-05 0.0
-7.539939e-05 3.564560e-05 0.0
-1.184409e-04 4.199879e-05 0.0
-1.676944e-04 4.772419e-05 0.0
-2.219190e-04 5.325998e-05 0.0
-2.802144e-04 5.871689e-05 0.0
-3.421254e-04 6.382056e-05 0.0
-4.075250e-04 6.807000e-05 0.0
-4.763521e-04 7.101587e-05 0.0
-5.483447e-04 7.250838e-05 0.0
-6.229016e-04 7.279081e-05 0.0
-6.991314e-04 7.240090e-05 0.0
-7.760499e-04 7.194163e-05 0.0
-8.528181e-04 7.184199e-05 0.0
-9.289043e-04 7.222178e-05 0.0
-1.004103e-03 7.291070e-05 0.0
-1.078423e-03 7.359096e-05 0.0
-1.151918e-03 7.397342e-05 0.0
-1.224551e-03 7.391408e-05 0.0
-1.296155e-03 7.342162e-05 0.0
-1.366493e-03 7.257248e-05 0.0
-1.435356e-03 7.139939e-05 0.0
-1.502643e-03 6.982820e-05 0.0
-1.568361e-03 6.770425e-05 0.0
-1.632543e-03 6.489530e-05 0.0
-1.695131e-03 6.141269e-05 0.0
-1.755894e-03 5.748040e-05 0.0
-1.814412e-03 5.350647e-05 0.0
-1.870158e-03 4.995977e-05 0.0
-1.922640e-03 4.720109e-05 0.0
-1.971543e-03 4.534007e-05 0.0
-2.016809e-03 4.417906e-05 0.0
-2.058631e-03 4.326798e-05 0.0
-2.097360e-03 4.204929e-05 0.0
-2.133357e-03 4.003796e-05 0.0
-2.166854e-03 3.697136e-05 0.0
-2.197865e-03 3.287925e-05 0.0
-2.226173e-03 2.805626e-05 0.0
-2.251388e-03 2.295453e-05 0.0
-2.273055e-03 1.803860e-05 0.0
-2.290769e-03 1.365214e-05 0.0
-2.304257e-03 9.936224e-06 0.0
-2.313421e-03 6.816908e-06 0.0
-2.318316e-03 4.055872e-06 0.0
-2.319103e-03 1.340727e-06 0.0
-2.315974e-03 -1.616506e-06 0.0
-2.309092e-03 -5.003910e-06 0.0
-2.298544e-03 -8.881159e-06 0.0
-2.284328e-03 -1.318195e-05 0.0
-2.266370e-03 -1.775049e-05 0.0
-2.244557e-03 -2.239454e-05 0.0
-2.218775e-03 -2.693699e-05 0.0
-2.188945e-03 -3.125268e-05 0.0
-2.155040e-03 -3.528430e-05 0.0
-2.117093e-03 -3.903836e-05 0.0
-2.075190e-03 -4.256688e-05 0.0
-2.029454e-03 -4.594313e-05 0.0
-1.980032e-03 -4.923840e-05 0.0
-1.927078e-03 -5.250495e-05 0.0
-1.870749e-03 -5.576698e-05 0.0
-1.811198e-03 -5.901939e-05 0.0
-1.748576e-03 -6.223222e-05 0.0
-1.683040e-03 -6.535839e-05 0.0
-1.614753e-03 -6.834244e-05 0.0
-1.543895e-03 -7.112836e-05 0.0
-1.470668e-03 -7.366569e-05 0.0
-1.395299e-03 -7.591307e-05 0.0
-1.318042e-03 -7.783947e-05 0.0
-1.239181e-03 -7.942341e-05 0.0
-1.159028e-03 -8.065077e-05 0.0
-1.077922e-03 -8.151180e-05 0.0
-9.962290e-04 -8.199807e-05 0.0
-9.143385e-04 -8.209989e-05 0.0
-8.326633e-04 -8.180452e-05 0.0
-7.516393e-04 -8.109494e-05 0.0
-6.717252e-04 -7.994954e-05 0.0
-5.934033e-04 -7.834285e-05 0.0
-5.171799e-04 -7.624664e-05 0.0
-4.435855e-04 -7.363143e-05 0.0
-3.731750e-04 -7.046790e-05 0.0
-3.065263e-04 -6.672807e-05 0.0
-2.442388e-04 -6.238698e-05 0.0
-1.869301e-04 -5.742445e-05 0.0
-1.352303e-04 -5.182735e-05 0.0
-8.977196e-05 -4.559314e-05 0.0
-5.117479e-05 -3.873523e-05 0.0
-2.001941e-05 -3.129336e-05 0.0
3.196217e-06 -2.335193e-05 0.0
1.813370e-05 -1.507524e-05 0.0
2.476510e-05 -6.770389e-06 0.0
2.363638e-05 9.905313e-07 0.0
1.634857e-05 7.149834e-06 0.0
6.357833e-06 9.852817e-06 0.0
0.000000e+00 6.219944e-06 0.0
0.000000e+00 -5.931213e-06 0.0
0.000000e+00 1.116901e-05 0.0
6.331458e-06 -1.889707e-05 0.0
1.426312e-05 -2.058056e-05 0.0
1.168349e-05 -4.537134e-06 0.0
-7.953314e-06 2.143690e-05 0.0
-4.816733e-05 5.147729e-05 0.0
-1.102705e-04 8.197680e-05 0.0
-1.939531e-04 1.110419e-04 0.0
-2.978081e-04 1.380021e-04 0.0
-4.198523e-04 1.628714e-04 0.0
-5.579993e-04 1.858354e-04 0.0
-7.103846e-04 2.068898e-04 0.0
-8.754738e-04 2.257271e-04 0.0
-1.051965e-03 2.418689e-04 0.0
-1.238580e-03 2.549313e-04 0.0
-1.433881e-03 2.648646e-04 0.0
-1.636206e-03 2.720339e-04 0.0
-1.843759e-03 2.771055e-04 0.0
-2.054804e-03 2.808023e-04 0.0
-2.267844e-03 2.836566e-04 0.0
-2.481727e-03 2.858759e-04 0.0
-2.695612e-03 2.873709e-04 0.0
-2.908846e-03 2.879066e-04 0.0
-3.120822e-03 2.872828e-04 0.0
-3.330890e-03 2.854464e-04 0.0
-3.538355e-03 2.824877e-04 0.0
-3.742549e-03 2.785452e-04 0.0
-3.942907e-03 2.736915e-04 0.0
-4.139011e-03 2.678779e-04 0.0
-4.330548e-03 2.609760e-04 0.0
-4.517220e-03 2.528959e-04 0.0
-4.698635e-03 2.437128e-04 0.0
-4.874257e-03 2.337271e-04 0.0
-5.043426e-03 2.234164e-04 0.0
-5.205450e-03 2.132905e-04 0.0
-5.359735e-03 2.037084e-04 0.0
-5.505883e-03 1.947377e-04 0.0
-5.643725e-03 1.861180e-04 0.0
-5.773280e-03 1.773433e-04 0.0
-5.894643e-03 1.678336e-04 0.0
-6.007864e-03 1.571286e-04 0.0
-6.112846e-03 1.450329e-04 0.0
-6.209306e-03 1.316664e-04 0.0
-6.296805e-03 1.174092e-04 0.0
-6.374816e-03 1.027690e-04 0.0
-6.442825e-03 8.822239e-05 0.0
-6.500411e-03 7.408393e-05 0.0
-6.547294e-03 6.043910e-05 0.0
-6.583334e-03 4.715460e-05 0.0
-6.608503e-03 3.395071e-05 0.0
-6.622824e-03 2.050593e-05 0.0
-6.626320e-03 6.558729e-06 0.0
-6.618979e-03 -8.021061e-06 0.0
-6.600742e-03 -2.320953e-05 0.0
-6.571504e-03 -3.886438e-05 0.0
-6.531144e-03 -5.477009e-05 0.0
-6.479549e-03 -7.069535e-05 0.0
-6.416650e-03 -8.644356e-05 0.0
-6.342438e-03 -1.018838e-04 0.0
-6.256971e-03 -1.169585e-04 0.0
-6.160372e-03 -1.316709e-04 0.0
-6.052821e-03 -1.460607e-04 0.0
-5.934539e-03 -1.601767e-04 0.0
-5.805782e-03 -1.740535e-04 0.0
-5.666832e-03 -1.876967e-04 0.0
-5.517999e-03 -2.010775e-04 0.0
-5.359621e-03 -2.141350e-04 0.0
-5.192067e-03 -2.267833e-04 0.0
-5.015749e-03 -2.389209e-04 0.0
-4.831122e-03 -2.504402e-04 0.0
-4.638693e-03 -2.612349e-04 0.0
-4.439026e-03 -2.712055e-04 0.0
-4.232745e-03 -2.802615e-04 0.0
-4.020535e-03 -2.883218e-04 0.0
-3.803145e-03 -2.953129e-04 0.0
-3.581386e-03 -3.011660e-04 0.0
-3.356135e-03 -3.058135e-04 0.0
-3.128332e-03 -3.091863e-04 0.0
-2.898979e-03 -3.112111e-04 0.0
-2.669143e-03 -3.118090e-04 0.0
-2.439954e-03 -3.108962e-04 0.0
-2.212607e-03 -3.083832e-04 0.0
-1.988362e-03 -3.041764e-04 0.0
-1.768543e-03 -2.981801e-04 0.0
-1.554536e-03 -2.902993e-04 0.0
-1.347790e-03 -2.804424e-04 0.0
-1.149809e-03 -2.685244e-04 0.0
-9.621437e-04 -2.544700e-04 0.0
-7.863842e-04 -2.382193e-04 0.0
-6.241400e-04 -2.197337e-04 0.0
-4.770169e-04 -1.990064e-04 0.0
-3.465795e-04 -1.760773e-04 0.0
-2.342962e-04 -1.510569e-04 0.0
-1.414559e-04 -1.241655e-04 0.0
-6.904054e-05 -9.579612e-05 0.0
-1.752340e-05 -6.662216e-05 0.0
1.344868e-05 -3.776961e-05 0.0
2.551699e-05 -1.110527e-05 0.0
2.229163e-05 1.034769e-05 0.0
1.023869e-05 2.187799e-05 0.0
0.000000e+00 1.643069e-05 0.0
0.000000e+00 -1.609786e-05 0.0
0.000000e+00 1.537735e-05 0.0
1.958813e-06 -2.471089e-05 0.0
-4.569112e-07 -1.699096e-05 0.0
-2.192443e-05 1.896209e-05 0.0
-6.981273e-05 7.090900e-05 0.0
-1.480411e-04 1.299689e-04 0.0
-2.578610e-04 1.907013e-04 0.0
-3.986233e-04 2.500974e-04 0.0
-5.685334e-04 3.066653e-04 0.0
-7.653065e-04 3.596408e-04 0.0
-9.866140e-04 4.084426e-04 0.0
-1.230261e-03 4.524409e-04 0.0
-1.494131e-03 4.910142e-04 0.0
-1.776020e-03 5.237629e-04 0.0
-2.073501e-03 5.507068e-04 0.0
-2.383921e-03 5.723301e-04 0.0
-2.704548e-03 5.894389e-04 0.0
-3.032790e-03 6.028980e-04 0.0
-3.366392e-03 6.133768e-04 0.0
-3.703508e-03 6.212186e-04 0.0
-4.042641e-03 6.264746e-04 0.0
-4.382505e-03 6.290599e-04 0.0
-4.721866e-03 6.289294e-04 0.0
-5.059475e-03 6.261801e-04 0.0
-5.394085e-03 6.210351e-04 0.0
-5.724536e-03 6.137405e-04 0.0
-6.049840e-03 6.044526e-04 0.0
-6.369195e-03 5.931941e-04 0.0
-6.681927e-03 5.799117e-04 0.0
-6.987376e-03 5.646047e-04 0.0
-7.284791e-03 5.474515e-04 0.0
-7.573293e-03 5.288557e-04 0.0
-7.851925e-03 5.093767e-04 0.0
-8.119765e-03 4.895652e-04 0.0
-8.376056e-03 4.697750e-04 0.0
-8.620289e-03 4.500341e-04 0.0
-8.852194e-03 4.300332e-04 0.0
-9.071662e-03 4.092390e-04 0.0
-9.278606e-03 3.870870e-04 0.0
-9.472836e-03 3.631801e-04 0.0
-9.653978e-03 3.374205e-04 0.0
-9.821473e-03 3.100316e-04 0.0
-9.974637e-03 2.814741e-04 0.0
-1.011276e-02 2.522919e-04 0.0
-1.023522e-02 2.229487e-04 0.0
-1.034153e-02 1.937086e-04 0.0
-1.043137e-02 1.645923e-04 0.0
-1.050457e-02 1.354133e-04 0.0
-1.056103e-02 1.058708e-04 0.0
-1.060067e-02 7.566295e-05 0.0
-1.062337e-02 4.458444e-05 0.0
-1.062897e-02 1.258377e-05 0.0
-1.061726e-02 -2.022794e-05 0.0
-1.058802e-02 -5.361506e-05 0.0
-1.054103e-02 -8.729674e-05 0.0
-1.047614e-02 -1.210034e-04 0.0
-1.039327e-02 -1.545201e-04 0.0
-1.029243e-02 -1.877074e-04 0.0
-1.017373e-02 -2.204981e-04 0.0
-1.003732e-02 -2.528762e-04 0.0
-9.883442e-03 -2.848476e-04 0.0
-9.712371e-03 -3.164121e-04 0.0
-9.524428e-03 -3.475422e-04 0.0
-9.319973e-03 -3.781725e-04 0.0
-9.099412e-03 -4.081983e-04 0.0
-8.863201e-03 -4.374820e-04 0.0
-8.611858e-03 -4.658621e-04 0.0
-8.345969e-03 -4.931638e-04 0.0
-8.066193e-03 -5.192084e-04 0.0
-7.773273e-03 -5.438196e-04 0.0
-7.468035e-03 -5.668272e-04 0.0
-7.151396e-03 -5.880685e-04 0.0
-6.824360e-03 -6.073870e-04 0.0
-6.488027e-03 -6.246296e-04 0.0
-6.143587e-03 -6.396433e-04 0.0
-5.792323e-03 -6.522719e-04 0.0
-5.435613e-03 -6.623524e-04 0.0
-5.074931e-03 -6.697145e-04 0.0
-4.711846e-03 -6.741794e-04 0.0
-4.348025e-03 -6.755608e-04 0.0
-3.985235e-03 -6.736679e-04 0.0
-3.625337e-03 -6.683060e-04 0.0
-3.270293e-03 -6.592798e-04 0.0
-2.922158e-03 -6.463970e-04 0.0
-2.583078e-03 -6.294726e-04 0.0
-2.255279e-03 -6.083342e-04 0.0
-1.941063e-03 -5.828279e-04 0.0
-1.642782e-03 -5.528263e-04 0.0
-1.362824e-03 -5.182393e-04 0.0
-1.103576e-03 -4.790299e-04 0.0
-8.673827e-04 -4.352371e-04 0.0
-6.564802e-04 -3.870083e-04 0.0
-4.729086e-04 -3.346509e-04 0.0
-3.183849e-04 -2.787081e-04 0.0
-1.941240e-04 -2.200771e-04 0.0
-1.005772e-04 -1.601909e-04 0.0
-3.707682e-05 -1.012918e-04 0.0
-1.362649e-06 -4.684284e-05 0.0
1.103410e-05 -2.073356e-06 0.0
7.572291e-06 2.531517e-05 0.0
0.000000e+00 2.397828e-05 0.0
0.000000e+00 -2.358481e-05 0.0
0.000000e+00 1.375818e-05 0.0
-4.471544e-06 -2.201321e-05 0.0
-2.384604e-05 4.602606e-06 0.0
-7.171233e-05 6.845663e-05 0.0
-1.545978e-04 1.539410e-04 0.0
-2.757826e-04 2.498382e-04 0.0
-4.360254e-04 3.490163e-04 0.0
-6.343993e-04 4.470948e-04 0.0
-8.690616e-04 5.413179e-04 0.0
-1.137801e-03 6.297544e-04 0.0
-1.438280e-03 7.108906e-04 0.0
-1.768015e-03 7.835640e-04 0.0
-2.124232e-03 8.470891e-04 0.0
-2.503776e-03 9.013819e-04 0.0
-2.903165e-03 9.469444e-04 0.0
-3.318806e-03 9.846702e-04 0.0
-3.747280e-03 1.015547e-03 0.0
-4.185572e-03 1.040382e-03 0.0
-4.631145e-03 1.059672e-03 0.0
-5.081864e-03 1.073637e-03 0.0
-5.535813e-03 1.082382e-03 0.0
-5.991139e-03 1.086066e-03 0.0
-6.445974e-03 1.084989e-03 0.0
-6.898481e-03 1.079561e-03 0.0
-7.346962e-03 1.070188e-03 0.0
-7.789946e-03 1.057162e-03 0.0
-8.226206e-03 1.040628e-03 0.0
-8.654676e-03 1.020657e-03 0.0
-9.074310e-03 9.973874e-04 0.0
-9.483975e-03 9.711447e-04 0.0
-9.882423e-03 9.424722e-04 0.0
-1.026836e-02 9.120362e-04 0.0
-1.064061e-02 8.804444e-04 0.0
-1.099822e-02 8.480546e-04 0.0
-1.134054e-02 8.148643e-04 0.0
-1.166721e-02 7.805302e-04 0.0
-1.197799e-02 7.445154e-04 0.0
-1.227264e-02 7.063026e-04 0.0
-1.255074e-02 6.655927e-04 0.0
-1.281165e-02 6.224142e-04 0.0
-1.305452e-02 5.771127e-04 0.0
-1.327841e-02 5.302334e-04 0.0
-1.348244e-02 4.823480e-04 0.0
-1.366584e-02 4.338915e-04 0.0
-1.382808e-02 3.850622e-04 0.0
-1.396879e-02 3.358075e-04 0.0
-1.408778e-02 2.858900e-04 0.0
-1.418487e-02 2.350004e-04 0.0
-1.425991e-02 1.828765e-04 0.0
-1.431264e-02 1.293906e-04 0.0
-1.434274e-02 7.458833e-05 0.0
-1.434983e-02 1.867465e-05 0.0
-1.433354e-02 -3.803496e-05 0.0
-1.429357e-02 -9.518638e-05 0.0
-1.422968e-02 -1.524691e-04 0.0
-1.414176e-02 -2.096490e-04 0.0
-1.402981e-02 -2.665747e-04 0.0
-1.389395e-02 -3.231617e-04 0.0
-1.373435e-02 -3.793626e-04 0.0
-1.355127e-02 -4.351333e-04 0.0
-1.334499e-02 -4.904059e-04 0.0
-1.311586e-02 -5.450716e-04 0.0
-1.286427e-02 -5.989756e-04 0.0
-1.259067e-02 -6.519208e-04 0.0
-1.229558e-02 -7.036774e-04 0.0
-1.197960e-02 -7.539946e-04 0.0
-1.164343e-02 -8.026112e-04 0.0
-1.128787e-02 -8.492635e-04 0.0
-1.091380e-02 -8.936907e-04 0.0
-1.052226e-02 -9.356362e-04 0.0
-1.011435e-02 -9.748477e-04 0.0
-9.691318e-03 -1.011074e-03 0.0
-9.254513e-03 -1.044061e-03 0.0
-8.805401e-03 -1.073548e-03 0.0
-8.345566e-03 -1.099268e-03 0.0
-7.876711e-03 -1.120936e-03 0.0
-7.400657e-03 -1.138261e-03 0.0
-6.919351e-03 -1.150935e-03 0.0
-6.434864e-03 -1.158644e-03 0.0
-5.949391e-03 -1.161066e-03 0.0
-5.465257e-03 -1.157878e-03 0.0
-4.984908e-03 -1.148758e-03 0.0
-4.510914e-03 -1.133389e-03 0.0
-4.045960e-03 -1.111466e-03 0.0
-3.592836e-03 -1.082701e-03 0.0
-3.154426e-03 -1.046833e-03 0.0
-2.733689e-03 -1.003635e-03 0.0
-2.333633e-03 -9.529343e-04 0.0
-1.957281e-03 -8.946276e-04 0.0
-1.607625e-03 -8.287094e-04 0.0
-1.287567e-03 -7.553111e-04 0.0
-9.998319e-04 -6.747551e-04 0.0
-7.468581e-04 -5.876350e-04 0.0
-5.306473e-04 -4.949302e-04 0.0
-3.525683e-04 -3.981726e-04 0.0
-2.130878e-04 -2.996903e-04 0.0
-1.114477e-04 -2.029530e-04 0.0
-4.525656e-05 -1.130565e-04 0.0
-1.001109e-05 -3.734217e-05 0.0
1.485615e-06 1.379504e-05 0.0
0.000000e+00 2.544069e-05 0.0
0.000000e+00 -2.498456e-05 0.0
0.000000e+00 5.004729e-06 0.0
-1.154503e-05 -1.002604e-05 0.0
-5.165242e-05 4.661866e-05 0.0
-1.302296e-04 1.472981e-04 0.0
-2.518705e-04 2.742248e-04 0.0
-4.186189e-04 4.145297e-04 0.0
-6.305910e-04 5.594951e-04 0.0
-8.867055e-04 7.031685e-04 0.0
-1.185246e-03 8.412975e-04 0.0
-1.524129e-03 9.707136e-04 0.0
-1.900894e-03 1.089115e-03 0.0
-2.312571e-03 1.195077e-03 0.0
-2.755603e-03 1.288080e-03 0.0
-3.225938e-03 1.368412e-03 0.0
-3.719307e-03 1.436902e-03 0.0
-4.231575e-03 1.494565e-03 0.0
-4.759016e-03 1.542295e-03 0.0
-5.298428e-03 1.580713e-03 0.0
-5.847046e-03 1.610202e-03 0.0
-6.402350e-03 1.631065e-03 0.0
-6.961885e-03 1.643686e-03 0.0
-7.523187e-03 1.648604e-03 0.0
-8.083832e-03 1.646458e-03 0.0
-8.641563e-03 1.637862e-03 0.0
-9.194397e-03 1.623297e-03 0.0
-9.740637e-03 1.603080e-03 0.0
-1.027878e-02 1.577461e-03 0.0
-1.080736e-02 1.546765e-03 0.0
-1.132485e-02 1.511511e-03 0.0
-1.182960e-02 1.472422e-03 0.0
-1.231998e-02 1.430306e-03 0.0
-1.279451e-02 1.385856e-03 0.0
-1.325203e-02 1.339456e-03 0.0
-1.369172e-02 1.291095e-03 0.0
-1.411310e-02 1.240419e-03 0.0
-1.451579e-02 1.186911e-03 0.0
-1.489937e-02 1.130132e-03 0.0
-1.526321e-02 1.069907e-03 0.0
-1.560641e-02 1.006416e-03 0.0
-1.592787e-02 9.401454e-04 0.0
-1.622641e-02 8.717304e-04 0.0
-1.650094e-02 8.017701e-04 0.0
-1.675059e-02 7.306656e-04 0.0
-1.697472e-02 6.585437e-04 0.0
-1.717294e-02 5.852774e-04 0.0
-1.734499e-02 5.105833e-04 0.0
-1.749065e-02 4.341543e-04 0.0
-1.760964e-02 3.557812e-04 0.0
-1.770158e-02 2.754278e-04 0.0
-1.776600e-02 1.932463e-04 0.0
-1.780237e-02 1.095411e-04 0.0
-1.781019e-02 2.470135e-05 0.0
-1.778901e-02 -6.086953e-05 0.0
-1.773854e-02 -1.468166e-04 0.0
-1.765860e-02 -2.328824e-04 0.0
-1.754916e-02 -3.188980e-04 0.0
-1.741030e-02 -4.047531e-04 0.0
-1.724219e-02 -4.903571e-04 0.0
-1.704506e-02 -5.756027e-04 0.0
-1.681919e-02 -6.603405e-04 0.0
-1.656490e-02 -7.443669e-04 0.0
-1.628258e-02 -8.274254e-04 0.0
-1.597269e-02 -9.092154e-04 0.0
-1.563576e-02 -9.894056e-04 0.0
-1.527243e-02 -1.067647e-03 0.0
-1.488347e-02 -1.143584e-03 0.0
-1.446974e-02 -1.216857e-03 0.0
-1.403223e-02 -1.287113e-03 0.0
-1.357209e-02 -1.353996e-03 0.0
-1.309057e-02 -1.417151e-03 0.0
-1.258906e-02 -1.476217e-03 0.0
-1.206909e-02 -1.530824e-03 0.0
-1.153231e-02 -1.580588e-03 0.0
-1.098052e-02 -1.625106e-03 0.0
-1.041564e-02 -1.663959e-03 0.0
-9.839753e-03 -1.696711e-03 0.0
-9.255073e-03 -1.722906e-03 0.0
-8.663963e-03 -1.742080e-03 0.0
-8.068937e-03 -1.753759e-03 0.0
-7.472659e-03 -1.757470e-03 0.0
-6.877939e-03 -1.752739e-03 0.0
-6.287735e-03 -1.739103e-03 0.0
-5.705140e-03 -1.716112e-03 0.0
-5.133376e-03 -1.683336e-03 0.0
-4.575781e-03 -1.640379e-03 0.0
-4.035784e-03 -1.586886e-03 0.0
-3.516888e-03 -1.522567e-03 0.0
-3.022629e-03 -1.447212e-03 0.0
-2.556540e-03 -1.360726e-03 0.0
-2.122086e-03 -1.263167e-03 0.0
-1.722597e-03 -1.154802e-03 0.0
-1.361171e-03 -1.036186e-03 0.0
-1.040551e-03 -9.082631e-04 0.0
-7.629733e-04 -7.725201e-04 0.0
-5.299779e-04 -6.311877e-04 0.0
-3.421640e-04 -4.875257e-04 0.0
-1.989304e-04 -3.462106e-04 0.0
-9.816222e-05 -2.138492e-04 0.0
-3.591325e-05 -9.961560e-05 0.0
-6.074016e-06 -1.606829e-05 0.0
0.000000e+00 1.934301e-05 0.0
0.000000e+00 -1.883015e-05 0.0
0.000000e+00 -1.172790e-05 0.0
-1.901834e-05 1.072437e-05 0.0
-8.153218e-05 1.096952e-04 0.0
-1.925644e-04 2.571141e-04 0.0
-3.543300e-04 4.339410e-04 0.0
-5.674768e-04 6.261331e-04 0.0
-8.315165e-04 8.234693e-04 0.0
-1.145264e-03 1.018403e-03 0.0
-1.507047e-03 1.205268e-03 0.0
-1.914660e-03 1.379910e-03 0.0
-2.365211e-03 1.539579e-03 0.0
-2.855028e-03 1.682852e-03 0.0
-3.379762e-03 1.809444e-03 0.0
-3.934697e-03 1.919854e-03 0.0
-4.515150e-03 2.014939e-03 0.0
-5.116800e-03 2.095551e-03 0.0
-5.735840e-03 2.162354e-03 0.0
-6.368912e-03 2.215842e-03 0.0
-7.012919e-03 2.256486e-03 0.0
-7.664842e-03 2.284882e-03 0.0
-8.321649e-03 2.301809e-03 0.0
-8.980361e-03 2.308157e-03 0.0
-9.638174e-03 2.304786e-03 0.0
-1.029258e-02 2.292404e-03 0.0
-1.094139e-02 2.271555e-03 0.0
-1.158262e-02 2.242714e-03 0.0
-1.221437e-02 2.206443e-03 0.0
-1.283466e-02 2.163500e-03 0.0
-1.344145e-02 2.114828e-03 0.0
-1.403276e-02 2.061415e-03 0.0
-1.460681e-02 2.004072e-03 0.0
-1.516217e-02 1.943246e-03 0.0
-1.569787e-02 1.878951e-03 0.0
-1.621322e-02 1.810852e-03 0.0
-1.670770e-02 1.738491e-03 0.0
-1.718069e-02 1.661532e-03 0.0
-1.763133e-02 1.579953e-03 0.0
-1.805848e-02 1.494105e-03 0.0
-1.846079e-02 1.404623e-03 0.0
-1.883688e-02 1.312243e-03 0.0
-1.918549e-02 1.217593e-03 0.0
-1.950560e-02 1.121044e-03 0.0
-1.979650e-02 1.022658e-03 0.0
-2.005773e-02 9.222410e-04 0.0
-2.028896e-02 8.194763e-04 0.0
-2.048986e-02 7.140713e-04 0.0
-2.066005e-02 6.058802e-04 0.0
-2.079903e-02 4.949646e-04 0.0
-2.090616e-02 3.815854e-04 0.0
-2.098079e-02 2.661436e-04 0.0
-2.102228e-02 1.490974e-04 0.0
-2.103008e-02 3.088663e-05 0.0
-2.100380e-02 -8.811462e-05 0.0
-2.094320e-02 -2.076202e-04 0.0
-2.084819e-02 -3.274350e-04 0.0
-2.071879e-02 -4.474120e-04 0.0
-2.055512e-02 -5.674058e-04 0.0
-2.035737e-02 -6.872344e-04 0.0
-2.012576e-02 -8.066563e-04 0.0
-1.986058e-02 -9.253651e-04 0.0
-1.956218e-02 -1.042996e-03 0.0
-1.923098e-02 -1.159138e-03 0.0
-1.886751e-02 -1.273356e-03 0.0
-1.847242e-02 -1.385198e-03 0.0
-1.804648e-02 -1.494206e-03 0.0
-1.759059e-02 -1.599925e-03 0.0
-1.710580e-02 -1.701896e-03 0.0
-1.659330e-02 -1.799658e-03 0.0
-1.605443e-02 -1.892746e-03 0.0
-1.549067e-02 -1.980676e-03 0.0
-1.490365e-02 -2.062950e-03 0.0
-1.429514e-02 -2.139046e-03 0.0
-1.366708e-02 -2.208416e-03 0.0
-1.302155e-02 -2.270490e-03 0.0
-1.236078e-02 -2.324670e-03 0.0
-1.168717e-02 -2.370341e-03 0.0
-1.100331e-02 -2.406873e-03 0.0
-1.031191e-02 -2.433624e-03 0.0
-9.615882e-03 -2.449952e-03 0.0
-8.918307e-03 -2.455214e-03 0.0
-8.222420e-03 -2.448780e-03 0.0
-7.531618e-03 -2.430033e-03 0.0
-6.849446e-03 -2.398380e-03 0.0
-6.179583e-03 -2.353265e-03 0.0
-5.525825e-03 -2.294175e-03 0.0
-4.892058e-03 -2.220670e-03 0.0
-4.282232e-03 -2.132396e-03 0.0
-3.700315e-03 -2.029124e-03 0.0
-3.150248e-03 -1.910787e-03 0.0
-2.635880e-03 -1.777533e-03 0.0
-2.160884e-03 -1.629802e-03 0.0
-1.728664e-03 -1.468415e-03 0.0
-1.342233e-03 -1.294710e-03 0.0
-1.004068e-03 -1.110707e-03 0.0
-7.159412e-04 -9.193416e-04 0.0
-4.787238e-04 -7.247706e-04 0.0
-2.921924e-04 -5.327707e-04 0.0
-1.548221e-04 -3.512471e-04 0.0
-6.362406e-05 -1.908403e-04 0.0
-1.404790e-05 -6.567031e-05 0.0
0.000000e+00 5.269680e-06 0.0
0.000000e+00 -4.710278e-06 0.0
0.000000e+00 -3.712737e-05 0.0
-2.700450e-05 3.932224e-05 0.0
-1.119949e-04 1.936915e-04 0.0
-2.553184e-04 3.984847e-04 0.0
-4.569237e-04 6.340129e-04 0.0
-7.161949e-04 8.853300e-04 0.0
-1.032089e-03 1.140880e-03 0.0
-1.403178e-03 1.391767e-03 0.0
-1.827498e-03 1.631297e-03 0.0
-2.302327e-03 1.854772e-03 0.0
-2.824038e-03 2.059325e-03 0.0
-3.388185e-03 2.243649e-03 0.0
-3.989811e-03 2.407552e-03 0.0
-4.623867e-03 2.551458e-03 0.0
-5.285582e-03 2.675972e-03 0.0
-5.970645e-03 2.781654e-03 0.0
-6.675170e-03 2.869003e-03 0.0
-7.395528e-03 2.938580e-03 0.0
-8.128170e-03 2.991142e-03 0.0
-8.869539e-03 3.027680e-03 0.0
-9.616137e-03 3.049323e-03 0.0
-1.036465e-02 3.057184e-03 0.0
-1.111205e-02 3.052228e-03 0.0
-1.185566e-02 3.035261e-03 0.0
-1.259301e-02 3.007031e-03 0.0
-1.332170e-02 2.968380e-03 0.0
-1.403930e-02 2.920346e-03 0.0
-1.474338e-02 2.864136e-03 0.0
-1.543157e-02 2.800952e-03 0.0
-1.610177e-02 2.731764e-03 0.0
-1.675233e-02 2.657121e-03 0.0
-1.738204e-02 2.577101e-03 0.0
-1.799003e-02 2.491438e-03 0.0
-1.857556e-02 2.399769e-03 0.0
-1.913778e-02 2.301898e-03 0.0
-1.967559e-02 2.197982e-03 0.0
-2.018761e-02 2.088559e-03 0.0
-2.067226e-02 1.974425e-03 0.0
-2.112795e-02 1.856420e-03 0.0
-2.155328e-02 1.735207e-03 0.0
-2.194714e-02 1.611136e-03 0.0
-2.230871e-02 1.484215e-03 0.0
-2.263745e-02 1.354205e-03 0.0
-2.293292e-02 1.220774e-03 0.0
-2.319469e-02 1.083661e-03 0.0
-2.342224e-02 9.427944e-04 0.0
-2.361490e-02 7.983368e-04 0.0
-2.377192e-02 6.506535e-04 0.0
-2.389251e-02 5.002332e-04 0.0
-2.397590e-02 3.475934e-04 0.0
-2.402147e-02 1.932027e-04 0.0
-2.402873e-02 3.744138e-05 0.0
-2.399737e-02 -1.193959e-04 0.0
-2.392721e-02 -2.770783e-04 0.0
-2.381822e-02 -4.354100e-04 0.0
-2.367043e-02 -5.941785e-04 0.0
-2.348393e-02 -7.531165e-04 0.0
-2.325889e-02 -9.118832e-04 0.0
-2.299552e-02 -1.070064e-03 0.0
-2.269411e-02 -1.227184e-03 0.0
-2.235503e-02 -1.382723e-03 0.0
-2.197878e-02 -1.536139e-03 0.0
-2.156596e-02 -1.686876e-03 0.0
-2.111734e-02 -1.834376e-03 0.0
-2.063382e-02 -1.978079e-03 0.0
-2.011645e-02 -2.117422e-03 0.0
-1.956643e-02 -2.251831e-03 0.0
-1.898515e-02 -2.380721e-03 0.0
-1.837411e-02 -2.503480e-03 0.0
-1.773499e-02 -2.619472e-03 0.0
-1.706963e-02 -2.728028e-03 0.0
-1.638004e-02 -2.828447e-03 0.0
-1.566837e-02 -2.919993e-03 0.0
-1.493697e-02 -3.001903e-03 0.0
-1.418835e-02 -3.073388e-03 0.0
-1.342521e-02 -3.133643e-03 0.0
-1.265043e-02 -3.181848e-03 0.0
-1.186707e-02 -3.217179e-03 0.0
-1.107839e-02 -3.238811e-03 0.0
-1.028783e-02 -3.245927e-03 0.0
-9.498999e-03 -3.237729e-03 0.0
-8.715668e-03 -3.213440e-03 0.0
-7.941774e-03 -3.172318e-03 0.0
-7.181383e-03 -3.113672e-03 0.0
-6.438677e-03 -3.036879e-03 0.0
-5.717927e-03 -2.941409e-03 0.0
-5.023452e-03 -2.826858e-03 0.0
-4.359580e-03 -2.692988e-03 0.0
-3.730592e-03 -2.539774e-03 0.0
-3.140653e-03 -2.367481e-03 0.0
-2.593735e-03 -2.176737e-03 0.0
-2.093520e-03 -1.968654e-03 0.0
-1.643289e-03 -1.744971e-03 0.0
-1.245792e-03 -1.508236e-03 0.0
-9.031154e-04 -1.262054e-03 0.0
-6.165286e-04 -1.011391e-03 0.0
-3.863620e-04 -7.629696e-04 0.0
-2.118979e-04 -5.257414e-04 0.0
-9.133800e-05 -3.114288e-04 0.0
-2.188529e-05 -1.351508e-04 0.0
0.000000e+00 -1.664308e-05 0.0
0.000000e+00 1.723810e-05 0.0
0.000000e+00 -7.158213e-05 0.0
-3.542210e-05 7.504825e-05 0.0
-1.418198e-04 2.982131e-04 0.0
-3.161117e-04 5.712485e-04 0.0
-5.564008e-04 8.742060e-04 0.0
-8.609994e-04 1.191445e-03 0.0
-1.228219e-03 1.510423e-03 0.0
-1.656048e-03 1.821395e-03 0.0
-2.141792e-03 2.117181e-03 0.0
-2.681851e-03 2.392958e-03 0.0
-3.271744e-03 2.645922e-03 0.0
-3.906386e-03 2.874785e-03 0.0
-4.580501e-03 3.079195e-03 0.0
-5.289000e-03 3.259240e-03 0.0
-6.027180e-03 3.415165e-03 0.0
-6.790713e-03 3.547310e-03 0.0
-7.575498e-03 3.656206e-03 0.0
-8.377498e-03 3.742678e-03 0.0
-9.192674e-03 3.807856e-03 0.0
-1.001704e-02 3.853069e-03 0.0
-1.084682e-02 3.879659e-03 0.0
-1.167850e-02 3.888851e-03 0.0
-1.250892e-02 3.881732e-03 0.0
-1.333511e-02 3.859351e-03 0.0
-1.415420e-02 3.822868e-03 0.0
-1.496329e-02 3.773642e-03 0.0
-1.575949e-02 3.713175e-03 0.0
-1.654006e-02 3.642924e-03 0.0
-1.730260e-02 3.564056e-03 0.0
-1.804519e-02 3.477261e-03 0.0
-1.876640e-02 3.382732e-03 0.0
-1.946512e-02 3.280319e-03 0.0
-2.014040e-02 3.169800e-03 0.0
-2.079111e-02 3.051162e-03 0.0
-2.141588e-02 2.924772e-03 0.0
-2.201306e-02 2.791375e-03 0.0
-2.258085e-02 2.651937e-03 0.0
-2.311749e-02 2.507406e-03 0.0
-2.362145e-02 2.358489e-03 0.0
-2.409151e-02 2.205523e-03 0.0
-2.452679e-02 2.048486e-03 0.0
-2.492664e-02 1.887116e-03 0.0
-2.529051e-02 1.721091e-03 0.0
-2.561783e-02 1.550204e-03 0.0
-2.590790e-02 1.374473e-03 0.0
-2.615991e-02 1.194162e-03 0.0
-2.637295e-02 1.009735e-03 0.0
-2.654610e-02 8.217558e-04 0.0
-2.667851e-02 6.307885e-04 0.0
-2.676945e-02 4.373200e-04 0.0
-2.681837e-02 2.417331e-04 0.0
-2.682487e-02 4.432145e-05 0.0
-2.678871e-02 -1.546622e-04 0.0
-2.670974e-02 -3.549617e-04 0.0
-2.658789e-02 -5.562856e-04 0.0
-2.642318e-02 -7.582719e-04 0.0
-2.621564e-02 -9.604749e-04 0.0
-2.596540e-02 -1.162371e-03 0.0
-2.567266e-02 -1.363374e-03 0.0
-2.533773e-02 -1.562859e-03 0.0
-2.496104e-02 -1.760180e-03 0.0
-2.454316e-02 -1.954680e-03 0.0
-2.408479e-02 -2.145700e-03 0.0
-2.358680e-02 -2.332576e-03 0.0
-2.305023e-02 -2.514636e-03 0.0
-2.247627e-02 -2.691191e-03 0.0
-2.186626e-02 -2.861530e-03 0.0
-2.122173e-02 -3.024909e-03 0.0
-2.054434e-02 -3.180546e-03 0.0
-1.983596e-02 -3.327619e-03 0.0
-1.909859e-02 -3.465265e-03 0.0
-1.833445e-02 -3.592582e-03 0.0
-1.754590e-02 -3.708631e-03 0.0
-1.673553e-02 -3.812447e-03 0.0
-1.590609e-02 -3.903041e-03 0.0
-1.506055e-02 -3.979408e-03 0.0
-1.420208e-02 -4.040534e-03 0.0