# vtk DataFile Version 3.0
Vector Field
ASCII
DATASET RECTILINEAR_GRID
DIMENSIONS 102 102 1
X_COORDINATES 102 double
0.000000 0.100000 0.200000 0.300000 0.400000 0.500000 0.600000 0.700000 0.800000 0.900000 1.000000 1.100000 1.200000 1.300000 1.400000 1.500000 1.600000 1.700000 1.800000 1.900000 2.000000 2.100000 2.200000 2.300000 2.400000 2.500000 2.600000 2.700000 2.800000 2.900000 3.000000 3.100000 3.200000 3.300000 3.400000 3.500000 3.600000 3.700000 3.800000 3.900000 4.000000 4.100000 4.200000 4.300000 4.400000 4.500000 4.600000 4.700000 4.800000 4.900000 5.000000 5.100000 5.200000 5.300000 5.400000 5.500000 5.600000 5.700000 5.800000 5.900000 6.000000 6.100000 6.200000 6.300000 6.400000 6.500000 6.600000 6.700000 6.800000 6.900000 7.000000 7.100000 7.200000 7.300000 7.400000 7.500000 7.600000 7.700000 7.800000 7.900000 8.000000 8.100000 8.200000 8.300000 8.400000 8.500000 8.600000 8.700000 8.800000 8.900000 9.000000 9.100000 9.200000 9.300000 9.400000 9.500000 9.600000 9.700000 9.800000 9.900000 10.000000 10.100000 
Y_COORDINATES 102 double
0.000000 0.100000 0.200000 0.300000 0.400000 0.500000 0.600000 0.700000 0.800000 0.900000 1.000000 1.100000 1.200000 1.300000 1.400000 1.500000 1.600000 1.700000 1.800000 1.900000 2.000000 2.100000 2.200000 2.300000 2.400000 2.500000 2.600000 2.700000 2.800000 2.900000 3.000000 3.100000 3.200000 3.300000 3.400000 3.500000 3.600000 3.700000 3.800000 3.900000 4.000000 4.100000 4.200000 4.300000 4.400000 4.500000 4.600000 4.700000 4.800000 4.900000 5.000000 5.100000 5.200000 5.300000 5.400000 5.500000 5.600000 5.700000 5.800000 5.900000 6.000000 6.100000 6.200000 6.300000 6.400000 6.500000 6.600000 6.700000 6.800000 6.900000 7.000000 7.100000 7.200000 7.300000 7.400000 7.500000 7.600000 7.700000 7.800000 7.900000 8.000000 8.100000 8.200000 8.300000 8.400000 8.500000 8.600000 8.700000 8.800000 8.900000 9.000000 9.100000 9.200000 9.300000 9.400000 9.500000 9.600000 9.700000 9.800000 9.900000 10.000000 10.100000 
Z_COORDINATES 1 double
0.0
POINT_DATA 10404
VECTORS Velocity double
0.000000e+00 0.000000e+00 0.0
-1.597388e-05 0.000000e+00 0.0
-4.171234e-05 0.000000e+00 0.0
-5.934170e-05 0.000000e+00 0.0
-6.419707e-05 0.000000e+00 0.0
-5.662062e-05 0.000000e+00 0.0
-3.825610e-05 0.000000e+00 0.0
-9.568287e-06 0.000000e+00 0.0
3.072937e-05 0.000000e+00 0.0
8.477024e-05 0.000000e+00 0.0
1.540661e-04 0.000000e+00 0.0
2.384162e-04 0.000000e+00 0.0
3.357394e-04 0.000000e+00 0.0
4.428059e-04 0.000000e+00 0.0
5.563958e-04 0.000000e+00 0.0
6.742750e-04 0.000000e+00 0.0
7.955686e-04 0.000000e+00 0.0
9.204693e-04 0.000000e+00 0.0
1.049543e-03 0.000000e+00 0.0
1.183031e-03 0.000000e+00 0.0
1.320463e-03 0.000000e+00 0.0
1.460681e-03 0.000000e+00 0.0
1.602170e-03 0.000000e+00 0.0
1.743470e-03 0.000000e+00 0.0
1.883474e-03 0.000000e+00 0.0
2.021522e-03 0.000000e+00 0.0
2.157301e-03 0.000000e+00 0.0
2.290660e-03 0.000000e+00 0.0
2.421433e-03 0.000000e+00 0.0
2.549327e-03 0.000000e+00 0.0
2.673902e-03 0.000000e+00 0.0
2.794612e-03 0.000000e+00 0.0
2.910860e-03 0.000000e+00 0.0
3.022059e-03 0.000000e+00 0.0
3.127667e-03 0.000000e+00 0.0
3.227197e-03 0.000000e+00 0.0
3.320212e-03 0.000000e+00 0.0
3.406318e-03 0.000000e+00 0.0
3.485143e-03 0.000000e+00 0.0
3.556325e-03 0.000000e+00 0.0
3.619502e-03 0.000000e+00 0.0
3.674312e-03 0.000000e+00 0.0
3.720393e-03 0.000000e+00 0.0
3.757392e-03 0.000000e+00 0.0
3.784980e-03 0.000000e+00 0.0
3.802861e-03 0.000000e+00 0.0
3.810792e-03 0.000000e+00 0.0
3.808594e-03 0.000000e+00 0.0
3.796185e-03 0.000000e+00 0.0
3.773559e-03 0.000000e+00 0.0
3.740777e-03 0.000000e+00 0.0
3.697955e-03 0.000000e+00 0.0
3.645262e-03 0.000000e+00 0.0
3.582915e-03 0.000000e+00 0.0
3.511184e-03 0.000000e+00 0.0
3.430389e-03 0.000000e+00 0.0
3.340901e-03 0.000000e+00 0.0
3.243144e-03 0.000000e+00 0.0
3.137594e-03 0.000000e+00 0.0
3.024774e-03 0.000000e+00 0.0
2.905254e-03 0.000000e+00 0.0
2.779648e-03 0.000000e+00 0.0
2.648611e-03 0.000000e+00 0.0
2.512833e-03 0.000000e+00 0.0
2.373037e-03 0.000000e+00 0.0
2.229976e-03 0.000000e+00 0.0
2.084426e-03 0.000000e+00 0.0
1.937181e-03 0.000000e+00 0.0
1.789052e-03 0.000000e+00 0.0
1.640856e-03 0.000000e+00 0.0
1.493412e-03 0.000000e+00 0.0
1.347535e-03 0.000000e+00 0.0
1.204035e-03 0.000000e+00 0.0
1.063706e-03 0.000000e+00 0.0
9.273266e-04 0.000000e+00 0.0
7.956539e-04 0.000000e+00 0.0
6.694174e-04 0.000000e+00 0.0
5.493157e-04 0.000000e+00 0.0
4.360115e-04 0.000000e+00 0.0
3.301268e-04 0.000000e+00 0.0
2.322374e-04 0.000000e+00 0.0
1.428676e-04 0.000000e+00 0.0
6.248413e-05 0.000000e+00 0.0
-8.509933e-06 0.000000e+00 0.0
-6.978201e-05 0.000000e+00 0.0
-1.210783e-04 0.000000e+00 0.0
-1.622332e-04 0.000000e+00 0.0
-1.931804e-04 0.000000e+00 0.0
-2.139661e-04 0.000000e+00 0.0
-2.247679e-04 0.000000e+00 0.0
-2.259173e-04 0.000000e+00 0.0
-2.179316e-04 0.000000e+00 0.0
-2.015557e-04 0.000000e+00 0.0
-1.778203e-04 0.000000e+00 0.0
-1.481240e-04 0.000000e+00 0.0
-1.143491e-04 0.000000e+00 0.0
-7.902137e-05 0.000000e+00 0.0
-4.550837e-05 0.000000e+00 0.0
-1.816567e-05 0.000000e+00 0.0
-1.988698e-06 0.000000e+00 0.0
-0.000000e+00 0.000000e+00 0.0
0.000000e+00 0.000000e+00 0.0
0.000000e+00 6.415976e-06 0.0
5.740972e-06 -1.618117e-05 0.0
2.293088e-05 -2.975045e-05 0.0
4.488597e-05 -2.570634e-05 0.0
6.239201e-05 -1.017105e-05 0.0
6.762881e-05 9.077315e-06 0.0
5.514351e-05 2.621841e-05 0.0
2.289993e-05 3.868668e-05 0.0
-2.769149e-05 4.718788e-05 0.0
-9.296816e-05 5.441666e-05 0.0
-1.688630e-04 6.317922e-05 0.0
-2.525129e-04 7.485359e-05 0.0
-3.429543e-04 8.884485e-05 0.0
-4.407678e-04 1.031120e-04 0.0
-5.470541e-04 1.153152e-04 0.0
-6.623667e-04 1.239155e-04 0.0
-7.861156e-04 1.287152e-04 0.0
-9.166226e-04 1.306961e-04 0.0
-1.051661e-03 1.313805e-04 0.0
-1.189124e-03 1.321066e-04 0.0
-1.327504e-03 1.335592e-04 0.0
-1.466012e-03 1.356892e-04 0.0
-1.604410e-03 1.379494e-04 0.0
-1.742681e-03 1.396561e-04 0.0
-1.880743e-03 1.402907e-04 0.0
-2.018283e-03 1.396448e-04 0.0
-2.154750e-03 1.378032e-04 0.0
-2.289434e-03 1.350306e-04 0.0
-2.421576e-03 1.316365e-04 0.0
-2.550466e-03 1.278725e-04 0.0
-2.675487e-03 1.238833e-04 0.0
-2.796128e-03 1.197024e-04 0.0
-2.911960e-03 1.152791e-04 0.0
-3.022610e-03 1.105170e-04 0.0
-3.127719e-03 1.053121e-04 0.0
-3.226926e-03 9.958396e-05 0.0
-3.319842e-03 9.329290e-05 0.0
-3.406048e-03 8.644471e-05 0.0
-3.485104e-03 7.908256e-05 0.0
-3.556558e-03 7.127103e-05 0.0
-3.619969e-03 6.307766e-05 0.0
-3.674919e-03 5.455785e-05 0.0
-3.721030e-03 4.574710e-05 0.0
-3.757966e-03 3.666189e-05 0.0
-3.785435e-03 2.730768e-05 0.0
-3.803186e-03 1.769071e-05 0.0
-3.811014e-03 7.829987e-06 0.0
-3.808760e-03 -2.231581e-06 0.0
-3.796342e-03 -1.241271e-05 0.0
-3.773746e-03 -2.263186e-05 0.0
-3.741012e-03 -3.281553e-05 0.0
-3.698240e-03 -4.289494e-05 0.0
-3.645583e-03 -5.280628e-05 0.0
-3.583254e-03 -6.249087e-05 0.0
-3.511523e-03 -7.189441e-05 0.0
-3.430712e-03 -8.096569e-05 0.0
-3.341200e-03 -8.965520e-05 0.0
-3.243416e-03 -9.791435e-05 0.0
-3.137836e-03 -1.056953e-04 0.0
-3.024988e-03 -1.129512e-04 0.0
-2.905443e-03 -1.196372e-04 0.0
-2.779813e-03 -1.257110e-04 0.0
-2.648755e-03 -1.311331e-04 0.0
-2.512960e-03 -1.358678e-04 0.0
-2.373150e-03 -1.398830e-04 0.0
-2.230079e-03 -1.431506e-04 0.0
-2.084522e-03 -1.456462e-04 0.0
-1.937275e-03 -1.473501e-04 0.0
-1.789146e-03 -1.482469e-04 0.0
-1.640950e-03 -1.483266e-04 0.0
-1.493504e-03 -1.475856e-04 0.0
-1.347621e-03 -1.460251e-04 0.0
-1.204109e-03 -1.436516e-04 0.0
-1.063763e-03 -1.404772e-04 0.0
-9.273627e-04 -1.365199e-04 0.0
-7.956669e-04 -1.318032e-04 0.0
-6.694082e-04 -1.263557e-04 0.0
-5.492876e-04 -1.202104e-04 0.0
-4.359693e-04 -1.134044e-04 0.0
-3.300758e-04 -1.059794e-04 0.0
-2.321821e-04 -9.798109e-05 0.0
-1.428114e-04 -8.946058e-05 0.0
-6.242881e-05 -8.047442e-05 0.0
8.563771e-06 -7.108549e-05 0.0
6.983460e-05 -6.136362e-05 0.0
1.211301e-04 -5.138722e-05 0.0
1.622845e-04 -4.124452e-05 0.0
1.932309e-04 -3.103492e-05 0.0
2.140154e-04 -2.087141e-05 0.0
2.248147e-04 -1.088524e-05 0.0
2.259606e-04 -1.231121e-06 0.0
2.179703e-04 7.905385e-06 0.0
2.015888e-04 1.629660e-05 0.0
1.778473e-04 2.365664e-05 0.0
1.481446e-04 2.961764e-05 0.0
1.143635e-04 3.369592e-05 0.0
7.903012e-05 3.524798e-05 0.0
4.551244e-05 3.343207e-05 0.0
1.816632e-05 2.726037e-05 0.0
1.987513e-06 1.609300e-05 0.0
0.000000e+00 1.901715e-06 0.0
0.000000e+00 -1.900249e-06 0.0
0.000000e+00 2.343146e-05 0.0
1.322817e-05 -4.247843e-05 0.0
4.803511e-05 -6.022097e-05 0.0
7.658724e-05 -4.244668e-05 0.0
8.178323e-05 -3.735131e-06 0.0
5.246461e-05 4.318439e-05 0.0
-1.664675e-05 9.094713e-05 0.0
-1.259152e-04 1.370590e-04 0.0
-2.726023e-04 1.821428e-04 0.0
-4.529182e-04 2.276621e-04 0.0
-6.635922e-04 2.741117e-04 0.0
-9.025076e-04 3.203156e-04 0.0
-1.168419e-03 3.638794e-04 0.0
-1.460166e-03 4.023015e-04 0.0
-1.775932e-03 4.340395e-04 0.0
-2.112939e-03 4.589995e-04 0.0
-2.467650e-03 4.783160e-04 0.0
-2.836295e-03 4.936610e-04 0.0
-3.215416e-03 5.064952e-04 0.0
-3.602184e-03 5.176012e-04 0.0
-3.994425e-03 5.270235e-04 0.0
-4.390420e-03 5.343231e-04 0.0
-4.788648e-03 5.389460e-04 0.0
-5.187564e-03 5.405161e-04 0.0
-5.585515e-03 5.389627e-04 0.0
-5.980745e-03 5.344928e-04 0.0
-6.371468e-03 5.274698e-04 0.0
-6.755945e-03 5.182784e-04 0.0
-7.132536e-03 5.072269e-04 0.0
-7.499716e-03 4.945028e-04 0.0
-7.856069e-03 4.801741e-04 0.0
-8.200268e-03 4.642191e-04 0.0
-8.531042e-03 4.465675e-04 0.0
-8.847151e-03 4.271418e-04 0.0
-9.147365e-03 4.058891e-04 0.0
-9.430450e-03 3.828001e-04 0.0
-9.695173e-03 3.579130e-04 0.0
-9.940303e-03 3.313052e-04 0.0
-1.016463e-02 3.030755e-04 0.0
-1.036699e-02 2.733271e-04 0.0
-1.054626e-02 2.421537e-04 0.0
-1.070140e-02 2.096351e-04 0.0
-1.083144e-02 1.758417e-04 0.0
-1.093551e-02 1.408465e-04 0.0
-1.101280e-02 1.047388e-04 0.0
-1.106266e-02 6.763871e-05 0.0
-1.108449e-02 2.970762e-05 0.0
-1.107791e-02 -8.840722e-06 0.0
-1.104267e-02 -4.772458e-05 0.0
-1.097872e-02 -8.667139e-05 0.0
-1.088619e-02 -1.254366e-04 0.0
-1.076538e-02 -1.637935e-04 0.0
-1.061672e-02 -2.015267e-04 0.0
-1.044082e-02 -2.384290e-04 0.0
-1.023844e-02 -2.742977e-04 0.0
-1.001048e-02 -3.089341e-04 0.0
-9.758006e-03 -3.421421e-04 0.0
-9.482197e-03 -3.737298e-04 0.0
-9.184389e-03 -4.035101e-04 0.0
-8.866045e-03 -4.313031e-04 0.0
-8.528756e-03 -4.569372e-04 0.0
-8.174232e-03 -4.802513e-04 0.0
-7.804290e-03 -5.010960e-04 0.0
-7.420852e-03 -5.193347e-04 0.0
-7.025927e-03 -5.348446e-04 0.0
-6.621602e-03 -5.475182e-04 0.0
-6.210033e-03 -5.572644e-04 0.0
-5.793425e-03 -5.640098e-04 0.0
-5.374021e-03 -5.677001e-04 0.0
-4.954090e-03 -5.683022e-04 0.0
-4.535905e-03 -5.658059e-04 0.0
-4.121736e-03 -5.602206e-04 0.0
-3.713830e-03 -5.515741e-04 0.0
-3.314405e-03 -5.399129e-04 0.0
-2.925631e-03 -5.253025e-04 0.0
-2.549616e-03 -5.078268e-04 0.0
-2.188397e-03 -4.875884e-04 0.0
-1.843919e-03 -4.647079e-04 0.0
-1.518022e-03 -4.393248e-04 0.0
-1.212431e-03 -4.115977e-04 0.0
-9.287354e-04 -3.817055e-04 0.0
-6.683761e-04 -3.498483e-04 0.0
-4.326281e-04 -3.162494e-04 0.0
-2.225820e-04 -2.811566e-04 0.0
-3.912385e-05 -2.448451e-04 0.0
1.170875e-04 -2.076206e-04 0.0
2.456469e-04 -1.698254e-04 0.0
3.464388e-04 -1.318483e-04 0.0
4.196730e-04 -9.412744e-05 0.0
4.659333e-04 -5.716775e-05 0.0
4.862373e-04 -2.155768e-05 0.0
4.821121e-04 1.200772e-05 0.0
4.556903e-04 4.269542e-05 0.0
4.098311e-04 6.949288e-05 0.0
3.482714e-04 9.115442e-05 0.0
2.758044e-04 1.061401e-04 0.0
1.984621e-04 1.125675e-04 0.0
1.236266e-04 1.082448e-04 0.0
5.987601e-05 9.098820e-05 0.0
1.617346e-05 5.977287e-05 0.0
0.000000e+00 1.805252e-05 0.0
0.000000e+00 -1.804929e-05 0.0
0.000000e+00 4.542024e-05 0.0
1.422692e-05 -6.125582e-05 0.0
4.382674e-05 -7.778212e-05 0.0
5.155630e-05 -3.886907e-05 0.0
1.854795e-05 3.310448e-05 0.0
-6.595071e-05 1.220236e-04 0.0
-2.059089e-04 2.189302e-04 0.0
-4.008259e-04 3.197861e-04 0.0
-6.482573e-04 4.227625e-04 0.0
-9.456723e-04 5.260368e-04 0.0
-1.291163e-03 6.268115e-04 0.0
-1.683120e-03 7.215942e-04 0.0
-2.119424e-03 8.072022e-04 0.0
-2.596793e-03 8.817434e-04 0.0
-3.110666e-03 9.450137e-04 0.0
-3.655651e-03 9.981801e-04 0.0
-4.226235e-03 1.043009e-03 0.0
-4.817409e-03 1.081069e-03 0.0
-5.424958e-03 1.113257e-03 0.0
-6.045405e-03 1.139744e-03 0.0
-6.675733e-03 1.160253e-03 0.0
-7.313079e-03 1.174429e-03 0.0
-7.954533e-03 1.182116e-03 0.0
-8.597090e-03 1.183470e-03 0.0
-9.237708e-03 1.178899e-03 0.0
-9.873404e-03 1.168939e-03 0.0
-1.050134e-02 1.154117e-03 0.0
-1.111886e-02 1.134857e-03 0.0
-1.172350e-02 1.111440e-03 0.0
-1.231293e-02 1.084011e-03 0.0
-1.288494e-02 1.052620e-03 0.0
-1.343741e-02 1.017259e-03 0.0
-1.396825e-02 9.779120e-04 0.0
-1.447540e-02 9.345839e-04 0.0
-1.495680e-02 8.873243e-04 0.0
-1.541042e-02 8.362280e-04 0.0
-1.583426e-02 7.814261e-04 0.0
-1.622638e-02 7.230690e-04 0.0
-1.658489e-02 6.613102e-04 0.0
-1.690800e-02 5.962969e-04 0.0
-1.719401e-02 5.281700e-04 0.0
-1.744134e-02 4.570738e-04 0.0
-1.764853e-02 3.831721e-04 0.0
-1.781421e-02 3.066650e-04 0.0
-1.793720e-02 2.278035e-04 0.0
-1.801646e-02 1.469001e-04 0.0
-1.805114e-02 6.433634e-05 0.0
-1.804065e-02 -1.942807e-05 0.0
-1.798464e-02 -1.038395e-04 0.0
-1.788305e-02 -1.883560e-04 0.0
-1.773608e-02 -2.724767e-04 0.0
-1.754419e-02 -3.557270e-04 0.0
-1.730809e-02 -4.376486e-04 0.0
-1.702874e-02 -5.177932e-04 0.0
-1.670733e-02 -5.957195e-04 0.0
-1.634527e-02 -6.709929e-04 0.0
-1.594424e-02 -7.431866e-04 0.0
-1.550609e-02 -8.118837e-04 0.0
-1.503293e-02 -8.766808e-04 0.0
-1.452706e-02 -9.371903e-04 0.0
-1.399098e-02 -9.930440e-04 0.0
-1.342736e-02 -1.043895e-03 0.0
-1.283907e-02 -1.089423e-03 0.0
-1.222911e-02 -1.129333e-03 0.0
-1.160064e-02 -1.163360e-03 0.0
-1.095693e-02 -1.191275e-03 0.0
-1.030136e-02 -1.212881e-03 0.0
-9.637393e-03 -1.228023e-03 0.0
-8.968544e-03 -1.236586e-03 0.0
-8.298375e-03 -1.238499e-03 0.0
-7.630459e-03 -1.233741e-03 0.0
-6.968362e-03 -1.222330e-03 0.0
-6.315620e-03 -1.204325e-03 0.0
-5.675717e-03 -1.179825e-03 0.0
-5.052064e-03 -1.148968e-03 0.0
-4.447978e-03 -1.111931e-03 0.0
-3.866656e-03 -1.068934e-03 0.0
-3.311154e-03 -1.020237e-03 0.0
-2.784363e-03 -9.661443e-04 0.0
-2.288989e-03 -9.070011e-04 0.0
-1.827522e-03 -8.432001e-04 0.0
-1.402215e-03 -7.751809e-04 0.0
-1.015055e-03 -7.034335e-04 0.0
-6.677317e-04 -6.285022e-04 0.0
-3.616071e-04 -5.509916e-04 0.0
-9.767626e-05 -4.715733e-04 0.0
1.234733e-04 -3.909971e-04 0.0
3.017065e-04 -3.101040e-04 0.0
4.374095e-04 -2.298534e-04 0.0
5.315515e-04 -1.513328e-04 0.0
5.857678e-04 -7.579715e-05 0.0
6.024603e-04 -4.707820e-06 0.0
5.849156e-04 6.021721e-05 0.0
5.374424e-04 1.169435e-04 0.0
4.655237e-04 1.630505e-04 0.0
3.759719e-04 1.956695e-04 0.0
2.770448e-04 2.114720e-04 0.0
1.784619e-04 2.068051e-04 0.0
9.123363e-05 1.781939e-04 0.0
2.734579e-05 1.236382e-04 0.0
0.000000e+00 4.537576e-05 0.0
0.000000e+00 -4.536838e-05 0.0
0.000000e+00 6.293057e-05 0.0
1.218936e-05 -6.637252e-05 0.0
1.876562e-05 -7.194468e-05 0.0
-1.432004e-05 -1.628618e-06 0.0
-1.035556e-04 1.161580e-04 0.0
-2.571665e-04 2.627236e-04 0.0
-4.777421e-04 4.265927e-04 0.0
-7.651213e-04 6.002834e-04 0.0
-1.118505e-03 7.777107e-04 0.0
-1.537240e-03 9.528949e-04 0.0
-2.020428e-03 1.120025e-03 0.0
-2.566004e-03 1.274315e-03 0.0
-3.170074e-03 1.412849e-03 0.0
-3.826929e-03 1.534844e-03 0.0
-4.529718e-03 1.641184e-03 0.0
-5.271400e-03 1.733522e-03 0.0
-6.045530e-03 1.813397e-03 0.0
-6.846597e-03 1.881727e-03 0.0
-7.669915e-03 1.938763e-03 0.0
-8.511269e-03 1.984374e-03 0.0
-9.366547e-03 2.018417e-03 0.0
-1.023153e-02 2.041007e-03 0.0
-1.110189e-02 2.052588e-03 0.0
-1.197327e-02 2.053854e-03 0.0
-1.284145e-02 2.045589e-03 0.0
-1.370245e-02 2.028536e-03 0.0
-1.455256e-02 2.003297e-03 0.0
-1.538834e-02 1.970308e-03 0.0
-1.620654e-02 1.929850e-03 0.0
-1.700407e-02 1.882088e-03 0.0
-1.777795e-02 1.827127e-03 0.0
-1.852524e-02 1.765053e-03 0.0
-1.924306e-02 1.695972e-03 0.0
-1.992856e-02 1.620028e-03 0.0
-2.057892e-02 1.537401e-03 0.0
-2.119138e-02 1.448303e-03 0.0
-2.176329e-02 1.352955e-03 0.0
-2.229204e-02 1.251577e-03 0.0
-2.277520e-02 1.144381e-03 0.0
-2.321043e-02 1.031583e-03 0.0
-2.359552e-02 9.134121e-04 0.0
-2.392841e-02 7.901351e-04 0.0
-2.420719e-02 6.620759e-04 0.0
-2.443010e-02 5.296303e-04 0.0
-2.459560e-02 3.932760e-04 0.0
-2.470237e-02 2.535783e-04 0.0
-2.474934e-02 1.111958e-04 0.0
-2.473577e-02 -3.310982e-05 0.0
-2.466124e-02 -1.784564e-04 0.0
-2.452569e-02 -3.239648e-04 0.0
-2.432939e-02 -4.688016e-04 0.0
-2.407297e-02 -6.121631e-04 0.0
-2.375736e-02 -7.532643e-04 0.0
-2.338382e-02 -8.913338e-04 0.0
-2.295393e-02 -1.025612e-03 0.0
-2.246958e-02 -1.155351e-03 0.0
-2.193296e-02 -1.279820e-03 0.0
-2.134656e-02 -1.398307e-03 0.0
-2.071313e-02 -1.510124e-03 0.0
-2.003574e-02 -1.614608e-03 0.0
-1.931768e-02 -1.711134e-03 0.0
-1.856250e-02 -1.799109e-03 0.0
-1.777398e-02 -1.877985e-03 0.0
-1.695610e-02 -1.947260e-03 0.0
-1.611303e-02 -2.006484e-03 0.0
-1.524908e-02 -2.055264e-03 0.0
-1.436874e-02 -2.093266e-03 0.0
-1.347656e-02 -2.120227e-03 0.0
-1.257722e-02 -2.135949e-03 0.0
-1.167542e-02 -2.140312e-03 0.0
-1.077590e-02 -2.133272e-03 0.0
-9.883379e-03 -2.114861e-03 0.0
-9.002543e-03 -2.085172e-03 0.0
-8.138012e-03 -2.044372e-03 0.0
-7.294310e-03 -1.992691e-03 0.0
-6.475833e-03 -1.930434e-03 0.0
-5.686823e-03 -1.857974e-03 0.0
-4.931333e-03 -1.775758e-03 0.0
-4.213198e-03 -1.684308e-03 0.0
-3.536003e-03 -1.584223e-03 0.0
-2.903048e-03 -1.476179e-03 0.0
-2.317314e-03 -1.360938e-03 0.0
-1.781425e-03 -1.239345e-03 0.0
-1.297606e-03 -1.112343e-03 0.0
-8.676426e-04 -9.809773e-04 0.0
-4.928311e-04 -8.464076e-04 0.0
-1.739242e-04 -7.099273e-04 0.0
8.893101e-05 -5.729826e-04 0.0
2.962550e-04 -4.372007e-04 0.0
4.493313e-04 -3.044322e-04 0.0
5.502933e-04 -1.767819e-04 0.0
6.022300e-04 -5.666706e-05 0.0
6.093063e-04 5.311866e-05 0.0
5.768919e-04 1.493357e-04 0.0
5.116897e-04 2.282306e-04 0.0
4.218523e-04 2.854848e-04 0.0
3.170630e-04 3.162391e-04 0.0
2.085660e-04 3.152798e-04 0.0
1.091959e-04 2.775416e-04 0.0
3.367634e-05 1.991354e-04 0.0
0.000000e+00 7.902976e-05 0.0
0.000000e+00 -7.901654e-05 0.0
0.000000e+00 6.810082e-05 0.0
6.456763e-06 -5.750404e-05 0.0
-2.272797e-05 -3.695030e-05 0.0
-1.092394e-04 7.939266e-05 0.0
-2.651462e-04 2.589453e-04 0.0
-4.960535e-04 4.801521e-04 0.0
-8.041889e-04 7.275608e-04 0.0
-1.190770e-03 9.887769e-04 0.0
-1.656891e-03 1.252844e-03 0.0
-2.203055e-03 1.510100e-03 0.0
-2.828095e-03 1.752884e-03 0.0
-3.528374e-03 1.976252e-03 0.0
-4.297795e-03 2.178078e-03 0.0
-5.128627e-03 2.358405e-03 0.0
-6.012672e-03 2.518375e-03 0.0
-6.942265e-03 2.659213e-03 0.0
-7.910723e-03 2.781655e-03 0.0
-8.912263e-03 2.885878e-03 0.0
-9.941596e-03 2.971791e-03 0.0
-1.099349e-02 3.039410e-03 0.0
-1.206256e-02 3.089099e-03 0.0
-1.314322e-02 3.121614e-03 0.0
-1.422985e-02 3.137979e-03 0.0
-1.531701e-02 3.139297e-03 0.0
-1.639956e-02 3.126590e-03 0.0
-1.747270e-02 3.100708e-03 0.0
-1.853197e-02 3.062302e-03 0.0
-1.957319e-02 3.011847e-03 0.0
-2.059238e-02 2.949687e-03 0.0
-2.158569e-02 2.876089e-03 0.0
-2.254935e-02 2.791296e-03 0.0
-2.347967e-02 2.695560e-03 0.0
-2.437299e-02 2.589161e-03 0.0
-2.522573e-02 2.472405e-03 0.0
-2.603439e-02 2.345613e-03 0.0
-2.679557e-02 2.209102e-03 0.0
-2.750603e-02 2.063178e-03 0.0
-2.816263e-02 1.908137e-03 0.0
-2.876242e-02 1.744277e-03 0.0
-2.930257e-02 1.571924e-03 0.0
-2.978043e-02 1.391455e-03 0.0
-3.019350e-02 1.203322e-03 0.0
-3.053947e-02 1.008070e-03 0.0
-3.081624e-02 8.063443e-04 0.0
-3.102197e-02 5.988957e-04 0.0
-3.115510e-02 3.865858e-04 0.0
-3.121442e-02 1.703943e-04 0.0
-3.119904e-02 -4.856723e-05 0.0
-3.110850e-02 -2.690362e-04 0.0
-3.094275e-02 -4.897328e-04 0.0
-3.070214e-02 -7.094216e-04 0.0
-3.038740e-02 -9.268968e-04 0.0
-2.999969e-02 -1.140975e-03 0.0
-2.954054e-02 -1.350491e-03 0.0
-2.901187e-02 -1.554297e-03 0.0
-2.841597e-02 -1.751269e-03 0.0
-2.775550e-02 -1.940305e-03 0.0
-2.703350e-02 -2.120334e-03 0.0
-2.625333e-02 -2.290324e-03 0.0
-2.541869e-02 -2.449280e-03 0.0
-2.453360e-02 -2.596259e-03 0.0
-2.360238e-02 -2.730372e-03 0.0
-2.262961e-02 -2.850796e-03 0.0
-2.162014e-02 -2.956774e-03 0.0
-2.057904e-02 -3.047632e-03 0.0
-1.951156e-02 -3.122776e-03 0.0
-1.842314e-02 -3.181709e-03 0.0
-1.731936e-02 -3.224030e-03 0.0
-1.620588e-02 -3.249442e-03 0.0
-1.508844e-02 -3.257757e-03 0.0
-1.397282e-02 -3.248903e-03 0.0
-1.286477e-02 -3.222918e-03 0.0
-1.177002e-02 -3.179939e-03 0.0
-1.069421e-02 -3.120209e-03 0.0
-9.642859e-03 -3.044072e-03 0.0
-8.621339e-03 -2.951984e-03 0.0
-7.634835e-03 -2.844507e-03 0.0
-6.688306e-03 -2.722315e-03 0.0
-5.786441e-03 -2.586199e-03 0.0
-4.933626e-03 -2.437062e-03 0.0
-4.133897e-03 -2.275932e-03 0.0
-3.390899e-03 -2.103959e-03 0.0
-2.707838e-03 -1.922429e-03 0.0
-2.087435e-03 -1.732769e-03 0.0
-1.531872e-03 -1.536563e-03 0.0
-1.042735e-03 -1.335569e-03 0.0
-6.209484e-04 -1.131737e-03 0.0
-2.667112e-04 -9.272427e-04 0.0
2.058594e-05 -7.245204e-04 0.0
2.424380e-04 -5.263066e-04 0.0
4.013302e-04 -3.356961e-04 0.0
5.008426e-04 -1.562012e-04 0.0
5.457567e-04 8.182976e-06 0.0
5.421701e-04 1.529007e-04 0.0
4.976024e-04 2.727767e-04 0.0
4.210911e-04 3.619745e-04 0.0
3.232778e-04 4.140304e-04 0.0
2.165145e-04 4.220211e-04 0.0
1.150965e-04 3.789375e-04 0.0
3.590512e-05 2.783047e-04 0.0
0.000000e+00 1.149128e-04 0.0
0.000000e+00 -1.148927e-04 0.0
0.000000e+00 5.533454e-05 0.0
-4.836268e-06 -3.671240e-05 0.0
-7.677502e-05 3.106287e-05 0.0
-2.227038e-04 2.127763e-04 0.0
-4.502698e-04 4.728572e-04 0.0
-7.635145e-04 7.858930e-04 0.0
-1.165315e-03 1.131314e-03 0.0
-1.658384e-03 1.491467e-03 0.0
-2.244766e-03 1.851246e-03 0.0
-2.924589e-03 2.198685e-03 0.0
-3.695060e-03 2.525574e-03 0.0
-4.550365e-03 2.827425e-03 0.0
-5.482503e-03 3.102646e-03 0.0
-6.482606e-03 3.351268e-03 0.0
-7.542111e-03 3.573758e-03 0.0
-8.653371e-03 3.770327e-03 0.0
-9.809644e-03 3.940821e-03 0.0
-1.100469e-02 4.084987e-03 0.0
-1.223230e-02 4.202846e-03 0.0
-1.348605e-02 4.294919e-03 0.0
-1.475924e-02 4.362223e-03 0.0
-1.604511e-02 4.406106e-03 0.0
-1.733704e-02 4.428020e-03 0.0
-1.862873e-02 4.429322e-03 0.0
-1.991431e-02 4.411161e-03 0.0
-2.118830e-02 4.374465e-03 0.0
-2.244556e-02 4.319960e-03 0.0
-2.368121e-02 4.248225e-03 0.0
-2.489052e-02 4.159750e-03 0.0
-2.606891e-02 4.054989e-03 0.0
-2.721185e-02 3.934394e-03 0.0
-2.831491e-02 3.798429e-03 0.0
-2.937374e-02 3.647569e-03 0.0
-3.038410e-02 3.482281e-03 0.0
-3.134189e-02 3.303011e-03 0.0
-3.224317e-02 3.110175e-03 0.0
-3.308417e-02 2.904171e-03 0.0
-3.386129e-02 2.685399e-03 0.0
-3.457110e-02 2.454290e-03 0.0
-3.521033e-02 2.211339e-03 0.0
-3.577590e-02 1.957128e-03 0.0
-3.626492e-02 1.692350e-03 0.0
-3.667475e-02 1.417812e-03 0.0
-3.700298e-02 1.134445e-03 0.0
-3.724752e-02 8.433069e-04 0.0
-3.740664e-02 5.455906e-04 0.0
-3.747895e-02 2.426373e-04 0.0
-3.746351e-02 -6.404563e-05 0.0
-3.735979e-02 -3.727643e-04 0.0
-3.716774e-02 -6.817792e-04 0.0
-3.688777e-02 -9.893910e-04 0.0
-3.652074e-02 -1.293931e-03 0.0
-3.606797e-02 -1.593755e-03 0.0
-3.553122e-02 -1.887246e-03 0.0
-3.491273e-02 -2.172811e-03 0.0
-3.421513e-02 -2.448887e-03 0.0
-3.344151e-02 -2.713948e-03 0.0
-3.259536e-02 -2.966507e-03 0.0
-3.168059e-02 -3.205131e-03 0.0
-3.070147e-02 -3.428440e-03 0.0
-2.966264e-02 -3.635124e-03 0.0
-2.856911e-02 -3.823951e-03 0.0
-2.742617e-02 -3.993774e-03 0.0
-2.623944e-02 -4.143547e-03 0.0
-2.501477e-02 -4.272330e-03 0.0
-2.375827e-02 -4.379300e-03 0.0
-2.247624e-02 -4.463762e-03 0.0
-2.117512e-02 -4.525157e-03 0.0
-1.986151e-02 -4.563066e-03 0.0
-1.854206e-02 -4.577219e-03 0.0
-1.722347e-02 -4.567502e-03 0.0
-1.591245e-02 -4.533958e-03 0.0
-1.461565e-02 -4.476769e-03 0.0
-1.333962e-02 -4.396262e-03 0.0
-1.209081e-02 -4.292914e-03 0.0
-1.087547e-02 -4.167351e-03 0.0
-9.699656e-03 -4.020353e-03 0.0
-8.569141e-03 -3.852856e-03 0.0
-7.489407e-03 -3.665958e-03 0.0
-6.465575e-03 -3.460918e-03 0.0
-5.502365e-03 -3.239166e-03 0.0
-4.604039e-03 -3.002308e-03 0.0
-3.774355e-03 -2.752136e-03 0.0
-3.016506e-03 -2.490641e-03 0.0
-2.333062e-03 -2.220030e-03 0.0
-1.725906e-03 -1.942747e-03 0.0
-1.196165e-03 -1.661500e-03 0.0
-7.441372e-04 -1.379293e-03 0.0
-3.692086e-04 -1.099471e-03 0.0
-6.976926e-05 -8.257672e-04 0.0
1.568783e-04 -5.623648e-04 0.0
3.146140e-04 -3.139579e-04 0.0
4.086124e-04 -8.583638e-05 0.0
4.454324e-04 1.160596e-04 0.0
4.331175e-04 2.850704e-04 0.0
3.812834e-04 4.137874e-04 0.0
3.012295e-04 4.940626e-04 0.0
2.061146e-04 5.171142e-04 0.0
1.113025e-04 4.737278e-04 0.0
3.507835e-05 3.545070e-04 0.0
0.000000e+00 1.499693e-04 0.0
0.000000e+00 -1.499420e-04 0.0
0.000000e+00 2.220253e-05 0.0
-2.238766e-05 -5.471638e-06 0.0
-1.388015e-04 1.357786e-04 0.0
-3.454181e-04 4.057707e-04 0.0
-6.467754e-04 7.663155e-04 0.0
-1.046494e-03 1.187275e-03 0.0
-1.548254e-03 1.642860e-03 0.0
-2.155247e-03 2.111109e-03 0.0
-2.868781e-03 2.574376e-03 0.0
-3.687068e-03 3.019895e-03 0.0
-4.604929e-03 3.439671e-03 0.0
-5.614559e-03 3.829508e-03 0.0
-6.706868e-03 4.187546e-03 0.0
-7.872772e-03 4.512883e-03 0.0
-9.103928e-03 4.804738e-03 0.0
-1.039282e-02 5.062245e-03 0.0
-1.173238e-02 5.284692e-03 0.0
-1.311556e-02 5.471865e-03 0.0
-1.453503e-02 5.624254e-03 0.0
-1.598311e-02 5.743012e-03 0.0
-1.745201e-02 5.829740e-03 0.0
-1.893406e-02 5.886207e-03 0.0
-2.042188e-02 5.914113e-03 0.0
-2.190855e-02 5.914956e-03 0.0
-2.338758e-02 5.889976e-03 0.0
-2.485286e-02 5.840203e-03 0.0
-2.629862e-02 5.766505e-03 0.0
-2.771926e-02 5.669650e-03 0.0
-2.910935e-02 5.550359e-03 0.0
-3.046356e-02 5.409337e-03 0.0
-3.177669e-02 5.247287e-03 0.0
-3.304361e-02 5.064898e-03 0.0
-3.425936e-02 4.862827e-03 0.0
-3.541914e-02 4.641685e-03 0.0
-3.651834e-02 4.402032e-03 0.0
-3.755254e-02 4.144395e-03 0.0
-3.851749e-02 3.869295e-03 0.0
-3.940916e-02 3.577282e-03 0.0
-4.022368e-02 3.268978e-03 0.0
-4.095736e-02 2.945100e-03 0.0
-4.160674e-02 2.606484e-03 0.0
-4.216858e-02 2.254094e-03 0.0
-4.263993e-02 1.889029e-03 0.0
-4.301815e-02 1.512530e-03 0.0
-4.330094e-02 1.125990e-03 0.0
-4.348637e-02 7.309685e-04 0.0
-4.357297e-02 3.292094e-04 0.0
-4.355968e-02 -7.733863e-05 0.0
-4.344594e-02 -4.865046e-04 0.0
-4.323168e-02 -8.960371e-04 0.0
-4.291736e-02 -1.303721e-03 0.0
-4.250393e-02 -1.707374e-03 0.0
-4.199286e-02 -2.104842e-03 0.0
-4.138612e-02 -2.494002e-03 0.0
-4.068619e-02 -2.872766e-03 0.0
-3.989601e-02 -3.239081e-03 0.0
-3.901904e-02 -3.590943e-03 0.0
-3.805918e-02 -3.926402e-03 0.0
-3.702078e-02 -4.243569e-03 0.0
-3.590863e-02 -4.540635e-03 0.0
-3.472792e-02 -4.815877e-03 0.0
-3.348423e-02 -5.067674e-03 0.0
-3.218353e-02 -5.294519e-03 0.0
-3.083207e-02 -5.495033e-03 0.0
-2.943645e-02 -5.667979e-03 0.0
-2.800349e-02 -5.812273e-03 0.0
-2.654026e-02 -5.926996e-03 0.0
-2.505403e-02 -6.011401e-03 0.0
-2.355218e-02 -6.064929e-03 0.0
-2.204220e-02 -6.087209e-03 0.0
-2.053165e-02 -6.078073e-03 0.0
-1.902807e-02 -6.037563e-03 0.0
-1.753897e-02 -5.965906e-03 0.0
-1.607174e-02 -5.863522e-03 0.0
-1.463366e-02 -5.731026e-03 0.0
-1.323180e-02 -5.569234e-03 0.0
-1.187301e-02 -5.379167e-03 0.0
-1.056384e-02 -5.162050e-03 0.0
-9.310503e-03 -4.919321e-03 0.0
-8.118806e-03 -4.652638e-03 0.0
-6.994115e-03 -4.363879e-03 0.0
-5.941286e-03 -4.055159e-03 0.0
-4.964609e-03 -3.728835e-03 0.0
-4.067743e-03 -3.387528e-03 0.0
-3.253656e-03 -3.034139e-03 0.0
-2.524551e-03 -2.671873e-03 0.0
-1.881798e-03 -2.304274e-03 0.0
-1.325853e-03 -1.935258e-03 0.0
-8.561829e-04 -1.569162e-03 0.0
-4.711738e-04 -1.210797e-03 0.0
-1.680490e-04 -8.655100e-04 0.0
5.722467e-05 -5.392519e-04 0.0
2.100195e-04 -2.386517e-04 0.0
2.971489e-04 2.890960e-05 0.0
3.269573e-04 2.552411e-04 0.0
3.094140e-04 4.313096e-04 0.0
2.562408e-04 5.472142e-04 0.0
1.811227e-04 5.922107e-04 0.0
1.000723e-04 5.547566e-04 0.0
3.206037e-05 4.224973e-04 0.0
0.000000e+00 1.820081e-04 0.0
0.000000e+00 -1.819735e-04 0.0
0.000000e+00 -3.052454e-05 0.0
-4.459137e-05 3.685465e-05 0.0
-2.036000e-04 2.809907e-04 0.0
-4.700311e-04 6.636643e-04 0.0
-8.467987e-04 1.144072e-03 0.0
-1.337447e-03 1.687368e-03 0.0
-1.945499e-03 2.263674e-03 0.0
-2.672888e-03 2.848526e-03 0.0
-3.518537e-03 3.423447e-03 0.0
-4.477867e-03 3.975814e-03 0.0
-5.543417e-03 4.497806e-03 0.0
-6.706146e-03 4.984789e-03 0.0
-7.956748e-03 5.433763e-03 0.0
-9.286449e-03 5.842355e-03 0.0
-1.068716e-02 6.208509e-03 0.0
-1.215116e-02 6.530654e-03 0.0
-1.367066e-02 6.808016e-03 0.0
-1.523752e-02 7.040791e-03 0.0
-1.684322e-02 7.230061e-03 0.0
-1.847908e-02 7.377531e-03 0.0
-2.013646e-02 7.485195e-03 0.0
-2.180703e-02 7.555054e-03 0.0
-2.348287e-02 7.588938e-03 0.0
-2.515653e-02 7.588440e-03 0.0
-2.682099e-02 7.554920e-03 0.0
-2.846953e-02 7.489578e-03 0.0
-3.009573e-02 7.393507e-03 0.0
-3.169331e-02 7.267746e-03 0.0
-3.325615e-02 7.113308e-03 0.0
-3.477825e-02 6.931184e-03 0.0
-3.625376e-02 6.722328e-03 0.0
-3.767698e-02 6.487635e-03 0.0
-3.904243e-02 6.227923e-03 0.0
-4.034482e-02 5.943935e-03 0.0
-4.157909e-02 5.636357e-03 0.0
-4.274036e-02 5.305858e-03 0.0
-4.382399e-02 4.953130e-03 0.0
-4.482549e-02 4.578933e-03 0.0
-4.574058e-02 4.184126e-03 0.0
-4.656521e-02 3.769686e-03 0.0
-4.729557e-02 3.336728e-03 0.0
-4.792812e-02 2.886507e-03 0.0
-4.845965e-02 2.420432e-03 0.0
-4.888729e-02 1.940078e-03 0.0
-4.920855e-02 1.447206e-03 0.0
-4.942138e-02 9.437762e-04 0.0
-4.952415e-02 4.319768e-04 0.0
-4.951572e-02 -8.576302e-05 0.0
-4.939547e-02 -6.067567e-04 0.0
-4.916332e-02 -1.128197e-03 0.0
-4.881975e-02 -1.647312e-03 0.0
-4.836578e-02 -2.161362e-03 0.0
-4.780300e-02 -2.667639e-03 0.0
-4.713355e-02 -3.163471e-03 0.0
-4.636011e-02 -3.646226e-03 0.0
-4.548590e-02 -4.113318e-03 0.0
-4.451465e-02 -4.562217e-03 0.0
-4.345063e-02 -4.990460e-03 0.0
-4.229858e-02 -5.395663e-03 0.0
-4.106372e-02 -5.775540e-03 0.0
-3.975172e-02 -6.127914e-03 0.0
-3.836870e-02 -6.450734e-03 0.0
-3.692115e-02 -6.742095e-03 0.0
-3.541595e-02 -7.000252e-03 0.0
-3.386031e-02 -7.223636e-03 0.0
-3.226173e-02 -7.410869e-03 0.0
-3.062795e-02 -7.560777e-03 0.0
-2.896696e-02 -7.672405e-03 0.0
-2.728688e-02 -7.745024e-03 0.0
-2.559597e-02 -7.778149e-03 0.0
-2.390252e-02 -7.771543e-03 0.0
-2.221488e-02 -7.725236e-03 0.0
-2.054132e-02 -7.639498e-03 0.0
-1.889003e-02 -7.514842e-03 0.0
-1.726905e-02 -7.352031e-03 0.0
-1.568623e-02 -7.152082e-03 0.0
-1.414915e-02 -6.916270e-03 0.0
-1.266509e-02 -6.646134e-03 0.0
-1.124095e-02 -6.343482e-03 0.0
-9.883210e-03 -6.010399e-03 0.0