# vtk DataFile Version 3.0
Vector Field
ASCII
DATASET RECTILINEAR_GRID
DIMENSIONS 102 102 1
X_COORDINATES 102 double
0.000000 0.100000 0.200000 0.300000 0.400000 0.500000 0.600000 0.700000 0.800000 0.900000 1.000000 1.100000 1.200000 1.300000 1.400000 1.500000 1.600000 1.700000 1.800000 1.900000 2.000000 2.100000 2.200000 2.300000 2.400000 2.500000 2.600000 2.700000 2.800000 2.900000 3.000000 3.100000 3.200000 3.300000 3.400000 3.500000 3.600000 3.700000 3.800000 3.900000 4.000000 4.100000 4.200000 4.300000 4.400000 4.500000 4.600000 4.700000 4.800000 4.900000 5.000000 5.100000 5.200000 5.300000 5.400000 5.500000 5.600000 5.700000 5.800000 5.900000 6.000000 6.100000 6.200000 6.300000 6.400000 6.500000 6.600000 6.700000 6.800000 6.900000 7.000000 7.100000 7.200000 7.300000 7.400000 7.500000 7.600000 7.700000 7.800000 7.900000 8.000000 8.100000 8.200000 8.300000 8.400000 8.500000 8.600000 8.700000 8.800000 8.900000 9.000000 9.100000 9.200000 9.300000 9.400000 9.500000 9.600000 9.700000 9.800000 9.900000 10.000000 10.100000 
Y_COORDINATES 102 double
0.000000 0.100000 0.200000 0.300000 0.400000 0.500000 0.600000 0.700000 0.800000 0.900000 1.000000 1.100000 1.200000 1.300000 1.400000 1.500000 1.600000 1.700000 1.800000 1.900000 2.000000 2.100000 2.200000 2.300000 2.400000 2.500000 2.600000 2.700000 2.800000 2.900000 3.000000 3.100000 3.200000 3.300000 3.400000 3.500000 3.600000 3.700000 3.800000 3.900000 4.000000 4.100000 4.200000 4.300000 4.400000 4.500000 4.600000 4.700000 4.800000 4.900000 5.000000 5.100000 5.200000 5.300000 5.400000 5.500000 5.600000 5.700000 5.800000 5.900000 6.000000 6.100000 6.200000 6.300000 6.400000 6.500000 6.600000 6.700000 6.800000 6.900000 7.000000 7.100000 7.200000 7.300000 7.400000 7.500000 7.600000 7.700000 7.800000 7.900000 8.000000 8.100000 8.200000 8.300000 8.400000 8.500000 8.600000 8.700000 8.800000 8.900000 9.000000 9.100000 9.200000 9.300000 9.400000 9.500000 9.600000 9.700000 9.800000 9.900000 10.000000 10.100000 
Z_COORDINATES 1 double
0.0
POINT_DATA 10404
VECTORS Velocity double
0.000000e+00 0.000000e+00 0.0
-2.554940e-05 0.000000e+00 0.0
-4.116968e-05 0.000000e+00 0.0
-4.767459e-05 0.000000e+00 0.0
-4.506380e-05 0.000000e+00 0.0
-3.514132e-05 0.000000e+00 0.0
-1.839708e-05 0.000000e+00 0.0
6.955339e-06 0.000000e+00 0.0
4.389866e-05 0.000000e+00 0.0
9.476715e-05 0.000000e+00 0.0
1.599144e-04 0.000000e+00 0.0
2.375536e-04 0.000000e+00 0.0
3.246455e-04 0.000000e+00 0.0
4.181933e-04 0.000000e+00 0.0
5.162359e-04 0.000000e+00 0.0
6.181385e-04 0.000000e+00 0.0
7.242064e-04 0.000000e+00 0.0
8.349569e-04 0.000000e+00 0.0
9.504633e-04 0.000000e+00 0.0
1.070054e-03 0.000000e+00 0.0
1.192429e-03 0.000000e+00 0.0
1.316047e-03 0.000000e+00 0.0
1.439571e-03 0.000000e+00 0.0
1.562154e-03 0.000000e+00 0.0
1.683475e-03 0.000000e+00 0.0
1.803558e-03 0.000000e+00 0.0
1.922482e-03 0.000000e+00 0.0
2.040135e-03 0.000000e+00 0.0
2.156093e-03 0.000000e+00 0.0
2.269675e-03 0.000000e+00 0.0
2.380094e-03 0.000000e+00 0.0
2.486644e-03 0.000000e+00 0.0
2.588817e-03 0.000000e+00 0.0
2.686318e-03 0.000000e+00 0.0
2.778992e-03 0.000000e+00 0.0
2.866709e-03 0.000000e+00 0.0
2.949253e-03 0.000000e+00 0.0
3.026285e-03 0.000000e+00 0.0
3.097356e-03 0.000000e+00 0.0
3.161968e-03 0.000000e+00 0.0
3.219646e-03 0.000000e+00 0.0
3.269994e-03 0.000000e+00 0.0
3.312709e-03 0.000000e+00 0.0
3.347567e-03 0.000000e+00 0.0
3.374391e-03 0.000000e+00 0.0
3.393020e-03 0.000000e+00 0.0
3.403291e-03 0.000000e+00 0.0
3.405042e-03 0.000000e+00 0.0
3.398141e-03 0.000000e+00 0.0
3.382509e-03 0.000000e+00 0.0
3.358130e-03 0.000000e+00 0.0
3.325047e-03 0.000000e+00 0.0
3.283370e-03 0.000000e+00 0.0
3.233265e-03 0.000000e+00 0.0
3.174950e-03 0.000000e+00 0.0
3.108683e-03 0.000000e+00 0.0
3.034765e-03 0.000000e+00 0.0
2.953530e-03 0.000000e+00 0.0
2.865352e-03 0.000000e+00 0.0
2.770645e-03 0.000000e+00 0.0
2.669865e-03 0.000000e+00 0.0
2.563506e-03 0.000000e+00 0.0
2.452102e-03 0.000000e+00 0.0
2.336223e-03 0.000000e+00 0.0
2.216467e-03 0.000000e+00 0.0
2.093461e-03 0.000000e+00 0.0
1.967854e-03 0.000000e+00 0.0
1.840312e-03 0.000000e+00 0.0
1.711517e-03 0.000000e+00 0.0
1.582159e-03 0.000000e+00 0.0
1.452933e-03 0.000000e+00 0.0
1.324534e-03 0.000000e+00 0.0
1.197657e-03 0.000000e+00 0.0
1.072987e-03 0.000000e+00 0.0
9.512017e-04 0.000000e+00 0.0
8.329646e-04 0.000000e+00 0.0
7.189206e-04 0.000000e+00 0.0
6.096924e-04 0.000000e+00 0.0
5.058758e-04 0.000000e+00 0.0
4.080353e-04 0.000000e+00 0.0
3.166998e-04 0.000000e+00 0.0
2.323576e-04 0.000000e+00 0.0
1.554526e-04 0.000000e+00 0.0
8.637849e-05 0.000000e+00 0.0
2.547408e-05 0.000000e+00 0.0
-2.698346e-05 0.000000e+00 0.0
-7.078555e-05 0.000000e+00 0.0
-1.058020e-04 0.000000e+00 0.0
-1.319917e-04 0.000000e+00 0.0
-1.494177e-04 0.000000e+00 0.0
-1.582654e-04 0.000000e+00 0.0
-1.588685e-04 0.000000e+00 0.0
-1.517442e-04 0.000000e+00 0.0
-1.376417e-04 0.000000e+00 0.0
-1.176123e-04 0.000000e+00 0.0
-9.311176e-05 0.000000e+00 0.0
-6.614527e-05 0.000000e+00 0.0
-3.946201e-05 0.000000e+00 0.0
-1.674308e-05 0.000000e+00 0.0
-2.458462e-06 0.000000e+00 0.0
-0.000000e+00 0.000000e+00 0.0
0.000000e+00 0.000000e+00 0.0
0.000000e+00 -6.554365e-06 0.0
-3.471683e-06 -2.267275e-05 0.0
1.348629e-05 -2.875614e-05 0.0
3.527384e-05 -1.941466e-05 0.0
5.058386e-05 -2.220862e-06 0.0
5.154851e-05 1.447142e-05 0.0
3.462295e-05 2.675439e-05 0.0
5.045195e-07 3.483169e-05 0.0
-4.742877e-05 4.140080e-05 0.0
-1.053209e-04 4.936776e-05 0.0
-1.706030e-04 6.009974e-05 0.0
-2.426308e-04 7.290787e-05 0.0
-3.221815e-04 8.571754e-05 0.0
-4.103372e-04 9.632369e-05 0.0
-5.074447e-04 1.034858e-04 0.0
-6.126414e-04 1.073625e-04 0.0
-7.240543e-04 1.092101e-04 0.0
-8.394480e-04 1.106272e-04 0.0
-9.569353e-04 1.127803e-04 0.0
-1.075419e-03 1.159656e-04 0.0
-1.194623e-03 1.196419e-04 0.0
-1.314765e-03 1.228350e-04 0.0
-1.436093e-03 1.246687e-04 0.0
-1.558502e-03 1.247609e-04 0.0
-1.681391e-03 1.233321e-04 0.0
-1.803782e-03 1.210226e-04 0.0
-1.924595e-03 1.185484e-04 0.0
-2.042940e-03 1.163756e-04 0.0
-2.158281e-03 1.145572e-04 0.0
-2.270420e-03 1.127813e-04 0.0
-2.379342e-03 1.105723e-04 0.0
-2.485016e-03 1.075312e-04 0.0
-2.587233e-03 1.035019e-04 0.0
-2.685563e-03 9.860171e-05 0.0
-2.779410e-03 9.312986e-05 0.0
-2.868136e-03 8.741478e-05 0.0
-2.951172e-03 8.167838e-05 0.0
-3.028087e-03 7.597093e-05 0.0
-3.098590e-03 7.018891e-05 0.0
-3.162476e-03 6.415070e-05 0.0
-3.219559e-03 5.768664e-05 0.0
-3.269619e-03 5.070448e-05 0.0
-3.312380e-03 4.321056e-05 0.0
-3.347519e-03 3.528977e-05 0.0
-3.374705e-03 2.706275e-05 0.0
-3.393635e-03 1.864273e-05 0.0
-3.404063e-03 1.010925e-05 0.0
-3.405817e-03 1.505029e-06 0.0
-3.398808e-03 -7.144862e-06 0.0
-3.383028e-03 -1.581597e-05 0.0
-3.358521e-03 -2.449100e-05 0.0
-3.325366e-03 -3.313983e-05 0.0
-3.283677e-03 -4.171489e-05 0.0
-3.233599e-03 -5.015599e-05 0.0
-3.175323e-03 -5.839891e-05 0.0
-3.109082e-03 -6.638314e-05 0.0
-3.035162e-03 -7.405640e-05 0.0
-2.953898e-03 -8.137531e-05 0.0
-2.865671e-03 -8.830329e-05 0.0
-2.770908e-03 -9.480732e-05 0.0
-2.670076e-03 -1.008552e-04 0.0
-2.563678e-03 -1.064138e-04 0.0
-2.452249e-03 -1.114491e-04 0.0
-2.336356e-03 -1.159265e-04 0.0
-2.216595e-03 -1.198128e-04 0.0
-2.093587e-03 -1.230770e-04 0.0
-1.967975e-03 -1.256923e-04 0.0
-1.840422e-03 -1.276366e-04 0.0
-1.711608e-03 -1.288935e-04 0.0
-1.582223e-03 -1.294524e-04 0.0
-1.452964e-03 -1.293092e-04 0.0
-1.324531e-03 -1.284656e-04 0.0
-1.197620e-03 -1.269270e-04 0.0
-1.072922e-03 -1.247022e-04 0.0
-9.511135e-04 -1.218029e-04 0.0
-8.328601e-04 -1.182440e-04 0.0
-7.188057e-04 -1.140435e-04 0.0
-6.095715e-04 -1.092228e-04 0.0
-5.057515e-04 -1.038076e-04 0.0
-4.079087e-04 -9.782792e-05 0.0
-3.165710e-04 -9.131864e-05 0.0
-2.322264e-04 -8.431954e-05 0.0
-1.553191e-04 -7.687551e-05 0.0
-8.624359e-05 -6.903671e-05 0.0
-2.533919e-05 -6.085890e-05 0.0
2.711627e-05 -5.240403e-05 0.0
7.091394e-05 -4.374113e-05 0.0
1.059236e-04 -3.494879e-05 0.0
1.321045e-04 -2.611635e-05 0.0
1.495197e-04 -1.734759e-05 0.0
1.583550e-04 -8.765179e-06 0.0
1.589448e-04 -5.174380e-07 0.0
1.518066e-04 7.212457e-06 0.0
1.376898e-04 1.419233e-05 0.0
1.176466e-04 2.011984e-05 0.0
9.313299e-05 2.459101e-05 0.0
6.615468e-05 2.705596e-05 0.0
3.946138e-05 2.677092e-05 0.0
1.673478e-05 2.280446e-05 0.0
2.448311e-06 1.436427e-05 0.0
0.000000e+00 2.526137e-06 0.0
0.000000e+00 -2.526227e-06 0.0
0.000000e+00 1.241464e-05 0.0
6.374636e-06 -4.137807e-05 0.0
3.713810e-05 -4.774288e-05 0.0
5.846997e-05 -2.655055e-05 0.0
5.543059e-05 8.799260e-06 0.0
1.994986e-05 4.815224e-05 0.0
-5.014181e-05 8.761304e-05 0.0
-1.532689e-04 1.271588e-04 0.0
-2.865242e-04 1.679497e-04 0.0
-4.474308e-04 2.102485e-04 0.0
-6.345849e-04 2.526828e-04 0.0
-8.473002e-04 2.927806e-04 0.0
-1.084779e-03 3.281430e-04 0.0
-1.345403e-03 3.574795e-04 0.0
-1.626509e-03 3.809913e-04 0.0
-1.924703e-03 4.000206e-04 0.0
-2.236460e-03 4.162583e-04 0.0
-2.558716e-03 4.309493e-04 0.0
-2.889169e-03 4.444549e-04 0.0
-3.226235e-03 4.563025e-04 0.0
-3.568732e-03 4.656101e-04 0.0
-3.915485e-03 4.716275e-04 0.0
-4.265047e-03 4.741257e-04 0.0
-4.615629e-03 4.734822e-04 0.0
-4.965245e-03 4.704693e-04 0.0
-5.311957e-03 4.658904e-04 0.0
-5.654089e-03 4.602537e-04 0.0
-5.990324e-03 4.536236e-04 0.0
-6.319637e-03 4.456943e-04 0.0
-6.641140e-03 4.360141e-04 0.0
-6.953905e-03 4.242359e-04 0.0
-7.256859e-03 4.102756e-04 0.0
-7.548770e-03 3.943250e-04 0.0
-7.828319e-03 3.767402e-04 0.0
-8.094210e-03 3.578776e-04 0.0
-8.345247e-03 3.379611e-04 0.0
-8.580379e-03 3.170295e-04 0.0
-8.798669e-03 2.949722e-04 0.0
-8.999254e-03 2.716181e-04 0.0
-9.181282e-03 2.468306e-04 0.0
-9.343888e-03 2.205700e-04 0.0
-9.486190e-03 1.929056e-04 0.0
-9.607315e-03 1.639872e-04 0.0
-9.706437e-03 1.339983e-04 0.0
-9.782813e-03 1.031138e-04 0.0
-9.835807e-03 7.147905e-05 0.0
-9.864906e-03 3.921375e-05 0.0
-9.869730e-03 6.435233e-06 0.0
-9.850042e-03 -2.670708e-05 0.0
-9.805750e-03 -6.002402e-05 0.0
-9.736900e-03 -9.333118e-05 0.0
-9.643658e-03 -1.264373e-04 0.0
-9.526320e-03 -1.591456e-04 0.0
-9.385310e-03 -1.912609e-04 0.0
-9.221182e-03 -2.225951e-04 0.0
-9.034626e-03 -2.529712e-04 0.0
-8.826456e-03 -2.822226e-04 0.0
-8.597615e-03 -3.101907e-04 0.0
-8.349165e-03 -3.367223e-04 0.0
-8.082284e-03 -3.616676e-04 0.0
-7.798257e-03 -3.848798e-04 0.0
-7.498472e-03 -4.062164e-04 0.0
-7.184415e-03 -4.255411e-04 0.0
-6.857661e-03 -4.427261e-04 0.0
-6.519867e-03 -4.576546e-04 0.0
-6.172764e-03 -4.702231e-04 0.0
-5.818145e-03 -4.803427e-04 0.0
-5.457859e-03 -4.879407e-04 0.0
-5.093796e-03 -4.929614e-04 0.0
-4.727877e-03 -4.953667e-04 0.0
-4.362038e-03 -4.951364e-04 0.0
-3.998222e-03 -4.922688e-04 0.0
-3.638364e-03 -4.867758e-04 0.0
-3.284379e-03 -4.786828e-04 0.0
-2.938153e-03 -4.680296e-04 0.0
-2.601531e-03 -4.548707e-04 0.0
-2.276304e-03 -4.392760e-04 0.0
-1.964200e-03 -4.213316e-04 0.0
-1.666869e-03 -4.011401e-04 0.0
-1.385873e-03 -3.788212e-04 0.0
-1.122672e-03 -3.545124e-04 0.0
-8.786115e-04 -3.283690e-04 0.0
-6.549088e-04 -3.005651e-04 0.0
-4.526359e-04 -2.712952e-04 0.0
-2.727038e-04 -2.407761e-04 0.0
-1.158435e-04 -2.092493e-04 0.0
1.741655e-05 -1.769861e-04 0.0
1.267752e-04 -1.442922e-04 0.0
2.121924e-04 -1.115181e-04 0.0
2.739286e-04 -7.906788e-05 0.0
3.125939e-04 -4.741407e-05 0.0
3.292117e-04 -1.711857e-05 0.0
3.253015e-04 1.113963e-05 0.0
3.029843e-04 3.652647e-05 0.0
2.651190e-04 5.800227e-05 0.0
2.154690e-04 7.425797e-05 0.0
1.588897e-04 8.365195e-05 0.0
1.014839e-04 8.419356e-05 0.0
5.058098e-05 7.372400e-05 0.0
1.424444e-05 5.071752e-05 0.0
0.000000e+00 1.678726e-05 0.0
0.000000e+00 -1.679339e-05 0.0
0.000000e+00 3.616240e-05 0.0
1.104850e-05 -5.044531e-05 0.0
3.315825e-05 -5.522664e-05 0.0
3.061323e-05 -1.649044e-05 0.0
-1.056690e-05 4.713234e-05 0.0
-9.672708e-05 1.240472e-04 0.0
-2.291468e-04 2.087199e-04 0.0
-4.069083e-04 2.983609e-04 0.0
-6.288839e-04 3.904518e-04 0.0
-8.944016e-04 4.816956e-04 0.0
-1.202832e-03 5.683366e-04 0.0
-1.552761e-03 6.471805e-04 0.0
-1.941407e-03 7.165036e-04 0.0
-2.364640e-03 7.763169e-04 0.0
-2.817534e-03 8.279097e-04 0.0
-3.295157e-03 8.729780e-04 0.0
-3.793212e-03 9.127903e-04 0.0
-4.308288e-03 9.477469e-04 0.0
-4.837716e-03 9.774499e-04 0.0
-5.379161e-03 1.001148e-03 0.0
-5.930199e-03 1.018281e-03 0.0
-6.488077e-03 1.028852e-03 0.0
-7.049726e-03 1.033471e-03 0.0
-7.611989e-03 1.033107e-03 0.0
-8.171908e-03 1.028701e-03 0.0
-8.726929e-03 1.020840e-03 0.0
-9.274945e-03 1.009639e-03 0.0
-9.814161e-03 9.948426e-04 0.0
-1.034289e-02 9.760769e-04 0.0
-1.085937e-02 9.531019e-04 0.0
-1.136166e-02 9.259571e-04 0.0
-1.184769e-02 8.949485e-04 0.0
-1.231538e-02 8.605142e-04 0.0
-1.276272e-02 8.230527e-04 0.0
-1.318789e-02 7.827975e-04 0.0
-1.358924e-02 7.397850e-04 0.0
-1.396525e-02 6.939117e-04 0.0
-1.431444e-02 6.450375e-04 0.0
-1.463535e-02 5.930835e-04 0.0
-1.492649e-02 5.380865e-04 0.0
-1.518638e-02 4.802003e-04 0.0
-1.541358e-02 4.196573e-04 0.0
-1.560675e-02 3.567188e-04 0.0
-1.576466e-02 2.916370e-04 0.0
-1.588627e-02 2.246421e-04 0.0
-1.597067e-02 1.559546e-04 0.0
-1.601713e-02 8.581377e-05 0.0
-1.602507e-02 1.451000e-05 0.0
-1.599414e-02 -5.758463e-05 0.0
-1.592416e-02 -1.300287e-04 0.0
-1.581518e-02 -2.023943e-04 0.0
-1.566746e-02 -2.742634e-04 0.0
-1.548147e-02 -3.452299e-04 0.0
-1.525789e-02 -4.149016e-04 0.0
-1.499759e-02 -4.829003e-04 0.0
-1.470168e-02 -5.488599e-04 0.0
-1.437145e-02 -6.124233e-04 0.0
-1.400837e-02 -6.732404e-04 0.0
-1.361411e-02 -7.309676e-04 0.0
-1.319052e-02 -7.852692e-04 0.0
-1.273961e-02 -8.358203e-04 0.0
-1.226356e-02 -8.823106e-04 0.0
-1.176471e-02 -9.244485e-04 0.0
-1.124552e-02 -9.619643e-04 0.0
-1.070860e-02 -9.946138e-04 0.0
-1.015667e-02 -1.022181e-03 0.0
-9.592546e-03 -1.044481e-03 0.0
-9.019127e-03 -1.061360e-03 0.0
-8.439381e-03 -1.072699e-03 0.0
-7.856323e-03 -1.078414e-03 0.0
-7.272995e-03 -1.078456e-03 0.0
-6.692447e-03 -1.072814e-03 0.0
-6.117715e-03 -1.061509e-03 0.0
-5.551811e-03 -1.044594e-03 0.0
-4.997698e-03 -1.022152e-03 0.0
-4.458275e-03 -9.943025e-04 0.0
-3.936358e-03 -9.611993e-04 0.0
-3.434660e-03 -9.230315e-04 0.0
-2.955771e-03 -8.800248e-04 0.0
-2.502143e-03 -8.324420e-04 0.0
-2.076062e-03 -7.805838e-04 0.0
-1.679628e-03 -7.247904e-04 0.0
-1.314738e-03 -6.654435e-04 0.0
-9.830508e-04 -6.029698e-04 0.0
-6.859691e-04 -5.378454e-04 0.0
-4.246035e-04 -4.706024e-04 0.0
-1.997395e-04 -4.018372e-04 0.0
-1.179629e-05 -3.322220e-04 0.0
1.392200e-04 -2.625204e-04 0.0
2.537757e-04 -1.936089e-04 0.0
3.328814e-04 -1.265047e-04 0.0
3.781760e-04 -6.239791e-05 0.0
3.920309e-04 -2.699953e-06 0.0
3.776750e-04 5.089754e-05 0.0
3.393387e-04 9.635390e-05 0.0
2.824075e-04 1.312042e-04 0.0
2.135645e-04 1.525099e-04 0.0
1.408687e-04 1.569043e-04 0.0
7.371152e-05 1.408959e-04 0.0
2.269229e-05 1.017516e-04 0.0
0.000000e+00 3.949443e-05 0.0
0.000000e+00 -3.950093e-05 0.0
0.000000e+00 5.301388e-05 0.0
1.178157e-05 -4.850434e-05 0.0
8.962508e-06 -4.358636e-05 0.0
-3.297859e-05 2.277413e-05 0.0
-1.245336e-04 1.278799e-04 0.0
-2.701800e-04 2.578353e-04 0.0
-4.715088e-04 4.034779e-04 0.0
-7.294886e-04 5.574745e-04 0.0
-1.045141e-03 7.129247e-04 0.0
-1.418980e-03 8.634462e-04 0.0
-1.850037e-03 1.004019e-03 0.0
-2.335262e-03 1.131735e-03 0.0
-2.869689e-03 1.245896e-03 0.0
-3.447252e-03 1.347390e-03 0.0
-4.061818e-03 1.437687e-03 0.0
-4.707982e-03 1.517915e-03 0.0
-5.381353e-03 1.588396e-03 0.0
-6.078326e-03 1.648724e-03 0.0
-6.795580e-03 1.698237e-03 0.0
-7.529586e-03 1.736564e-03 0.0
-8.276373e-03 1.763969e-03 0.0
-9.031615e-03 1.781351e-03 0.0
-9.790946e-03 1.789941e-03 0.0
-1.055033e-02 1.790877e-03 0.0
-1.130627e-02 1.784875e-03 0.0
-1.205586e-02 1.772142e-03 0.0
-1.279652e-02 1.752516e-03 0.0
-1.352580e-02 1.725743e-03 0.0
-1.424110e-02 1.691745e-03 0.0
-1.493964e-02 1.650739e-03 0.0
-1.561852e-02 1.603193e-03 0.0
-1.627485e-02 1.549670e-03 0.0
-1.690592e-02 1.490638e-03 0.0
-1.750927e-02 1.426360e-03 0.0
-1.808264e-02 1.356888e-03 0.0
-1.862396e-02 1.282139e-03 0.0
-1.913116e-02 1.202021e-03 0.0
-1.960220e-02 1.116534e-03 0.0
-2.003497e-02 1.025809e-03 0.0
-2.042739e-02 9.301012e-04 0.0
-2.077747e-02 8.297379e-04 0.0
-2.108334e-02 7.250676e-04 0.0
-2.134328e-02 6.164276e-04 0.0
-2.155579e-02 5.041412e-04 0.0
-2.171955e-02 3.885402e-04 0.0
-2.183341e-02 2.699991e-04 0.0
-2.189643e-02 1.489680e-04 0.0
-2.190789e-02 2.599628e-05 0.0
-2.186728e-02 -9.825259e-05 0.0
-2.177440e-02 -2.230309e-04 0.0
-2.162929e-02 -3.476200e-04 0.0
-2.143232e-02 -4.713273e-04 0.0
-2.118410e-02 -5.934835e-04 0.0
-2.088556e-02 -7.134384e-04 0.0
-2.053787e-02 -8.305552e-04 0.0
-2.014248e-02 -9.442071e-04 0.0
-1.970110e-02 -1.053775e-03 0.0
-1.921569e-02 -1.158650e-03 0.0
-1.868845e-02 -1.258234e-03 0.0
-1.812181e-02 -1.351948e-03 0.0
-1.751846e-02 -1.439236e-03 0.0
-1.688126e-02 -1.519568e-03 0.0
-1.621331e-02 -1.592453e-03 0.0
-1.551787e-02 -1.657436e-03 0.0
-1.479840e-02 -1.714105e-03 0.0
-1.405849e-02 -1.762095e-03 0.0
-1.330188e-02 -1.801092e-03 0.0
-1.253239e-02 -1.830835e-03 0.0
-1.175396e-02 -1.851118e-03 0.0
-1.097058e-02 -1.861792e-03 0.0
-1.018627e-02 -1.862769e-03 0.0
-9.405067e-03 -1.854024e-03 0.0
-8.631001e-03 -1.835588e-03 0.0
-7.868060e-03 -1.807548e-03 0.0
-7.120174e-03 -1.770050e-03 0.0
-6.391185e-03 -1.723298e-03 0.0
-5.684827e-03 -1.667558e-03 0.0
-5.004698e-03 -1.603157e-03 0.0
-4.354231e-03 -1.530485e-03 0.0
-3.736669e-03 -1.449994e-03 0.0
-3.155038e-03 -1.362205e-03 0.0
-2.612112e-03 -1.267706e-03 0.0
-2.110389e-03 -1.167157e-03 0.0
-1.652052e-03 -1.061298e-03 0.0
-1.238934e-03 -9.509539e-04 0.0
-8.724778e-04 -8.370478e-04 0.0
-5.536926e-04 -7.206112e-04 0.0
-2.830990e-04 -6.028037e-04 0.0
-6.067076e-05 -4.849360e-04 0.0
1.142336e-04 -3.685003e-04 0.0
2.429500e-04 -2.552079e-04 0.0
3.276092e-04 -1.470439e-04 0.0
3.712399e-04 -4.631754e-05 0.0
3.778896e-04 4.426084e-05 0.0
3.527534e-04 1.215031e-04 0.0
3.022970e-04 1.816737e-04 0.0
2.343644e-04 2.204553e-04 0.0
1.582577e-04 2.330239e-04 0.0
8.482862e-05 2.143379e-04 0.0
2.680330e-05 1.597899e-04 0.0
0.000000e+00 6.631066e-05 0.0
0.000000e+00 -6.631302e-05 0.0
0.000000e+00 5.484741e-05 0.0
6.187580e-06 -3.735548e-05 0.0
-3.083757e-05 -7.775875e-06 0.0
-1.197976e-04 1.012044e-04 0.0
-2.676517e-04 2.635347e-04 0.0
-4.781815e-04 4.615722e-04 0.0
-7.543465e-04 6.811256e-04 0.0
-1.099064e-03 9.098996e-04 0.0
-1.514517e-03 1.137321e-03 0.0
-2.000947e-03 1.355226e-03 0.0
-2.555874e-03 1.558467e-03 0.0
-3.174256e-03 1.744828e-03 0.0
-3.849450e-03 1.914209e-03 0.0
-4.574482e-03 2.067428e-03 0.0
-5.343052e-03 2.205168e-03 0.0
-6.149926e-03 2.327436e-03 0.0
-6.990702e-03 2.433644e-03 0.0
-7.861239e-03 2.523085e-03 0.0
-8.757085e-03 2.595491e-03 0.0
-9.673221e-03 2.651354e-03 0.0
-1.060418e-02 2.691865e-03 0.0
-1.154443e-02 2.718546e-03 0.0
-1.248886e-02 2.732779e-03 0.0
-1.343300e-02 2.735467e-03 0.0
-1.437307e-02 2.726949e-03 0.0
-1.530571e-02 2.707198e-03 0.0
-1.622769e-02 2.676126e-03 0.0
-1.713562e-02 2.633860e-03 0.0
-1.802589e-02 2.580841e-03 0.0
-1.889479e-02 2.517754e-03 0.0
-1.973863e-02 2.445328e-03 0.0
-2.055399e-02 2.364144e-03 0.0
-2.133774e-02 2.274529e-03 0.0
-2.208704e-02 2.176571e-03 0.0
-2.279921e-02 2.070234e-03 0.0
-2.347165e-02 1.955497e-03 0.0
-2.410170e-02 1.832450e-03 0.0
-2.468668e-02 1.701340e-03 0.0
-2.522395e-02 1.562533e-03 0.0
-2.571092e-02 1.416462e-03 0.0
-2.614521e-02 1.263567e-03 0.0
-2.652461e-02 1.104276e-03 0.0
-2.684713e-02 9.390067e-04 0.0
-2.711100e-02 7.682056e-04 0.0
-2.731464e-02 5.923867e-04 0.0
-2.745669e-02 4.121652e-04 0.0
-2.753599e-02 2.282769e-04 0.0
-2.755168e-02 4.158513e-05 0.0
-2.750315e-02 -1.469185e-04 0.0
-2.739016e-02 -3.361487e-04 0.0
-2.721280e-02 -5.250606e-04 0.0
-2.697151e-02 -7.126423e-04 0.0
-2.666706e-02 -8.979061e-04 0.0
-2.630057e-02 -1.079880e-03 0.0
-2.587348e-02 -1.257601e-03 0.0
-2.538755e-02 -1.430117e-03 0.0
-2.484485e-02 -1.596485e-03 0.0
-2.424776e-02 -1.755779e-03 0.0
-2.359896e-02 -1.907095e-03 0.0
-2.290142e-02 -2.049560e-03 0.0
-2.215838e-02 -2.182340e-03 0.0
-2.137335e-02 -2.304646e-03 0.0
-2.055010e-02 -2.415741e-03 0.0
-1.969260e-02 -2.514945e-03 0.0
-1.880506e-02 -2.601643e-03 0.0
-1.789186e-02 -2.675288e-03 0.0
-1.695754e-02 -2.735405e-03 0.0
-1.600677e-02 -2.781599e-03 0.0
-1.504433e-02 -2.813554e-03 0.0
-1.407509e-02 -2.831042e-03 0.0
-1.310395e-02 -2.833923e-03 0.0
-1.213584e-02 -2.822153e-03 0.0
-1.117567e-02 -2.795775e-03 0.0
-1.022831e-02 -2.754920e-03 0.0
-9.298557e-03 -2.699807e-03 0.0
-8.391112e-03 -2.630745e-03 0.0
-7.510533e-03 -2.548134e-03 0.0
-6.661213e-03 -2.452470e-03 0.0
-5.847349e-03 -2.344342e-03 0.0
-5.072898e-03 -2.224437e-03 0.0
-4.341554e-03 -2.093542e-03 0.0
-3.656702e-03 -1.952551e-03 0.0
-3.021384e-03 -1.802468e-03 0.0
-2.438258e-03 -1.644417e-03 0.0
-1.909550e-03 -1.479653e-03 0.0
-1.437013e-03 -1.309577e-03 0.0
-1.021865e-03 -1.135750e-03 0.0
-6.647369e-04 -9.599220e-04 0.0
-3.656011e-04 -7.840615e-04 0.0
-1.236996e-04 -6.103912e-04 0.0
6.254132e-05 -4.414382e-04 0.0
1.955997e-04 -2.800916e-04 0.0
2.789673e-04 -1.296746e-04 0.0
3.172543e-04 5.984532e-06 0.0
3.162983e-04 1.224699e-04 0.0
2.832686e-04 2.147143e-04 0.0
2.267669e-04 2.769678e-04 0.0
1.569503e-04 3.028513e-04 0.0
8.575827e-05 2.855408e-04 0.0
2.746781e-05 2.180913e-04 0.0
0.000000e+00 9.378942e-05 0.0
0.000000e+00 -9.378457e-05 0.0
0.000000e+00 3.785015e-05 0.0
-6.579992e-06 -1.854082e-05 0.0
-8.070275e-05 5.669457e-05 0.0
-2.188448e-04 2.270371e-04 0.0
-4.257673e-04 4.632215e-04 0.0
-7.056432e-04 7.428009e-04 0.0
-1.062809e-03 1.046456e-03 0.0
-1.500989e-03 1.357904e-03 0.0
-2.021852e-03 1.664441e-03 0.0
-2.623978e-03 1.957450e-03 0.0
-3.302844e-03 2.232183e-03 0.0
-4.051798e-03 2.486749e-03 0.0
-4.863472e-03 2.720711e-03 0.0
-5.730971e-03 2.933844e-03 0.0
-6.648408e-03 3.125492e-03 0.0
-7.610735e-03 3.294597e-03 0.0
-8.613136e-03 3.440179e-03 0.0
-9.650410e-03 3.561900e-03 0.0
-1.071667e-02 3.660352e-03 0.0
-1.180546e-02 3.736951e-03 0.0
-1.291024e-02 3.793491e-03 0.0
-1.402486e-02 3.831612e-03 0.0
-1.514389e-02 3.852431e-03 0.0
-1.626269e-02 3.856471e-03 0.0
-1.737706e-02 3.843876e-03 0.0
-1.848299e-02 3.814759e-03 0.0
-1.957631e-02 3.769490e-03 0.0
-2.065261e-02 3.708778e-03 0.0
-2.170737e-02 3.633564e-03 0.0
-2.273616e-02 3.544791e-03 0.0
-2.373484e-02 3.443199e-03 0.0
-2.469962e-02 3.329217e-03 0.0
-2.562704e-02 3.203013e-03 0.0
-2.651384e-02 3.064626e-03 0.0
-2.735682e-02 2.914130e-03 0.0
-2.815276e-02 2.751730e-03 0.0
-2.889840e-02 2.577800e-03 0.0
-2.959052e-02 2.392830e-03 0.0
-3.022601e-02 2.197364e-03 0.0
-3.080194e-02 1.991942e-03 0.0
-3.131559e-02 1.777080e-03 0.0
-3.176450e-02 1.553295e-03 0.0
-3.214641e-02 1.321146e-03 0.0
-3.245928e-02 1.081285e-03 0.0
-3.270128e-02 8.344903e-04 0.0
-3.287082e-02 5.816806e-04 0.0
-3.296659e-02 3.239194e-04 0.0
-3.298757e-02 6.240839e-05 0.0
-3.293310e-02 -2.015144e-04 0.0
-3.280292e-02 -4.664001e-04 0.0
-3.259714e-02 -7.308396e-04 0.0
-3.231629e-02 -9.934519e-04 0.0
-3.196127e-02 -1.252872e-03 0.0
-3.153336e-02 -1.507745e-03 0.0
-3.103423e-02 -1.756725e-03 0.0
-3.046589e-02 -1.998475e-03 0.0
-2.983076e-02 -2.231678e-03 0.0
-2.913156e-02 -2.455044e-03 0.0
-2.837141e-02 -2.667318e-03 0.0
-2.755374e-02 -2.867292e-03 0.0
-2.668232e-02 -3.053811e-03 0.0
-2.576121e-02 -3.225784e-03 0.0
-2.479477e-02 -3.382191e-03 0.0
-2.378762e-02 -3.522090e-03 0.0
-2.274463e-02 -3.644626e-03 0.0
-2.167087e-02 -3.749037e-03 0.0
-2.057161e-02 -3.834660e-03 0.0
-1.945227e-02 -3.900941e-03 0.0
-1.831840e-02 -3.947434e-03 0.0
-1.717565e-02 -3.973815e-03 0.0
-1.602971e-02 -3.979884e-03 0.0
-1.488631e-02 -3.965570e-03 0.0
-1.375117e-02 -3.930932e-03 0.0
-1.262995e-02 -3.876147e-03 0.0
-1.152824e-02 -3.801517e-03 0.0
-1.045151e-02 -3.707471e-03 0.0
-9.405075e-03 -3.594565e-03 0.0
-8.394053e-03 -3.463487e-03 0.0
-7.423333e-03 -3.315057e-03 0.0
-6.497531e-03 -3.150234e-03 0.0
-5.620953e-03 -2.970117e-03 0.0
-4.797545e-03 -2.775955e-03 0.0
-4.030857e-03 -2.569152e-03 0.0
-3.323988e-03 -2.351280e-03 0.0
-2.679543e-03 -2.124094e-03 0.0
-2.099569e-03 -1.889544e-03 0.0
-1.585507e-03 -1.649805e-03 0.0
-1.138118e-03 -1.407303e-03 0.0
-7.574212e-04 -1.164751e-03 0.0
-4.426130e-04 -9.251917e-04 0.0
-1.919860e-04 -6.920572e-04 0.0
-2.841137e-06 -4.692283e-04 0.0
1.286028e-04 -2.611104e-04 0.0
2.073077e-04 -7.271191e-05 0.0
2.395124e-04 9.027387e-05 0.0
2.328296e-04 2.214062e-04 0.0
1.963506e-04 3.134556e-04 0.0
1.408074e-04 3.584034e-04 0.0
7.886246e-05 3.474949e-04 0.0
2.568392e-05 2.712790e-04 0.0
0.000000e+00 1.194824e-04 0.0
0.000000e+00 -1.194682e-04 0.0
0.000000e+00 2.429617e-06 0.0
-2.486049e-05 8.587231e-06 0.0
-1.346807e-04 1.541240e-04 0.0
-3.216429e-04 4.060821e-04 0.0
-5.897136e-04 7.319857e-04 0.0
-9.435874e-04 1.104647e-03 0.0
-1.387821e-03 1.500853e-03 0.0
-1.925157e-03 1.902120e-03 0.0
-2.555213e-03 2.295162e-03 0.0
-3.274227e-03 2.671611e-03 0.0
-4.075918e-03 3.026859e-03 0.0
-4.952911e-03 3.358458e-03 0.0
-5.898038e-03 3.664689e-03 0.0
-6.904997e-03 3.943761e-03 0.0
-7.968251e-03 4.193764e-03 0.0
-9.082449e-03 4.413128e-03 0.0
-1.024178e-02 4.601176e-03 0.0
-1.143964e-02 4.758398e-03 0.0
-1.266878e-02 4.886284e-03 0.0
-1.392177e-02 4.986807e-03 0.0
-1.519156e-02 5.061826e-03 0.0
-1.647184e-02 5.112670e-03 0.0
-1.775711e-02 5.140061e-03 0.0
-1.904238e-02 5.144351e-03 0.0
-2.032281e-02 5.125885e-03 0.0
-2.159344e-02 5.085301e-03 0.0
-2.284909e-02 5.023608e-03 0.0
-2.408448e-02 4.942036e-03 0.0
-2.529444e-02 4.841787e-03 0.0
-2.647413e-02 4.723798e-03 0.0
-2.761914e-02 4.588651e-03 0.0
-2.872537e-02 4.436635e-03 0.0
-2.978897e-02 4.267906e-03 0.0
-3.080614e-02 4.082664e-03 0.0
-3.177308e-02 3.881258e-03 0.0
-3.268594e-02 3.664202e-03 0.0
-3.354096e-02 3.432125e-03 0.0
-3.433449e-02 3.185690e-03 0.0
-3.506306e-02 2.925538e-03 0.0
-3.572348e-02 2.652280e-03 0.0
-3.631278e-02 2.366530e-03 0.0
-3.682820e-02 2.068961e-03 0.0
-3.726721e-02 1.760356e-03 0.0
-3.762751e-02 1.441649e-03 0.0
-3.790701e-02 1.113934e-03 0.0
-3.810394e-02 7.784625e-04 0.0
-3.821682e-02 4.366395e-04 0.0
-3.824454e-02 9.001480e-05 0.0
-3.818640e-02 -2.597092e-04 0.0
-3.804210e-02 -6.106861e-04 0.0
-3.781179e-02 -9.610974e-04 0.0
-3.749605e-02 -1.309139e-03 0.0
-3.709587e-02 -1.653015e-03 0.0
-3.661268e-02 -1.990935e-03 0.0
-3.604833e-02 -2.321117e-03 0.0
-3.540507e-02 -2.641800e-03 0.0
-3.468557e-02 -2.951248e-03 0.0
-3.389293e-02 -3.247768e-03 0.0
-3.303059e-02 -3.529712e-03 0.0
-3.210243e-02 -3.795498e-03 0.0
-3.111266e-02 -4.043610e-03 0.0
-3.006583e-02 -4.272616e-03 0.0
-2.896683e-02 -4.481177e-03 0.0
-2.782086e-02 -4.668052e-03 0.0
-2.663336e-02 -4.832114e-03 0.0
-2.541004e-02 -4.972353e-03 0.0
-2.415682e-02 -5.087894e-03 0.0
-2.287978e-02 -5.177995e-03 0.0
-2.158517e-02 -5.242066e-03 0.0
-2.027934e-02 -5.279672e-03 0.0
-1.896870e-02 -5.290540e-03 0.0
-1.765972e-02 -5.274568e-03 0.0
-1.635883e-02 -5.231825e-03 0.0
-1.507244e-02 -5.162539e-03 0.0
-1.380686e-02 -5.067103e-03 0.0
-1.256825e-02 -4.946074e-03 0.0
-1.136263e-02 -4.800181e-03 0.0
-1.019579e-02 -4.630326e-03 0.0
-9.073259e-03 -4.437588e-03 0.0
-8.000264e-03 -4.223228e-03 0.0
-6.981684e-03 -3.988697e-03 0.0
-6.021997e-03 -3.735641e-03 0.0
-5.125234e-03 -3.465914e-03 0.0
-4.294922e-03 -3.181590e-03 0.0
-3.534033e-03 -2.884980e-03 0.0
-2.844922e-03 -2.578651e-03 0.0
-2.229268e-03 -2.265456e-03 0.0
-1.688002e-03 -1.948565e-03 0.0
-1.221242e-03 -1.631506e-03 0.0
-8.282134e-04 -1.318215e-03 0.0
-5.071733e-04 -1.013092e-03 0.0
-2.553267e-04 -7.210690e-04 0.0
-6.874372e-05 -4.476871e-04 0.0
5.772591e-05 -1.991748e-04 0.0
1.305366e-04 1.747031e-05 0.0
1.575478e-04 1.944025e-04 0.0
1.481329e-04 3.228777e-04 0.0
1.133496e-04 3.931941e-04 0.0
6.622335e-05 3.946286e-04 0.0
2.222581e-05 3.152840e-04 0.0
0.000000e+00 1.417157e-04 0.0
0.000000e+00 -1.416903e-04 0.0
0.000000e+00 -4.824627e-05 0.0
-4.501932e-05 4.670847e-05 0.0
-1.876262e-04 2.879264e-04 0.0
-4.230497e-04 6.411526e-04 0.0
-7.549349e-04 1.071085e-03 0.0
-1.187497e-03 1.547093e-03 0.0
-1.723725e-03 2.044059e-03 0.0
-2.363767e-03 2.543059e-03 0.0
-3.104424e-03 3.031114e-03 0.0
-3.939816e-03 3.499980e-03 0.0
-4.862745e-03 3.944391e-03 0.0
-5.866000e-03 4.360451e-03 0.0
-6.943072e-03 4.744676e-03 0.0
-8.088110e-03 5.093837e-03 0.0
-9.295354e-03 5.405378e-03 0.0
-1.055850e-02 5.677948e-03 0.0
-1.187035e-02 5.911648e-03 0.0
-1.322297e-02 6.107821e-03 0.0
-1.460821e-02 6.268459e-03 0.0
-1.601825e-02 6.395535e-03 0.0
-1.744601e-02 6.490533e-03 0.0
-1.888521e-02 6.554355e-03 0.0
-2.033009e-02 6.587561e-03 0.0
-2.177502e-02 6.590751e-03 0.0
-2.321425e-02 6.564849e-03 0.0
-2.464182e-02 6.511183e-03 0.0
-2.605170e-02 6.431303e-03 0.0
-2.743802e-02 6.326695e-03 0.0
-2.879530e-02 6.198535e-03 0.0
-3.011847e-02 6.047599e-03 0.0
-3.140287e-02 5.874344e-03 0.0
-3.264402e-02 5.679088e-03 0.0
-3.383753e-02 5.462198e-03 0.0
-3.497899e-02 5.224194e-03 0.0
-3.606399e-02 4.965760e-03 0.0
-3.708820e-02 4.687674e-03 0.0
-3.804744e-02 4.390728e-03 0.0
-3.893776e-02 4.075671e-03 0.0
-3.975544e-02 3.743213e-03 0.0
-4.049702e-02 3.394066e-03 0.0
-4.115925e-02 3.029015e-03 0.0
-4.173909e-02 2.648973e-03 0.0
-4.223373e-02 2.255019e-03 0.0
-4.264060e-02 1.848407e-03 0.0
-4.295740e-02 1.430564e-03 0.0
-4.318217e-02 1.003079e-03 0.0
-4.331333e-02 5.676991e-04 0.0
-4.334968e-02 1.263396e-04 0.0
-4.329045e-02 -3.189060e-04 0.0
-4.313532e-02 -7.657508e-04 0.0
-4.288444e-02 -1.211918e-03 0.0
-4.253843e-02 -1.655133e-03 0.0
-4.209834e-02 -2.093121e-03 0.0
-4.156571e-02 -2.523614e-03 0.0
-4.094255e-02 -2.944358e-03 0.0
-4.023130e-02 -3.353127e-03 0.0
-3.943490e-02 -3.747734e-03 0.0
-3.855668e-02 -4.126041e-03 0.0
-3.760045e-02 -4.485974e-03 0.0
-3.657043e-02 -4.825534e-03 0.0
-3.547123e-02 -5.142810e-03 0.0
-3.430784e-02 -5.435992e-03 0.0
-3.308563e-02 -5.703382e-03 0.0
-3.181027e-02 -5.943409e-03 0.0
-3.048775e-02 -6.154638e-03 0.0
-2.912433e-02 -6.335788e-03 0.0
-2.772651e-02 -6.485738e-03 0.0
-2.630099e-02 -6.603545e-03 0.0
-2.485463e-02 -6.688450e-03 0.0
-2.339443e-02 -6.739892e-03 0.0
-2.192747e-02 -6.757515e-03 0.0
-2.046087e-02 -6.741176e-03 0.0
-1.900175e-02 -6.690950e-03 0.0
-1.755717e-02 -6.607114e-03 0.0
-1.613412e-02 -6.490154e-03 0.0
-1.473943e-02 -6.340765e-03 0.0
-1.337976e-02 -6.159862e-03 0.0
-1.206151e-02 -5.948576e-03 0.0
-1.079083e-02 -5.708268e-03 0.0