# vtk DataFile Version 3.0
Vector Field
ASCII
DATASET RECTILINEAR_GRID
DIMENSIONS 102 102 1
X_COORDINATES 102 double
0.000000 0.100000 0.200000 0.300000 0.400000 0.500000 0.600000 0.700000 0.800000 0.900000 1.000000 1.100000 1.200000 1.300000 1.400000 1.500000 1.600000 1.700000 1.800000 1.900000 2.000000 2.100000 2.200000 2.300000 2.400000 2.500000 2.600000 2.700000 2.800000 2.900000 3.000000 3.100000 3.200000 3.300000 3.400000 3.500000 3.600000 3.700000 3.800000 3.900000 4.000000 4.100000 4.200000 4.300000 4.400000 4.500000 4.600000 4.700000 4.800000 4.900000 5.000000 5.100000 5.200000 5.300000 5.400000 5.500000 5.600000 5.700000 5.800000 5.900000 6.000000 6.100000 6.200000 6.300000 6.400000 6.500000 6.600000 6.700000 6.800000 6.900000 7.000000 7.100000 7.200000 7.300000 7.400000 7.500000 7.600000 7.700000 7.800000 7.900000 8.000000 8.100000 8.200000 8.300000 8.400000 8.500000 8.600000 8.700000 8.800000 8.900000 9.000000 9.100000 9.200000 9.300000 9.400000 9.500000 9.600000 9.700000 9.800000 9.900000 10.000000 10.100000 
Y_COORDINATES 102 double
0.000000 0.100000 0.200000 0.300000 0.400000 0.500000 0.600000 0.700000 0.800000 0.900000 1.000000 1.100000 1.200000 1.300000 1.400000 1.500000 1.600000 1.700000 1.800000 1.900000 2.000000 2.100000 2.200000 2.300000 2.400000 2.500000 2.600000 2.700000 2.800000 2.900000 3.000000 3.100000 3.200000 3.300000 3.400000 3.500000 3.600000 3.700000 3.800000 3.900000 4.000000 4.100000 4.200000 4.300000 4.400000 4.500000 4.600000 4.700000 4.800000 4.900000 5.000000 5.100000 5.200000 5.300000 5.400000 5.500000 5.600000 5.700000 5.800000 5.900000 6.000000 6.100000 6.200000 6.300000 6.400000 6.500000 6.600000 6.700000 6.800000 6.900000 7.000000 7.100000 7.200000 7.300000 7.400000 7.500000 7.600000 7.700000 7.800000 7.900000 8.000000 8.100000 8.200000 8.300000 8.400000 8.500000 8.600000 8.700000 8.800000 8.900000 9.000000 9.100000 9.200000 9.300000 9.400000 9.500000 9.600000 9.700000 9.800000 9.900000 10.000000 10.100000 
Z_COORDINATES 1 double
0.0
POINT_DATA 10404
VECTORS Velocity double
0.000000e+00 0.000000e+00 0.0
-7.758665e-06 0.000000e+00 0.0
-1.666377e-05 0.000000e+00 0.0
-1.759229e-05 0.000000e+00 0.0
-8.654684e-06 0.000000e+00 0.0
9.254003e-06 0.000000e+00 0.0
3.442305e-05 0.000000e+00 0.0
6.556281e-05 0.000000e+00 0.0
1.022924e-04 0.000000e+00 0.0
1.449920e-04 0.000000e+00 0.0
1.942616e-04 0.000000e+00 0.0
2.503082e-04 0.000000e+00 0.0
3.125432e-04 0.000000e+00 0.0
3.795421e-04 0.000000e+00 0.0
4.493516e-04 0.000000e+00 0.0
5.199916e-04 0.000000e+00 0.0
5.899480e-04 0.000000e+00 0.0
6.584793e-04 0.000000e+00 0.0
7.256497e-04 0.000000e+00 0.0
7.921078e-04 0.000000e+00 0.0
8.587126e-04 0.000000e+00 0.0
9.261466e-04 0.000000e+00 0.0
9.946377e-04 0.000000e+00 0.0
1.063864e-03 0.000000e+00 0.0
1.133043e-03 0.000000e+00 0.0
1.201160e-03 0.000000e+00 0.0
1.267239e-03 0.000000e+00 0.0
1.330581e-03 0.000000e+00 0.0
1.390894e-03 0.000000e+00 0.0
1.448289e-03 0.000000e+00 0.0
1.503173e-03 0.000000e+00 0.0
1.556065e-03 0.000000e+00 0.0
1.607411e-03 0.000000e+00 0.0
1.657448e-03 0.000000e+00 0.0
1.706150e-03 0.000000e+00 0.0
1.753260e-03 0.000000e+00 0.0
1.798378e-03 0.000000e+00 0.0
1.841077e-03 0.000000e+00 0.0
1.881010e-03 0.000000e+00 0.0
1.917965e-03 0.000000e+00 0.0
1.951879e-03 0.000000e+00 0.0
1.982807e-03 0.000000e+00 0.0
2.010863e-03 0.000000e+00 0.0
2.036161e-03 0.000000e+00 0.0
2.058769e-03 0.000000e+00 0.0
2.078692e-03 0.000000e+00 0.0
2.095874e-03 0.000000e+00 0.0
2.110217e-03 0.000000e+00 0.0
2.121611e-03 0.000000e+00 0.0
2.129958e-03 0.000000e+00 0.0
2.135184e-03 0.000000e+00 0.0
2.137248e-03 0.000000e+00 0.0
2.136135e-03 0.000000e+00 0.0
2.131853e-03 0.000000e+00 0.0
2.124412e-03 0.000000e+00 0.0
2.113822e-03 0.000000e+00 0.0
2.100083e-03 0.000000e+00 0.0
2.083187e-03 0.000000e+00 0.0
2.063119e-03 0.000000e+00 0.0
2.039866e-03 0.000000e+00 0.0
2.013422e-03 0.000000e+00 0.0
1.983791e-03 0.000000e+00 0.0
1.950988e-03 0.000000e+00 0.0
1.915048e-03 0.000000e+00 0.0
1.876016e-03 0.000000e+00 0.0
1.833949e-03 0.000000e+00 0.0
1.788916e-03 0.000000e+00 0.0
1.740991e-03 0.000000e+00 0.0
1.690252e-03 0.000000e+00 0.0
1.636786e-03 0.000000e+00 0.0
1.580681e-03 0.000000e+00 0.0
1.522034e-03 0.000000e+00 0.0
1.460953e-03 0.000000e+00 0.0
1.397554e-03 0.000000e+00 0.0
1.331973e-03 0.000000e+00 0.0
1.264363e-03 0.000000e+00 0.0
1.194899e-03 0.000000e+00 0.0
1.123779e-03 0.000000e+00 0.0
1.051229e-03 0.000000e+00 0.0
9.775059e-04 0.000000e+00 0.0
9.028957e-04 0.000000e+00 0.0
8.277208e-04 0.000000e+00 0.0
7.523405e-04 0.000000e+00 0.0
6.771545e-04 0.000000e+00 0.0
6.026061e-04 0.000000e+00 0.0
5.291863e-04 0.000000e+00 0.0
4.574362e-04 0.000000e+00 0.0
3.879509e-04 0.000000e+00 0.0
3.213810e-04 0.000000e+00 0.0
2.584340e-04 0.000000e+00 0.0
1.998731e-04 0.000000e+00 0.0
1.465134e-04 0.000000e+00 0.0
9.921270e-05 0.000000e+00 0.0
5.885341e-05 0.000000e+00 0.0
2.630662e-05 0.000000e+00 0.0
2.363850e-06 0.000000e+00 0.0
-1.239729e-05 0.000000e+00 0.0
-1.788118e-05 0.000000e+00 0.0
-1.501724e-05 0.000000e+00 0.0
-6.804750e-06 0.000000e+00 0.0
-0.000000e+00 0.000000e+00 0.0
0.000000e+00 0.000000e+00 0.0
0.000000e+00 5.169818e-06 0.0
1.302406e-06 -1.168910e-05 0.0
9.494979e-06 -1.179408e-05 0.0
1.461183e-05 -3.246707e-06 0.0
1.243080e-05 8.841973e-06 0.0
3.378475e-07 2.055390e-05 0.0
-2.295175e-05 2.958753e-05 0.0
-5.729344e-05 3.523964e-05 0.0
-1.011858e-04 3.820399e-05 0.0
-1.522008e-04 4.004811e-05 0.0
-2.076747e-04 4.248490e-05 0.0
-2.654136e-04 4.668646e-05 0.0
-3.241719e-04 5.287373e-05 0.0
-3.837601e-04 6.029771e-05 0.0
-4.447896e-04 6.757589e-05 0.0
-5.081865e-04 7.322591e-05 0.0
-5.746668e-04 7.618900e-05 0.0
-6.443536e-04 7.616553e-05 0.0
-7.166455e-04 7.366886e-05 0.0
-7.903464e-04 6.980977e-05 0.0
-8.639840e-04 6.590980e-05 0.0
-9.361918e-04 6.308546e-05 0.0
-1.006026e-03 6.193784e-05 0.0
-1.073128e-03 6.243355e-05 0.0
-1.137698e-03 6.399264e-05 0.0
-1.200311e-03 6.573232e-05 0.0
-1.261651e-03 6.677332e-05 0.0
-1.322257e-03 6.650607e-05 0.0
-1.382346e-03 6.473994e-05 0.0
-1.441767e-03 6.170457e-05 0.0
-1.500076e-03 5.792381e-05 0.0
-1.556682e-03 5.402024e-05 0.0
-1.611018e-03 5.052089e-05 0.0
-1.662676e-03 4.772491e-05 0.0
-1.711466e-03 4.566256e-05 0.0
-1.757406e-03 4.414154e-05 0.0
-1.800648e-03 4.284957e-05 0.0
-1.841388e-03 4.147015e-05 0.0
-1.879782e-03 3.977340e-05 0.0
-1.915894e-03 3.765975e-05 0.0
-1.949687e-03 3.515415e-05 0.0
-1.981046e-03 3.236454e-05 0.0
-2.009818e-03 2.942628e-05 0.0
-2.035852e-03 2.645309e-05 0.0
-2.059032e-03 2.350819e-05 0.0
-2.079285e-03 2.059906e-05 0.0
-2.096576e-03 1.769154e-05 0.0
-2.110894e-03 1.473385e-05 0.0
-2.122234e-03 1.168068e-05 0.0
-2.130579e-03 8.509931e-06 0.0
-2.135897e-03 5.229036e-06 0.0
-2.138141e-03 1.871337e-06 0.0
-2.137252e-03 -1.513735e-06 0.0
-2.133178e-03 -4.871442e-06 0.0
-2.125874e-03 -8.160684e-06 0.0
-2.115311e-03 -1.135962e-05 0.0
-2.101480e-03 -1.446710e-05 0.0
-2.084387e-03 -1.749996e-05 0.0
-2.064056e-03 -2.048693e-05 0.0
-2.040519e-03 -2.346088e-05 0.0
-2.013815e-03 -2.645117e-05 0.0
-1.983984e-03 -2.947771e-05 0.0
-1.951065e-03 -3.254750e-05 0.0
-1.915095e-03 -3.565418e-05 0.0
-1.876107e-03 -3.877993e-05 0.0
-1.834139e-03 -4.189914e-05 0.0
-1.789228e-03 -4.498281e-05 0.0
-1.741422e-03 -4.800265e-05 0.0
-1.690779e-03 -5.093422e-05 0.0
-1.637366e-03 -5.375866e-05 0.0
-1.581270e-03 -5.646283e-05 0.0
-1.522588e-03 -5.903835e-05 0.0
-1.461436e-03 -6.147964e-05 0.0
-1.397945e-03 -6.378180e-05 0.0
-1.332262e-03 -6.593837e-05 0.0
-1.264553e-03 -6.793959e-05 0.0
-1.195001e-03 -6.977115e-05 0.0
-1.123810e-03 -7.141356e-05 0.0
-1.051209e-03 -7.284204e-05 0.0
-9.774511e-04 -7.402680e-05 0.0
-9.028208e-04 -7.493357e-05 0.0
-8.276355e-04 -7.552427e-05 0.0
-7.522505e-04 -7.575761e-05 0.0
-6.770618e-04 -7.558966e-05 0.0
-6.025105e-04 -7.497399e-05 0.0
-5.290865e-04 -7.386163e-05 0.0
-4.573311e-04 -7.220142e-05 0.0
-3.878402e-04 -6.994024e-05 0.0
-3.212658e-04 -6.702349e-05 0.0
-2.583169e-04 -6.339605e-05 0.0
-1.997582e-04 -5.900377e-05 0.0
-1.464057e-04 -5.379631e-05 0.0
-9.911738e-05 -4.773222e-05 0.0
-5.877501e-05 -4.078817e-05 0.0
-2.624839e-05 -3.297590e-05 0.0
-2.326912e-06 -2.437503e-05 0.0
1.241474e-05 -1.519904e-05 0.0
1.788394e-05 -5.931283e-06 0.0
1.501382e-05 2.404436e-06 0.0
6.805283e-06 7.740836e-06 0.0
0.000000e+00 6.337186e-06 0.0
0.000000e+00 -6.315229e-06 0.0
0.000000e+00 1.141370e-05 0.0
3.464519e-06 -1.885198e-05 0.0
9.601718e-06 -1.302067e-05 0.0
2.129218e-06 1.046431e-05 0.0
-2.582267e-05 4.108478e-05 0.0
-7.740867e-05 7.207004e-05 0.0
-1.529466e-04 1.001688e-04 0.0
-2.506827e-04 1.246580e-04 0.0
-3.676177e-04 1.463505e-04 0.0
-5.003507e-04 1.665900e-04 0.0
-6.457960e-04 1.864060e-04 0.0
-8.016224e-04 2.060087e-04 0.0
-9.663493e-04 2.247172e-04 0.0
-1.139139e-03 2.412669e-04 0.0
-1.319415e-03 2.543274e-04 0.0
-1.506470e-03 2.630160e-04 0.0
-1.699202e-03 2.672227e-04 0.0
-1.896051e-03 2.676506e-04 0.0
-2.095143e-03 2.655850e-04 0.0
-2.294549e-03 2.624927e-04 0.0
-2.492578e-03 2.595990e-04 0.0
-2.687998e-03 2.575785e-04 0.0
-2.880113e-03 2.564476e-04 0.0
-3.068704e-03 2.556691e-04 0.0
-3.253843e-03 2.544123e-04 0.0
-3.435676e-03 2.518706e-04 0.0
-3.614227e-03 2.475276e-04 0.0
-3.789284e-03 2.412960e-04 0.0
-3.960390e-03 2.335020e-04 0.0
-4.126921e-03 2.247418e-04 0.0
-4.288211e-03 2.156750e-04 0.0
-4.443675e-03 2.068306e-04 0.0
-4.592888e-03 1.984840e-04 0.0
-4.735608e-03 1.906326e-04 0.0
-4.871739e-03 1.830586e-04 0.0
-5.001268e-03 1.754429e-04 0.0
-5.124186e-03 1.674836e-04 0.0
-5.240438e-03 1.589820e-04 0.0
-5.349898e-03 1.498755e-04 0.0
-5.452374e-03 1.402214e-04 0.0
-5.547637e-03 1.301473e-04 0.0
-5.635450e-03 1.197937e-04 0.0
-5.715600e-03 1.092676e-04 0.0
-5.787908e-03 9.862000e-05 0.0
-5.852232e-03 8.784768e-05 0.0
-5.908457e-03 7.691232e-05 0.0
-5.956481e-03 6.576697e-05 0.0
-5.996203e-03 5.437954e-05 0.0
-6.027514e-03 4.274676e-05 0.0
-6.050300e-03 3.089683e-05 0.0
-6.064443e-03 1.888250e-05 0.0
-6.069827e-03 6.768936e-06 0.0
-6.066355e-03 -5.378637e-06 0.0
-6.053952e-03 -1.750252e-05 0.0
-6.032568e-03 -2.957242e-05 0.0
-6.002181e-03 -4.158231e-05 0.0
-5.962787e-03 -5.354416e-05 0.0
-5.914406e-03 -6.547947e-05 0.0
-5.857070e-03 -7.741027e-05 0.0
-5.790826e-03 -8.935116e-05 0.0
-5.715729e-03 -1.013037e-04 0.0
-5.631843e-03 -1.132541e-04 0.0
-5.539243e-03 -1.251736e-04 0.0
-5.438015e-03 -1.370218e-04 0.0
-5.328260e-03 -1.487511e-04 0.0
-5.210100e-03 -1.603113e-04 0.0
-5.083675e-03 -1.716539e-04 0.0
-4.949152e-03 -1.827344e-04 0.0
-4.806727e-03 -1.935134e-04 0.0
-4.656623e-03 -2.039555e-04 0.0
-4.499097e-03 -2.140272e-04 0.0
-4.334438e-03 -2.236944e-04 0.0
-4.162975e-03 -2.329192e-04 0.0
-3.985073e-03 -2.416573e-04 0.0
-3.801144e-03 -2.498556e-04 0.0
-3.611645e-03 -2.574509e-04 0.0
-3.417091e-03 -2.643688e-04 0.0
-3.218055e-03 -2.705235e-04 0.0
-3.015182e-03 -2.758175e-04 0.0
-2.809188e-03 -2.801419e-04 0.0
-2.600878e-03 -2.833768e-04 0.0
-2.391148e-03 -2.853915e-04 0.0
-2.180994e-03 -2.860452e-04 0.0
-1.971522e-03 -2.851868e-04 0.0
-1.763955e-03 -2.826557e-04 0.0
-1.559638e-03 -2.782816e-04 0.0
-1.360047e-03 -2.718868e-04 0.0
-1.166786e-03 -2.632880e-04 0.0
-9.815914e-04 -2.523010e-04 0.0
-8.063230e-04 -2.387464e-04 0.0
-6.429518e-04 -2.224588e-04 0.0
-4.935335e-04 -2.033020e-04 0.0
-3.601656e-04 -1.811924e-04 0.0
-2.449137e-04 -1.561374e-04 0.0
-1.496911e-04 -1.283005e-04 0.0
-7.605957e-05 -9.811198e-05 0.0
-2.490395e-05 -6.646278e-05 0.0
4.097924e-06 -3.504370e-05 0.0
1.330786e-05 -6.916312e-06 0.0
8.361398e-06 1.257683e-05 0.0
0.000000e+00 1.458889e-05 0.0
0.000000e+00 -1.454788e-05 0.0
0.000000e+00 1.465554e-05 0.0
1.018725e-06 -1.815488e-05 0.0
-6.537913e-06 8.081605e-07 0.0
-3.820503e-05 4.618495e-05 0.0
-1.006623e-04 1.030791e-04 0.0
-1.964109e-04 1.625136e-04 0.0
-3.247965e-04 2.201328e-04 0.0
-4.831575e-04 2.744799e-04 0.0
-6.679534e-04 3.255206e-04 0.0
-8.756715e-04 3.734899e-04 0.0
-1.103363e-03 4.181887e-04 0.0
-1.348767e-03 4.587842e-04 0.0
-1.610114e-03 4.940336e-04 0.0
-1.885760e-03 5.227456e-04 0.0
-2.173842e-03 5.442499e-04 0.0
-2.472085e-03 5.586857e-04 0.0
-2.777829e-03 5.670120e-04 0.0
-3.088232e-03 5.707517e-04 0.0
-3.400580e-03 5.715771e-04 0.0
-3.712576e-03 5.708814e-04 0.0
-4.022520e-03 5.694771e-04 0.0
-4.329333e-03 5.675027e-04 0.0
-4.632430e-03 5.645447e-04 0.0
-4.931498e-03 5.599113e-04 0.0
-5.226253e-03 5.529524e-04 0.0
-5.516262e-03 5.433193e-04 0.0
-5.800862e-03 5.310870e-04 0.0
-6.079195e-03 5.167192e-04 0.0
-6.350317e-03 5.009091e-04 0.0
-6.613338e-03 4.843679e-04 0.0
-6.867529e-03 4.676358e-04 0.0
-7.112379e-03 4.509759e-04 0.0
-7.347579e-03 4.343687e-04 0.0
-7.572954e-03 4.175921e-04 0.0
-7.788378e-03 4.003442e-04 0.0
-7.993699e-03 3.823608e-04 0.0
-8.188697e-03 3.634921e-04 0.0
-8.373076e-03 3.437235e-04 0.0
-8.546489e-03 3.231483e-04 0.0
-8.708577e-03 3.019130e-04 0.0
-8.858999e-03 2.801599e-04 0.0
-8.997457e-03 2.579873e-04 0.0
-9.123702e-03 2.354348e-04 0.0
-9.237520e-03 2.124925e-04 0.0
-9.338721e-03 1.891252e-04 0.0
-9.427122e-03 1.652994e-04 0.0
-9.502537e-03 1.410046e-04 0.0
-9.564771e-03 1.162630e-04 0.0
-9.613629e-03 9.112808e-05 0.0
-9.648918e-03 6.567396e-05 0.0
-9.670465e-03 3.998197e-05 0.0
-9.678118e-03 1.412778e-05 0.0
-9.671760e-03 -1.182592e-05 0.0
-9.651309e-03 -3.782939e-05 0.0
-9.616714e-03 -6.386192e-05 0.0
-9.567956e-03 -8.992065e-05 0.0
-9.505036e-03 -1.160094e-04 0.0
-9.427977e-03 -1.421287e-04 0.0
-9.336817e-03 -1.682674e-04 0.0
-9.231610e-03 -1.943985e-04 0.0
-9.112428e-03 -2.204778e-04 0.0
-8.979360e-03 -2.464459e-04 0.0
-8.832519e-03 -2.722324e-04 0.0
-8.672044e-03 -2.977610e-04 0.0
-8.498106e-03 -3.229541e-04 0.0
-8.310910e-03 -3.477361e-04 0.0
-8.110695e-03 -3.720350e-04 0.0
-7.897745e-03 -3.957822e-04 0.0
-7.672381e-03 -4.189101e-04 0.0
-7.434971e-03 -4.413492e-04 0.0
-7.185931e-03 -4.630244e-04 0.0
-6.925725e-03 -4.838515e-04 0.0
-6.654877e-03 -5.037336e-04 0.0
-6.373968e-03 -5.225592e-04 0.0
-6.083653e-03 -5.401994e-04 0.0
-5.784660e-03 -5.565075e-04 0.0
-5.477807e-03 -5.713172e-04 0.0
-5.164006e-03 -5.844424e-04 0.0
-4.844277e-03 -5.956767e-04 0.0
-4.519760e-03 -6.047927e-04 0.0
-4.191724e-03 -6.115419e-04 0.0
-3.861578e-03 -6.156546e-04 0.0
-3.530887e-03 -6.168401e-04 0.0
-3.201377e-03 -6.147874e-04 0.0
-2.874944e-03 -6.091662e-04 0.0
-2.553665e-03 -5.996293e-04 0.0
-2.239799e-03 -5.858172e-04 0.0
-1.935785e-03 -5.673653e-04 0.0
-1.644237e-03 -5.439154e-04 0.0
-1.367925e-03 -5.151304e-04 0.0
-1.109744e-03 -4.807182e-04 0.0
-8.726659e-04 -4.404662e-04 0.0
-6.596576e-04 -3.942930e-04 0.0
-4.735634e-04 -3.423297e-04 0.0
-3.169211e-04 -2.850450e-04 0.0
-1.916919e-04 -2.234456e-04 0.0
-9.886684e-05 -1.593946e-04 0.0
-3.790330e-05 -9.611469e-05 0.0
-5.966379e-06 -3.896027e-05 0.0
3.067296e-06 3.436878e-06 0.0
0.000000e+00 1.755073e-05 0.0
0.000000e+00 -1.748303e-05 0.0
0.000000e+00 1.124058e-05 0.0
-3.468644e-06 -8.103725e-06 0.0
-3.169368e-05 3.346687e-05 0.0
-9.450964e-05 1.086219e-04 0.0
-1.965215e-04 1.996704e-04 0.0
-3.386756e-04 2.961220e-04 0.0
-5.193432e-04 3.923239e-04 0.0
-7.355420e-04 4.854079e-04 0.0
-9.839686e-04 5.737358e-04 0.0
-1.261623e-03 6.559208e-04 0.0
-1.565972e-03 7.304337e-04 0.0
-1.894746e-03 7.956931e-04 0.0
-2.245581e-03 8.504278e-04 0.0
-2.615698e-03 8.940694e-04 0.0
-3.001780e-03 9.269737e-04 0.0
-3.400087e-03 9.503713e-04 0.0
-3.806766e-03 9.660658e-04 0.0
-4.218224e-03 9.759859e-04 0.0
-4.631460e-03 9.817461e-04 0.0
-5.044227e-03 9.843494e-04 0.0
-5.455014e-03 9.841112e-04 0.0
-5.862848e-03 9.808032e-04 0.0
-6.267015e-03 9.739422e-04 0.0
-6.666792e-03 9.631133e-04 0.0
-7.061264e-03 9.482164e-04 0.0
-7.449274e-03 9.295651e-04 0.0
-7.829505e-03 9.078260e-04 0.0
-8.200627e-03 8.838408e-04 0.0
-8.561459e-03 8.584082e-04 0.0
-8.911083e-03 8.321056e-04 0.0
-9.248868e-03 8.052029e-04 0.0
-9.574421e-03 7.776820e-04 0.0
-9.887484e-03 7.493367e-04 0.0
-1.018783e-02 7.199047e-04 0.0
-1.047515e-02 6.891823e-04 0.0
-1.074909e-02 6.570895e-04 0.0
-1.100916e-02 6.236762e-04 0.0
-1.125487e-02 5.890825e-04 0.0
-1.148572e-02 5.534791e-04 0.0
-1.170125e-02 5.170124e-04 0.0
-1.190110e-02 4.797728e-04 0.0
-1.208493e-02 4.417899e-04 0.0
-1.225247e-02 4.030508e-04 0.0
-1.240345e-02 3.635282e-04 0.0
-1.253762e-02 3.232083e-04 0.0
-1.265471e-02 2.821080e-04 0.0
-1.275443e-02 2.402804e-04 0.0
-1.283651e-02 1.978076e-04 0.0
-1.290069e-02 1.547874e-04 0.0
-1.294673e-02 1.113177e-04 0.0
-1.297441e-02 6.748523e-05 0.0
-1.298359e-02 2.335914e-05 0.0
-1.297414e-02 -2.100703e-05 0.0
-1.294596e-02 -6.556720e-05 0.0
-1.289903e-02 -1.102941e-04 0.0
-1.283330e-02 -1.551643e-04 0.0
-1.274878e-02 -2.001466e-04 0.0
-1.264548e-02 -2.451953e-04 0.0
-1.252344e-02 -2.902458e-04 0.0
-1.238271e-02 -3.352158e-04 0.0
-1.222340e-02 -3.800087e-04 0.0
-1.204561e-02 -4.245186e-04 0.0
-1.184951e-02 -4.686357e-04 0.0
-1.163528e-02 -5.122503e-04 0.0
-1.140317e-02 -5.552553e-04 0.0
-1.115347e-02 -5.975465e-04 0.0
-1.088652e-02 -6.390202e-04 0.0
-1.060271e-02 -6.795703e-04 0.0
-1.030247e-02 -7.190841e-04 0.0
-9.986306e-03 -7.574380e-04 0.0
-9.654774e-03 -7.944933e-04 0.0
-9.308501e-03 -8.300926e-04 0.0
-8.948185e-03 -8.640577e-04 0.0
-8.574607e-03 -8.961863e-04 0.0
-8.188642e-03 -9.262507e-04 0.0
-7.791266e-03 -9.539964e-04 0.0
-7.383572e-03 -9.791397e-04 0.0
-6.966779e-03 -1.001367e-03 0.0
-6.542247e-03 -1.020334e-03 0.0
-6.111491e-03 -1.035660e-03 0.0
-5.676191e-03 -1.046935e-03 0.0
-5.238209e-03 -1.053711e-03 0.0
-4.799602e-03 -1.055508e-03 0.0
-4.362625e-03 -1.051812e-03 0.0
-3.929751e-03 -1.042084e-03 0.0
-3.503666e-03 -1.025757e-03 0.0
-3.087275e-03 -1.002255e-03 0.0
-2.683694e-03 -9.710005e-04 0.0
-2.296234e-03 -9.314397e-04 0.0
-1.928369e-03 -8.830687e-04 0.0
-1.583694e-03 -8.254762e-04 0.0
-1.265848e-03 -7.584021e-04 0.0
-9.784142e-04 -6.818230e-04 0.0
-7.247665e-04 -5.960775e-04 0.0
-5.078626e-04 -5.020511e-04 0.0
-3.299587e-04 -4.014521e-04 0.0
-1.922350e-04 -2.972222e-04 0.0
-9.431574e-05 -1.941369e-04 0.0
-3.370822e-05 -9.966999e-05 0.0
-5.166403e-06 -2.520629e-05 0.0
0.000000e+00 1.228370e-05 0.0
0.000000e+00 -1.218317e-05 0.0
0.000000e+00 -1.251088e-06 0.0
-9.833197e-06 1.035184e-05 0.0
-6.219460e-05 8.601767e-05 0.0
-1.590137e-04 2.002725e-04 0.0
-3.019853e-04 3.341222e-04 0.0
-4.903149e-04 4.759622e-04 0.0
-7.217085e-04 6.185806e-04 0.0
-9.933567e-04 7.572170e-04 0.0
-1.302565e-03 8.882840e-04 0.0
-1.646916e-03 1.008761e-03 0.0
-2.024054e-03 1.116125e-03 0.0
-2.431291e-03 1.208583e-03 0.0
-2.865287e-03 1.285369e-03 0.0
-3.321955e-03 1.346869e-03 0.0
-3.796650e-03 1.394490e-03 0.0
-4.284568e-03 1.430284e-03 0.0
-4.781223e-03 1.456446e-03 0.0
-5.282839e-03 1.474842e-03 0.0
-5.786538e-03 1.486707e-03 0.0
-6.290298e-03 1.492578e-03 0.0
-6.792713e-03 1.492462e-03 0.0
-7.292655e-03 1.486138e-03 0.0
-7.788966e-03 1.473490e-03 0.0
-8.280256e-03 1.454735e-03 0.0
-8.764876e-03 1.430499e-03 0.0
-9.241026e-03 1.401725e-03 0.0
-9.706948e-03 1.369470e-03 0.0
-1.016112e-02 1.334677e-03 0.0
-1.060236e-02 1.298006e-03 0.0
-1.102986e-02 1.259770e-03 0.0
-1.144310e-02 1.219983e-03 0.0
-1.184173e-02 1.178480e-03 0.0
-1.222538e-02 1.135064e-03 0.0
-1.259364e-02 1.089613e-03 0.0
-1.294596e-02 1.042139e-03 0.0
-1.328173e-02 9.927747e-04 0.0
-1.360029e-02 9.417205e-04 0.0
-1.390100e-02 8.891829e-04 0.0
-1.418330e-02 8.353203e-04 0.0
-1.444673e-02 7.802210e-04 0.0
-1.469087e-02 7.239101e-04 0.0
-1.491538e-02 6.663761e-04 0.0
-1.511992e-02 6.076047e-04 0.0
-1.530417e-02 5.476063e-04 0.0
-1.546776e-02 4.864298e-04 0.0
-1.561034e-02 4.241620e-04 0.0
-1.573155e-02 3.609163e-04 0.0
-1.583106e-02 2.968150e-04 0.0
-1.590857e-02 2.319738e-04 0.0
-1.596381e-02 1.664905e-04 0.0
-1.599657e-02 1.004424e-04 0.0
-1.600669e-02 3.389022e-05 0.0
-1.599405e-02 -3.311108e-05 0.0
-1.595855e-02 -1.005002e-04 0.0
-1.590014e-02 -1.682173e-04 0.0
-1.581878e-02 -2.361914e-04 0.0
-1.571444e-02 -3.043337e-04 0.0
-1.558714e-02 -3.725353e-04 0.0
-1.543691e-02 -4.406700e-04 0.0
-1.526382e-02 -5.085989e-04 0.0
-1.506799e-02 -5.761767e-04 0.0
-1.484956e-02 -6.432567e-04 0.0
-1.460874e-02 -7.096941e-04 0.0
-1.434579e-02 -7.753471e-04 0.0
-1.406102e-02 -8.400752e-04 0.0
-1.375481e-02 -9.037359e-04 0.0
-1.342757e-02 -9.661803e-04 0.0
-1.307979e-02 -1.027248e-03 0.0
-1.271201e-02 -1.086761e-03 0.0
-1.232486e-02 -1.144523e-03 0.0
-1.191902e-02 -1.200313e-03 0.0
-1.149526e-02 -1.253881e-03 0.0
-1.105444e-02 -1.304951e-03 0.0
-1.059752e-02 -1.353211e-03 0.0
-1.012558e-02 -1.398317e-03 0.0
-9.639820e-03 -1.439889e-03 0.0
-9.141577e-03 -1.477505e-03 0.0
-8.632348e-03 -1.510702e-03 0.0
-8.113795e-03 -1.538970e-03 0.0
-7.587763e-03 -1.561754e-03 0.0
-7.056293e-03 -1.578447e-03 0.0
-6.521637e-03 -1.588395e-03 0.0
-5.986270e-03 -1.590895e-03 0.0
-5.452900e-03 -1.585202e-03 0.0
-4.924475e-03 -1.570534e-03 0.0
-4.404186e-03 -1.546080e-03 0.0
-3.895465e-03 -1.511024e-03 0.0
-3.401966e-03 -1.464560e-03 0.0
-2.927549e-03 -1.405930e-03 0.0
-2.476232e-03 -1.334468e-03 0.0
-2.052138e-03 -1.249661e-03 0.0
-1.659406e-03 -1.151230e-03 0.0
-1.302072e-03 -1.039255e-03 0.0
-9.839143e-04 -9.143347e-04 0.0
-7.082430e-04 -7.778212e-04 0.0
-4.776440e-04 -6.321491e-04 0.0
-2.936683e-04 -4.812962e-04 0.0
-1.564823e-04 -3.314195e-04 0.0
-6.452909e-05 -1.917191e-04 0.0
-1.424967e-05 -7.558090e-05 0.0
0.000000e+00 -2.060636e-06 0.0
0.000000e+00 2.199549e-06 0.0
0.000000e+00 -2.417919e-05 0.0
-1.844138e-05 3.559195e-05 0.0
-9.550376e-05 1.584148e-04 0.0
-2.259684e-04 3.224039e-04 0.0
-4.086846e-04 5.083162e-04 0.0
-6.414394e-04 7.035156e-04 0.0
-9.216646e-04 8.990426e-04 0.0
-1.246943e-03 1.088126e-03 0.0
-1.615099e-03 1.265379e-03 0.0
-2.023913e-03 1.426593e-03 0.0
-2.470672e-03 1.568852e-03 0.0
-2.951799e-03 1.690717e-03 0.0
-3.462744e-03 1.792261e-03 0.0
-3.998208e-03 1.874832e-03 0.0
-4.552613e-03 1.940591e-03 0.0
-5.120661e-03 1.991930e-03 0.0
-5.697805e-03 2.030949e-03 0.0
-6.280492e-03 2.059123e-03 0.0
-6.866128e-03 2.077238e-03 0.0
-7.452817e-03 2.085567e-03 0.0
-8.038983e-03 2.084193e-03 0.0
-8.623022e-03 2.073341e-03 0.0
-9.203082e-03 2.053598e-03 0.0
-9.777033e-03 2.025966e-03 0.0
-1.034260e-02 1.991731e-03 0.0
-1.089758e-02 1.952235e-03 0.0
-1.144008e-02 1.908635e-03 0.0
-1.196860e-02 1.861738e-03 0.0
-1.248212e-02 1.811954e-03 0.0
-1.297993e-02 1.759374e-03 0.0
-1.346150e-02 1.703914e-03 0.0
-1.392636e-02 1.645470e-03 0.0
-1.437393e-02 1.584030e-03 0.0
-1.480352e-02 1.519716e-03 0.0
-1.521436e-02 1.452764e-03 0.0
-1.560565e-02 1.383451e-03 0.0
-1.597662e-02 1.312034e-03 0.0
-1.632660e-02 1.238698e-03 0.0
-1.665503e-02 1.163540e-03 0.0
-1.696140e-02 1.086592e-03 0.0
-1.724530e-02 1.007852e-03 0.0
-1.750631e-02 9.273243e-04 0.0
-1.774401e-02 8.450493e-04 0.0
-1.795797e-02 7.611104e-04 0.0
-1.814776e-02 6.756300e-04 0.0
-1.831294e-02 5.887532e-04 0.0
-1.845311e-02 5.006274e-04 0.0
-1.856790e-02 4.113859e-04 0.0
-1.865701e-02 3.211388e-04 0.0
-1.872017e-02 2.299728e-04 0.0
-1.875716e-02 1.379590e-04 0.0
-1.876783e-02 4.516546e-05 0.0
-1.875202e-02 -4.832704e-05 0.0
-1.870965e-02 -1.424150e-04 0.0
-1.864062e-02 -2.369802e-04 0.0
-1.854487e-02 -3.318846e-04 0.0
-1.842237e-02 -4.269697e-04 0.0
-1.827313e-02 -5.220611e-04 0.0
-1.809718e-02 -6.169746e-04 0.0
-1.789461e-02 -7.115229e-04 0.0
-1.766556e-02 -8.055200e-04 0.0
-1.741023e-02 -8.987839e-04 0.0
-1.712888e-02 -9.911352e-04 0.0
-1.682182e-02 -1.082394e-03 0.0
-1.648944e-02 -1.172377e-03 0.0
-1.613217e-02 -1.260888e-03 0.0
-1.575051e-02 -1.347715e-03 0.0
-1.534503e-02 -1.432625e-03 0.0
-1.491638e-02 -1.515361e-03 0.0
-1.446526e-02 -1.595635e-03 0.0
-1.399250e-02 -1.673129e-03 0.0
-1.349898e-02 -1.747491e-03 0.0
-1.298572e-02 -1.818330e-03 0.0
-1.245384e-02 -1.885217e-03 0.0
-1.190460e-02 -1.947676e-03 0.0
-1.133940e-02 -2.005185e-03 0.0
-1.075982e-02 -2.057168e-03 0.0
-1.016758e-02 -2.102992e-03 0.0
-9.564610e-03 -2.141963e-03 0.0
-8.953047e-03 -2.173324e-03 0.0
-8.335240e-03 -2.196251e-03 0.0
-7.713774e-03 -2.209857e-03 0.0
-7.091477e-03 -2.213194e-03 0.0
-6.471434e-03 -2.205260e-03 0.0
-5.856989e-03 -2.185009e-03 0.0
-5.251744e-03 -2.151373e-03 0.0
-4.659552e-03 -2.103278e-03 0.0
-4.084501e-03 -2.039686e-03 0.0
-3.530880e-03 -1.959637e-03 0.0
-3.003132e-03 -1.862308e-03 0.0
-2.505790e-03 -1.747098e-03 0.0
-2.043383e-03 -1.613733e-03 0.0
-1.620317e-03 -1.462416e-03 0.0
-1.240724e-03 -1.294021e-03 0.0
-9.082789e-04 -1.110358e-03 0.0
-6.259863e-04 -9.145315e-04 0.0
-3.959559e-04 -7.114163e-04 0.0
-2.191871e-04 -5.082768e-04 0.0
-9.542779e-05 -3.155664e-04 0.0
-2.317898e-05 -1.479175e-04 0.0
0.000000e+00 -2.532703e-05 0.0
0.000000e+00 2.550999e-05 0.0
0.000000e+00 -5.768182e-05 0.0
-2.918180e-05 6.647042e-05 0.0
-1.293196e-04 2.504115e-04 0.0
-2.909920e-04 4.754626e-04 0.0
-5.108374e-04 7.227031e-04 0.0
-7.857381e-04 9.784154e-04 0.0
-1.113081e-03 1.231947e-03 0.0
-1.490692e-03 1.474828e-03 0.0
-1.916439e-03 1.700451e-03 0.0
-2.387667e-03 1.904124e-03 0.0
-2.900744e-03 2.083171e-03 0.0
-3.450896e-03 2.236883e-03 0.0
-4.032413e-03 2.366195e-03 0.0
-4.639152e-03 2.473121e-03 0.0
-5.265152e-03 2.560087e-03 0.0
-5.905176e-03 2.629331e-03 0.0
-6.555013e-03 2.682527e-03 0.0
-7.211471e-03 2.720698e-03 0.0
-7.872121e-03 2.744391e-03 0.0
-8.534900e-03 2.754010e-03 0.0
-9.197736e-03 2.750148e-03 0.0
-9.858310e-03 2.733798e-03 0.0
-1.051402e-02 2.706379e-03 0.0
-1.116214e-02 2.669576e-03 0.0
-1.180004e-02 2.625082e-03 0.0
-1.242541e-02 2.574338e-03 0.0
-1.303646e-02 2.518368e-03 0.0
-1.363185e-02 2.457752e-03 0.0
-1.421066e-02 2.392719e-03 0.0
-1.477217e-02 2.323313e-03 0.0
-1.531571e-02 2.249567e-03 0.0
-1.584053e-02 2.171609e-03 0.0
-1.634578e-02 2.089698e-03 0.0
-1.683055e-02 2.004190e-03 0.0
-1.729389e-02 1.915460e-03 0.0
-1.773493e-02 1.823834e-03 0.0
-1.815288e-02 1.729538e-03 0.0
-1.854706e-02 1.632697e-03 0.0
-1.891691e-02 1.533363e-03 0.0
-1.926189e-02 1.431559e-03 0.0
-1.958150e-02 1.327318e-03 0.0
-1.987525e-02 1.220715e-03 0.0
-2.014261e-02 1.111873e-03 0.0
-2.038308e-02 1.000950e-03 0.0
-2.059615e-02 8.881231e-04 0.0
-2.078135e-02 7.735636e-04 0.0
-2.093827e-02 6.574225e-04 0.0
-2.106652e-02 5.398228e-04 0.0
-2.116579e-02 4.208624e-04 0.0
-2.123583e-02 3.006256e-04 0.0
-2.127642e-02 1.791985e-04 0.0
-2.128736e-02 5.668465e-05 0.0
-2.126851e-02 -6.678105e-05 0.0
-2.121972e-02 -1.910286e-04 0.0
-2.114088e-02 -3.158662e-04 0.0
-2.103191e-02 -4.410824e-04 0.0
-2.089278e-02 -5.664521e-04 0.0
-2.072348e-02 -6.917442e-04 0.0
-2.052408e-02 -8.167281e-04 0.0
-2.029468e-02 -9.411773e-04 0.0
-2.003548e-02 -1.064870e-03 0.0
-1.974670e-02 -1.187589e-03 0.0
-1.942865e-02 -1.309111e-03 0.0
-1.908171e-02 -1.429207e-03 0.0
-1.870631e-02 -1.547633e-03 0.0
-1.830294e-02 -1.664123e-03 0.0
-1.787218e-02 -1.778388e-03 0.0
-1.741466e-02 -1.890106e-03 0.0
-1.693112e-02 -1.998928e-03 0.0
-1.642236e-02 -2.104466e-03 0.0
-1.588930e-02 -2.206297e-03 0.0
-1.533295e-02 -2.303955e-03 0.0
-1.475447e-02 -2.396929e-03 0.0
-1.415512e-02 -2.484660e-03 0.0
-1.353634e-02 -2.566531e-03 0.0
-1.289970e-02 -2.641864e-03 0.0
-1.224696e-02 -2.709912e-03 0.0
-1.158008e-02 -2.769858e-03 0.0
-1.090122e-02 -2.820804e-03 0.0
-1.021274e-02 -2.861770e-03 0.0
-9.517277e-03 -2.891698e-03 0.0
-8.817682e-03 -2.909446e-03 0.0
-8.117086e-03 -2.913803e-03 0.0
-7.418884e-03 -2.903495e-03 0.0
-6.726745e-03 -2.877201e-03 0.0
-6.044606e-03 -2.833580e-03 0.0
-5.376665e-03 -2.771301e-03 0.0
-4.727353e-03 -2.689087e-03 0.0
-4.101304e-03 -2.585778e-03 0.0
-3.503303e-03 -2.460402e-03 0.0
-2.938215e-03 -2.312276e-03 0.0
-2.410900e-03 -2.141136e-03 0.0
-1.926094e-03 -1.947306e-03 0.0
-1.488284e-03 -1.731912e-03 0.0
-1.101552e-03 -1.497169e-03 0.0
-7.694218e-04 -1.246742e-03 0.0
-4.947100e-04 -9.862077e-04 0.0
-2.794353e-04 -7.236307e-04 0.0
-1.248251e-04 -4.702559e-04 0.0
-3.150582e-05 -2.413160e-04 0.0
0.000000e+00 -5.691192e-05 0.0
0.000000e+00 5.714407e-05 0.0
0.000000e+00 -1.006811e-04 0.0
-4.110310e-05 1.027836e-04 0.0
-1.613751e-04 3.618161e-04 0.0
-3.509360e-04 6.591006e-04 0.0
-6.050132e-04 9.762479e-04 0.0
-9.199771e-04 1.298513e-03 0.0
-1.293090e-03 1.613939e-03 0.0
-1.721949e-03 1.913033e-03 0.0
-2.203788e-03 2.188772e-03 0.0
-2.734895e-03 2.436698e-03 0.0
-3.310355e-03 2.654817e-03 0.0
-3.924198e-03 2.843218e-03 0.0
-4.569884e-03 3.003426e-03 0.0
-5.240945e-03 3.137645e-03 0.0
-5.931572e-03 3.248079e-03 0.0
-6.636960e-03 3.336492e-03 0.0
-7.353341e-03 3.404079e-03 0.0
-8.077739e-03 3.451635e-03 0.0
-8.807576e-03 3.479872e-03 0.0
-9.540287e-03 3.489752e-03 0.0
-1.027307e-02 3.482689e-03 0.0
-1.100286e-02 3.460544e-03 0.0
-1.172648e-02 3.425441e-03 0.0
-1.244087e-02 3.379476e-03 0.0
-1.314336e-02 3.324439e-03 0.0
-1.383180e-02 3.261645e-03 0.0
-1.450457e-02 3.191915e-03 0.0
-1.516047e-02 3.115685e-03 0.0
-1.579853e-02 3.033197e-03 0.0
-1.641786e-02 2.944669e-03 0.0
-1.701750e-02 2.850410e-03 0.0
-1.759644e-02 2.750851e-03 0.0
-1.815358e-02 2.646492e-03 0.0
-1.868786e-02 2.537829e-03 0.0
-1.919828e-02 2.425273e-03 0.0
-1.968394e-02 2.309115e-03 0.0
-2.014409e-02 2.189530e-03 0.0
-2.057805e-02 2.066608e-03 0.0
-2.098519e-02 1.940414e-03 0.0
-2.136491e-02 1.811025e-03 0.0
-2.171661e-02 1.678559e-03 0.0
-2.203970e-02 1.543184e-03 0.0
-2.233358e-02 1.405095e-03 0.0
-2.259767e-02 1.264502e-03 0.0
-2.283145e-02 1.121600e-03 0.0
-2.303444e-02 9.765566e-04 0.0
-2.320621e-02 8.295076e-04 0.0
-2.334639e-02 6.805645e-04 0.0
-2.345468e-02 5.298278e-04 0.0
-2.353080e-02 3.774055e-04 0.0
-2.357450e-02 2.234292e-04 0.0
-2.358556e-02 6.806696e-05 0.0
-2.356380e-02 -8.847086e-05 0.0
-2.350905e-02 -2.459369e-04 0.0
-2.342117e-02 -4.040654e-04 0.0
-2.330007e-02 -5.625801e-04 0.0
-2.314571e-02 -7.212028e-04 0.0
-2.295811e-02 -8.796591e-04 0.0
-2.273736e-02 -1.037682e-03 0.0
-2.248360e-02 -1.195008e-03 0.0
-2.219706e-02 -1.351379e-03 0.0
-2.187799e-02 -1.506527e-03 0.0
-2.152677e-02 -1.660177e-03 0.0
-2.114378e-02 -1.812031e-03 0.0
-2.072953e-02 -1.961768e-03 0.0
-2.028454e-02 -2.109040e-03 0.0
-1.980946e-02 -2.253467e-03 0.0
-1.930498e-02 -2.394633e-03 0.0
-1.877191e-02 -2.532086e-03 0.0
-1.821115e-02 -2.665336e-03 0.0
-1.762371e-02 -2.793847e-03 0.0
-1.701072e-02 -2.917036e-03 0.0
-1.637345e-02 -3.034265e-03 0.0
-1.571330e-02 -3.144833e-03 0.0
-1.503186e-02 -3.247972e-03 0.0
-1.433085e-02 -3.342837e-03 0.0
-1.361223e-02 -3.428495e-03 0.0