# vtk DataFile Version 3.0
Vector Field
ASCII
DATASET RECTILINEAR_GRID
DIMENSIONS 102 102 1
X_COORDINATES 102 double
0.000000 0.100000 0.200000 0.300000 0.400000 0.500000 0.600000 0.700000 0.800000 0.900000 1.000000 1.100000 1.200000 1.300000 1.400000 1.500000 1.600000 1.700000 1.800000 1.900000 2.000000 2.100000 2.200000 2.300000 2.400000 2.500000 2.600000 2.700000 2.800000 2.900000 3.000000 3.100000 3.200000 3.300000 3.400000 3.500000 3.600000 3.700000 3.800000 3.900000 4.000000 4.100000 4.200000 4.300000 4.400000 4.500000 4.600000 4.700000 4.800000 4.900000 5.000000 5.100000 5.200000 5.300000 5.400000 5.500000 5.600000 5.700000 5.800000 5.900000 6.000000 6.100000 6.200000 6.300000 6.400000 6.500000 6.600000 6.700000 6.800000 6.900000 7.000000 7.100000 7.200000 7.300000 7.400000 7.500000 7.600000 7.700000 7.800000 7.900000 8.000000 8.100000 8.200000 8.300000 8.400000 8.500000 8.600000 8.700000 8.800000 8.900000 9.000000 9.100000 9.200000 9.300000 9.400000 9.500000 9.600000 9.700000 9.800000 9.900000 10.000000 10.100000 
Y_COORDINATES 102 double
0.000000 0.100000 0.200000 0.300000 0.400000 0.500000 0.600000 0.700000 0.800000 0.900000 1.000000 1.100000 1.200000 1.300000 1.400000 1.500000 1.600000 1.700000 1.800000 1.900000 2.000000 2.100000 2.200000 2.300000 2.400000 2.500000 2.600000 2.700000 2.800000 2.900000 3.000000 3.100000 3.200000 3.300000 3.400000 3.500000 3.600000 3.700000 3.800000 3.900000 4.000000 4.100000 4.200000 4.300000 4.400000 4.500000 4.600000 4.700000 4.800000 4.900000 5.000000 5.100000 5.200000 5.300000 5.400000 5.500000 5.600000 5.700000 5.800000 5.900000 6.000000 6.100000 6.200000 6.300000 6.400000 6.500000 6.600000 6.700000 6.800000 6.900000 7.000000 7.100000 7.200000 7.300000 7.400000 7.500000 7.600000 7.700000 7.800000 7.900000 8.000000 8.100000 8.200000 8.300000 8.400000 8.500000 8.600000 8.700000 8.800000 8.900000 9.000000 9.100000 9.200000 9.300000 9.400000 9.500000 9.600000 9.700000 9.800000 9.900000 10.000000 10.100000 
Z_COORDINATES 1 double
0.0
POINT_DATA 10404
VECTORS Velocity double
0.000000e+00 0.000000e+00 0.0
-1.681361e-05 0.000000e+00 0.0
-1.373640e-05 0.000000e+00 0.0
-1.007810e-05 0.000000e+00 0.0
-5.885217e-06 0.000000e+00 0.0
-8.131895e-08 0.000000e+00 0.0
1.011402e-05 0.000000e+00 0.0
2.819156e-05 0.000000e+00 0.0
5.690674e-05 0.000000e+00 0.0
9.724309e-05 0.000000e+00 0.0
1.482145e-04 0.000000e+00 0.0
2.074402e-04 0.000000e+00 0.0
2.721048e-04 0.000000e+00 0.0
3.398504e-04 0.000000e+00 0.0
4.092849e-04 0.000000e+00 0.0
4.800197e-04 0.000000e+00 0.0
5.523499e-04 0.000000e+00 0.0
6.267874e-04 0.000000e+00 0.0
7.036536e-04 0.000000e+00 0.0
7.828587e-04 0.000000e+00 0.0
8.638921e-04 0.000000e+00 0.0
9.459703e-04 0.000000e+00 0.0
1.028247e-03 0.000000e+00 0.0
1.109998e-03 0.000000e+00 0.0
1.190723e-03 0.000000e+00 0.0
1.270156e-03 0.000000e+00 0.0
1.348201e-03 0.000000e+00 0.0
1.424838e-03 0.000000e+00 0.0
1.500041e-03 0.000000e+00 0.0
1.573726e-03 0.000000e+00 0.0
1.645737e-03 0.000000e+00 0.0
1.715862e-03 0.000000e+00 0.0
1.783862e-03 0.000000e+00 0.0
1.849499e-03 0.000000e+00 0.0
1.912553e-03 0.000000e+00 0.0
1.972828e-03 0.000000e+00 0.0
2.030156e-03 0.000000e+00 0.0
2.084393e-03 0.000000e+00 0.0
2.135414e-03 0.000000e+00 0.0
2.183115e-03 0.000000e+00 0.0
2.227405e-03 0.000000e+00 0.0
2.268200e-03 0.000000e+00 0.0
2.305414e-03 0.000000e+00 0.0
2.338954e-03 0.000000e+00 0.0
2.368711e-03 0.000000e+00 0.0
2.394560e-03 0.000000e+00 0.0
2.416360e-03 0.000000e+00 0.0
2.433965e-03 0.000000e+00 0.0
2.447229e-03 0.000000e+00 0.0
2.456022e-03 0.000000e+00 0.0
2.460238e-03 0.000000e+00 0.0
2.459802e-03 0.000000e+00 0.0
2.454683e-03 0.000000e+00 0.0
2.444886e-03 0.000000e+00 0.0
2.430442e-03 0.000000e+00 0.0
2.411396e-03 0.000000e+00 0.0
2.387796e-03 0.000000e+00 0.0
2.359689e-03 0.000000e+00 0.0
2.327116e-03 0.000000e+00 0.0
2.290117e-03 0.000000e+00 0.0
2.248736e-03 0.000000e+00 0.0
2.203031e-03 0.000000e+00 0.0
2.153086e-03 0.000000e+00 0.0
2.099011e-03 0.000000e+00 0.0
2.040948e-03 0.000000e+00 0.0
1.979072e-03 0.000000e+00 0.0
1.913582e-03 0.000000e+00 0.0
1.844700e-03 0.000000e+00 0.0
1.772667e-03 0.000000e+00 0.0
1.697738e-03 0.000000e+00 0.0
1.620184e-03 0.000000e+00 0.0
1.540292e-03 0.000000e+00 0.0
1.458368e-03 0.000000e+00 0.0
1.374736e-03 0.000000e+00 0.0
1.289740e-03 0.000000e+00 0.0
1.203748e-03 0.000000e+00 0.0
1.117144e-03 0.000000e+00 0.0
1.030333e-03 0.000000e+00 0.0
9.437364e-04 0.000000e+00 0.0
8.577908e-04 0.000000e+00 0.0
7.729483e-04 0.000000e+00 0.0
6.896752e-04 0.000000e+00 0.0
6.084516e-04 0.000000e+00 0.0
5.297707e-04 0.000000e+00 0.0
4.541380e-04 0.000000e+00 0.0
3.820697e-04 0.000000e+00 0.0
3.140910e-04 0.000000e+00 0.0
2.507330e-04 0.000000e+00 0.0
1.925293e-04 0.000000e+00 0.0
1.400100e-04 0.000000e+00 0.0
9.369417e-05 0.000000e+00 0.0
5.407762e-05 0.000000e+00 0.0
2.161530e-05 0.000000e+00 0.0
-3.308443e-06 0.000000e+00 0.0
-2.042758e-05 0.000000e+00 0.0
-2.967576e-05 0.000000e+00 0.0
-3.133193e-05 0.000000e+00 0.0
-2.627962e-05 0.000000e+00 0.0
-1.646686e-05 0.000000e+00 0.0
-5.645123e-06 0.000000e+00 0.0
-0.000000e+00 0.000000e+00 0.0
0.000000e+00 0.000000e+00 0.0
0.000000e+00 -3.820235e-06 0.0
-1.180118e-05 -2.498201e-05 0.0
8.270242e-06 -1.544793e-05 0.0
2.654509e-05 -2.382007e-07 0.0
3.423005e-05 1.431424e-05 0.0
2.730932e-05 2.388528e-05 0.0
5.840705e-06 2.822576e-05 0.0
-2.742676e-05 2.960966e-05 0.0
-6.879332e-05 3.101719e-05 0.0
-1.151260e-04 3.465450e-05 0.0
-1.647071e-04 4.121330e-05 0.0
-2.173005e-04 4.992944e-05 0.0
-2.736360e-04 5.919490e-05 0.0
-3.346674e-04 6.734181e-05 0.0
-4.009455e-04 7.325964e-05 0.0
-4.723069e-04 7.666151e-05 0.0
-5.479079e-04 7.799402e-05 0.0
-6.265003e-04 7.811455e-05 0.0
-7.067890e-04 7.790861e-05 0.0
-7.877238e-04 7.799546e-05 0.0
-8.686433e-04 7.859959e-05 0.0
-9.492601e-04 7.958853e-05 0.0
-1.029535e-03 8.061996e-05 0.0
-1.109512e-03 8.131840e-05 0.0
-1.189183e-03 8.141379e-05 0.0
-1.268419e-03 8.080565e-05 0.0
-1.346961e-03 7.955261e-05 0.0
-1.424471e-03 7.781378e-05 0.0
-1.500591e-03 7.577698e-05 0.0
-1.574987e-03 7.360218e-05 0.0
-1.647383e-03 7.139296e-05 0.0
-1.717558e-03 6.919403e-05 0.0
-1.785339e-03 6.700359e-05 0.0
-1.850586e-03 6.478922e-05 0.0
-1.913186e-03 6.250015e-05 0.0
-1.973041e-03 6.007553e-05 0.0
-2.030065e-03 5.745155e-05 0.0
-2.084175e-03 5.457059e-05 0.0
-2.135280e-03 5.139318e-05 0.0
-2.183267e-03 4.790984e-05 0.0
-2.227996e-03 4.414848e-05 0.0
-2.269298e-03 4.017346e-05 0.0
-2.306984e-03 3.607467e-05 0.0
-2.340856e-03 3.194872e-05 0.0
-2.370727e-03 2.787673e-05 0.0
-2.396440e-03 2.390481e-05 0.0
-2.417873e-03 2.003280e-05 0.0
-2.434950e-03 1.621459e-05 0.0
-2.447631e-03 1.237033e-05 0.0
-2.455901e-03 8.407504e-06 0.0
-2.459755e-03 4.245499e-06 0.0
-2.459183e-03 -1.620649e-07 0.0
-2.454164e-03 -4.811678e-06 0.0
-2.444661e-03 -9.656457e-06 0.0
-2.430625e-03 -1.461906e-05 0.0
-2.411999e-03 -1.960723e-05 0.0
-2.388742e-03 -2.453328e-05 0.0
-2.360833e-03 -2.933053e-05 0.0
-2.328289e-03 -3.396220e-05 0.0
-2.291166e-03 -3.842111e-05 0.0
-2.249554e-03 -4.272165e-05 0.0
-2.203572e-03 -4.688764e-05 0.0
-2.153358e-03 -5.094008e-05 0.0
-2.099065e-03 -5.488831e-05 0.0
-2.040853e-03 -5.872635e-05 0.0
-1.978895e-03 -6.243419e-05 0.0
-1.913374e-03 -6.598261e-05 0.0
-1.844488e-03 -6.933912e-05 0.0
-1.772457e-03 -7.247308e-05 0.0
-1.697524e-03 -7.535852e-05 0.0
-1.619955e-03 -7.797459e-05 0.0
-1.540041e-03 -8.030396e-05 0.0
-1.458092e-03 -8.233051e-05 0.0
-1.374440e-03 -8.403716e-05 0.0
-1.289433e-03 -8.540465e-05 0.0
-1.203438e-03 -8.641148e-05 0.0
-1.116837e-03 -8.703486e-05 0.0
-1.030031e-03 -8.725209e-05 0.0
-9.434370e-04 -8.704211e-05 0.0
-8.574888e-04 -8.638620e-05 0.0
-7.726380e-04 -8.526815e-05 0.0
-6.893521e-04 -8.367426e-05 0.0
-6.081140e-04 -8.159295e-05 0.0
-5.294204e-04 -7.901418e-05 0.0
-4.537797e-04 -7.592895e-05 0.0
-3.817105e-04 -7.232924e-05 0.0
-3.137390e-04 -6.820810e-05 0.0
-2.503963e-04 -6.356033e-05 0.0
-1.922150e-04 -5.838377e-05 0.0
-1.397235e-04 -5.268118e-05 0.0
-9.343919e-05 -4.646295e-05 0.0
-5.385632e-05 -3.975127e-05 0.0
-2.142828e-05 -3.258684e-05 0.0
3.461883e-06 -2.503960e-05 0.0
2.054903e-05 -1.722768e-05 0.0
2.976760e-05 -9.351780e-06 0.0
3.139781e-05 -1.756641e-06 0.0
2.632510e-05 4.953301e-06 0.0
1.650003e-05 9.708730e-06 0.0
5.673068e-06 1.071248e-05 0.0
0.000000e+00 5.558798e-06 0.0
0.000000e+00 -5.645396e-06 0.0
0.000000e+00 1.909531e-05 0.0
4.429133e-06 -2.465529e-05 0.0
2.434717e-05 -1.629544e-05 0.0
2.999583e-05 5.221283e-06 0.0
1.371654e-05 3.052571e-05 0.0
-2.717771e-05 5.534573e-05 0.0
-9.186852e-05 7.918602e-05 0.0
-1.779176e-04 1.032854e-04 0.0
-2.827564e-04 1.287831e-04 0.0
-4.044936e-04 1.557551e-04 0.0
-5.420463e-04 1.831276e-04 0.0
-6.948163e-04 2.091856e-04 0.0
-8.622123e-04 2.322764e-04 0.0
-1.043272e-03 2.513645e-04 0.0
-1.236518e-03 2.662539e-04 0.0
-1.440041e-03 2.774753e-04 0.0
-1.651746e-03 2.859568e-04 0.0
-1.869610e-03 2.926457e-04 0.0
-2.091891e-03 2.982232e-04 0.0
-2.317204e-03 3.029835e-04 0.0
-2.544488e-03 3.068750e-04 0.0
-2.772908e-03 3.096470e-04 0.0
-3.001721e-03 3.110216e-04 0.0
-3.230191e-03 3.108262e-04 0.0
-3.457539e-03 3.090517e-04 0.0
-3.682950e-03 3.058372e-04 0.0
-3.905606e-03 3.014094e-04 0.0
-4.124727e-03 2.960098e-04 0.0
-4.339600e-03 2.898411e-04 0.0
-4.549581e-03 2.830417e-04 0.0
-4.754096e-03 2.756865e-04 0.0
-4.952624e-03 2.678019e-04 0.0
-5.144688e-03 2.593821e-04 0.0
-5.329845e-03 2.504011e-04 0.0
-5.507684e-03 2.408199e-04 0.0
-5.677820e-03 2.305929e-04 0.0
-5.839882e-03 2.196785e-04 0.0
-5.993504e-03 2.080522e-04 0.0
-6.138311e-03 1.957205e-04 0.0
-6.273910e-03 1.827293e-04 0.0
-6.399894e-03 1.691625e-04 0.0
-6.515845e-03 1.551291e-04 0.0
-6.621350e-03 1.407414e-04 0.0
-6.716019e-03 1.260909e-04 0.0
-6.799497e-03 1.112280e-04 0.0
-6.871474e-03 9.615233e-05 0.0
-6.931688e-03 8.081742e-05 0.0
-6.979915e-03 6.514748e-05 0.0
-7.015958e-03 4.906307e-05 0.0
-7.039642e-03 3.250831e-05 0.0
-7.050797e-03 1.547284e-05 0.0
-7.049266e-03 -1.995895e-06 0.0
-7.034905e-03 -1.979128e-05 0.0
-7.007595e-03 -3.777765e-05 0.0
-6.967252e-03 -5.581649e-05 0.0
-6.913832e-03 -7.378312e-05 0.0
-6.847346e-03 -9.157973e-05 0.0
-6.767863e-03 -1.091403e-04 0.0
-6.675514e-03 -1.264260e-04 0.0
-6.570482e-03 -1.434146e-04 0.0
-6.453005e-03 -1.600863e-04 0.0
-6.323367e-03 -1.764121e-04 0.0
-6.181895e-03 -1.923462e-04 0.0
-6.028959e-03 -2.078254e-04 0.0
-5.864978e-03 -2.227721e-04 0.0
-5.690420e-03 -2.371006e-04 0.0
-5.505809e-03 -2.507235e-04 0.0
-5.311723e-03 -2.635566e-04 0.0
-5.108801e-03 -2.755204e-04 0.0
-4.897742e-03 -2.865402e-04 0.0
-4.679300e-03 -2.965436e-04 0.0
-4.454286e-03 -3.054581e-04 0.0
-4.223565e-03 -3.132099e-04 0.0
-3.988055e-03 -3.197228e-04 0.0
-3.748726e-03 -3.249197e-04 0.0
-3.506600e-03 -3.287238e-04 0.0
-3.262749e-03 -3.310608e-04 0.0
-3.018296e-03 -3.318606e-04 0.0
-2.774410e-03 -3.310588e-04 0.0
-2.532304e-03 -3.285961e-04 0.0
-2.293234e-03 -3.244178e-04 0.0
-2.058497e-03 -3.184736e-04 0.0
-1.829424e-03 -3.107176e-04 0.0
-1.607376e-03 -3.011085e-04 0.0
-1.393739e-03 -2.896108e-04 0.0
-1.189920e-03 -2.761959e-04 0.0
-9.973335e-04 -2.608449e-04 0.0
-8.173935e-04 -2.435522e-04 0.0
-6.514991e-04 -2.243304e-04 0.0
-5.010131e-04 -2.032179e-04 0.0
-3.672346e-04 -1.802893e-04 0.0
-2.513583e-04 -1.556719e-04 0.0
-1.544155e-04 -1.295703e-04 0.0
-7.718712e-05 -1.023050e-04 0.0
-2.007427e-05 -7.437524e-05 0.0
1.709941e-05 -4.655881e-05 0.0
3.538493e-05 -2.007348e-05 0.0
3.713985e-05 3.167068e-06 0.0
2.663318e-05 2.018304e-05 0.0
1.078188e-05 2.653059e-05 0.0
0.000000e+00 1.630672e-05 0.0
0.000000e+00 -1.639301e-05 0.0
0.000000e+00 3.569293e-05 0.0
1.270437e-05 -1.896705e-05 0.0
1.767165e-05 -1.010589e-05 0.0
-1.318456e-06 2.378105e-05 0.0
-5.011260e-05 6.968112e-05 0.0
-1.302811e-04 1.221212e-04 0.0
-2.411205e-04 1.785976e-04 0.0
-3.812810e-04 2.376956e-04 0.0
-5.496134e-04 2.977964e-04 0.0
-7.452898e-04 3.567541e-04 0.0
-9.674836e-04 4.122268e-04 0.0
-1.214955e-03 4.622446e-04 0.0
-1.485797e-03 5.056547e-04 0.0
-1.777442e-03 5.422588e-04 0.0
-2.086888e-03 5.726383e-04 0.0
-2.411031e-03 5.977891e-04 0.0
-2.746962e-03 6.187300e-04 0.0
-3.092158e-03 6.362175e-04 0.0
-3.444522e-03 6.506333e-04 0.0
-3.802303e-03 6.620326e-04 0.0
-4.163969e-03 6.702925e-04 0.0
-4.528070e-03 6.752802e-04 0.0
-4.893165e-03 6.769764e-04 0.0
-5.257792e-03 6.755211e-04 0.0
-5.620502e-03 6.711899e-04 0.0
-5.979905e-03 6.643274e-04 0.0
-6.334715e-03 6.552737e-04 0.0
-6.683765e-03 6.443123e-04 0.0
-7.026007e-03 6.316502e-04 0.0
-7.360490e-03 6.174233e-04 0.0
-7.686335e-03 6.017149e-04 0.0
-8.002724e-03 5.845733e-04 0.0
-8.308886e-03 5.660229e-04 0.0
-8.604098e-03 5.460705e-04 0.0
-8.887672e-03 5.247107e-04 0.0
-9.158952e-03 5.019373e-04 0.0
-9.417295e-03 4.777583e-04 0.0
-9.662056e-03 4.522117e-04 0.0
-9.892586e-03 4.253745e-04 0.0
-1.010823e-02 3.973605e-04 0.0
-1.030833e-02 3.683049e-04 0.0
-1.049227e-02 3.383403e-04 0.0
-1.065944e-02 3.075705e-04 0.0
-1.080932e-02 2.760519e-04 0.0
-1.094142e-02 2.437871e-04 0.0
-1.105530e-02 2.107348e-04 0.0
-1.115057e-02 1.768331e-04 0.0
-1.122687e-02 1.420282e-04 0.0
-1.128386e-02 1.063037e-04 0.0
-1.132119e-02 6.969973e-05 0.0
-1.133855e-02 3.232024e-05 0.0
-1.133566e-02 -5.672462e-06 0.0
-1.131228e-02 -4.407122e-05 0.0
-1.126823e-02 -8.266918e-05 0.0
-1.120342e-02 -1.212865e-04 0.0
-1.111785e-02 -1.597768e-04 0.0
-1.101157e-02 -1.980260e-04 0.0
-1.088475e-02 -2.359424e-04 0.0
-1.073761e-02 -2.734425e-04 0.0
-1.057043e-02 -3.104365e-04 0.0
-1.038359e-02 -3.468178e-04 0.0
-1.017751e-02 -3.824582e-04 0.0
-9.952699e-03 -4.172098e-04 0.0
-9.709723e-03 -4.509105e-04 0.0
-9.449247e-03 -4.833912e-04 0.0
-9.172017e-03 -5.144821e-04 0.0
-8.878872e-03 -5.440167e-04 0.0
-8.570738e-03 -5.718321e-04 0.0
-8.248633e-03 -5.977681e-04 0.0
-7.913662e-03 -6.216647e-04 0.0
-7.567018e-03 -6.433605e-04 0.0
-7.209977e-03 -6.626915e-04 0.0
-6.843901e-03 -6.794922e-04 0.0
-6.470235e-03 -6.935975e-04 0.0
-6.090508e-03 -7.048452e-04 0.0
-5.706331e-03 -7.130783e-04 0.0
-5.319393e-03 -7.181473e-04 0.0
-4.931460e-03 -7.199114e-04 0.0
-4.544369e-03 -7.182392e-04 0.0
-4.160026e-03 -7.130081e-04 0.0
-3.780397e-03 -7.041032e-04 0.0
-3.407503e-03 -6.914181e-04 0.0
-3.043414e-03 -6.748566e-04 0.0
-2.690241e-03 -6.543349e-04 0.0
-2.350125e-03 -6.297850e-04 0.0
-2.025222e-03 -6.011592e-04 0.0
-1.717692e-03 -5.684361e-04 0.0
-1.429674e-03 -5.316292e-04 0.0
-1.163263e-03 -4.907978e-04 0.0
-9.204682e-04 -4.460634e-04 0.0
-7.031709e-04 -3.976325e-04 0.0
-5.130539e-04 -3.458303e-04 0.0
-3.515114e-04 -2.911504e-04 0.0
-2.195220e-04 -2.343293e-04 0.0
-1.174731e-04 -1.764579e-04 0.0
-4.491735e-05 -1.191479e-04 0.0
-2.430762e-07 -6.477968e-05 0.0
1.974856e-05 -1.685809e-05 0.0
2.038702e-05 1.951053e-05 0.0
9.800048e-06 3.708277e-05 0.0
0.000000e+00 2.607134e-05 0.0
0.000000e+00 -2.615625e-05 0.0
0.000000e+00 3.879035e-05 0.0
1.332603e-05 -9.795809e-06 0.0
-5.300402e-06 8.405765e-06 0.0
-5.550939e-05 6.426588e-05 0.0
-1.410041e-04 1.418521e-04 0.0
-2.629446e-04 2.332055e-04 0.0
-4.216141e-04 3.326191e-04 0.0
-6.172113e-04 4.353617e-04 0.0
-8.498778e-04 5.370963e-04 0.0
-1.119297e-03 6.340076e-04 0.0
-1.424261e-03 7.231919e-04 0.0
-1.762467e-03 8.029510e-04 0.0
-2.130655e-03 8.728022e-04 0.0
-2.524968e-03 9.332029e-04 0.0
-2.941416e-03 9.851143e-04 0.0
-3.376260e-03 1.029568e-03 0.0
-3.826223e-03 1.067363e-03 0.0
-4.288521e-03 1.098952e-03 0.0
-4.760755e-03 1.124494e-03 0.0
-5.240741e-03 1.144000e-03 0.0
-5.726362e-03 1.157508e-03 0.0
-6.215489e-03 1.165185e-03 0.0
-6.705976e-03 1.167367e-03 0.0
-7.195714e-03 1.164516e-03 0.0
-7.682702e-03 1.157147e-03 0.0
-8.165099e-03 1.145746e-03 0.0
-8.641247e-03 1.130721e-03 0.0
-9.109652e-03 1.112387e-03 0.0
-9.568957e-03 1.090979e-03 0.0
-1.001791e-02 1.066669e-03 0.0
-1.045532e-02 1.039593e-03 0.0
-1.088009e-02 1.009857e-03 0.0
-1.129116e-02 9.775412e-04 0.0
-1.168754e-02 9.427080e-04 0.0
-1.206827e-02 9.054112e-04 0.0
-1.243243e-02 8.657136e-04 0.0
-1.277910e-02 8.237046e-04 0.0
-1.310738e-02 7.795098e-04 0.0
-1.341635e-02 7.332871e-04 0.0
-1.370512e-02 6.852090e-04 0.0
-1.397286e-02 6.354353e-04 0.0
-1.421877e-02 5.840869e-04 0.0
-1.444213e-02 5.312287e-04 0.0
-1.464229e-02 4.768691e-04 0.0
-1.481866e-02 4.209768e-04 0.0
-1.497067e-02 3.635101e-04 0.0
-1.509780e-02 3.044506e-04 0.0
-1.519952e-02 2.438317e-04 0.0
-1.527532e-02 1.817543e-04 0.0
-1.532473e-02 1.183877e-04 0.0
-1.534730e-02 5.395674e-05 0.0
-1.534265e-02 -1.127761e-05 0.0
-1.531049e-02 -7.703639e-05 0.0
-1.525065e-02 -1.430677e-04 0.0
-1.516305e-02 -2.091608e-04 0.0
-1.504771e-02 -2.751367e-04 0.0
-1.490476e-02 -3.408325e-04 0.0
-1.473442e-02 -4.060837e-04 0.0
-1.453697e-02 -4.707095e-04 0.0
-1.431281e-02 -5.345042e-04 0.0
-1.406241e-02 -5.972358e-04 0.0
-1.378631e-02 -6.586505e-04 0.0
-1.348519e-02 -7.184807e-04 0.0
-1.315983e-02 -7.764522e-04 0.0
-1.281110e-02 -8.322905e-04 0.0
-1.244003e-02 -8.857225e-04 0.0
-1.204773e-02 -9.364765e-04 0.0
-1.163545e-02 -9.842800e-04 0.0
-1.120454e-02 -1.028858e-03 0.0
-1.075648e-02 -1.069930e-03 0.0
-1.029285e-02 -1.107214e-03 0.0
-9.815352e-03 -1.140426e-03 0.0
-9.325785e-03 -1.169284e-03 0.0
-8.826074e-03 -1.193511e-03 0.0
-8.318250e-03 -1.212839e-03 0.0
-7.804452e-03 -1.227011e-03 0.0
-7.286921e-03 -1.235780e-03 0.0
-6.767995e-03 -1.238913e-03 0.0
-6.250104e-03 -1.236190e-03 0.0
-5.735759e-03 -1.227405e-03 0.0
-5.227549e-03 -1.212366e-03 0.0
-4.728127e-03 -1.190897e-03 0.0
-4.240205e-03 -1.162843e-03 0.0
-3.766537e-03 -1.128072e-03 0.0
-3.309905e-03 -1.086488e-03 0.0
-2.873100e-03 -1.038034e-03 0.0
-2.458899e-03 -9.827023e-04 0.0
-2.070034e-03 -9.205534e-04 0.0
-1.709153e-03 -8.517317e-04 0.0
-1.378770e-03 -7.764933e-04 0.0
-1.081200e-03 -6.952441e-04 0.0
-8.184750e-04 -6.085930e-04 0.0
-5.922330e-04 -5.174282e-04 0.0
-4.035710e-04 -4.230260e-04 0.0
-2.528580e-04 -3.272059e-04 0.0
-1.394919e-04 -2.325494e-04 0.0
-6.159913e-05 -1.427069e-04 0.0
-1.567659e-05 -6.281711e-05 0.0
3.851053e-06 -5.366494e-08 0.0
5.180231e-06 3.571665e-05 0.0
0.000000e+00 3.121410e-05 0.0
0.000000e+00 -3.129443e-05 0.0
0.000000e+00 2.639456e-05 0.0
5.947689e-06 1.618315e-06 0.0
-3.862190e-05 4.328459e-05 0.0
-1.214713e-04 1.335024e-04 0.0
-2.447914e-04 2.542284e-04 0.0
-4.100240e-04 3.942045e-04 0.0
-6.186330e-04 5.442064e-04 0.0
-8.719558e-04 6.964762e-04 0.0
-1.170631e-03 8.446829e-04 0.0
-1.514030e-03 9.841523e-04 0.0
-1.900019e-03 1.111998e-03 0.0
-2.325114e-03 1.226978e-03 0.0
-2.784964e-03 1.329090e-03 0.0
-3.274929e-03 1.419028e-03 0.0
-3.790569e-03 1.497680e-03 0.0
-4.327932e-03 1.565782e-03 0.0
-4.883601e-03 1.623786e-03 0.0
-5.454576e-03 1.671905e-03 0.0
-6.038078e-03 1.710262e-03 0.0
-6.631379e-03 1.739050e-03 0.0
-7.231713e-03 1.758636e-03 0.0
-7.836281e-03 1.769572e-03 0.0
-8.442323e-03 1.772545e-03 0.0
-9.047213e-03 1.768280e-03 0.0
-9.648531e-03 1.757453e-03 0.0
-1.024409e-02 1.740643e-03 0.0
-1.083192e-02 1.718316e-03 0.0
-1.141024e-02 1.690842e-03 0.0
-1.197738e-02 1.658523e-03 0.0
-1.253178e-02 1.621618e-03 0.0
-1.307197e-02 1.580347e-03 0.0
-1.359657e-02 1.534899e-03 0.0
-1.410425e-02 1.485435e-03 0.0
-1.459375e-02 1.432098e-03 0.0
-1.506387e-02 1.375033e-03 0.0
-1.551340e-02 1.314405e-03 0.0
-1.594117e-02 1.250408e-03 0.0
-1.634602e-02 1.183264e-03 0.0
-1.672681e-02 1.113196e-03 0.0
-1.708250e-02 1.040403e-03 0.0
-1.741207e-02 9.650300e-04 0.0
-1.771465e-02 8.871567e-04 0.0
-1.798939e-02 8.068023e-04 0.0
-1.823555e-02 7.239509e-04 0.0
-1.845240e-02 6.385880e-04 0.0
-1.863924e-02 5.507377e-04 0.0
-1.879537e-02 4.604908e-04 0.0
-1.892011e-02 3.680155e-04 0.0
-1.901281e-02 2.735506e-04 0.0
-1.907285e-02 1.773865e-04 0.0
-1.909971e-02 7.984001e-05 0.0
-1.909298e-02 -1.876487e-05 0.0
-1.905235e-02 -1.181053e-04 0.0
-1.897765e-02 -2.178919e-04 0.0
-1.886883e-02 -3.178659e-04 0.0
-1.872595e-02 -4.177769e-04 0.0
-1.854917e-02 -5.173631e-04 0.0
-1.833873e-02 -6.163359e-04 0.0
-1.809501e-02 -7.143746e-04 0.0
-1.781844e-02 -8.111276e-04 0.0
-1.750960e-02 -9.062198e-04 0.0
-1.716918e-02 -9.992622e-04 0.0
-1.679800e-02 -1.089859e-03 0.0
-1.639704e-02 -1.177613e-03 0.0
-1.596739e-02 -1.262125e-03 0.0
-1.551030e-02 -1.342992e-03 0.0
-1.502717e-02 -1.419809e-03 0.0
-1.451950e-02 -1.492159e-03 0.0
-1.398898e-02 -1.559622e-03 0.0
-1.343739e-02 -1.621771e-03 0.0
-1.286667e-02 -1.678179e-03 0.0
-1.227890e-02 -1.728421e-03 0.0
-1.167630e-02 -1.772082e-03 0.0
-1.106121e-02 -1.808754e-03 0.0
-1.043612e-02 -1.838045e-03 0.0
-9.803644e-03 -1.859576e-03 0.0
-9.166504e-03 -1.872983e-03 0.0
-8.527549e-03 -1.877921e-03 0.0
-7.889729e-03 -1.874063e-03 0.0
-7.256089e-03 -1.861105e-03 0.0
-6.629761e-03 -1.838764e-03 0.0
-6.013947e-03 -1.806787e-03 0.0
-5.411914e-03 -1.764957e-03 0.0
-4.826966e-03 -1.713100e-03 0.0
-4.262432e-03 -1.651099e-03 0.0
-3.721636e-03 -1.578899e-03 0.0
-3.207868e-03 -1.496531e-03 0.0
-2.724344e-03 -1.404131e-03 0.0
-2.274155e-03 -1.301966e-03 0.0
-1.860215e-03 -1.190476e-03 0.0
-1.485175e-03 -1.070323e-03 0.0
-1.151337e-03 -9.424696e-04 0.0
-8.605282e-04 -8.082741e-04 0.0
-6.139622e-04 -6.696301e-04 0.0
-4.120530e-04 -5.291539e-04 0.0
-2.542039e-04 -3.904377e-04 0.0
-1.385580e-04 -2.583910e-04 0.0
-6.172252e-05 -1.396924e-04 0.0
-1.844627e-05 -4.336929e-05 0.0
-1.257332e-06 1.848829e-05 0.0
0.000000e+00 2.991690e-05 0.0
0.000000e+00 -2.998966e-05 0.0
0.000000e+00 4.592494e-07 0.0
-7.587967e-06 1.597806e-05 0.0
-7.656831e-05 9.807896e-05 0.0
-1.909300e-04 2.361598e-04 0.0
-3.521533e-04 4.107340e-04 0.0
-5.621632e-04 6.072252e-04 0.0
-8.231053e-04 8.134520e-04 0.0
-1.136524e-03 1.019565e-03 0.0
-1.502582e-03 1.218207e-03 0.0
-1.919664e-03 1.404529e-03 0.0
-2.384476e-03 1.575912e-03 0.0
-2.892540e-03 1.731414e-03 0.0
-3.438855e-03 1.871108e-03 0.0
-4.018487e-03 1.995477e-03 0.0
-4.626935e-03 2.105004e-03 0.0
-5.260233e-03 2.200000e-03 0.0
-5.914848e-03 2.280627e-03 0.0
-6.587470e-03 2.347043e-03 0.0
-7.274829e-03 2.399549e-03 0.0
-7.973586e-03 2.438678e-03 0.0
-8.680341e-03 2.465197e-03 0.0
-9.391721e-03 2.480026e-03 0.0
-1.010449e-02 2.484127e-03 0.0
-1.081565e-02 2.478404e-03 0.0
-1.152247e-02 2.463641e-03 0.0
-1.222248e-02 2.440494e-03 0.0
-1.291344e-02 2.409511e-03 0.0
-1.359325e-02 2.371162e-03 0.0
-1.425996e-02 2.325862e-03 0.0
-1.491172e-02 2.273988e-03 0.0
-1.554680e-02 2.215871e-03 0.0
-1.616353e-02 2.151805e-03 0.0
-1.676034e-02 2.082056e-03 0.0
-1.733571e-02 2.006881e-03 0.0
-1.788817e-02 1.926550e-03 0.0
-1.841625e-02 1.841353e-03 0.0
-1.891855e-02 1.751594e-03 0.0
-1.939369e-02 1.657567e-03 0.0
-1.984038e-02 1.559524e-03 0.0
-2.025743e-02 1.457646e-03 0.0
-2.064376e-02 1.352037e-03 0.0
-2.099837e-02 1.242736e-03 0.0
-2.132033e-02 1.129751e-03 0.0
-2.160875e-02 1.013103e-03 0.0
-2.186276e-02 8.928641e-04 0.0
-2.208148e-02 7.691901e-04 0.0
-2.226405e-02 6.423194e-04 0.0
-2.240963e-02 5.125622e-04 0.0
-2.251747e-02 3.802729e-04 0.0
-2.258686e-02 2.458232e-04 0.0
-2.261727e-02 1.095819e-04 0.0
-2.260826e-02 -2.808923e-05 0.0
-2.255953e-02 -1.668245e-04 0.0
-2.247093e-02 -3.062726e-04 0.0
-2.234241e-02 -4.460821e-04 0.0
-2.217403e-02 -5.858801e-04 0.0
-2.196598e-02 -7.252580e-04 0.0
-2.171852e-02 -8.637682e-04 0.0
-2.143207e-02 -1.000929e-03 0.0
-2.110715e-02 -1.136233e-03 0.0
-2.074443e-02 -1.269160e-03 0.0
-2.034474e-02 -1.399180e-03 0.0
-1.990905e-02 -1.525757e-03 0.0
-1.943852e-02 -1.648353e-03 0.0
-1.893444e-02 -1.766416e-03 0.0
-1.839827e-02 -1.879386e-03 0.0
-1.783164e-02 -1.986690e-03 0.0
-1.723632e-02 -2.087745e-03 0.0
-1.661425e-02 -2.181961e-03 0.0
-1.596753e-02 -2.268745e-03 0.0
-1.529842e-02 -2.347509e-03 0.0
-1.460935e-02 -2.417674e-03 0.0
-1.390290e-02 -2.478672e-03 0.0
-1.318180e-02 -2.529950e-03 0.0
-1.244894e-02 -2.570969e-03 0.0
-1.170736e-02 -2.601211e-03 0.0
-1.096022e-02 -2.620176e-03 0.0
-1.021082e-02 -2.627387e-03 0.0
-9.462552e-03 -2.622399e-03 0.0
-8.718942e-03 -2.604796e-03 0.0
-7.983593e-03 -2.574201e-03 0.0
-7.260188e-03 -2.530282e-03 0.0
-6.552470e-03 -2.472762e-03 0.0
-5.864220e-03 -2.401431e-03 0.0
-5.199231e-03 -2.316159e-03 0.0
-4.561276e-03 -2.216915e-03 0.0
-3.954073e-03 -2.103788e-03 0.0
-3.381237e-03 -1.977014e-03 0.0
-2.846228e-03 -1.837019e-03 0.0
-2.352281e-03 -1.684465e-03 0.0
-1.902328e-03 -1.520318e-03 0.0
-1.498899e-03 -1.345941e-03 0.0
-1.144010e-03 -1.163206e-03 0.0
-8.390220e-04 -9.746616e-04 0.0
-5.844872e-04 -7.837322e-04 0.0
-3.799727e-04 -5.949954e-04 0.0
-2.238726e-04 -4.145332e-04 0.0
-1.132181e-04 -2.503894e-04 0.0
-4.348444e-05 -1.131448e-04 0.0
-8.428952e-06 -1.660898e-05 0.0
0.000000e+00 2.144572e-05 0.0
0.000000e+00 -2.150836e-05 0.0
0.000000e+00 -3.513078e-05 0.0
-2.389736e-05 3.568793e-05 0.0
-1.142005e-04 1.755079e-04 0.0
-2.584492e-04 3.744872e-04 0.0
-4.578142e-04 6.122486e-04 0.0
-7.142907e-04 8.716563e-04 0.0
-1.029757e-03 1.138691e-03 0.0
-1.404927e-03 1.402546e-03 0.0
-1.838723e-03 1.655656e-03 0.0
-2.328230e-03 1.893348e-03 0.0
-2.869108e-03 2.113178e-03 0.0
-3.456263e-03 2.314147e-03 0.0
-4.084484e-03 2.495981e-03 0.0
-4.748884e-03 2.658642e-03 0.0
-5.445058e-03 2.802088e-03 0.0
-6.169018e-03 2.926269e-03 0.0
-6.916991e-03 3.031248e-03 0.0
-7.685229e-03 3.117334e-03 0.0
-8.469892e-03 3.185160e-03 0.0
-9.267046e-03 3.235659e-03 0.0
-1.007276e-02 3.269967e-03 0.0
-1.088324e-02 3.289283e-03 0.0
-1.169491e-02 3.294755e-03 0.0
-1.250451e-02 3.287400e-03 0.0
-1.330906e-02 3.268097e-03 0.0
-1.410584e-02 3.237603e-03 0.0
-1.489233e-02 3.196591e-03 0.0
-1.566616e-02 3.145675e-03 0.0
-1.642508e-02 3.085418e-03 0.0
-1.716698e-02 3.016335e-03 0.0
-1.788986e-02 2.938890e-03 0.0
-1.859182e-02 2.853506e-03 0.0
-1.927103e-02 2.760589e-03 0.0
-1.992570e-02 2.660542e-03 0.0
-2.055412e-02 2.553780e-03 0.0
-2.115458e-02 2.440716e-03 0.0
-2.172549e-02 2.321736e-03 0.0
-2.226531e-02 2.197163e-03 0.0
-2.277267e-02 2.067232e-03 0.0
-2.324627e-02 1.932085e-03 0.0
-2.368494e-02 1.791793e-03 0.0
-2.408759e-02 1.646398e-03 0.0
-2.445315e-02 1.495967e-03 0.0
-2.478055e-02 1.340632e-03 0.0
-2.506875e-02 1.180617e-03 0.0
-2.531669e-02 1.016234e-03 0.0
-2.552337e-02 8.478627e-04 0.0
-2.568786e-02 6.759190e-04 0.0
-2.580931e-02 5.008251e-04 0.0
-2.588702e-02 3.229922e-04 0.0
-2.592043e-02 1.428215e-04 0.0
-2.590911e-02 -3.927927e-05 0.0
-2.585277e-02 -2.228683e-04 0.0
-2.575122e-02 -4.074832e-04 0.0
-2.560442e-02 -5.926295e-04 0.0
-2.541241e-02 -7.777692e-04 0.0
-2.517538e-02 -9.623207e-04 0.0
-2.489363e-02 -1.145666e-03 0.0
-2.456761e-02 -1.327159e-03 0.0
-2.419795e-02 -1.506142e-03 0.0
-2.378541e-02 -1.681940e-03 0.0
-2.333094e-02 -1.853874e-03 0.0
-2.283568e-02 -2.021246e-03 0.0
-2.230092e-02 -2.183348e-03 0.0
-2.172815e-02 -2.339451e-03 0.0
-2.111901e-02 -2.488806e-03 0.0
-2.047533e-02 -2.630654e-03 0.0
-1.979913e-02 -2.764223e-03 0.0
-1.909260e-02 -2.888741e-03 0.0
-1.835812e-02 -3.003436e-03 0.0
-1.759824e-02 -3.107547e-03 0.0
-1.681570e-02 -3.200323e-03 0.0
-1.601343e-02 -3.281027e-03 0.0
-1.519449e-02 -3.348939e-03 0.0
-1.436216e-02 -3.403358e-03 0.0
-1.351982e-02 -3.443605e-03 0.0
-1.267104e-02 -3.469029e-03 0.0
-1.181950e-02 -3.479013e-03 0.0
-1.096901e-02 -3.472979e-03 0.0
-1.012351e-02 -3.450397e-03 0.0
-9.287019e-03 -3.410794e-03 0.0
-8.463634e-03 -3.353759e-03 0.0
-7.657517e-03 -3.278962e-03 0.0
-6.872858e-03 -3.186162e-03 0.0
-6.113848e-03 -3.075231e-03 0.0
-5.384645e-03 -2.946173e-03 0.0
-4.689328e-03 -2.799154e-03 0.0
-4.031852e-03 -2.634538e-03 0.0
-3.415985e-03 -2.452934e-03 0.0
-2.845242e-03 -2.255256e-03 0.0
-2.322805e-03 -2.042805e-03 0.0
-1.851426e-03 -1.817369e-03 0.0
-1.433325e-03 -1.581357e-03 0.0
-1.070066e-03 -1.337969e-03 0.0
-7.624352e-04 -1.091411e-03 0.0
-5.103014e-04 -8.471751e-04 0.0
-3.124941e-04 -6.123850e-04 0.0
-1.666935e-04 -3.962342e-04 0.0
-6.935746e-05 -2.105245e-04 0.0
-1.572875e-05 -7.028135e-05 0.0
0.000000e+00 5.672809e-06 0.0
0.000000e+00 -5.722610e-06 0.0
0.000000e+00 -7.659191e-05 0.0
-3.935967e-05 6.368796e-05 0.0
-1.482082e-04 2.769628e-04 0.0
-3.214091e-04 5.484562e-04 0.0
-5.596312e-04 8.574044e-04 0.0
-8.641132e-04 1.185349e-03 0.0
-1.235460e-03 1.517674e-03 0.0
-1.672774e-03 1.843552e-03 0.0
-2.173393e-03 2.155668e-03 0.0
-2.733169e-03 2.449517e-03 0.0
-3.347052e-03 2.722538e-03 0.0
-4.009723e-03 2.973297e-03 0.0
-4.716061e-03 3.200900e-03 0.0
-5.461338e-03 3.404687e-03 0.0
-6.241198e-03 3.584180e-03 0.0
-7.051471e-03 3.739170e-03 0.0
-7.887993e-03 3.869831e-03 0.0
-8.746480e-03 3.976781e-03 0.0
-9.622532e-03 4.061037e-03 0.0
-1.051172e-02 4.123892e-03 0.0
-1.140973e-02 4.166754e-03 0.0
-1.231248e-02 4.191001e-03 0.0
-1.321619e-02 4.197895e-03 0.0
-1.411739e-02 4.188554e-03 0.0
-1.501288e-02 4.163970e-03 0.0
-1.589968e-02 4.125051e-03 0.0
-1.677500e-02 4.072636e-03 0.0
-1.763620e-02 4.007516e-03 0.0
-1.848077e-02 3.930421e-03 0.0
-1.930637e-02 3.842021e-03 0.0
-2.011073e-02 3.742937e-03 0.0
-2.089173e-02 3.633755e-03 0.0
-2.164727e-02 3.515049e-03 0.0
-2.237533e-02 3.387389e-03 0.0
-2.307395e-02 3.251326e-03 0.0
-2.374126e-02 3.107364e-03 0.0
-2.437553e-02 2.955919e-03 0.0
-2.497515e-02 2.797299e-03 0.0
-2.553864e-02 2.631703e-03 0.0
-2.606465e-02 2.459250e-03 0.0
-2.655189e-02 2.280034e-03 0.0
-2.699912e-02 2.094180e-03 0.0
-2.740508e-02 1.901891e-03 0.0
-2.776853e-02 1.703466e-03 0.0
-2.808825e-02 1.499291e-03 0.0
-2.836303e-02 1.289817e-03 0.0
-2.859178e-02 1.075515e-03 0.0
-2.877351e-02 8.568534e-04 0.0
-2.890737e-02 6.342814e-04 0.0
-2.899264e-02 4.082380e-04 0.0
-2.902876e-02 1.791751e-04 0.0
-2.901527e-02 -5.241091e-05 0.0
-2.895186e-02 -2.859501e-04 0.0
-2.883831e-02 -5.208200e-04 0.0
-2.867453e-02 -7.563484e-04 0.0
-2.846058e-02 -9.918156e-04 0.0
-2.819662e-02 -1.226464e-03 0.0
-2.788302e-02 -1.459510e-03 0.0
-2.752029e-02 -1.690149e-03 0.0
-2.710911e-02 -1.917563e-03 0.0
-2.665038e-02 -2.140914e-03 0.0
-2.614516e-02 -2.359346e-03 0.0
-2.559470e-02 -2.571977e-03 0.0
-2.500044e-02 -2.777898e-03 0.0
-2.436401e-02 -2.976178e-03 0.0
-2.368725e-02 -3.165866e-03 0.0
-2.297218e-02 -3.345999e-03 0.0
-2.222103e-02 -3.515607e-03 0.0
-2.143623e-02 -3.673724e-03 0.0
-2.062041e-02 -3.819387e-03 0.0
-1.977640e-02 -3.951644e-03 0.0
-1.890723e-02 -4.069555e-03 0.0
-1.801611e-02 -4.172196e-03 0.0
-1.710644e-02 -4.258661e-03 0.0
-1.618180e-02 -4.328068e-03 0.0
-1.524593e-02 -4.379565e-03 0.0
-1.430272e-02 -4.412339e-03 0.0