# vtk DataFile Version 3.0
Vector Field
ASCII
DATASET RECTILINEAR_GRID
DIMENSIONS 102 102 1
X_COORDINATES 102 double
0.000000 0.100000 0.200000 0.300000 0.400000 0.500000 0.600000 0.700000 0.800000 0.900000 1.000000 1.100000 1.200000 1.300000 1.400000 1.500000 1.600000 1.700000 1.800000 1.900000 2.000000 2.100000 2.200000 2.300000 2.400000 2.500000 2.600000 2.700000 2.800000 2.900000 3.000000 3.100000 3.200000 3.300000 3.400000 3.500000 3.600000 3.700000 3.800000 3.900000 4.000000 4.100000 4.200000 4.300000 4.400000 4.500000 4.600000 4.700000 4.800000 4.900000 5.000000 5.100000 5.200000 5.300000 5.400000 5.500000 5.600000 5.700000 5.800000 5.900000 6.000000 6.100000 6.200000 6.300000 6.400000 6.500000 6.600000 6.700000 6.800000 6.900000 7.000000 7.100000 7.200000 7.300000 7.400000 7.500000 7.600000 7.700000 7.800000 7.900000 8.000000 8.100000 8.200000 8.300000 8.400000 8.500000 8.600000 8.700000 8.800000 8.900000 9.000000 9.100000 9.200000 9.300000 9.400000 9.500000 9.600000 9.700000 9.800000 9.900000 10.000000 10.100000 
Y_COORDINATES 102 double
0.000000 0.100000 0.200000 0.300000 0.400000 0.500000 0.600000 0.700000 0.800000 0.900000 1.000000 1.100000 1.200000 1.300000 1.400000 1.500000 1.600000 1.700000 1.800000 1.900000 2.000000 2.100000 2.200000 2.300000 2.400000 2.500000 2.600000 2.700000 2.800000 2.900000 3.000000 3.100000 3.200000 3.300000 3.400000 3.500000 3.600000 3.700000 3.800000 3.900000 4.000000 4.100000 4.200000 4.300000 4.400000 4.500000 4.600000 4.700000 4.800000 4.900000 5.000000 5.100000 5.200000 5.300000 5.400000 5.500000 5.600000 5.700000 5.800000 5.900000 6.000000 6.100000 6.200000 6.300000 6.400000 6.500000 6.600000 6.700000 6.800000 6.900000 7.000000 7.100000 7.200000 7.300000 7.400000 7.500000 7.600000 7.700000 7.800000 7.900000 8.000000 8.100000 8.200000 8.300000 8.400000 8.500000 8.600000 8.700000 8.800000 8.900000 9.000000 9.100000 9.200000 9.300000 9.400000 9.500000 9.600000 9.700000 9.800000 9.900000 10.000000 10.100000 
Z_COORDINATES 1 double
0.0
POINT_DATA 10404
VECTORS Velocity double
0.000000e+00 0.000000e+00 0.0
-1.349215e-06 0.000000e+00 0.0
-2.633359e-05 0.000000e+00 0.0
-4.039559e-05 0.000000e+00 0.0
-3.878297e-05 0.000000e+00 0.0
-2.155226e-05 0.000000e+00 0.0
8.095920e-06 0.000000e+00 0.0
4.593337e-05 0.000000e+00 0.0
8.835505e-05 0.000000e+00 0.0
1.332857e-04 0.000000e+00 0.0
1.802961e-04 0.000000e+00 0.0
2.301309e-04 0.000000e+00 0.0
2.839742e-04 0.000000e+00 0.0
3.427665e-04 0.000000e+00 0.0
4.067757e-04 0.000000e+00 0.0
4.754915e-04 0.000000e+00 0.0
5.477926e-04 0.000000e+00 0.0
6.222740e-04 0.000000e+00 0.0
6.975991e-04 0.000000e+00 0.0
7.727675e-04 0.000000e+00 0.0
8.472340e-04 0.000000e+00 0.0
9.208707e-04 0.000000e+00 0.0
9.938134e-04 0.000000e+00 0.0
1.066262e-03 0.000000e+00 0.0
1.138309e-03 0.000000e+00 0.0
1.209843e-03 0.000000e+00 0.0
1.280556e-03 0.000000e+00 0.0
1.350022e-03 0.000000e+00 0.0
1.417806e-03 0.000000e+00 0.0
1.483570e-03 0.000000e+00 0.0
1.547123e-03 0.000000e+00 0.0
1.608412e-03 0.000000e+00 0.0
1.667475e-03 0.000000e+00 0.0
1.724368e-03 0.000000e+00 0.0
1.779105e-03 0.000000e+00 0.0
1.831626e-03 0.000000e+00 0.0
1.881799e-03 0.000000e+00 0.0
1.929444e-03 0.000000e+00 0.0
1.974370e-03 0.000000e+00 0.0
2.016413e-03 0.000000e+00 0.0
2.055449e-03 0.000000e+00 0.0
2.091398e-03 0.000000e+00 0.0
2.124214e-03 0.000000e+00 0.0
2.153864e-03 0.000000e+00 0.0
2.180310e-03 0.000000e+00 0.0
2.203502e-03 0.000000e+00 0.0
2.223371e-03 0.000000e+00 0.0
2.239837e-03 0.000000e+00 0.0
2.252812e-03 0.000000e+00 0.0
2.262212e-03 0.000000e+00 0.0
2.267966e-03 0.000000e+00 0.0
2.270013e-03 0.000000e+00 0.0
2.268312e-03 0.000000e+00 0.0
2.262838e-03 0.000000e+00 0.0
2.253582e-03 0.000000e+00 0.0
2.240538e-03 0.000000e+00 0.0
2.223707e-03 0.000000e+00 0.0
2.203096e-03 0.000000e+00 0.0
2.178713e-03 0.000000e+00 0.0
2.150577e-03 0.000000e+00 0.0
2.118710e-03 0.000000e+00 0.0
2.083147e-03 0.000000e+00 0.0
2.043932e-03 0.000000e+00 0.0
2.001119e-03 0.000000e+00 0.0
1.954776e-03 0.000000e+00 0.0
1.904986e-03 0.000000e+00 0.0
1.851843e-03 0.000000e+00 0.0
1.795461e-03 0.000000e+00 0.0
1.735965e-03 0.000000e+00 0.0
1.673501e-03 0.000000e+00 0.0
1.608229e-03 0.000000e+00 0.0
1.540329e-03 0.000000e+00 0.0
1.469998e-03 0.000000e+00 0.0
1.397454e-03 0.000000e+00 0.0
1.322932e-03 0.000000e+00 0.0
1.246690e-03 0.000000e+00 0.0
1.169007e-03 0.000000e+00 0.0
1.090187e-03 0.000000e+00 0.0
1.010557e-03 0.000000e+00 0.0
9.304702e-04 0.000000e+00 0.0
8.503093e-04 0.000000e+00 0.0
7.704836e-04 0.000000e+00 0.0
6.914322e-04 0.000000e+00 0.0
6.136248e-04 0.000000e+00 0.0
5.375616e-04 0.000000e+00 0.0
4.637744e-04 0.000000e+00 0.0
3.928254e-04 0.000000e+00 0.0
3.253072e-04 0.000000e+00 0.0
2.618408e-04 0.000000e+00 0.0
2.030726e-04 0.000000e+00 0.0
1.496701e-04 0.000000e+00 0.0
1.023125e-04 0.000000e+00 0.0
6.167750e-05 0.000000e+00 0.0
2.841650e-05 0.000000e+00 0.0
3.111516e-06 0.000000e+00 0.0
-1.379987e-05 0.000000e+00 0.0
-2.216415e-05 0.000000e+00 0.0
-2.238201e-05 0.000000e+00 0.0
-1.591772e-05 0.000000e+00 0.0
-6.226276e-06 0.000000e+00 0.0
-0.000000e+00 0.000000e+00 0.0
0.000000e+00 0.000000e+00 0.0
0.000000e+00 1.148246e-05 0.0
3.595676e-05 2.318966e-05 0.0
3.515697e-05 7.448176e-06 0.0
2.556076e-05 -3.651228e-06 0.0
9.980384e-06 -9.187515e-06 0.0
-8.745742e-06 -7.359385e-06 0.0
-2.954573e-05 1.700965e-06 0.0
-5.328295e-05 1.579698e-05 0.0
-8.200605e-05 3.162271e-05 0.0
-1.178645e-04 4.595521e-05 0.0
-1.622043e-04 5.660629e-05 0.0
-2.151222e-04 6.285012e-05 0.0
-2.755164e-04 6.530541e-05 0.0
-3.415021e-04 6.543426e-05 0.0
-4.109802e-04 6.489804e-05 0.0
-4.821554e-04 6.499642e-05 0.0
-5.538602e-04 6.634153e-05 0.0
-6.256268e-04 6.881860e-05 0.0
-6.975340e-04 7.178992e-05 0.0
-7.699206e-04 7.443140e-05 0.0
-8.430790e-04 7.606811e-05 0.0
-9.170364e-04 7.639617e-05 0.0
-9.914802e-04 7.553350e-05 0.0
-1.065830e-03 7.391080e-05 0.0
-1.139402e-03 7.206776e-05 0.0
-1.211592e-03 7.044388e-05 0.0
-1.282005e-03 6.924129e-05 0.0
-1.350494e-03 6.839732e-05 0.0
-1.417105e-03 6.765786e-05 0.0
-1.481972e-03 6.670714e-05 0.0
-1.545197e-03 6.529613e-05 0.0
-1.606778e-03 6.332345e-05 0.0
-1.666579e-03 6.084848e-05 0.0
-1.724366e-03 5.804524e-05 0.0
-1.779864e-03 5.512499e-05 0.0
-1.832820e-03 5.226128e-05 0.0
-1.883051e-03 4.954273e-05 0.0
-1.930454e-03 4.696403e-05 0.0
-1.974992e-03 4.444949e-05 0.0
-2.016661e-03 4.189405e-05 0.0
-2.055455e-03 3.920405e-05 0.0
-2.091344e-03 3.632452e-05 0.0
-2.124262e-03 3.324752e-05 0.0
-2.154112e-03 3.000373e-05 0.0
-2.180778e-03 2.664426e-05 0.0
-2.204144e-03 2.322092e-05 0.0
-2.224105e-03 1.977150e-05 0.0
-2.240574e-03 1.631308e-05 0.0
-2.253486e-03 1.284316e-05 0.0
-2.262789e-03 9.346151e-06 0.0
-2.268446e-03 5.801838e-06 0.0
-2.270423e-03 2.193287e-06 0.0
-2.268692e-03 -1.487296e-06 0.0
-2.263229e-03 -5.233702e-06 0.0
-2.254015e-03 -9.036400e-06 0.0
-2.241033e-03 -1.288099e-05 0.0
-2.224267e-03 -1.674965e-05 0.0
-2.203712e-03 -2.062308e-05 0.0
-2.179367e-03 -2.448215e-05 0.0
-2.151245e-03 -2.830901e-05 0.0
-2.119368e-03 -3.208782e-05 0.0
-2.083770e-03 -3.580519e-05 0.0
-2.044498e-03 -3.945034e-05 0.0
-2.001614e-03 -4.301499e-05 0.0
-1.955191e-03 -4.649290e-05 0.0
-1.905320e-03 -4.987896e-05 0.0
-1.852101e-03 -5.316794e-05 0.0
-1.795654e-03 -5.635322e-05 0.0
-1.736107e-03 -5.942550e-05 0.0
-1.673605e-03 -6.237204e-05 0.0
-1.608310e-03 -6.517626e-05 0.0
-1.540396e-03 -6.781806e-05 0.0
-1.470057e-03 -7.027445e-05 0.0
-1.397505e-03 -7.252056e-05 0.0
-1.322972e-03 -7.453071e-05 0.0
-1.246713e-03 -7.627923e-05 0.0
-1.169007e-03 -7.774093e-05 0.0
-1.090158e-03 -7.889125e-05 0.0
-1.010496e-03 -7.970591e-05 0.0
-9.303779e-04 -8.016056e-05 0.0
-8.501873e-04 -8.023022e-05 0.0
-7.703365e-04 -7.988896e-05 0.0
-6.912659e-04 -7.910919e-05 0.0
-6.134458e-04 -7.786174e-05 0.0
-5.373765e-04 -7.611613e-05 0.0
-4.635889e-04 -7.384105e-05 0.0
-3.926444e-04 -7.100492e-05 0.0
-3.251346e-04 -6.757686e-05 0.0
-2.616797e-04 -6.352762e-05 0.0
-2.029257e-04 -5.883102e-05 0.0
-1.495393e-04 -5.346626e-05 0.0
-1.021997e-04 -4.742127e-05 0.0
-6.158374e-05 -4.069816e-05 0.0
-2.834233e-05 -3.332367e-05 0.0
-3.057598e-06 -2.536740e-05 0.0
1.383496e-05 -1.697422e-05 0.0
2.218362e-05 -8.429246e-06 0.0
2.239049e-05 -2.859073e-07 0.0
1.592455e-05 6.390916e-06 0.0
6.242844e-06 9.605801e-06 0.0
0.000000e+00 6.166804e-06 0.0
0.000000e+00 -6.258283e-06 0.0
0.000000e+00 4.025637e-06 0.0
2.501427e-05 4.742148e-06 0.0
2.110060e-05 -1.152252e-05 0.0
7.289878e-06 -8.429086e-06 0.0
-2.019974e-05 1.000976e-05 0.0
-6.346467e-05 3.912062e-05 0.0
-1.242245e-04 7.426967e-05 0.0
-2.039513e-04 1.108013e-04 0.0
-3.035172e-04 1.447913e-04 0.0
-4.228238e-04 1.736977e-04 0.0
-5.606651e-04 1.966144e-04 0.0
-7.148873e-04 2.140631e-04 0.0
-8.827665e-04 2.274513e-04 0.0
-1.061470e-03 2.384157e-04 0.0
-1.248455e-03 2.482618e-04 0.0
-1.441718e-03 2.576423e-04 0.0
-1.639837e-03 2.665204e-04 0.0
-1.841857e-03 2.743725e-04 0.0
-2.047064e-03 2.805174e-04 0.0
-2.254765e-03 2.844382e-04 0.0
-2.464129e-03 2.859881e-04 0.0
-2.674145e-03 2.854236e-04 0.0
-2.883687e-03 2.832837e-04 0.0
-3.091642e-03 2.801829e-04 0.0
-3.297039e-03 2.766080e-04 0.0
-3.499132e-03 2.727933e-04 0.0
-3.697407e-03 2.687074e-04 0.0
-3.891522e-03 2.641369e-04 0.0
-4.081216e-03 2.588202e-04 0.0
-4.266222e-03 2.525721e-04 0.0
-4.446205e-03 2.453553e-04 0.0
-4.620759e-03 2.372834e-04 0.0
-4.789431e-03 2.285679e-04 0.0
-4.951767e-03 2.194385e-04 0.0
-5.107356e-03 2.100723e-04 0.0
-5.255856e-03 2.005540e-04 0.0
-5.396994e-03 1.908749e-04 0.0
-5.530550e-03 1.809617e-04 0.0
-5.656328e-03 1.707205e-04 0.0
-5.774131e-03 1.600754e-04 0.0
-5.883748e-03 1.489918e-04 0.0
-5.984944e-03 1.374808e-04 0.0
-6.077473e-03 1.255869e-04 0.0
-6.161082e-03 1.133691e-04 0.0
-6.235529e-03 1.008824e-04 0.0
-6.300585e-03 8.816486e-05 0.0
-6.356044e-03 7.523480e-05 0.0
-6.401722e-03 6.209370e-05 0.0
-6.437452e-03 4.873427e-05 0.0
-6.463082e-03 3.514903e-05 0.0
-6.478476e-03 2.133752e-05 0.0
-6.483511e-03 7.311116e-06 0.0
-6.478082e-03 -6.903897e-06 0.0
-6.462106e-03 -2.126423e-05 0.0
-6.435521e-03 -3.572965e-05 0.0
-6.398282e-03 -5.025991e-05 0.0
-6.350368e-03 -6.481437e-05 0.0
-6.291779e-03 -7.935227e-05 0.0
-6.222540e-03 -9.383321e-05 0.0
-6.142703e-03 -1.082175e-04 0.0
-6.052348e-03 -1.224667e-04 0.0
-5.951585e-03 -1.365432e-04 0.0
-5.840556e-03 -1.504108e-04 0.0
-5.719437e-03 -1.640333e-04 0.0
-5.588438e-03 -1.773737e-04 0.0
-5.447806e-03 -1.903927e-04 0.0
-5.297825e-03 -2.030468e-04 0.0
-5.138815e-03 -2.152872e-04 0.0
-4.971140e-03 -2.270587e-04 0.0
-4.795205e-03 -2.383001e-04 0.0
-4.611459e-03 -2.489440e-04 0.0
-4.420403e-03 -2.589179e-04 0.0
-4.222585e-03 -2.681456e-04 0.0
-4.018613e-03 -2.765475e-04 0.0
-3.809150e-03 -2.840422e-04 0.0
-3.594920e-03 -2.905460e-04 0.0
-3.376713e-03 -2.959732e-04 0.0
-3.155384e-03 -3.002354e-04 0.0
-2.931857e-03 -3.032413e-04 0.0
-2.707128e-03 -3.048961e-04 0.0
-2.482265e-03 -3.051016e-04 0.0
-2.258410e-03 -3.037566e-04 0.0
-2.036782e-03 -3.007560e-04 0.0
-1.818676e-03 -2.959925e-04 0.0
-1.605463e-03 -2.893579e-04 0.0
-1.398591e-03 -2.807448e-04 0.0
-1.199579e-03 -2.700494e-04 0.0
-1.010014e-03 -2.571747e-04 0.0
-8.315374e-04 -2.420354e-04 0.0
-6.658333e-04 -2.245639e-04 0.0
-5.146055e-04 -2.047210e-04 0.0
-3.795410e-04 -1.825107e-04 0.0
-2.622587e-04 -1.580038e-04 0.0
-1.642271e-04 -1.313782e-04 0.0
-8.663566e-05 -1.029816e-04 0.0
-3.019411e-05 -7.343721e-05 0.0
5.177977e-06 -4.382422e-05 0.0
2.084887e-05 -1.597706e-05 0.0
2.019569e-05 7.021672e-06 0.0
9.640566e-06 2.013754e-05 0.0
0.000000e+00 1.578359e-05 0.0
0.000000e+00 -1.588691e-05 0.0
0.000000e+00 -1.011664e-06 0.0
5.404913e-06 -1.413605e-05 0.0
-8.081873e-06 -1.665024e-05 0.0
-3.613173e-05 1.215580e-05 0.0
-8.557014e-05 6.363312e-05 0.0
-1.615235e-04 1.274030e-04 0.0
-2.674426e-04 1.952435e-04 0.0
-4.049431e-04 2.609827e-04 0.0
-5.737539e-04 3.207178e-04 0.0
-7.719387e-04 3.727371e-04 0.0
-9.963692e-04 4.170894e-04 0.0
-1.243327e-03 4.549043e-04 0.0
-1.509081e-03 4.876576e-04 0.0
-1.790303e-03 5.165750e-04 0.0
-2.084279e-03 5.422993e-04 0.0
-2.388884e-03 5.648510e-04 0.0
-2.702414e-03 5.838286e-04 0.0
-3.023338e-03 5.987280e-04 0.0
-3.350089e-03 6.092465e-04 0.0
-3.680955e-03 6.154618e-04 0.0
-4.014093e-03 6.178415e-04 0.0
-4.347645e-03 6.171016e-04 0.0
-4.679888e-03 6.139920e-04 0.0
-5.009356e-03 6.090995e-04 0.0
-5.334893e-03 6.027378e-04 0.0
-5.655617e-03 5.949518e-04 0.0
-5.970830e-03 5.856151e-04 0.0
-6.279900e-03 5.745678e-04 0.0
-6.582184e-03 5.617354e-04 0.0
-6.876979e-03 5.471888e-04 0.0
-7.163541e-03 5.311336e-04 0.0
-7.441126e-03 5.138476e-04 0.0
-7.709041e-03 4.956005e-04 0.0
-7.966680e-03 4.765878e-04 0.0
-8.213534e-03 4.569013e-04 0.0
-8.449176e-03 4.365389e-04 0.0
-8.673223e-03 4.154414e-04 0.0
-8.885312e-03 3.935384e-04 0.0
-9.085068e-03 3.707850e-04 0.0
-9.272100e-03 3.471803e-04 0.0
-9.446004e-03 3.227648e-04 0.0
-9.606373e-03 2.976052e-04 0.0
-9.752814e-03 2.717740e-04 0.0
-9.884954e-03 2.453318e-04 0.0
-1.000245e-02 2.183197e-04 0.0
-1.010498e-02 1.907590e-04 0.0
-1.019226e-02 1.626580e-04 0.0
-1.026401e-02 1.340218e-04 0.0
-1.031998e-02 1.048609e-04 0.0
-1.035992e-02 7.519749e-05 0.0
-1.038361e-02 4.506845e-05 0.0
-1.039087e-02 1.452658e-05 0.0
-1.038151e-02 -1.635836e-05 0.0
-1.035542e-02 -4.750046e-05 0.0
-1.031249e-02 -7.882130e-05 0.0
-1.025265e-02 -1.102459e-04 0.0
-1.017589e-02 -1.417004e-04 0.0
-1.008222e-02 -1.731112e-04 0.0
-9.971679e-03 -2.044040e-04 0.0
-9.844374e-03 -2.355040e-04 0.0
-9.700439e-03 -2.663350e-04 0.0
-9.540058e-03 -2.968196e-04 0.0
-9.363465e-03 -3.268775e-04 0.0
-9.170943e-03 -3.564243e-04 0.0
-8.962831e-03 -3.853698e-04 0.0
-8.739521e-03 -4.136160e-04 0.0
-8.501461e-03 -4.410562e-04 0.0
-8.249164e-03 -4.675738e-04 0.0
-7.983204e-03 -4.930427e-04 0.0
-7.704226e-03 -5.173276e-04 0.0
-7.412948e-03 -5.402856e-04 0.0
-7.110165e-03 -5.617663e-04 0.0
-6.796756e-03 -5.816134e-04 0.0
-6.473684e-03 -5.996646e-04 0.0
-6.142005e-03 -6.157516e-04 0.0
-5.802869e-03 -6.296997e-04 0.0
-5.457525e-03 -6.413271e-04 0.0
-5.107322e-03 -6.504446e-04 0.0
-4.753716e-03 -6.568555e-04 0.0
-4.398270e-03 -6.603555e-04 0.0
-4.042657e-03 -6.607343e-04 0.0
-3.688663e-03 -6.577771e-04 0.0
-3.338186e-03 -6.512646e-04 0.0
-2.993238e-03 -6.409761e-04 0.0
-2.655939e-03 -6.266930e-04 0.0
-2.328516e-03 -6.082032e-04 0.0
-2.013291e-03 -5.853072e-04 0.0
-1.712670e-03 -5.578262e-04 0.0
-1.429119e-03 -5.256130e-04 0.0
-1.165140e-03 -4.885679e-04 0.0
-9.232226e-04 -4.466614e-04 0.0
-7.057868e-04 -3.999681e-04 0.0
-5.150945e-04 -3.487175e-04 0.0
-3.531226e-04 -2.933723e-04 0.0
-2.213793e-04 -2.347469e-04 0.0
-1.206465e-04 -1.741921e-04 0.0
-5.061462e-05 -1.138803e-04 0.0
-9.374773e-06 -5.723840e-05 0.0
7.227652e-06 -9.605696e-06 0.0
6.472630e-06 2.086766e-05 0.0
0.000000e+00 2.223120e-05 0.0
0.000000e+00 -2.234094e-05 0.0
0.000000e+00 -5.082603e-06 0.0
-1.494934e-05 -2.425497e-05 0.0
-4.000035e-05 1.667377e-07 0.0
-8.806064e-05 6.447299e-05 0.0
-1.672511e-04 1.554256e-04 0.0
-2.836245e-04 2.587541e-04 0.0
-4.405355e-04 3.641458e-04 0.0
-6.385644e-04 4.648912e-04 0.0
-8.759017e-04 5.574293e-04 0.0
-1.149072e-03 6.406049e-04 0.0
-1.453778e-03 7.147633e-04 0.0
-1.785649e-03 7.808682e-04 0.0
-2.140747e-03 8.398200e-04 0.0
-2.515781e-03 8.920794e-04 0.0
-2.908056e-03 9.376102e-04 0.0
-3.315245e-03 9.760675e-04 0.0
-3.735115e-03 1.007100e-03 0.0
-4.165317e-03 1.030630e-03 0.0
-4.603306e-03 1.046994e-03 0.0
-5.046409e-03 1.056923e-03 0.0
-5.491997e-03 1.061367e-03 0.0
-5.937671e-03 1.061271e-03 0.0
-6.381399e-03 1.057374e-03 0.0
-6.821551e-03 1.050120e-03 0.0
-7.256830e-03 1.039678e-03 0.0
-7.686148e-03 1.026055e-03 0.0
-8.108487e-03 1.009242e-03 0.0
-8.522806e-03 9.893235e-04 0.0
-8.928013e-03 9.665275e-04 0.0
-9.322994e-03 9.411958e-04 0.0
-9.706678e-03 9.137123e-04 0.0
-1.007810e-02 8.844194e-04 0.0
-1.043642e-02 8.535576e-04 0.0
-1.078094e-02 8.212477e-04 0.0
-1.111107e-02 7.875126e-04 0.0
-1.142626e-02 7.523231e-04 0.0
-1.172598e-02 7.156476e-04 0.0
-1.200969e-02 6.774863e-04 0.0
-1.227680e-02 6.378845e-04 0.0
-1.252676e-02 5.969240e-04 0.0
-1.275900e-02 5.547030e-04 0.0
-1.297296e-02 5.113148e-04 0.0
-1.316817e-02 4.668326e-04 0.0
-1.334415e-02 4.213048e-04 0.0
-1.350047e-02 3.747600e-04 0.0
-1.363675e-02 3.272174e-04 0.0
-1.375260e-02 2.786977e-04 0.0
-1.384767e-02 2.292331e-04 0.0
-1.392161e-02 1.788718e-04 0.0
-1.397411e-02 1.276796e-04 0.0
-1.400487e-02 7.573973e-05 0.0
-1.401364e-02 2.315182e-05 0.0
-1.400020e-02 -2.996735e-05 0.0
-1.396438e-02 -8.348615e-05 0.0
-1.390607e-02 -1.372820e-04 0.0
-1.382518e-02 -1.912368e-04 0.0
-1.372170e-02 -2.452335e-04 0.0
-1.359565e-02 -2.991544e-04 0.0
-1.344711e-02 -3.528794e-04 0.0
-1.327623e-02 -4.062851e-04 0.0
-1.308318e-02 -4.592431e-04 0.0
-1.286824e-02 -5.116191e-04 0.0
-1.263171e-02 -5.632703e-04 0.0
-1.237399e-02 -6.140436e-04 0.0
-1.209552e-02 -6.637740e-04 0.0
-1.179683e-02 -7.122833e-04 0.0
-1.147854e-02 -7.593799e-04 0.0
-1.114131e-02 -8.048588e-04 0.0
-1.078592e-02 -8.485027e-04 0.0
-1.041325e-02 -8.900828e-04 0.0
-1.002425e-02 -9.293596e-04 0.0
-9.619987e-03 -9.660833e-04 0.0
-9.201646e-03 -9.999936e-04 0.0
-8.770515e-03 -1.030819e-03 0.0
-8.328002e-03 -1.058276e-03 0.0
-7.875639e-03 -1.082069e-03 0.0
-7.415084e-03 -1.101889e-03 0.0
-6.948129e-03 -1.117412e-03 0.0
-6.476698e-03 -1.128306e-03 0.0
-6.002856e-03 -1.134226e-03 0.0
-5.528808e-03 -1.134817e-03 0.0
-5.056900e-03 -1.129724e-03 0.0
-4.589620e-03 -1.118585e-03 0.0
-4.129594e-03 -1.101041e-03 0.0
-3.679579e-03 -1.076743e-03 0.0
-3.242456e-03 -1.045358e-03 0.0
-2.821211e-03 -1.006579e-03 0.0
-2.418916e-03 -9.601447e-04 0.0
-2.038696e-03 -9.058538e-04 0.0
-1.683687e-03 -8.435969e-04 0.0
-1.356975e-03 -7.733938e-04 0.0
-1.061512e-03 -6.954501e-04 0.0
-8.000134e-04 -6.102376e-04 0.0
-5.747965e-04 -5.186119e-04 0.0
-3.875831e-04 -4.219831e-04 0.0
-2.392351e-04 -3.225643e-04 0.0
-1.294096e-04 -2.237315e-04 0.0
-5.613270e-05 -1.305391e-04 0.0
-1.530204e-05 -5.046328e-05 0.0
-5.628632e-08 5.595358e-06 0.0
0.000000e+00 2.214849e-05 0.0
0.000000e+00 -2.225678e-05 0.0
0.000000e+00 -1.051601e-05 0.0
-3.020469e-05 -2.032375e-05 0.0
-6.915196e-05 4.254509e-05 0.0
-1.425116e-04 1.503222e-04 0.0
-2.578933e-04 2.858346e-04 0.0
-4.203757e-04 4.329788e-04 0.0
-6.318258e-04 5.807275e-04 0.0
-8.911486e-04 7.224242e-04 0.0
-1.195069e-03 8.547387e-04 0.0
-1.539137e-03 9.764980e-04 0.0
-1.918642e-03 1.087606e-03 0.0
-2.329246e-03 1.188228e-03 0.0
-2.767248e-03 1.278336e-03 0.0
-3.229534e-03 1.357606e-03 0.0
-3.713310e-03 1.425586e-03 0.0
-4.215800e-03 1.481965e-03 0.0
-4.734012e-03 1.526824e-03 0.0
-5.264681e-03 1.560740e-03 0.0
-5.804370e-03 1.584711e-03 0.0
-6.349694e-03 1.599955e-03 0.0
-6.897554e-03 1.607654e-03 0.0
-7.445301e-03 1.608753e-03 0.0
-7.990769e-03 1.603875e-03 0.0
-8.532196e-03 1.593359e-03 0.0
-9.068067e-03 1.577397e-03 0.0
-9.596954e-03 1.556174e-03 0.0
-1.011741e-02 1.529982e-03 0.0
-1.062794e-02 1.499251e-03 0.0
-1.112705e-02 1.464505e-03 0.0
-1.161332e-02 1.426279e-03 0.0
-1.208546e-02 1.385028e-03 0.0
-1.254239e-02 1.341077e-03 0.0
-1.298319e-02 1.294608e-03 0.0
-1.340705e-02 1.245697e-03 0.0
-1.381326e-02 1.194368e-03 0.0
-1.420112e-02 1.140650e-03 0.0
-1.456989e-02 1.084606e-03 0.0
-1.491884e-02 1.026341e-03 0.0
-1.524722e-02 9.659913e-04 0.0
-1.555433e-02 9.036962e-04 0.0
-1.583946e-02 8.395796e-04 0.0
-1.610200e-02 7.737350e-04 0.0
-1.634135e-02 7.062256e-04 0.0
-1.655698e-02 6.370940e-04 0.0
-1.674839e-02 5.663755e-04 0.0
-1.691510e-02 4.941118e-04 0.0
-1.705664e-02 4.203601e-04 0.0
-1.717258e-02 3.451975e-04 0.0
-1.726248e-02 2.687211e-04 0.0
-1.732598e-02 1.910463e-04 0.0
-1.736273e-02 1.123051e-04 0.0
-1.737241e-02 3.264531e-05 0.0
-1.735479e-02 -4.776700e-05 0.0
-1.730966e-02 -1.287512e-04 0.0
-1.723688e-02 -2.101346e-04 0.0
-1.713639e-02 -2.917479e-04 0.0
-1.700816e-02 -3.734216e-04 0.0
-1.685223e-02 -4.549830e-04 0.0
-1.666871e-02 -5.362541e-04 0.0
-1.645779e-02 -6.170489e-04 0.0
-1.621971e-02 -6.971713e-04 0.0
-1.595479e-02 -7.764124e-04 0.0
-1.566343e-02 -8.545480e-04 0.0
-1.534610e-02 -9.313376e-04 0.0
-1.500337e-02 -1.006523e-03 0.0
-1.463589e-02 -1.079827e-03 0.0
-1.424440e-02 -1.150959e-03 0.0
-1.382975e-02 -1.219608e-03 0.0
-1.339289e-02 -1.285450e-03 0.0
-1.293490e-02 -1.348147e-03 0.0
-1.245697e-02 -1.407344e-03 0.0
-1.196041e-02 -1.462672e-03 0.0
-1.144668e-02 -1.513744e-03 0.0
-1.091735e-02 -1.560154e-03 0.0
-1.037416e-02 -1.601477e-03 0.0
-9.818965e-03 -1.637271e-03 0.0
-9.253802e-03 -1.667070e-03 0.0
-8.680848e-03 -1.690395e-03 0.0
-8.102443e-03 -1.706748e-03 0.0
-7.521092e-03 -1.715620e-03 0.0
-6.939461e-03 -1.716491e-03 0.0
-6.360385e-03 -1.708842e-03 0.0
-5.786857e-03 -1.692151e-03 0.0
-5.222026e-03 -1.665905e-03 0.0
-4.669186e-03 -1.629610e-03 0.0
-4.131763e-03 -1.582804e-03 0.0
-3.613287e-03 -1.525074e-03 0.0
-3.117371e-03 -1.456078e-03 0.0
-2.647662e-03 -1.375580e-03 0.0
-2.207792e-03 -1.283485e-03 0.0
-1.801303e-03 -1.179902e-03 0.0
-1.431556e-03 -1.065218e-03 0.0
-1.101605e-03 -9.402113e-04 0.0
-8.140451e-04 -8.061968e-04 0.0
-5.708109e-04 -6.652422e-04 0.0
-3.729443e-04 -5.204577e-04 0.0
-2.203058e-04 -3.763976e-04 0.0
-1.112613e-04 -2.396099e-04 0.0
-4.235324e-05 -1.194000e-04 0.0
-7.953750e-06 -2.883232e-05 0.0
0.000000e+00 1.416681e-05 0.0
0.000000e+00 -1.426739e-05 0.0
0.000000e+00 -2.084198e-05 0.0
-3.842268e-05 -8.808668e-07 0.0
-9.422925e-05 1.104941e-04 0.0
-1.974303e-04 2.687385e-04 0.0
-3.535207e-04 4.539151e-04 0.0
-5.652427e-04 6.497803e-04 0.0
-8.322543e-04 8.454662e-04 0.0
-1.151732e-03 1.034470e-03 0.0
-1.519368e-03 1.213268e-03 0.0
-1.930371e-03 1.380030e-03 0.0
-2.380200e-03 1.533652e-03 0.0
-2.864895e-03 1.673191e-03 0.0
-3.381055e-03 1.797700e-03 0.0
-3.925559e-03 1.906347e-03 0.0
-4.495231e-03 1.998659e-03 0.0
-5.086592e-03 2.074729e-03 0.0
-5.695798e-03 2.135272e-03 0.0
-6.318764e-03 2.181506e-03 0.0
-6.951428e-03 2.214899e-03 0.0
-7.590023e-03 2.236883e-03 0.0
-8.231272e-03 2.248640e-03 0.0
-8.872442e-03 2.251013e-03 0.0
-9.511259e-03 2.244558e-03 0.0
-1.014574e-02 2.229690e-03 0.0
-1.077401e-02 2.206835e-03 0.0
-1.139421e-02 2.176533e-03 0.0
-1.200444e-02 2.139460e-03 0.0
-1.260280e-02 2.096367e-03 0.0
-1.318751e-02 2.047985e-03 0.0
-1.375698e-02 1.994929e-03 0.0
-1.430980e-02 1.937650e-03 0.0
-1.484483e-02 1.876431e-03 0.0
-1.536102e-02 1.811441e-03 0.0
-1.585745e-02 1.742791e-03 0.0
-1.633323e-02 1.670595e-03 0.0
-1.678745e-02 1.595001e-03 0.0
-1.721919e-02 1.516193e-03 0.0
-1.762755e-02 1.434376e-03 0.0
-1.801165e-02 1.349746e-03 0.0
-1.837067e-02 1.262467e-03 0.0
-1.870383e-02 1.172664e-03 0.0
-1.901045e-02 1.080424e-03 0.0
-1.928985e-02 9.858121e-04 0.0
-1.954143e-02 8.888874e-04 0.0
-1.976460e-02 7.897183e-04 0.0
-1.995879e-02 6.883919e-04 0.0
-2.012346e-02 5.850171e-04 0.0
-2.025809e-02 4.797244e-04 0.0
-2.036220e-02 3.726626e-04 0.0
-2.043535e-02 2.639971e-04 0.0
-2.047716e-02 1.539087e-04 0.0
-2.048728e-02 4.259549e-05 0.0
-2.046544e-02 -6.972453e-05 0.0
-2.041142e-02 -1.828173e-04 0.0
-2.032508e-02 -2.964539e-04 0.0
-2.020634e-02 -4.104065e-04 0.0
-2.005519e-02 -5.244433e-04 0.0
-1.987168e-02 -6.383259e-04 0.0
-1.965596e-02 -7.518051e-04 0.0
-1.940824e-02 -8.646174e-04 0.0
-1.912883e-02 -9.764822e-04 0.0
-1.881809e-02 -1.087099e-03 0.0
-1.847649e-02 -1.196146e-03 0.0
-1.810461e-02 -1.303278e-03 0.0
-1.770309e-02 -1.408131e-03 0.0
-1.727271e-02 -1.510319e-03 0.0
-1.681435e-02 -1.609434e-03 0.0
-1.632900e-02 -1.705052e-03 0.0
-1.581780e-02 -1.796728e-03 0.0
-1.528200e-02 -1.883998e-03 0.0
-1.472299e-02 -1.966374e-03 0.0
-1.414233e-02 -2.043347e-03 0.0
-1.354170e-02 -2.114381e-03 0.0
-1.292295e-02 -2.178914e-03 0.0
-1.228808e-02 -2.236358e-03 0.0
-1.163928e-02 -2.286099e-03 0.0
-1.097889e-02 -2.327498e-03 0.0
-1.030944e-02 -2.359894e-03 0.0
-9.633626e-03 -2.382608e-03 0.0
-8.954343e-03 -2.394949e-03 0.0
-8.274660e-03 -2.396215e-03 0.0
-7.597829e-03 -2.385707e-03 0.0
-6.927278e-03 -2.362730e-03 0.0
-6.266598e-03 -2.326606e-03 0.0
-5.619534e-03 -2.276691e-03 0.0
-4.989962e-03 -2.212391e-03 0.0
-4.381862e-03 -2.133187e-03 0.0
-3.799284e-03 -2.038672e-03 0.0
-3.246295e-03 -1.928586e-03 0.0
-2.726923e-03 -1.802876e-03 0.0
-2.245077e-03 -1.661770e-03 0.0
-1.804447e-03 -1.505873e-03 0.0
-1.408383e-03 -1.336301e-03 0.0
-1.059749e-03 -1.154858e-03 0.0
-7.607474e-04 -9.642715e-04 0.0
-5.127265e-04 -7.685078e-04 0.0
-3.159680e-04 -5.731855e-04 0.0
-1.694869e-04 -3.861197e-04 0.0
-7.086500e-05 -2.180520e-04 0.0
-1.615540e-05 -8.357163e-05 0.0
0.000000e+00 -2.017994e-06 0.0
0.000000e+00 1.929670e-06 0.0
0.000000e+00 -3.970547e-05 0.0
-4.083810e-05 3.251401e-05 0.0
-1.165892e-04 2.018230e-04 0.0
-2.527416e-04 4.175951e-04 0.0
-4.516258e-04 6.585353e-04 0.0
-7.130418e-04 9.092527e-04 0.0
-1.034401e-03 1.159324e-03 0.0
-1.411543e-03 1.402130e-03 0.0
-1.839687e-03 1.633438e-03 0.0
-2.314196e-03 1.850293e-03 0.0
-2.830954e-03 2.050349e-03 0.0
-3.386359e-03 2.231621e-03 0.0
-3.977056e-03 2.392555e-03 0.0
-4.599581e-03 2.532227e-03 0.0
-5.250093e-03 2.650512e-03 0.0
-5.924304e-03 2.748092e-03 0.0
-6.617613e-03 2.826282e-03 0.0
-7.325389e-03 2.886726e-03 0.0
-8.043274e-03 2.931076e-03 0.0
-8.767404e-03 2.960743e-03 0.0
-9.494483e-03 2.976809e-03 0.0
-1.022170e-02 2.980078e-03 0.0
-1.094658e-02 2.971223e-03 0.0
-1.166678e-02 2.950946e-03 0.0
-1.237998e-02 2.920071e-03 0.0
-1.308385e-02 2.879559e-03 0.0
-1.377613e-02 2.830429e-03 0.0
-1.445466e-02 2.773651e-03 0.0
-1.511750e-02 2.710046e-03 0.0
-1.576296e-02 2.640239e-03 0.0
-1.638959e-02 2.564663e-03 0.0
-1.699612e-02 2.483620e-03 0.0
-1.758139e-02 2.397346e-03 0.0
-1.814428e-02 2.306076e-03 0.0
-1.868369e-02 2.210071e-03 0.0
-1.919852e-02 2.109619e-03 0.0
-1.968769e-02 2.005011e-03 0.0
-2.015017e-02 1.896515e-03 0.0
-2.058499e-02 1.784353e-03 0.0
-2.099126e-02 1.668692e-03 0.0
-2.136814e-02 1.549658e-03 0.0
-2.171487e-02 1.427347e-03 0.0
-2.203071e-02 1.301854e-03 0.0
-2.231495e-02 1.173279e-03 0.0
-2.256693e-02 1.041747e-03 0.0
-2.278599e-02 9.074009e-04 0.0
-2.297152e-02 7.704074e-04 0.0
-2.312295e-02 6.309498e-04 0.0
-2.323973e-02 4.892276e-04 0.0
-2.332139e-02 3.454552e-04 0.0
-2.336750e-02 1.998642e-04 0.0
-2.337771e-02 5.270531e-05 0.0
-2.335171e-02 -9.574696e-05 0.0
-2.328927e-02 -2.452002e-04 0.0
-2.319024e-02 -3.953631e-04 0.0
-2.305455e-02 -5.459407e-04 0.0
-2.288219e-02 -6.966293e-04 0.0
-2.267323e-02 -8.471120e-04 0.0
-2.242785e-02 -9.970541e-04 0.0
-2.214629e-02 -1.146099e-03 0.0
-2.182889e-02 -1.293867e-03 0.0
-2.147609e-02 -1.439950e-03 0.0
-2.108841e-02 -1.583917e-03 0.0
-2.066650e-02 -1.725310e-03 0.0
-2.021112e-02 -1.863646e-03 0.0
-1.972313e-02 -1.998421e-03 0.0
-1.920356e-02 -2.129104e-03 0.0
-1.865353e-02 -2.255144e-03 0.0
-1.807434e-02 -2.375961e-03 0.0
-1.746741e-02 -2.490947e-03 0.0
-1.683432e-02 -2.599467e-03 0.0
-1.617683e-02 -2.700848e-03 0.0
-1.549684e-02 -2.794388e-03 0.0
-1.479643e-02 -2.879350e-03 0.0
-1.407787e-02 -2.954962e-03 0.0
-1.334359e-02 -3.020422e-03 0.0
-1.259624e-02 -3.074901e-03 0.0
-1.183863e-02 -3.117544e-03 0.0
-1.107381e-02 -3.147475e-03 0.0
-1.030499e-02 -3.163805e-03 0.0
-9.535592e-03 -3.165641e-03 0.0
-8.769228e-03 -3.152090e-03 0.0
-8.009696e-03 -3.122276e-03 0.0
-7.260963e-03 -3.075351e-03 0.0
-6.527151e-03 -3.010514e-03 0.0
-5.812513e-03 -2.927041e-03 0.0
-5.121400e-03 -2.824315e-03 0.0
-4.458221e-03 -2.701869e-03 0.0
-3.827391e-03 -2.559436e-03 0.0
-3.233269e-03 -2.397023e-03 0.0
-2.680072e-03 -2.214994e-03 0.0
-2.171784e-03 -2.014189e-03 0.0
-1.712045e-03 -1.796071e-03 0.0
-1.304013e-03 -1.562921e-03 0.0
-9.502284e-04 -1.318085e-03 0.0
-6.524704e-04 -1.066297e-03 0.0
-4.116131e-04 -8.140736e-04 0.0
-2.275318e-04 -5.702317e-04 0.0
-9.906886e-05 -3.465462e-04 0.0
-2.412516e-05 -1.585464e-04 0.0
0.000000e+00 -2.617390e-05 0.0
0.000000e+00 2.610135e-05 0.0
0.000000e+00 -6.968951e-05 0.0
-4.039388e-05 7.655909e-05 0.0
-1.384207e-04 3.135382e-04 0.0
-3.086790e-04 5.947649e-04 0.0
-5.499965e-04 8.989364e-04 0.0
-8.593444e-04 1.211782e-03 0.0
-1.232348e-03 1.523152e-03 0.0
-1.664078e-03 1.825899e-03 0.0
-2.149747e-03 2.114711e-03 0.0
-2.685071e-03 2.385363e-03 0.0
-3.266264e-03 2.634403e-03 0.0
-3.889769e-03 2.859169e-03 0.0
-4.551884e-03 3.057955e-03 0.0
-5.248482e-03 3.230129e-03 0.0
-5.974930e-03 3.376102e-03 0.0
-6.726221e-03 3.497100e-03 0.0
-7.497263e-03 3.594811e-03 0.0
-8.283204e-03 3.671015e-03 0.0
-9.079664e-03 3.727310e-03 0.0
-9.882820e-03 3.764998e-03 0.0
-1.068935e-02 3.785133e-03 0.0
-1.149625e-02 3.788666e-03 0.0
-1.230070e-02 3.776596e-03 0.0
-1.309990e-02 3.750062e-03 0.0
-1.389111e-02 3.710338e-03 0.0
-1.467164e-02 3.658748e-03 0.0
-1.543897e-02 3.596540e-03 0.0
-1.619081e-02 3.524785e-03 0.0
-1.692518e-02 3.444327e-03 0.0
-1.764033e-02 3.355800e-03 0.0
-1.833470e-02 3.259686e-03 0.0
-1.900689e-02 3.156392e-03 0.0
-1.965554e-02 3.046311e-03 0.0
-2.027933e-02 2.929852e-03 0.0
-2.087695e-02 2.807433e-03 0.0
-2.144716e-02 2.679458e-03 0.0
-2.198876e-02 2.546288e-03 0.0
-2.250064e-02 2.408219e-03 0.0
-2.298176e-02 2.265481e-03 0.0
-2.343118e-02 2.118251e-03 0.0
-2.384800e-02 1.966673e-03 0.0
-2.423135e-02 1.810887e-03 0.0
-2.458043e-02 1.651038e-03 0.0
-2.489444e-02 1.487292e-03 0.0
-2.517263e-02 1.319834e-03 0.0
-2.541428e-02 1.148868e-03 0.0
-2.561870e-02 9.746138e-04 0.0
-2.578528e-02 7.973062e-04 0.0
-2.591344e-02 6.171934e-04 0.0
-2.600266e-02 4.345405e-04 0.0
-2.605250e-02 2.496326e-04 0.0
-2.606256e-02 6.277766e-05 0.0
-2.603253e-02 -1.256890e-04 0.0
-2.596217e-02 -3.154108e-04 0.0
-2.585133e-02 -5.060265e-04 0.0
-2.569993e-02 -6.971644e-04 0.0
-2.550797e-02 -8.884370e-04 0.0
-2.527554e-02 -1.079435e-03 0.0
-2.500283e-02 -1.269725e-03 0.0
-2.469012e-02 -1.458843e-03 0.0
-2.433778e-02 -1.646297e-03 0.0
-2.394629e-02 -1.831565e-03 0.0
-2.351626e-02 -2.014097e-03 0.0
-2.304840e-02 -2.193315e-03 0.0
-2.254355e-02 -2.368613e-03 0.0
-2.200270e-02 -2.539359e-03 0.0
-2.142697e-02 -2.704890e-03 0.0
-2.081763e-02 -2.864512e-03 0.0
-2.017611e-02 -3.017497e-03 0.0
-1.950399e-02 -3.163077e-03 0.0
-1.880302e-02 -3.300448e-03 0.0
-1.807513e-02 -3.428761e-03 0.0
-1.732243e-02 -3.547129e-03 0.0
-1.654721e-02 -3.654623e-03 0.0
-1.575194e-02 -3.750277e-03 0.0
-1.493933e-02 -3.833089e-03 0.0
-1.411225e-02 -3.902024e-03 0.0