# vtk DataFile Version 3.0
Vector Field
ASCII
DATASET RECTILINEAR_GRID
DIMENSIONS 102 102 1
X_COORDINATES 102 double
0.000000 0.100000 0.200000 0.300000 0.400000 0.500000 0.600000 0.700000 0.800000 0.900000 1.000000 1.100000 1.200000 1.300000 1.400000 1.500000 1.600000 1.700000 1.800000 1.900000 2.000000 2.100000 2.200000 2.300000 2.400000 2.500000 2.600000 2.700000 2.800000 2.900000 3.000000 3.100000 3.200000 3.300000 3.400000 3.500000 3.600000 3.700000 3.800000 3.900000 4.000000 4.100000 4.200000 4.300000 4.400000 4.500000 4.600000 4.700000 4.800000 4.900000 5.000000 5.100000 5.200000 5.300000 5.400000 5.500000 5.600000 5.700000 5.800000 5.900000 6.000000 6.100000 6.200000 6.300000 6.400000 6.500000 6.600000 6.700000 6.800000 6.900000 7.000000 7.100000 7.200000 7.300000 7.400000 7.500000 7.600000 7.700000 7.800000 7.900000 8.000000 8.100000 8.200000 8.300000 8.400000 8.500000 8.600000 8.700000 8.800000 8.900000 9.000000 9.100000 9.200000 9.300000 9.400000 9.500000 9.600000 9.700000 9.800000 9.900000 10.000000 10.100000 
Y_COORDINATES 102 double
0.000000 0.100000 0.200000 0.300000 0.400000 0.500000 0.600000 0.700000 0.800000 0.900000 1.000000 1.100000 1.200000 1.300000 1.400000 1.500000 1.600000 1.700000 1.800000 1.900000 2.000000 2.100000 2.200000 2.300000 2.400000 2.500000 2.600000 2.700000 2.800000 2.900000 3.000000 3.100000 3.200000 3.300000 3.400000 3.500000 3.600000 3.700000 3.800000 3.900000 4.000000 4.100000 4.200000 4.300000 4.400000 4.500000 4.600000 4.700000 4.800000 4.900000 5.000000 5.100000 5.200000 5.300000 5.400000 5.500000 5.600000 5.700000 5.800000 5.900000 6.000000 6.100000 6.200000 6.300000 6.400000 6.500000 6.600000 6.700000 6.800000 6.900000 7.000000 7.100000 7.200000 7.300000 7.400000 7.500000 7.600000 7.700000 7.800000 7.900000 8.000000 8.100000 8.200000 8.300000 8.400000 8.500000 8.600000 8.700000 8.800000 8.900000 9.000000 9.100000 9.200000 9.300000 9.400000 9.500000 9.600000 9.700000 9.800000 9.900000 10.000000 10.100000 
Z_COORDINATES 1 double
0.0
POINT_DATA 10404
VECTORS Velocity double
0.000000e+00 0.000000e+00 0.0
1.134200e-05 0.000000e+00 0.0
-9.450977e-06 0.000000e+00 0.0
-3.568603e-05 0.000000e+00 0.0
-5.407143e-05 0.000000e+00 0.0
-5.590818e-05 0.000000e+00 0.0
-3.797599e-05 0.000000e+00 0.0
-1.838515e-06 0.000000e+00 0.0
4.825064e-05 0.000000e+00 0.0
1.078198e-04 0.000000e+00 0.0
1.739492e-04 0.000000e+00 0.0
2.458023e-04 0.000000e+00 0.0
3.240671e-04 0.000000e+00 0.0
4.098895e-04 0.000000e+00 0.0
5.039235e-04 0.000000e+00 0.0
6.058663e-04 0.000000e+00 0.0
7.145185e-04 0.000000e+00 0.0
8.281754e-04 0.000000e+00 0.0
9.450912e-04 0.000000e+00 0.0
1.063827e-03 0.000000e+00 0.0
1.183402e-03 0.000000e+00 0.0
1.303271e-03 0.000000e+00 0.0
1.423187e-03 0.000000e+00 0.0
1.543024e-03 0.000000e+00 0.0
1.662624e-03 0.000000e+00 0.0
1.781696e-03 0.000000e+00 0.0
1.899800e-03 0.000000e+00 0.0
2.016386e-03 0.000000e+00 0.0
2.130873e-03 0.000000e+00 0.0
2.242715e-03 0.000000e+00 0.0
2.351438e-03 0.000000e+00 0.0
2.456625e-03 0.000000e+00 0.0
2.557883e-03 0.000000e+00 0.0
2.654815e-03 0.000000e+00 0.0
2.747009e-03 0.000000e+00 0.0
2.834060e-03 0.000000e+00 0.0
2.915609e-03 0.000000e+00 0.0
2.991355e-03 0.000000e+00 0.0
3.061053e-03 0.000000e+00 0.0
3.124478e-03 0.000000e+00 0.0
3.181378e-03 0.000000e+00 0.0
3.231450e-03 0.000000e+00 0.0
3.274333e-03 0.000000e+00 0.0
3.309643e-03 0.000000e+00 0.0
3.337013e-03 0.000000e+00 0.0
3.356145e-03 0.000000e+00 0.0
3.366825e-03 0.000000e+00 0.0
3.368935e-03 0.000000e+00 0.0
3.362439e-03 0.000000e+00 0.0
3.347367e-03 0.000000e+00 0.0
3.323781e-03 0.000000e+00 0.0
3.291751e-03 0.000000e+00 0.0
3.251363e-03 0.000000e+00 0.0
3.202726e-03 0.000000e+00 0.0
3.145991e-03 0.000000e+00 0.0
3.081364e-03 0.000000e+00 0.0
3.009113e-03 0.000000e+00 0.0
2.929570e-03 0.000000e+00 0.0
2.843120e-03 0.000000e+00 0.0
2.750194e-03 0.000000e+00 0.0
2.651259e-03 0.000000e+00 0.0
2.546812e-03 0.000000e+00 0.0
2.437375e-03 0.000000e+00 0.0
2.323500e-03 0.000000e+00 0.0
2.205761e-03 0.000000e+00 0.0
2.084763e-03 0.000000e+00 0.0
1.961135e-03 0.000000e+00 0.0
1.835528e-03 0.000000e+00 0.0
1.708608e-03 0.000000e+00 0.0
1.581054e-03 0.000000e+00 0.0
1.453549e-03 0.000000e+00 0.0
1.326777e-03 0.000000e+00 0.0
1.201420e-03 0.000000e+00 0.0
1.078155e-03 0.000000e+00 0.0
9.576521e-04 0.000000e+00 0.0
8.405678e-04 0.000000e+00 0.0
7.275428e-04 0.000000e+00 0.0
6.191953e-04 0.000000e+00 0.0
5.161164e-04 0.000000e+00 0.0
4.188652e-04 0.000000e+00 0.0
3.279654e-04 0.000000e+00 0.0
2.439013e-04 0.000000e+00 0.0
1.671141e-04 0.000000e+00 0.0
9.799731e-05 0.000000e+00 0.0
3.689193e-05 0.000000e+00 0.0
-1.591985e-05 0.000000e+00 0.0
-6.022206e-05 0.000000e+00 0.0
-9.587469e-05 0.000000e+00 0.0
-1.228249e-04 0.000000e+00 0.0
-1.411214e-04 0.000000e+00 0.0
-1.509321e-04 0.000000e+00 0.0
-1.525699e-04 0.000000e+00 0.0
-1.465260e-04 0.000000e+00 0.0
-1.335181e-04 0.000000e+00 0.0
-1.145592e-04 0.000000e+00 0.0
-9.105902e-05 0.000000e+00 0.0
-6.496804e-05 0.000000e+00 0.0
-3.897552e-05 0.000000e+00 0.0
-1.670400e-05 0.000000e+00 0.0
-2.584561e-06 0.000000e+00 0.0
-0.000000e+00 0.000000e+00 0.0
0.000000e+00 0.000000e+00 0.0
0.000000e+00 3.055072e-05 0.0
2.664396e-05 7.839722e-06 0.0
4.384074e-05 -4.642886e-06 0.0
5.051139e-05 -1.076764e-05 0.0
4.633651e-05 -1.245210e-05 0.0
3.355057e-05 -7.505197e-06 0.0
1.379976e-05 4.372250e-06 0.0
-1.330961e-05 2.126434e-05 0.0
-4.977453e-05 3.982478e-05 0.0
-9.785435e-05 5.675428e-05 0.0
-1.588274e-04 6.999840e-05 0.0
-2.324343e-04 7.915670e-05 0.0
-3.170709e-04 8.513516e-05 0.0
-4.104323e-04 8.941155e-05 0.0
-5.102131e-04 9.333001e-05 0.0
-6.145880e-04 9.768304e-05 0.0
-7.223829e-04 1.026294e-04 0.0
-8.329919e-04 1.078510e-04 0.0
-9.461611e-04 1.128085e-04 0.0
-1.061748e-03 1.169797e-04 0.0
-1.179533e-03 1.200184e-04 0.0
-1.299121e-03 1.218126e-04 0.0
-1.419936e-03 1.224537e-04 0.0
-1.541282e-03 1.221490e-04 0.0
-1.662439e-03 1.211234e-04 0.0
-1.782744e-03 1.195526e-04 0.0
-1.901617e-03 1.175486e-04 0.0
-2.018550e-03 1.151879e-04 0.0
-2.133066e-03 1.125494e-04 0.0
-2.244696e-03 1.097255e-04 0.0
-2.352987e-03 1.067934e-04 0.0
-2.457536e-03 1.037640e-04 0.0
-2.558024e-03 1.005453e-04 0.0
-2.654216e-03 9.695405e-05 0.0
-2.745921e-03 9.277955e-05 0.0
-2.832915e-03 8.787341e-05 0.0
-2.914889e-03 8.221910e-05 0.0
-2.991416e-03 7.594552e-05 0.0
-3.061990e-03 6.927660e-05 0.0
-3.126087e-03 6.244162e-05 0.0
-3.183246e-03 5.558890e-05 0.0
-3.233113e-03 4.874085e-05 0.0
-3.275446e-03 4.180572e-05 0.0
-3.310088e-03 3.463442e-05 0.0
-3.336910e-03 2.709238e-05 0.0
-3.355771e-03 1.911571e-05 0.0
-3.366498e-03 1.073260e-05 0.0
-3.368896e-03 2.050122e-06 0.0
-3.362787e-03 -6.777888e-06 0.0
-3.348057e-03 -1.559214e-05 0.0
-3.324662e-03 -2.428551e-05 0.0
-3.292639e-03 -3.280301e-05 0.0
-3.252104e-03 -4.112993e-05 0.0
-3.203236e-03 -4.927137e-05 0.0
-3.146268e-03 -5.723118e-05 0.0
-3.081466e-03 -6.499701e-05 0.0
-3.009129e-03 -7.253498e-05 0.0
-2.929583e-03 -7.979310e-05 0.0
-2.843187e-03 -8.671020e-05 0.0
-2.750335e-03 -9.322564e-05 0.0
-2.651466e-03 -9.928627e-05 0.0
-2.547059e-03 -1.048489e-04 0.0
-2.437633e-03 -1.098788e-04 0.0
-2.323745e-03 -1.143464e-04 0.0
-2.205978e-03 -1.182244e-04 0.0
-2.084943e-03 -1.214861e-04 0.0
-1.961271e-03 -1.241067e-04 0.0
-1.835614e-03 -1.260652e-04 0.0
-1.708637e-03 -1.273468e-04 0.0
-1.581022e-03 -1.279439e-04 0.0
-1.453458e-03 -1.278562e-04 0.0
-1.326636e-03 -1.270885e-04 0.0
-1.201244e-03 -1.256477e-04 0.0
-1.077963e-03 -1.235407e-04 0.0
-9.574596e-04 -1.207752e-04 0.0
-8.403861e-04 -1.173603e-04 0.0
-7.273755e-04 -1.133088e-04 0.0
-6.190396e-04 -1.086391e-04 0.0
-5.159655e-04 -1.033757e-04 0.0
-4.187120e-04 -9.754935e-05 0.0
-3.278051e-04 -9.119632e-05 0.0
-2.437326e-04 -8.435732e-05 0.0
-1.669389e-04 -7.707684e-05 0.0
-9.782008e-05 -6.940322e-05 0.0
-3.671771e-05 -6.138920e-05 0.0
1.608684e-05 -5.309319e-05 0.0
6.037920e-05 -4.458088e-05 0.0
9.602081e-05 -3.592785e-05 0.0
1.229597e-04 -2.722122e-05 0.0
1.412446e-04 -1.856267e-05 0.0
1.510435e-04 -1.007245e-05 0.0
1.526685e-04 -1.895699e-06 0.0
1.466110e-04 5.788695e-06 0.0
1.335886e-04 1.275408e-05 0.0
1.146152e-04 1.870496e-05 0.0
9.110076e-05 2.324538e-05 0.0
6.499756e-05 2.583365e-05 0.0
3.899609e-05 2.573238e-05 0.0
1.671933e-05 2.200712e-05 0.0
2.598042e-06 1.385170e-05 0.0
0.000000e+00 2.328463e-06 0.0
0.000000e+00 -2.357890e-06 0.0
0.000000e+00 4.465177e-05 0.0
2.968880e-05 -9.075203e-06 0.0
4.610110e-05 -3.601079e-05 0.0
5.163806e-05 -3.326919e-05 0.0
3.892864e-05 -9.975403e-06 0.0
3.074001e-06 2.855479e-05 0.0
-5.995540e-05 7.624439e-05 0.0
-1.533633e-04 1.269998e-04 0.0
-2.789560e-04 1.758072e-04 0.0
-4.367035e-04 2.196112e-04 0.0
-6.248156e-04 2.574689e-04 0.0
-8.402835e-04 2.900048e-04 0.0
-1.079597e-03 3.185416e-04 0.0
-1.339346e-03 3.443262e-04 0.0
-1.616549e-03 3.680930e-04 0.0
-1.908727e-03 3.899890e-04 0.0
-2.213803e-03 4.097383e-04 0.0
-2.529943e-03 4.268928e-04 0.0
-2.855410e-03 4.410550e-04 0.0
-3.188463e-03 4.520162e-04 0.0
-3.527318e-03 4.597978e-04 0.0
-3.870164e-03 4.646113e-04 0.0
-4.215211e-03 4.667686e-04 0.0
-4.560750e-03 4.665857e-04 0.0
-4.905185e-03 4.643209e-04 0.0
-5.247030e-03 4.601664e-04 0.0
-5.584881e-03 4.542795e-04 0.0
-5.917383e-03 4.468156e-04 0.0
-6.243213e-03 4.379314e-04 0.0
-6.561108e-03 4.277483e-04 0.0
-6.869892e-03 4.162978e-04 0.0
-7.168503e-03 4.034919e-04 0.0
-7.455967e-03 3.891478e-04 0.0
-7.731349e-03 3.730679e-04 0.0
-7.993684e-03 3.551384e-04 0.0
-8.241927e-03 3.353966e-04 0.0
-8.474959e-03 3.140327e-04 0.0
-8.691627e-03 2.913222e-04 0.0
-8.890814e-03 2.675245e-04 0.0
-9.071501e-03 2.427965e-04 0.0
-9.232794e-03 2.171583e-04 0.0
-9.373914e-03 1.905229e-04 0.0
-9.494158e-03 1.627683e-04 0.0
-9.592865e-03 1.338170e-04 0.0
-9.669394e-03 1.036905e-04 0.0
-9.723124e-03 7.252016e-05 0.0
-9.753494e-03 4.052365e-05 0.0
-9.760036e-03 7.963530e-06 0.0
-9.742433e-03 -2.488507e-05 0.0
-9.700542e-03 -5.776322e-05 0.0
-9.634392e-03 -9.048807e-05 0.0
-9.544162e-03 -1.229237e-04 0.0
-9.430170e-03 -1.549510e-04 0.0
-9.292857e-03 -1.864442e-04 0.0
-9.132780e-03 -2.172569e-04 0.0
-8.950606e-03 -2.472211e-04 0.0
-8.747119e-03 -2.761542e-04 0.0
-8.523218e-03 -3.038701e-04 0.0
-8.279921e-03 -3.301899e-04 0.0
-8.018364e-03 -3.549483e-04 0.0
-7.739798e-03 -3.779945e-04 0.0
-7.445577e-03 -3.991909e-04 0.0
-7.137155e-03 -4.184089e-04 0.0
-6.816073e-03 -4.355278e-04 0.0
-6.483953e-03 -4.504347e-04 0.0
-6.142487e-03 -4.630274e-04 0.0
-5.793434e-03 -4.732175e-04 0.0
-5.438605e-03 -4.809337e-04 0.0
-5.079856e-03 -4.861231e-04 0.0
-4.719077e-03 -4.887508e-04 0.0
-4.358173e-03 -4.887982e-04 0.0
-3.999056e-03 -4.862627e-04 0.0
-3.643630e-03 -4.811520e-04 0.0
-3.293779e-03 -4.734852e-04 0.0
-2.951359e-03 -4.632944e-04 0.0
-2.618190e-03 -4.506275e-04 0.0
-2.296039e-03 -4.355496e-04 0.0
-1.986614e-03 -4.181439e-04 0.0
-1.691552e-03 -3.985115e-04 0.0
-1.412403e-03 -3.767702e-04 0.0
-1.150618e-03 -3.530543e-04 0.0
-9.075390e-04 -3.275141e-04 0.0
-6.843793e-04 -3.003172e-04 0.0
-4.822140e-04 -2.716503e-04 0.0
-3.019610e-04 -2.417219e-04 0.0
-1.443638e-04 -2.107657e-04 0.0
-9.969561e-06 -1.790451e-04 0.0
1.008956e-04 -1.468586e-04 0.0
1.881590e-04 -1.145474e-04 0.0
2.520407e-04 -8.250653e-05 0.0
2.931019e-04 -5.119698e-05 0.0
3.123077e-04 -2.116668e-05 0.0
3.111078e-04 6.921508e-06 0.0
2.915411e-04 3.225204e-05 0.0
2.563707e-04 5.380596e-05 0.0
2.092505e-04 7.029579e-05 0.0
1.549161e-04 8.009903e-05 0.0
9.934566e-05 8.123385e-05 0.0
4.975763e-05 7.152624e-05 0.0
1.413824e-05 4.940219e-05 0.0
0.000000e+00 1.639784e-05 0.0
0.000000e+00 -1.642036e-05 0.0
0.000000e+00 4.805789e-05 0.0
1.867541e-05 -3.201572e-05 0.0
2.340953e-05 -5.803686e-05 0.0
1.193109e-05 -3.127839e-05 0.0
-2.766671e-05 3.117805e-05 0.0
-1.047572e-04 1.157480e-04 0.0
-2.263413e-04 2.107846e-04 0.0
-3.964509e-04 3.073486e-04 0.0
-6.159417e-04 3.997170e-04 0.0
-8.829535e-04 4.851853e-04 0.0
-1.193850e-03 5.632326e-04 0.0
-1.544239e-03 6.344400e-04 0.0
-1.929735e-03 6.995780e-04 0.0
-2.346340e-03 7.590934e-04 0.0
-2.790498e-03 8.129905e-04 0.0
-3.258978e-03 8.609657e-04 0.0
-3.748711e-03 9.026291e-04 0.0
-4.256665e-03 9.376969e-04 0.0
-4.779786e-03 9.661046e-04 0.0
-5.314990e-03 9.880310e-04 0.0
-5.859213e-03 1.003848e-03 0.0
-6.409481e-03 1.014030e-03 0.0
-6.962970e-03 1.019052e-03 0.0
-7.517038e-03 1.019332e-03 0.0
-8.069213e-03 1.015215e-03 0.0
-8.617156e-03 1.007000e-03 0.0
-9.158615e-03 9.949695e-04 0.0
-9.691424e-03 9.793822e-04 0.0
-1.021352e-02 9.604320e-04 0.0
-1.072298e-02 9.381973e-04 0.0
-1.121801e-02 9.126230e-04 0.0
-1.169692e-02 8.835626e-04 0.0
-1.215808e-02 8.508721e-04 0.0
-1.259978e-02 8.145123e-04 0.0
-1.302026e-02 7.746079e-04 0.0
-1.341769e-02 7.314308e-04 0.0
-1.379026e-02 6.853170e-04 0.0
-1.413626e-02 6.365576e-04 0.0
-1.445412e-02 5.853188e-04 0.0
-1.474241e-02 5.316261e-04 0.0
-1.499985e-02 4.754142e-04 0.0
-1.522523e-02 4.166142e-04 0.0
-1.541736e-02 3.552370e-04 0.0
-1.557510e-02 2.914196e-04 0.0
-1.569734e-02 2.254238e-04 0.0
-1.578310e-02 1.576000e-04 0.0
-1.583155e-02 8.833995e-05 0.0
-1.584204e-02 1.804376e-05 0.0
-1.581419e-02 -5.288421e-05 0.0
-1.574785e-02 -1.240361e-04 0.0
-1.564309e-02 -1.950617e-04 0.0
-1.550019e-02 -2.656295e-04 0.0
-1.531963e-02 -3.353993e-04 0.0
-1.510206e-02 -4.040113e-04 0.0
-1.484834e-02 -4.710869e-04 0.0
-1.455948e-02 -5.362396e-04 0.0
-1.423674e-02 -5.990865e-04 0.0
-1.388152e-02 -6.592585e-04 0.0
-1.349545e-02 -7.164051e-04 0.0
-1.308033e-02 -7.701951e-04 0.0
-1.263811e-02 -8.203140e-04 0.0
-1.217094e-02 -8.664624e-04 0.0
-1.168109e-02 -9.083561e-04 0.0
-1.117097e-02 -9.457292e-04 0.0
-1.064314e-02 -9.783386e-04 0.0
-1.010025e-02 -1.005969e-03 0.0
-9.545062e-03 -1.028438e-03 0.0
-8.980427e-03 -1.045595e-03 0.0
-8.409257e-03 -1.057324e-03 0.0
-7.834513e-03 -1.063541e-03 0.0
-7.259185e-03 -1.064194e-03 0.0
-6.686268e-03 -1.059266e-03 0.0
-6.118751e-03 -1.048768e-03 0.0
-5.559596e-03 -1.032742e-03 0.0
-5.011721e-03 -1.011264e-03 0.0
-4.477988e-03 -9.844467e-04 0.0
-3.961179e-03 -9.524369e-04 0.0
-3.463978e-03 -9.154186e-04 0.0
-2.988954e-03 -8.736106e-04 0.0
-2.538535e-03 -8.272669e-04 0.0
-2.114993e-03 -7.766771e-04 0.0
-1.720420e-03 -7.221686e-04 0.0
-1.356708e-03 -6.641092e-04 0.0
-1.025521e-03 -6.029117e-04 0.0
-7.282726e-04 -5.390378e-04 0.0
-4.660952e-04 -4.730052e-04 0.0
-2.398040e-04 -4.053950e-04 0.0
-4.985801e-05 -3.368627e-04 0.0
1.036876e-04 -2.681527e-04 0.0
2.212367e-04 -2.001182e-04 0.0
3.037264e-04 -1.337522e-04 0.0
3.527079e-04 -7.021552e-05 0.0
3.704489e-04 -1.088803e-05 0.0
3.600590e-04 4.257340e-05 0.0
3.256323e-04 8.816471e-05 0.0
2.724035e-04 1.234570e-04 0.0
2.068954e-04 1.455407e-04 0.0
1.370040e-04 1.510583e-04 0.0
7.197309e-05 1.364902e-04 0.0
2.227698e-05 9.903107e-05 0.0
0.000000e+00 3.860751e-05 0.0
0.000000e+00 -3.862073e-05 0.0
0.000000e+00 4.194827e-05 0.0
2.780924e-08 -4.963330e-05 0.0
-1.269059e-05 -5.596312e-05 0.0
-5.174924e-05 9.342007e-06 0.0
-1.320187e-04 1.221548e-04 0.0
-2.649208e-04 2.620989e-04 0.0
-4.578021e-04 4.138135e-04 0.0
-7.136205e-04 5.668607e-04 0.0
-1.031562e-03 7.151605e-04 0.0
-1.408292e-03 8.558034e-04 0.0
-1.839284e-03 9.876809e-04 0.0
-2.319786e-03 1.110372e-03 0.0
-2.845284e-03 1.223502e-03 0.0
-3.411565e-03 1.326550e-03 0.0
-4.014580e-03 1.418923e-03 0.0
-4.650294e-03 1.500123e-03 0.0
-5.314585e-03 1.569882e-03 0.0
-6.003234e-03 1.628233e-03 0.0
-6.711965e-03 1.675499e-03 0.0
-7.436531e-03 1.712224e-03 0.0
-8.172807e-03 1.739065e-03 0.0
-8.916867e-03 1.756697e-03 0.0
-9.665021e-03 1.765742e-03 0.0
-1.041379e-02 1.766752e-03 0.0
-1.115989e-02 1.760222e-03 0.0
-1.190014e-02 1.746615e-03 0.0
-1.263152e-02 1.726342e-03 0.0
-1.335116e-02 1.699714e-03 0.0
-1.405636e-02 1.666898e-03 0.0
-1.474461e-02 1.627914e-03 0.0
-1.541352e-02 1.582689e-03 0.0
-1.606073e-02 1.531174e-03 0.0
-1.668384e-02 1.473445e-03 0.0
-1.728037e-02 1.409747e-03 0.0
-1.784779e-02 1.340462e-03 0.0
-1.838365e-02 1.266003e-03 0.0
-1.888562e-02 1.186701e-03 0.0
-1.935159e-02 1.102737e-03 0.0
-1.977964e-02 1.014149e-03 0.0
-2.016797e-02 9.209052e-04 0.0
-2.051485e-02 8.230049e-04 0.0
-2.081860e-02 7.205665e-04 0.0
-2.107755e-02 6.138602e-04 0.0
-2.129010e-02 5.032927e-04 0.0
-2.145479e-02 3.893574e-04 0.0
-2.157039e-02 2.725836e-04 0.0
-2.163587e-02 1.535073e-04 0.0
-2.165053e-02 3.267378e-05 0.0
-2.161390e-02 -8.933042e-05 0.0
-2.152582e-02 -2.118585e-04 0.0
-2.138640e-02 -3.342849e-04 0.0
-2.119597e-02 -4.559773e-04 0.0
-2.095513e-02 -5.762881e-04 0.0
-2.066474e-02 -6.945584e-04 0.0
-2.032589e-02 -8.101292e-04 0.0
-1.993997e-02 -9.223537e-04 0.0
-1.950861e-02 -1.030604e-03 0.0
-1.903372e-02 -1.134276e-03 0.0
-1.851744e-02 -1.232786e-03 0.0
-1.796216e-02 -1.325572e-03 0.0
-1.737048e-02 -1.412090e-03 0.0
-1.674521e-02 -1.491822e-03 0.0
-1.608938e-02 -1.564278e-03 0.0
-1.540617e-02 -1.629005e-03 0.0
-1.469896e-02 -1.685595e-03 0.0
-1.397127e-02 -1.733688e-03 0.0
-1.322675e-02 -1.772975e-03 0.0
-1.246918e-02 -1.803197e-03 0.0
-1.170240e-02 -1.824150e-03 0.0
-1.093034e-02 -1.835679e-03 0.0
-1.015694e-02 -1.837686e-03 0.0
-9.386177e-03 -1.830135e-03 0.0
-8.622004e-03 -1.813044e-03 0.0
-7.868351e-03 -1.786490e-03 0.0
-7.129091e-03 -1.750610e-03 0.0
-6.408018e-03 -1.705597e-03 0.0
-5.708823e-03 -1.651707e-03 0.0
-5.035063e-03 -1.589255e-03 0.0
-4.390137e-03 -1.518615e-03 0.0
-3.777261e-03 -1.440223e-03 0.0
-3.199438e-03 -1.354578e-03 0.0
-2.659430e-03 -1.262249e-03 0.0
-2.159730e-03 -1.163874e-03 0.0
-1.702527e-03 -1.060173e-03 0.0
-1.289671e-03 -9.519480e-04 0.0
-9.226327e-04 -8.400969e-04 0.0
-6.024584e-04 -7.256246e-04 0.0
-3.297196e-04 -6.096605e-04 0.0
-1.044537e-04 -4.934815e-04 0.0
7.390385e-05 -3.785417e-04 0.0
2.065954e-04 -2.665112e-04 0.0
2.956413e-04 -1.593287e-04 0.0
3.439419e-04 -5.925506e-05 0.0
3.553987e-04 3.105147e-05 0.0
3.350428e-04 1.084562e-04 0.0
2.891615e-04 1.692741e-04 0.0
2.254113e-04 2.092271e-04 0.0
1.529012e-04 2.235031e-04 0.0
8.229550e-05 2.070302e-04 0.0
2.613041e-05 1.551302e-04 0.0
0.000000e+00 6.467195e-05 0.0
0.000000e+00 -6.467346e-05 0.0
0.000000e+00 2.947326e-05 0.0
-1.797406e-05 -5.349195e-05 0.0
-5.259824e-05 -2.116265e-05 0.0
-1.288211e-04 9.597847e-05 0.0
-2.617896e-04 2.687611e-04 0.0
-4.621806e-04 4.726646e-04 0.0
-7.355774e-04 6.904216e-04 0.0
-1.082938e-03 9.107733e-04 0.0
-1.501937e-03 1.126931e-03 0.0
-1.988509e-03 1.334890e-03 0.0
-2.538029e-03 1.532072e-03 0.0
-3.145901e-03 1.716516e-03 0.0
-3.807663e-03 1.886573e-03 0.0
-4.518841e-03 2.040899e-03 0.0
-5.274789e-03 2.178543e-03 0.0
-6.070605e-03 2.299016e-03 0.0
-6.901148e-03 2.402287e-03 0.0
-7.761130e-03 2.488727e-03 0.0
-8.645240e-03 2.558998e-03 0.0
-9.548280e-03 2.613929e-03 0.0
-1.046526e-02 2.654395e-03 0.0
-1.139147e-02 2.681239e-03 0.0
-1.232244e-02 2.695248e-03 0.0
-1.325392e-02 2.697156e-03 0.0
-1.418186e-02 2.687645e-03 0.0
-1.510234e-02 2.667323e-03 0.0
-1.601170e-02 2.636670e-03 0.0
-1.690646e-02 2.595991e-03 0.0
-1.778339e-02 2.545425e-03 0.0
-1.863938e-02 2.485028e-03 0.0
-1.947136e-02 2.414886e-03 0.0
-2.027622e-02 2.335230e-03 0.0
-2.105078e-02 2.246463e-03 0.0
-2.179184e-02 2.149101e-03 0.0
-2.249629e-02 2.043657e-03 0.0
-2.316122e-02 1.930520e-03 0.0
-2.378397e-02 1.809900e-03 0.0
-2.436210e-02 1.681858e-03 0.0
-2.489330e-02 1.546408e-03 0.0
-2.537536e-02 1.403632e-03 0.0
-2.580604e-02 1.253764e-03 0.0
-2.618318e-02 1.097217e-03 0.0
-2.650467e-02 9.345439e-04 0.0
-2.676857e-02 7.663836e-04 0.0
-2.697318e-02 5.934028e-04 0.0
-2.711709e-02 4.162749e-04 0.0
-2.719919e-02 2.356933e-04 0.0
-2.721866e-02 5.241105e-05 0.0
-2.717499e-02 -1.327105e-04 0.0
-2.706797e-02 -3.186850e-04 0.0
-2.689769e-02 -5.045220e-04 0.0
-2.666454e-02 -6.892218e-04 0.0
-2.636922e-02 -8.717825e-04 0.0
-2.601278e-02 -1.051212e-03 0.0
-2.559656e-02 -1.226536e-03 0.0
-2.512225e-02 -1.396807e-03 0.0
-2.459187e-02 -1.561100e-03 0.0
-2.400773e-02 -1.718512e-03 0.0
-2.337245e-02 -1.868164e-03 0.0
-2.268892e-02 -2.009200e-03 0.0
-2.196032e-02 -2.140796e-03 0.0
-2.119005e-02 -2.262169e-03 0.0
-2.038180e-02 -2.372586e-03 0.0
-1.953946e-02 -2.471376e-03 0.0
-1.866714e-02 -2.557930e-03 0.0
-1.776913e-02 -2.631711e-03 0.0
-1.684989e-02 -2.692250e-03 0.0
-1.591399e-02 -2.739151e-03 0.0
-1.496612e-02 -2.772094e-03 0.0
-1.401107e-02 -2.790838e-03 0.0
-1.305363e-02 -2.795231e-03 0.0
-1.209866e-02 -2.785212e-03 0.0
-1.115099e-02 -2.760814e-03 0.0
-1.021541e-02 -2.722154e-03 0.0
-9.296657e-03 -2.669439e-03 0.0
-8.399367e-03 -2.602962e-03 0.0
-7.528044e-03 -2.523106e-03 0.0
-6.687031e-03 -2.430344e-03 0.0
-5.880478e-03 -2.325241e-03 0.0
-5.112312e-03 -2.208459e-03 0.0
-4.386196e-03 -2.080756e-03 0.0
-3.705500e-03 -1.942999e-03 0.0
-3.073263e-03 -1.796162e-03 0.0
-2.492146e-03 -1.641338e-03 0.0
-1.964397e-03 -1.479747e-03 0.0
-1.491798e-03 -1.312752e-03 0.0
-1.075610e-03 -1.141872e-03 0.0
-7.165225e-04 -9.688118e-04 0.0
-4.145814e-04 -7.954886e-04 0.0
-1.691185e-04 -6.240708e-04 0.0
2.133232e-05 -4.570267e-04 0.0
1.591235e-04 -2.971827e-04 0.0
2.475999e-04 -1.477933e-04 0.0
2.912075e-04 -1.261704e-05 0.0
2.956006e-04 1.040016e-04 0.0
2.677509e-04 1.970615e-04 0.0
2.160498e-04 2.608648e-04 0.0
1.504337e-04 2.890543e-04 0.0
8.261172e-05 2.747869e-04 0.0
2.660315e-05 2.110734e-04 0.0
0.000000e+00 9.120989e-05 0.0
0.000000e+00 -9.119880e-05 0.0
0.000000e+00 1.200273e-05 0.0
-3.131787e-05 -3.896096e-05 0.0
-9.262312e-05 4.958265e-05 0.0
-2.143998e-04 2.313021e-04 0.0
-4.092886e-04 4.740429e-04 0.0
-6.850495e-04 7.516411e-04 0.0
-1.044470e-03 1.045957e-03 0.0
-1.486531e-03 1.344813e-03 0.0
-2.007991e-03 1.640010e-03 0.0
-2.604685e-03 1.925711e-03 0.0
-3.272244e-03 2.197445e-03 0.0
-4.006252e-03 2.451669e-03 0.0
-4.802124e-03 2.685656e-03 0.0
-5.654930e-03 2.897501e-03 0.0
-6.559306e-03 3.086096e-03 0.0
-7.509480e-03 3.251057e-03 0.0
-8.499391e-03 3.392596e-03 0.0
-9.522848e-03 3.511356e-03 0.0
-1.057371e-02 3.608248e-03 0.0
-1.164602e-02 3.684301e-03 0.0
-1.273409e-02 3.740561e-03 0.0
-1.383251e-02 3.778045e-03 0.0
-1.493610e-02 3.797737e-03 0.0
-1.603992e-02 3.800569e-03 0.0
-1.713923e-02 3.787379e-03 0.0
-1.822955e-02 3.758853e-03 0.0
-1.930665e-02 3.715484e-03 0.0
-2.036656e-02 3.657584e-03 0.0
-2.140545e-02 3.585381e-03 0.0
-2.241955e-02 3.499151e-03 0.0
-2.340504e-02 3.399318e-03 0.0
-2.435803e-02 3.286478e-03 0.0
-2.527467e-02 3.161314e-03 0.0
-2.615122e-02 3.024462e-03 0.0
-2.698419e-02 2.876390e-03 0.0
-2.777037e-02 2.717360e-03 0.0
-2.850680e-02 2.547477e-03 0.0
-2.919066e-02 2.366817e-03 0.0
-2.981920e-02 2.175557e-03 0.0
-3.038968e-02 1.974056e-03 0.0
-3.089941e-02 1.762867e-03 0.0
-3.134577e-02 1.542689e-03 0.0
-3.172633e-02 1.314299e-03 0.0
-3.203895e-02 1.078494e-03 0.0
-3.228175e-02 8.360828e-04 0.0
-3.245321e-02 5.879055e-04 0.0
-3.255208e-02 3.348859e-04 0.0
-3.257745e-02 7.808088e-05 0.0
-3.252871e-02 -1.812817e-04 0.0
-3.240558e-02 -4.418030e-04 0.0
-3.220815e-02 -7.020807e-04 0.0
-3.193684e-02 -9.607186e-04 0.0
-3.159249e-02 -1.216338e-03 0.0
-3.117629e-02 -1.467585e-03 0.0
-3.068983e-02 -1.713131e-03 0.0
-3.013507e-02 -1.951672e-03 0.0
-2.951435e-02 -2.181925e-03 0.0
-2.883035e-02 -2.402629e-03 0.0
-2.808607e-02 -2.612551e-03 0.0
-2.728488e-02 -2.810496e-03 0.0
-2.643043e-02 -2.995320e-03 0.0
-2.552670e-02 -3.165941e-03 0.0
-2.457794e-02 -3.321353e-03 0.0
-2.358869e-02 -3.460630e-03 0.0
-2.256369e-02 -3.582929e-03 0.0
-2.150793e-02 -3.687498e-03 0.0
-2.042656e-02 -3.773675e-03 0.0
-1.932491e-02 -3.840898e-03 0.0
-1.820840e-02 -3.888712e-03 0.0
-1.708257e-02 -3.916778e-03 0.0
-1.595303e-02 -3.924881e-03 0.0
-1.482541e-02 -3.912936e-03 0.0
-1.370532e-02 -3.880986e-03 0.0
-1.259835e-02 -3.829194e-03 0.0
-1.151002e-02 -3.757843e-03 0.0
-1.044572e-02 -3.667337e-03 0.0
-9.410682e-03 -3.558206e-03 0.0
-8.409981e-03 -3.431108e-03 0.0
-7.448450e-03 -3.286830e-03 0.0
-6.530663e-03 -3.126297e-03 0.0
-5.660892e-03 -2.950572e-03 0.0
-4.843068e-03 -2.760867e-03 0.0
-4.080730e-03 -2.558545e-03 0.0
-3.376985e-03 -2.345134e-03 0.0
-2.734451e-03 -2.122337e-03 0.0
-2.155211e-03 -1.892053e-03 0.0
-1.640749e-03 -1.656398e-03 0.0
-1.191892e-03 -1.417734e-03 0.0
-8.087373e-04 -1.178706e-03 0.0
-4.905803e-04 -9.422889e-04 0.0
-2.358312e-04 -7.118347e-04 0.0
-4.192884e-05 -4.911431e-04 0.0
9.475188e-05 -2.845325e-04 0.0
1.789950e-04 -9.691969e-05 0.0
2.168430e-04 6.609206e-05 0.0
2.156951e-04 1.981463e-04 0.0
1.844131e-04 2.920823e-04 0.0
1.334807e-04 3.399214e-04 0.0
7.528898e-05 3.329133e-04 0.0
2.468874e-05 2.616088e-04 0.0
0.000000e+00 1.158340e-04 0.0
0.000000e+00 -1.158107e-04 0.0
0.000000e+00 -1.223763e-05 0.0
-3.988493e-05 -5.467392e-06 0.0
-1.328911e-04 1.559637e-04 0.0
-3.065332e-04 4.157651e-04 0.0
-5.690206e-04 7.402926e-04 0.0
-9.242113e-04 1.103229e-03 0.0
-1.372121e-03 1.485726e-03 0.0
-1.910309e-03 1.874186e-03 0.0
-2.535161e-03 2.258433e-03 0.0
-3.242653e-03 2.630524e-03 0.0
-4.028560e-03 2.984179e-03 0.0
-4.888361e-03 3.314555e-03 0.0
-5.817057e-03 3.618166e-03 0.0
-6.809071e-03 3.892767e-03 0.0
-7.858260e-03 4.137204e-03 0.0
-8.958039e-03 4.351204e-03 0.0
-1.010156e-02 4.535154e-03 0.0
-1.128191e-02 4.689880e-03 0.0
-1.249229e-02 4.816445e-03 0.0
-1.372614e-02 4.916023e-03 0.0
-1.497717e-02 4.989820e-03 0.0
-1.623932e-02 5.039047e-03 0.0
-1.750680e-02 5.064885e-03 0.0
-1.877407e-02 5.068424e-03 0.0
-2.003587e-02 5.050584e-03 0.0
-2.128723e-02 5.012078e-03 0.0
-2.252346e-02 4.953436e-03 0.0
-2.374002e-02 4.875108e-03 0.0
-2.493242e-02 4.777602e-03 0.0
-2.609614e-02 4.661582e-03 0.0
-2.722660e-02 4.527871e-03 0.0
-2.831929e-02 4.377350e-03 0.0
-2.936987e-02 4.210808e-03 0.0
-3.037428e-02 4.028820e-03 0.0
-3.132878e-02 3.831725e-03 0.0
-3.222986e-02 3.619698e-03 0.0
-3.307419e-02 3.392903e-03 0.0
-3.385849e-02 3.151626e-03 0.0
-3.457950e-02 2.896358e-03 0.0
-3.523397e-02 2.627793e-03 0.0
-3.581881e-02 2.346769e-03 0.0
-3.633108e-02 2.054189e-03 0.0
-3.676818e-02 1.750974e-03 0.0
-3.712776e-02 1.438056e-03 0.0
-3.740785e-02 1.116419e-03 0.0
-3.760675e-02 7.871522e-04 0.0
-3.772309e-02 4.515073e-04 0.0
-3.775581e-02 1.109282e-04 0.0
-3.770418e-02 -2.329366e-04 0.0
-3.756788e-02 -5.782465e-04 0.0
-3.734697e-02 -9.231734e-04 0.0
-3.704196e-02 -1.265911e-03 0.0
-3.665377e-02 -1.604679e-03 0.0
-3.618377e-02 -1.937720e-03 0.0
-3.563372e-02 -2.263298e-03 0.0
-3.500582e-02 -2.579692e-03 0.0
-3.430266e-02 -2.885205e-03 0.0
-3.352725e-02 -3.178167e-03 0.0
-3.268294e-02 -3.456952e-03 0.0
-3.177351e-02 -3.719993e-03 0.0
-3.080305e-02 -3.965794e-03 0.0
-2.977603e-02 -4.192948e-03 0.0
-2.869723e-02 -4.400135e-03 0.0
-2.757171e-02 -4.586136e-03 0.0
-2.640484e-02 -4.749834e-03 0.0
-2.520218e-02 -4.890226e-03 0.0
-2.396953e-02 -5.006429e-03 0.0
-2.271285e-02 -5.097692e-03 0.0
-2.143827e-02 -5.163413e-03 0.0
-2.015202e-02 -5.203141e-03 0.0
-1.886041e-02 -5.216590e-03 0.0
-1.756978e-02 -5.203643e-03 0.0
-1.628649e-02 -5.164351e-03 0.0
-1.501682e-02 -5.098921e-03 0.0
-1.376701e-02 -5.007716e-03 0.0
-1.254314e-02 -4.891265e-03 0.0
-1.135113e-02 -4.750261e-03 0.0
-1.019672e-02 -4.585567e-03 0.0
-9.085369e-03 -4.398221e-03 0.0
-8.022262e-03 -4.189443e-03 0.0
-7.012238e-03 -3.960638e-03 0.0
-6.059752e-03 -3.713400e-03 0.0
-5.168821e-03 -3.449530e-03 0.0
-4.342973e-03 -3.171040e-03 0.0
-3.585197e-03 -2.880176e-03 0.0
-2.897877e-03 -2.579435e-03 0.0
-2.282740e-03 -2.271597e-03 0.0
-1.740782e-03 -1.959750e-03 0.0
-1.272206e-03 -1.647340e-03 0.0
-8.763399e-04 -1.338210e-03 0.0
-5.515648e-04 -1.036665e-03 0.0
-2.952297e-04 -7.475352e-04 0.0
-1.035691e-04 -4.762525e-04 0.0
2.838283e-05 -2.289332e-04 0.0
1.068750e-04 -1.246375e-05 0.0
1.395394e-04 1.654173e-04 0.0
1.355024e-04 2.960542e-04 0.0
1.055487e-04 3.698102e-04 0.0
6.239681e-05 3.760011e-04 0.0
2.115357e-05 3.027884e-04 0.0
0.000000e+00 1.369241e-04 0.0
0.000000e+00 -1.368889e-04 0.0
0.000000e+00 -4.720696e-05 0.0
-4.609544e-05 4.461633e-05 0.0
-1.749417e-04 2.962468e-04 0.0
-4.039245e-04 6.494377e-04 0.0
-7.362095e-04 1.069856e-03 0.0
-1.171913e-03 1.531374e-03 0.0
-1.708900e-03 2.014107e-03 0.0
-2.343863e-03 2.502626e-03 0.0
-3.073009e-03 2.984651e-03 0.0
-3.892265e-03 3.450346e-03 0.0
-4.797180e-03 3.892012e-03 0.0
-5.782753e-03 4.303902e-03 0.0
-6.843316e-03 4.682041e-03 0.0
-7.972526e-03 5.023993e-03 0.0
-9.163468e-03 5.328581e-03 0.0
-1.040883e-02 5.595601e-03 0.0
-1.170112e-02 5.825532e-03 0.0
-1.303286e-02 6.019286e-03 0.0
-1.439673e-02 6.178024e-03 0.0
-1.578564e-02 6.303045e-03 0.0
-1.719274e-02 6.395725e-03 0.0
-1.861145e-02 6.457461e-03 0.0
-2.003543e-02 6.489582e-03 0.0
-2.145870e-02 6.493257e-03 0.0
-2.287558e-02 6.469441e-03 0.0
-2.428067e-02 6.418909e-03 0.0
-2.566876e-02 6.342372e-03 0.0
-2.703464e-02 6.240609e-03 0.0
-2.837310e-02 6.114562e-03 0.0
-2.967888e-02 5.965319e-03 0.0
-3.094681e-02 5.793993e-03 0.0
-3.217197e-02 5.601557e-03 0.0
-3.334974e-02 5.388723e-03 0.0
-3.447585e-02 5.155939e-03 0.0
-3.554628e-02 4.903484e-03 0.0
-3.655717e-02 4.631631e-03 0.0
-3.750470e-02 4.340800e-03 0.0
-3.838505e-02 4.031622e-03 0.0
-3.919448e-02 3.704936e-03 0.0
-3.992935e-02 3.361709e-03 0.0
-4.058626e-02 3.002964e-03 0.0
-4.116211e-02 2.629731e-03 0.0
-4.165411e-02 2.243056e-03 0.0
-4.205980e-02 1.844056e-03 0.0
-4.237701e-02 1.433978e-03 0.0
-4.260386e-02 1.014257e-03 0.0
-4.273881e-02 5.865442e-04 0.0
-4.278066e-02 1.527091e-04 0.0
-4.272858e-02 -2.851689e-04 0.0
-4.258220e-02 -7.248052e-04 0.0
-4.234159e-02 -1.163938e-03 0.0
-4.200731e-02 -1.600326e-03 0.0
-4.158037e-02 -2.031745e-03 0.0
-4.106223e-02 -2.455981e-03 0.0
-4.045484e-02 -2.870832e-03 0.0
-3.976056e-02 -3.274112e-03 0.0
-3.898223e-02 -3.663666e-03 0.0
-3.812310e-02 -4.037384e-03 0.0
-3.718686e-02 -4.393220e-03 0.0
-3.617764e-02 -4.729206e-03 0.0
-3.509992e-02 -5.043465e-03 0.0
-3.395861e-02 -5.334220e-03 0.0
-3.275894e-02 -5.599799e-03 0.0
-3.150647e-02 -5.838647e-03 0.0
-3.020705e-02 -6.049336e-03 0.0
-2.886681e-02 -6.230582e-03 0.0
-2.749212e-02 -6.381257e-03 0.0
-2.608953e-02 -6.500408e-03 0.0
-2.466578e-02 -6.587266e-03 0.0
-2.322775e-02 -6.641261e-03 0.0
-2.178239e-02 -6.662021e-03 0.0
-2.033671e-02 -6.649385e-03 0.0
-1.889771e-02 -6.603404e-03 0.0
-1.747235e-02 -6.524328e-03 0.0
-1.606750e-02 -6.412606e-03 0.0
-1.468991e-02 -6.268895e-03 0.0
-1.334614e-02 -6.094067e-03 0.0
-1.204254e-02 -5.889208e-03 0.0
-1.078516e-02 -5.655631e-03 0.0