# vtk DataFile Version 3.0
Vector Field
ASCII
DATASET RECTILINEAR_GRID
DIMENSIONS 102 102 1
X_COORDINATES 102 double
0.000000 0.100000 0.200000 0.300000 0.400000 0.500000 0.600000 0.700000 0.800000 0.900000 1.000000 1.100000 1.200000 1.300000 1.400000 1.500000 1.600000 1.700000 1.800000 1.900000 2.000000 2.100000 2.200000 2.300000 2.400000 2.500000 2.600000 2.700000 2.800000 2.900000 3.000000 3.100000 3.200000 3.300000 3.400000 3.500000 3.600000 3.700000 3.800000 3.900000 4.000000 4.100000 4.200000 4.300000 4.400000 4.500000 4.600000 4.700000 4.800000 4.900000 5.000000 5.100000 5.200000 5.300000 5.400000 5.500000 5.600000 5.700000 5.800000 5.900000 6.000000 6.100000 6.200000 6.300000 6.400000 6.500000 6.600000 6.700000 6.800000 6.900000 7.000000 7.100000 7.200000 7.300000 7.400000 7.500000 7.600000 7.700000 7.800000 7.900000 8.000000 8.100000 8.200000 8.300000 8.400000 8.500000 8.600000 8.700000 8.800000 8.900000 9.000000 9.100000 9.200000 9.300000 9.400000 9.500000 9.600000 9.700000 9.800000 9.900000 10.000000 10.100000 
Y_COORDINATES 102 double
0.000000 0.100000 0.200000 0.300000 0.400000 0.500000 0.600000 0.700000 0.800000 0.900000 1.000000 1.100000 1.200000 1.300000 1.400000 1.500000 1.600000 1.700000 1.800000 1.900000 2.000000 2.100000 2.200000 2.300000 2.400000 2.500000 2.600000 2.700000 2.800000 2.900000 3.000000 3.100000 3.200000 3.300000 3.400000 3.500000 3.600000 3.700000 3.800000 3.900000 4.000000 4.100000 4.200000 4.300000 4.400000 4.500000 4.600000 4.700000 4.800000 4.900000 5.000000 5.100000 5.200000 5.300000 5.400000 5.500000 5.600000 5.700000 5.800000 5.900000 6.000000 6.100000 6.200000 6.300000 6.400000 6.500000 6.600000 6.700000 6.800000 6.900000 7.000000 7.100000 7.200000 7.300000 7.400000 7.500000 7.600000 7.700000 7.800000 7.900000 8.000000 8.100000 8.200000 8.300000 8.400000 8.500000 8.600000 8.700000 8.800000 8.900000 9.000000 9.100000 9.200000 9.300000 9.400000 9.500000 9.600000 9.700000 9.800000 9.900000 10.000000 10.100000 
Z_COORDINATES 1 double
0.0
POINT_DATA 10404
VECTORS Velocity double
0.000000e+00 0.000000e+00 0.0
5.445502e-06 0.000000e+00 0.0
4.121656e-07 0.000000e+00 0.0
-1.334186e-05 0.000000e+00 0.0
-2.707467e-05 0.000000e+00 0.0
-3.247428e-05 0.000000e+00 0.0
-2.327769e-05 0.000000e+00 0.0
3.186762e-06 0.000000e+00 0.0
4.586491e-05 0.000000e+00 0.0
1.012445e-04 0.000000e+00 0.0
1.652547e-04 0.000000e+00 0.0
2.348528e-04 0.000000e+00 0.0
3.087011e-04 0.000000e+00 0.0
3.868982e-04 0.000000e+00 0.0
4.701610e-04 0.000000e+00 0.0
5.589932e-04 0.000000e+00 0.0
6.532179e-04 0.000000e+00 0.0
7.519731e-04 0.000000e+00 0.0
8.540271e-04 0.000000e+00 0.0
9.581682e-04 0.000000e+00 0.0
1.063473e-03 0.000000e+00 0.0
1.169374e-03 0.000000e+00 0.0
1.275565e-03 0.000000e+00 0.0
1.381840e-03 0.000000e+00 0.0
1.487956e-03 0.000000e+00 0.0
1.593574e-03 0.000000e+00 0.0
1.698262e-03 0.000000e+00 0.0
1.801550e-03 0.000000e+00 0.0
1.902974e-03 0.000000e+00 0.0
2.002110e-03 0.000000e+00 0.0
2.098575e-03 0.000000e+00 0.0
2.192023e-03 0.000000e+00 0.0
2.282128e-03 0.000000e+00 0.0
2.368587e-03 0.000000e+00 0.0
2.451120e-03 0.000000e+00 0.0
2.529478e-03 0.000000e+00 0.0
2.603432e-03 0.000000e+00 0.0
2.672766e-03 0.000000e+00 0.0
2.737246e-03 0.000000e+00 0.0
2.796611e-03 0.000000e+00 0.0
2.850558e-03 0.000000e+00 0.0
2.898758e-03 0.000000e+00 0.0
2.940876e-03 0.000000e+00 0.0
2.976601e-03 0.000000e+00 0.0
3.005673e-03 0.000000e+00 0.0
3.027889e-03 0.000000e+00 0.0
3.043108e-03 0.000000e+00 0.0
3.051233e-03 0.000000e+00 0.0
3.052200e-03 0.000000e+00 0.0
3.045967e-03 0.000000e+00 0.0
3.032514e-03 0.000000e+00 0.0
3.011832e-03 0.000000e+00 0.0
2.983933e-03 0.000000e+00 0.0
2.948857e-03 0.000000e+00 0.0
2.906689e-03 0.000000e+00 0.0
2.857562e-03 0.000000e+00 0.0
2.801662e-03 0.000000e+00 0.0
2.739225e-03 0.000000e+00 0.0
2.670527e-03 0.000000e+00 0.0
2.595883e-03 0.000000e+00 0.0
2.515635e-03 0.000000e+00 0.0
2.430152e-03 0.000000e+00 0.0
2.339829e-03 0.000000e+00 0.0
2.245084e-03 0.000000e+00 0.0
2.146358e-03 0.000000e+00 0.0
2.044120e-03 0.000000e+00 0.0
1.938863e-03 0.000000e+00 0.0
1.831106e-03 0.000000e+00 0.0
1.721388e-03 0.000000e+00 0.0
1.610269e-03 0.000000e+00 0.0
1.498324e-03 0.000000e+00 0.0
1.386135e-03 0.000000e+00 0.0
1.274289e-03 0.000000e+00 0.0
1.163373e-03 0.000000e+00 0.0
1.053967e-03 0.000000e+00 0.0
9.466469e-04 0.000000e+00 0.0
8.419788e-04 0.000000e+00 0.0
7.405164e-04 0.000000e+00 0.0
6.427999e-04 0.000000e+00 0.0
5.493523e-04 0.000000e+00 0.0
4.606766e-04 0.000000e+00 0.0
3.772523e-04 0.000000e+00 0.0
2.995323e-04 0.000000e+00 0.0
2.279380e-04 0.000000e+00 0.0
1.628555e-04 0.000000e+00 0.0
1.046308e-04 0.000000e+00 0.0
5.356341e-05 0.000000e+00 0.0
9.900044e-06 0.000000e+00 0.0
-2.617436e-05 0.000000e+00 0.0
-5.454737e-05 0.000000e+00 0.0
-7.519399e-05 0.000000e+00 0.0
-8.819580e-05 0.000000e+00 0.0
-9.376897e-05 0.000000e+00 0.0
-9.230547e-05 0.000000e+00 0.0
-8.443320e-05 0.000000e+00 0.0
-7.110765e-05 0.000000e+00 0.0
-5.375510e-05 0.000000e+00 0.0
-3.447960e-05 0.000000e+00 0.0
-1.633187e-05 0.000000e+00 0.0
-3.440988e-06 0.000000e+00 0.0
-0.000000e+00 0.000000e+00 0.0
0.000000e+00 0.000000e+00 0.0
0.000000e+00 2.171061e-05 0.0
-3.392379e-06 -2.031120e-05 0.0
2.833194e-05 -9.156984e-06 0.0
5.077234e-05 4.764772e-06 0.0
5.571091e-05 1.306520e-05 0.0
4.236287e-05 1.570988e-05 0.0
1.465278e-05 1.641327e-05 0.0
-2.241635e-05 1.951846e-05 0.0
-6.542120e-05 2.736431e-05 0.0
-1.134929e-04 3.949839e-05 0.0
-1.677349e-04 5.349492e-05 0.0
-2.298488e-04 6.651391e-05 0.0
-3.008594e-04 7.664656e-05 0.0
-3.805187e-04 8.347059e-05 0.0
-4.674663e-04 8.778209e-05 0.0
-5.598498e-04 9.086938e-05 0.0
-6.559783e-04 9.379882e-05 0.0
-7.547071e-04 9.703185e-05 0.0
-8.554686e-04 1.004375e-04 0.0
-9.580556e-04 1.035627e-04 0.0
-1.062338e-03 1.059507e-04 0.0
-1.168064e-03 1.073503e-04 0.0
-1.274790e-03 1.077624e-04 0.0
-1.381939e-03 1.073649e-04 0.0
-1.488888e-03 1.063961e-04 0.0
-1.595056e-03 1.050644e-04 0.0
-1.699934e-03 1.035118e-04 0.0
-1.803091e-03 1.018185e-04 0.0
-1.904148e-03 1.000218e-04 0.0
-2.002767e-03 9.812492e-05 0.0
-2.098649e-03 9.609092e-05 0.0
-2.191539e-03 9.383367e-05 0.0
-2.281222e-03 9.122341e-05 0.0
-2.367504e-03 8.811613e-05 0.0
-2.450180e-03 8.440083e-05 0.0
-2.528991e-03 8.004498e-05 0.0
-2.603612e-03 7.511638e-05 0.0
-2.673650e-03 6.976852e-05 0.0
-2.738679e-03 6.419307e-05 0.0
-2.798290e-03 5.855784e-05 0.0
-2.852130e-03 5.295459e-05 0.0
-2.899927e-03 4.737637e-05 0.0
-2.941494e-03 4.173113e-05 0.0
-2.976697e-03 3.588393e-05 0.0
-3.005423e-03 2.970994e-05 0.0
-3.027548e-03 2.313853e-05 0.0
-3.042920e-03 1.617448e-05 0.0
-3.051357e-03 8.892734e-06 0.0
-3.052678e-03 1.413927e-06 0.0
-3.046729e-03 -6.125221e-06 0.0
-3.033419e-03 -1.360560e-05 0.0
-3.012723e-03 -2.095878e-05 0.0
-2.984684e-03 -2.816041e-05 0.0
-2.949403e-03 -3.521556e-05 0.0
-2.907029e-03 -4.213989e-05 0.0
-2.857748e-03 -4.894259e-05 0.0
-2.801772e-03 -5.561540e-05 0.0
-2.739334e-03 -6.212911e-05 0.0
-2.670691e-03 -6.843655e-05 0.0
-2.596126e-03 -7.447946e-05 0.0
-2.515949e-03 -8.019676e-05 0.0
-2.430506e-03 -8.553176e-05 0.0
-2.340177e-03 -9.043738e-05 0.0
-2.245381e-03 -9.487853e-05 0.0
-2.146570e-03 -9.883195e-05 0.0
-2.044229e-03 -1.022840e-04 0.0
-1.938870e-03 -1.052269e-04 0.0
-1.831030e-03 -1.076550e-04 0.0
-1.721257e-03 -1.095617e-04 0.0
-1.610114e-03 -1.109372e-04 0.0
-1.498171e-03 -1.117691e-04 0.0
-1.386001e-03 -1.120430e-04 0.0
-1.274182e-03 -1.117460e-04 0.0
-1.163288e-03 -1.108676e-04 0.0
-1.053895e-03 -1.094015e-04 0.0
-9.465747e-04 -1.073466e-04 0.0
-8.418927e-04 -1.047080e-04 0.0
-7.404057e-04 -1.014964e-04 0.0
-6.426578e-04 -9.772832e-05 0.0
-5.491766e-04 -9.342494e-05 0.0
-4.604699e-04 -8.861186e-05 0.0
-3.770211e-04 -8.331823e-05 0.0
-2.992856e-04 -7.757622e-05 0.0
-2.276866e-04 -7.142067e-05 0.0
-1.626103e-04 -6.488903e-05 0.0
-1.044013e-04 -5.802184e-05 0.0
-5.335678e-05 -5.086374e-05 0.0
-9.720399e-06 -4.346515e-05 0.0
2.632581e-05 -3.588457e-05 0.0
5.467160e-05 -2.819178e-05 0.0
7.529315e-05 -2.047215e-05 0.0
8.827275e-05 -1.283143e-05 0.0
9.382656e-05 -5.404381e-06 0.0
9.234546e-05 1.632595e-06 0.0
8.445699e-05 8.042395e-06 0.0
7.111680e-05 1.349547e-05 0.0
5.375145e-05 1.752161e-05 0.0
3.446501e-05 1.944163e-05 0.0
1.630889e-05 1.830980e-05 0.0
3.416545e-06 1.304596e-05 0.0
0.000000e+00 3.569944e-06 0.0
0.000000e+00 -3.550141e-06 0.0
0.000000e+00 4.530834e-05 0.0
1.953935e-05 -1.695084e-05 0.0
4.616633e-05 -1.904292e-05 0.0
5.425960e-05 -4.694577e-06 0.0
3.671176e-05 1.553585e-05 0.0
-7.647871e-06 4.066482e-05 0.0
-7.742287e-05 7.142411e-05 0.0
-1.712049e-04 1.078261e-04 0.0
-2.886218e-04 1.479780e-04 0.0
-4.300510e-04 1.886119e-04 0.0
-5.957133e-04 2.264446e-04 0.0
-7.848918e-04 2.593751e-04 0.0
-9.956986e-04 2.869266e-04 0.0
-1.225394e-03 3.098973e-04 0.0
-1.470979e-03 3.295890e-04 0.0
-1.729716e-03 3.470805e-04 0.0
-1.999394e-03 3.628557e-04 0.0
-2.278292e-03 3.768308e-04 0.0
-2.564979e-03 3.886316e-04 0.0
-2.858097e-03 3.979070e-04 0.0
-3.156228e-03 4.045221e-04 0.0
-3.457869e-03 4.085905e-04 0.0
-3.761493e-03 4.103905e-04 0.0
-4.065613e-03 4.102477e-04 0.0
-4.368836e-03 4.084493e-04 0.0
-4.669875e-03 4.052124e-04 0.0
-4.967535e-03 4.006894e-04 0.0
-5.260701e-03 3.949810e-04 0.0
-5.548326e-03 3.881385e-04 0.0
-5.829434e-03 3.801542e-04 0.0
-6.103120e-03 3.709552e-04 0.0
-6.368540e-03 3.604181e-04 0.0
-6.624879e-03 3.484098e-04 0.0
-6.871319e-03 3.348436e-04 0.0
-7.107002e-03 3.197262e-04 0.0
-7.331019e-03 3.031742e-04 0.0
-7.542425e-03 2.853881e-04 0.0
-7.740275e-03 2.665941e-04 0.0
-7.923666e-03 2.469769e-04 0.0
-8.091771e-03 2.266296e-04 0.0
-8.243854e-03 2.055406e-04 0.0
-8.379259e-03 1.836196e-04 0.0
-8.497389e-03 1.607506e-04 0.0
-8.597679e-03 1.368497e-04 0.0
-8.679576e-03 1.119079e-04 0.0
-8.742537e-03 8.600563e-05 0.0
-8.786049e-03 5.929944e-05 0.0
-8.809652e-03 3.199105e-05 0.0
-8.812978e-03 4.294690e-06 0.0
-8.795779e-03 -2.358225e-05 0.0
-8.757948e-03 -5.146084e-05 0.0
-8.699510e-03 -7.921965e-05 0.0
-8.620606e-03 -1.067683e-04 0.0
-8.521484e-03 -1.340228e-04 0.0
-8.402489e-03 -1.608871e-04 0.0
-8.264058e-03 -1.872436e-04 0.0
-8.106718e-03 -2.129531e-04 0.0
-7.931088e-03 -2.378601e-04 0.0
-7.737881e-03 -2.618019e-04 0.0
-7.527906e-03 -2.846178e-04 0.0
-7.302070e-03 -3.061567e-04 0.0
-7.061378e-03 -3.262818e-04 0.0
-6.806924e-03 -3.448728e-04 0.0
-6.539893e-03 -3.618250e-04 0.0
-6.261553e-03 -3.770474e-04 0.0
-5.973242e-03 -3.904591e-04 0.0
-5.676366e-03 -4.019861e-04 0.0
-5.372385e-03 -4.115595e-04 0.0
-5.062806e-03 -4.191142e-04 0.0
-4.749174e-03 -4.245902e-04 0.0
-4.433066e-03 -4.279353e-04 0.0
-4.116080e-03 -4.291077e-04 0.0
-3.799826e-03 -4.280798e-04 0.0
-3.485920e-03 -4.248386e-04 0.0
-3.175976e-03 -4.193854e-04 0.0
-2.871595e-03 -4.117363e-04 0.0
-2.574356e-03 -4.019225e-04 0.0
-2.285810e-03 -3.899897e-04 0.0
-2.007467e-03 -3.759980e-04 0.0
-1.740786e-03 -3.600209e-04 0.0
-1.487166e-03 -3.421453e-04 0.0
-1.247935e-03 -3.224705e-04 0.0
-1.024338e-03 -3.011089e-04 0.0
-8.175251e-04 -2.781866e-04 0.0
-6.285387e-04 -2.538452e-04 0.0
-4.582995e-04 -2.282443e-04 0.0
-3.075887e-04 -2.015657e-04 0.0
-1.770286e-04 -1.740185e-04 0.0
-6.705802e-05 -1.458457e-04 0.0
2.209960e-05 -1.173341e-04 0.0
9.047615e-05 -8.882633e-05 0.0
1.384134e-04 -6.073950e-05 0.0
1.666330e-04 -3.359020e-05 0.0
1.763337e-04 -8.031672e-06 0.0
1.693197e-04 1.509369e-05 0.0
1.481714e-04 3.468041e-05 0.0
1.164608e-04 4.926808e-05 0.0
7.898584e-05 5.694983e-05 0.0
4.194891e-05 5.538050e-05 0.0
1.285803e-05 4.216992e-05 0.0
0.000000e+00 1.646139e-05 0.0
0.000000e+00 -1.645092e-05 0.0
0.000000e+00 5.470180e-05 0.0
2.789379e-05 -1.660651e-05 0.0
3.383099e-05 -2.619049e-05 0.0
1.426898e-05 5.290431e-08 0.0
-3.663597e-05 4.805244e-05 0.0
-1.212385e-04 1.123761e-04 0.0
-2.412472e-04 1.882646e-04 0.0
-3.986013e-04 2.704658e-04 0.0
-5.950199e-04 3.534433e-04 0.0
-8.310698e-04 4.324492e-04 0.0
-1.105554e-03 5.044855e-04 0.0
-1.415584e-03 5.685529e-04 0.0
-1.757227e-03 6.251512e-04 0.0
-2.126315e-03 6.754081e-04 0.0
-2.519064e-03 7.203025e-04 0.0
-2.932295e-03 7.602787e-04 0.0
-3.363332e-03 7.952755e-04 0.0
-3.809734e-03 8.250018e-04 0.0
-4.269076e-03 8.492364e-04 0.0
-4.738840e-03 8.679999e-04 0.0
-5.216449e-03 8.815650e-04 0.0
-5.699358e-03 8.903603e-04 0.0
-6.185143e-03 8.948500e-04 0.0
-6.671540e-03 8.954513e-04 0.0
-7.156446e-03 8.925038e-04 0.0
-7.637891e-03 8.862748e-04 0.0
-8.114018e-03 8.769682e-04 0.0
-8.583077e-03 8.647195e-04 0.0
-9.043425e-03 8.495840e-04 0.0
-9.493520e-03 8.315351e-04 0.0
-9.931900e-03 8.104894e-04 0.0
-1.035714e-02 7.863590e-04 0.0
-1.076781e-02 7.591145e-04 0.0
-1.116245e-02 7.288316e-04 0.0
-1.153955e-02 6.956978e-04 0.0
-1.189759e-02 6.599752e-04 0.0
-1.223511e-02 6.219316e-04 0.0
-1.255070e-02 5.817714e-04 0.0
-1.284310e-02 5.395923e-04 0.0
-1.311112e-02 4.953852e-04 0.0
-1.335370e-02 4.490751e-04 0.0
-1.356979e-02 4.005843e-04 0.0
-1.375839e-02 3.498931e-04 0.0
-1.391852e-02 2.970777e-04 0.0
-1.404923e-02 2.423159e-04 0.0
-1.414961e-02 1.858647e-04 0.0
-1.421888e-02 1.280238e-04 0.0
-1.425639e-02 6.910214e-05 0.0
-1.426164e-02 9.400408e-06 0.0
-1.423433e-02 -5.078303e-05 0.0
-1.417435e-02 -1.111563e-04 0.0
-1.408176e-02 -1.714634e-04 0.0
-1.395676e-02 -2.314533e-04 0.0
-1.379973e-02 -2.908599e-04 0.0
-1.361117e-02 -3.493942e-04 0.0
-1.339175e-02 -4.067461e-04 0.0
-1.314227e-02 -4.625926e-04 0.0
-1.286371e-02 -5.166081e-04 0.0
-1.255720e-02 -5.684742e-04 0.0
-1.222402e-02 -6.178869e-04 0.0
-1.186564e-02 -6.645611e-04 0.0
-1.148362e-02 -7.082319e-04 0.0
-1.107973e-02 -7.486549e-04 0.0
-1.065581e-02 -7.856034e-04 0.0
-1.021385e-02 -8.188668e-04 0.0
-9.755969e-03 -8.482482e-04 0.0
-9.284347e-03 -8.735642e-04 0.0
-8.801272e-03 -8.946456e-04 0.0
-8.309103e-03 -9.113404e-04 0.0
-7.810261e-03 -9.235169e-04 0.0
-7.307221e-03 -9.310683e-04 0.0
-6.802495e-03 -9.339162e-04 0.0
-6.298617e-03 -9.320136e-04 0.0
-5.798133e-03 -9.253452e-04 0.0
-5.303581e-03 -9.139238e-04 0.0
-4.817480e-03 -8.977910e-04 0.0
-4.342314e-03 -8.770172e-04 0.0
-3.880516e-03 -8.517014e-04 0.0
-3.434455e-03 -8.219707e-04 0.0
-3.006416e-03 -7.879801e-04 0.0
-2.598585e-03 -7.499128e-04 0.0
-2.213031e-03 -7.079806e-04 0.0
-1.851690e-03 -6.624264e-04 0.0
-1.516342e-03 -6.135264e-04 0.0
-1.208595e-03 -5.615950e-04 0.0
-9.298540e-04 -5.069901e-04 0.0
-6.813002e-04 -4.501209e-04 0.0
-4.638544e-04 -3.914577e-04 0.0
-2.781391e-04 -3.315447e-04 0.0
-1.244301e-04 -2.710181e-04 0.0
-2.595282e-06 -2.106291e-04 0.0
8.797913e-05 -1.512777e-04 0.0
1.484847e-04 -9.405853e-05 0.0
1.808125e-04 -4.032270e-05 0.0
1.876982e-04 8.242557e-06 0.0
1.729006e-04 4.951072e-05 0.0
1.413929e-04 8.080688e-05 0.0
9.954517e-05 9.882648e-05 0.0
5.526534e-05 9.968963e-05 0.0
1.812676e-05 7.933767e-05 0.0
0.000000e+00 3.461762e-05 0.0
0.000000e+00 -3.460718e-05 0.0
0.000000e+00 4.823961e-05 0.0
2.079225e-05 -1.793367e-05 0.0
-8.498143e-07 -1.980061e-05 0.0
-5.341511e-05 3.397113e-05 0.0
-1.428413e-04 1.251922e-04 0.0
-2.739651e-04 2.418651e-04 0.0
-4.516100e-04 3.731854e-04 0.0
-6.798074e-04 5.094983e-04 0.0
-9.605960e-04 6.431382e-04 0.0
-1.293347e-03 7.691291e-04 0.0
-1.674999e-03 8.851747e-04 0.0
-2.100988e-03 9.909300e-04 0.0
-2.566347e-03 1.086958e-03 0.0
-3.066488e-03 1.173851e-03 0.0
-3.597476e-03 1.251801e-03 0.0
-4.155879e-03 1.320620e-03 0.0
-4.738438e-03 1.380006e-03 0.0
-5.341815e-03 1.429822e-03 0.0
-5.962503e-03 1.470241e-03 0.0
-6.596904e-03 1.501713e-03 0.0
-7.241474e-03 1.524854e-03 0.0
-7.892839e-03 1.540304e-03 0.0
-8.547852e-03 1.548650e-03 0.0
-9.203581e-03 1.550396e-03 0.0
-9.857272e-03 1.545961e-03 0.0
-1.050632e-02 1.535689e-03 0.0
-1.114827e-02 1.519837e-03 0.0
-1.178081e-02 1.498562e-03 0.0
-1.240174e-02 1.471925e-03 0.0
-1.300898e-02 1.439924e-03 0.0
-1.360049e-02 1.402556e-03 0.0
-1.417425e-02 1.359889e-03 0.0
-1.472818e-02 1.312100e-03 0.0
-1.526018e-02 1.259474e-03 0.0
-1.576817e-02 1.202352e-03 0.0
-1.625016e-02 1.141057e-03 0.0
-1.670428e-02 1.075819e-03 0.0
-1.712878e-02 1.006746e-03 0.0
-1.752208e-02 9.338402e-04 0.0
-1.788268e-02 8.570524e-04 0.0
-1.820911e-02 7.763577e-04 0.0
-1.849995e-02 6.918164e-04 0.0
-1.875377e-02 6.036051e-04 0.0
-1.896919e-02 5.120113e-04 0.0
-1.914492e-02 4.174018e-04 0.0
-1.927981e-02 3.201811e-04 0.0
-1.937287e-02 2.207597e-04 0.0
-1.942334e-02 1.195416e-04 0.0
-1.943064e-02 1.693657e-05 0.0
-1.939444e-02 -8.661109e-05 0.0
-1.931459e-02 -1.906179e-04 0.0
-1.919116e-02 -2.946046e-04 0.0
-1.902440e-02 -3.980763e-04 0.0
-1.881477e-02 -5.005154e-04 0.0
-1.856294e-02 -6.013866e-04 0.0
-1.826975e-02 -7.001458e-04 0.0
-1.793630e-02 -7.962515e-04 0.0
-1.756389e-02 -8.891741e-04 0.0
-1.715403e-02 -9.784022e-04 0.0
-1.670844e-02 -1.063447e-03 0.0
-1.622905e-02 -1.143842e-03 0.0
-1.571799e-02 -1.219146e-03 0.0
-1.517756e-02 -1.288937e-03 0.0
-1.461022e-02 -1.352817e-03 0.0
-1.401860e-02 -1.410408e-03 0.0
-1.340549e-02 -1.461356e-03 0.0
-1.277377e-02 -1.505332e-03 0.0
-1.212647e-02 -1.542038e-03 0.0
-1.146671e-02 -1.571213e-03 0.0
-1.079769e-02 -1.592639e-03 0.0
-1.012270e-02 -1.606141e-03 0.0
-9.445060e-03 -1.611597e-03 0.0
-8.768141e-03 -1.608935e-03 0.0
-8.095314e-03 -1.598135e-03 0.0
-7.429947e-03 -1.579223e-03 0.0
-6.775377e-03 -1.552274e-03 0.0
-6.134895e-03 -1.517407e-03 0.0
-5.511721e-03 -1.474790e-03 0.0
-4.908987e-03 -1.424638e-03 0.0
-4.329710e-03 -1.367214e-03 0.0
-3.776774e-03 -1.302830e-03 0.0
-3.252903e-03 -1.231853e-03 0.0
-2.760641e-03 -1.154703e-03 0.0
-2.302321e-03 -1.071864e-03 0.0
-1.880040e-03 -9.838904e-04 0.0
-1.495623e-03 -8.914117e-04 0.0
-1.150587e-03 -7.951482e-04 0.0
-8.461009e-04 -6.959237e-04 0.0
-5.829300e-04 -5.946860e-04 0.0
-3.613792e-04 -4.925335e-04 0.0
-1.812201e-04 -3.907506e-04 0.0
-4.160524e-05 -2.908558e-04 0.0
5.903484e-05 -1.946647e-04 0.0
1.231138e-04 -1.043706e-04 0.0
1.540306e-04 -2.264632e-05 0.0
1.563253e-04 4.724245e-05 0.0
1.358378e-04 1.013196e-04 0.0
9.986939e-05 1.348190e-04 0.0
5.737889e-05 1.422047e-04 0.0
1.937113e-05 1.173705e-04 0.0
0.000000e+00 5.401400e-05 0.0
0.000000e+00 -5.399684e-05 0.0
0.000000e+00 2.918606e-05 0.0
3.058973e-06 -1.752167e-05 0.0
-4.615936e-05 9.243974e-06 0.0
-1.334204e-04 1.078061e-04 0.0
-2.657486e-04 2.557571e-04 0.0
-4.502612e-04 4.345048e-04 0.0
-6.933605e-04 6.284427e-04 0.0
-9.991194e-04 8.253472e-04 0.0
-1.368291e-03 1.016901e-03 0.0
-1.798450e-03 1.198441e-03 0.0
-2.285053e-03 1.367977e-03 0.0
-2.822771e-03 1.524914e-03 0.0
-3.406497e-03 1.669015e-03 0.0
-4.031747e-03 1.799877e-03 0.0
-4.694525e-03 1.916912e-03 0.0
-5.390969e-03 2.019601e-03 0.0
-6.117041e-03 2.107750e-03 0.0
-6.868429e-03 2.181588e-03 0.0
-7.640651e-03 2.241708e-03 0.0
-8.429240e-03 2.288901e-03 0.0
-9.229910e-03 2.324000e-03 0.0
-1.003864e-02 2.347786e-03 0.0
-1.085166e-02 2.360952e-03 0.0
-1.166544e-02 2.364103e-03 0.0
-1.247663e-02 2.357753e-03 0.0
-1.328208e-02 2.342314e-03 0.0
-1.407880e-02 2.318082e-03 0.0
-1.486395e-02 2.285248e-03 0.0
-1.563482e-02 2.243934e-03 0.0
-1.638877e-02 2.194268e-03 0.0
-1.712314e-02 2.136454e-03 0.0
-1.783526e-02 2.070806e-03 0.0
-1.852246e-02 1.997738e-03 0.0
-1.918209e-02 1.917695e-03 0.0
-1.981164e-02 1.831069e-03 0.0
-2.040875e-02 1.738133e-03 0.0
-2.097125e-02 1.639015e-03 0.0
-2.149711e-02 1.533740e-03 0.0
-2.198441e-02 1.422297e-03 0.0
-2.243128e-02 1.304724e-03 0.0
-2.283584e-02 1.181173e-03 0.0
-2.319624e-02 1.051929e-03 0.0
-2.351067e-02 9.173939e-04 0.0
-2.377744e-02 7.780472e-04 0.0
-2.399501e-02 6.343989e-04 0.0
-2.416204e-02 4.869614e-04 0.0
-2.427745e-02 3.362453e-04 0.0
-2.434035e-02 1.827783e-04 0.0
-2.435011e-02 2.714028e-05 0.0
-2.430631e-02 -1.299995e-04 0.0
-2.420879e-02 -2.878848e-04 0.0
-2.405759e-02 -4.457422e-04 0.0
-2.385299e-02 -6.027774e-04 0.0
-2.359555e-02 -7.581817e-04 0.0
-2.328605e-02 -9.111430e-04 0.0
-2.292556e-02 -1.060856e-03 0.0
-2.251541e-02 -1.206533e-03 0.0
-2.205721e-02 -1.347404e-03 0.0
-2.155282e-02 -1.482725e-03 0.0
-2.100434e-02 -1.611777e-03 0.0
-2.041415e-02 -1.733864e-03 0.0
-1.978482e-02 -1.848315e-03 0.0
-1.911916e-02 -1.954486e-03 0.0
-1.842018e-02 -2.051758e-03 0.0
-1.769107e-02 -2.139548e-03 0.0
-1.693521e-02 -2.217309e-03 0.0
-1.615612e-02 -2.284541e-03 0.0
-1.535749e-02 -2.340797e-03 0.0
-1.454313e-02 -2.385690e-03 0.0
-1.371694e-02 -2.418899e-03 0.0
-1.288293e-02 -2.440173e-03 0.0
-1.204518e-02 -2.449334e-03 0.0
-1.120777e-02 -2.446279e-03 0.0
-1.037484e-02 -2.430980e-03 0.0
-9.550494e-03 -2.403478e-03 0.0
-8.738796e-03 -2.363881e-03 0.0
-7.943763e-03 -2.312368e-03 0.0
-7.169319e-03 -2.249188e-03 0.0
-6.419276e-03 -2.174663e-03 0.0
-5.697307e-03 -2.089190e-03 0.0
-5.006919e-03 -1.993243e-03 0.0
-4.351421e-03 -1.887381e-03 0.0
-3.733899e-03 -1.772253e-03 0.0
-3.157177e-03 -1.648603e-03 0.0
-2.623785e-03 -1.517284e-03 0.0
-2.135919e-03 -1.379265e-03 0.0
-1.695393e-03 -1.235649e-03 0.0
-1.303590e-03 -1.087693e-03 0.0
-9.614044e-04 -9.368340e-04 0.0
-6.691758e-04 -7.847257e-04 0.0
-4.266100e-04 -6.332829e-04 0.0
-2.326932e-04 -4.847432e-04 0.0
-8.559036e-05 -3.417423e-04 0.0
1.746918e-05 -2.074075e-04 0.0
8.031299e-05 -8.546953e-05 0.0
1.079623e-04 1.961344e-05 0.0
1.067701e-04 1.025322e-04 0.0
8.458222e-05 1.570268e-04 0.0
5.098299e-05 1.758243e-04 0.0
1.777465e-05 1.505998e-04 0.0
0.000000e+00 7.180982e-05 0.0
0.000000e+00 -7.178098e-05 0.0
0.000000e+00 2.089551e-06 0.0
-1.884258e-05 -9.948179e-06 0.0
-9.311953e-05 6.763671e-05 0.0
-2.163021e-04 2.273806e-04 0.0
-3.963334e-04 4.431573e-04 0.0
-6.410519e-04 6.915662e-04 0.0
-9.562538e-04 9.543572e-04 0.0
-1.344262e-03 1.218491e-03 0.0
-1.803762e-03 1.475741e-03 0.0
-2.330773e-03 1.721490e-03 0.0
-2.920066e-03 1.953222e-03 0.0
-3.566348e-03 2.169271e-03 0.0
-4.264810e-03 2.368172e-03 0.0
-5.011078e-03 2.548560e-03 0.0
-5.800857e-03 2.709389e-03 0.0
-6.629605e-03 2.850157e-03 0.0
-7.492406e-03 2.970974e-03 0.0
-8.384071e-03 3.072450e-03 0.0
-9.299353e-03 3.155481e-03 0.0
-1.023314e-02 3.221062e-03 0.0
-1.118059e-02 3.270156e-03 0.0
-1.213714e-02 3.303653e-03 0.0
-1.309848e-02 3.322356e-03 0.0
-1.406054e-02 3.326974e-03 0.0
-1.501947e-02 3.318099e-03 0.0
-1.597163e-02 3.296201e-03 0.0
-1.691354e-02 3.261634e-03 0.0
-1.784187e-02 3.214688e-03 0.0
-1.875336e-02 3.155665e-03 0.0
-1.964475e-02 3.084946e-03 0.0
-2.051276e-02 3.003021e-03 0.0
-2.135413e-02 2.910462e-03 0.0
-2.216568e-02 2.807845e-03 0.0
-2.294437e-02 2.695657e-03 0.0
-2.368738e-02 2.574230e-03 0.0
-2.439208e-02 2.443735e-03 0.0
-2.505602e-02 2.304234e-03 0.0
-2.567685e-02 2.155769e-03 0.0
-2.625227e-02 1.998455e-03 0.0
-2.677997e-02 1.832542e-03 0.0
-2.725767e-02 1.658427e-03 0.0
-2.768313e-02 1.476627e-03 0.0
-2.805424e-02 1.287732e-03 0.0
-2.836909e-02 1.092353e-03 0.0
-2.862597e-02 8.911016e-04 0.0
-2.882342e-02 6.845931e-04 0.0
-2.896023e-02 4.734736e-04 0.0
-2.903543e-02 2.584619e-04 0.0
-2.904828e-02 4.038793e-05 0.0
-2.899830e-02 -1.797799e-04 0.0
-2.888523e-02 -4.009536e-04 0.0
-2.870913e-02 -6.220244e-04 0.0
-2.847031e-02 -8.418719e-04 0.0
-2.816940e-02 -1.059376e-03 0.0
-2.780733e-02 -1.273429e-03 0.0
-2.738536e-02 -1.482938e-03 0.0
-2.690504e-02 -1.686836e-03 0.0
-2.636826e-02 -1.884075e-03 0.0
-2.577717e-02 -2.073633e-03 0.0
-2.513425e-02 -2.254512e-03 0.0
-2.444223e-02 -2.425736e-03 0.0
-2.370410e-02 -2.586361e-03 0.0
-2.292311e-02 -2.735472e-03 0.0
-2.210274e-02 -2.872196e-03 0.0
-2.124670e-02 -2.995712e-03 0.0
-2.035891e-02 -3.105255e-03 0.0
-1.944345e-02 -3.200134e-03 0.0
-1.850463e-02 -3.279735e-03 0.0
-1.754685e-02 -3.343529e-03 0.0
-1.657467e-02 -3.391081e-03 0.0
-1.559276e-02 -3.422047e-03 0.0
-1.460583e-02 -3.436184e-03 0.0
-1.361866e-02 -3.433349e-03 0.0
-1.263605e-02 -3.413499e-03 0.0
-1.166276e-02 -3.376686e-03 0.0
-1.070352e-02 -3.323058e-03 0.0
-9.763013e-03 -3.252858e-03 0.0
-8.845781e-03 -3.166429e-03 0.0
-7.956257e-03 -3.064220e-03 0.0
-7.098704e-03 -2.946786e-03 0.0
-6.277193e-03 -2.814797e-03 0.0
-5.495563e-03 -2.669042e-03 0.0
-4.757391e-03 -2.510440e-03 0.0
-4.065945e-03 -2.340045e-03 0.0
-3.424150e-03 -2.159059e-03 0.0
-2.834536e-03 -1.968847e-03 0.0
-2.299190e-03 -1.770959e-03 0.0
-1.819698e-03 -1.567148e-03 0.0
-1.397088e-03 -1.359412e-03 0.0
-1.031754e-03 -1.150033e-03 0.0
-7.233836e-04 -9.416305e-04 0.0
-4.708737e-04 -7.372344e-04 0.0
-2.722338e-04 -5.403660e-04 0.0
-1.244856e-04 -3.551401e-04 0.0
-2.355700e-05 -1.863827e-04 0.0
3.583368e-05 -3.976105e-05 0.0
6.030135e-05 7.808143e-05 0.0
5.795383e-05 1.593906e-04 0.0
3.863556e-05 1.951595e-04 0.0
1.435164e-05 1.749010e-04 0.0
0.000000e+00 8.617877e-05 0.0
0.000000e+00 -8.613421e-05 0.0
0.000000e+00 -3.018007e-05 0.0
-3.885575e-05 1.015140e-05 0.0
-1.364598e-04 1.588884e-04 0.0
-2.978858e-04 3.941598e-04 0.0
-5.306351e-04 6.872391e-04 0.0
-8.411169e-04 1.012537e-03 0.0
-1.232678e-03 1.351176e-03 0.0
-1.705031e-03 1.690265e-03 0.0
-2.254950e-03 2.021562e-03 0.0
-2.877614e-03 2.339777e-03 0.0
-3.567831e-03 2.641121e-03 0.0
-4.320690e-03 2.922495e-03 0.0
-5.131597e-03 3.181287e-03 0.0
-5.995970e-03 3.415528e-03 0.0
-6.908909e-03 3.624083e-03 0.0
-7.865058e-03 3.806675e-03 0.0
-8.858698e-03 3.963724e-03 0.0
-9.883962e-03 4.096092e-03 0.0
-1.093505e-02 4.204834e-03 0.0
-1.200639e-02 4.291044e-03 0.0
-1.309268e-02 4.355776e-03 0.0
-1.418889e-02 4.400022e-03 0.0
-1.529024e-02 4.424683e-03 0.0
-1.639222e-02 4.430553e-03 0.0
-1.749054e-02 4.418295e-03 0.0
-1.858110e-02 4.388460e-03 0.0
-1.965996e-02 4.341541e-03 0.0
-2.072325e-02 4.278050e-03 0.0
-2.176709e-02 4.198583e-03 0.0
-2.278764e-02 4.103842e-03 0.0
-2.378103e-02 3.994590e-03 0.0
-2.474356e-02 3.871561e-03 0.0
-2.567169e-02 3.735365e-03 0.0
-2.656210e-02 3.586420e-03 0.0
-2.741176e-02 3.424964e-03 0.0
-2.821776e-02 3.251117e-03 0.0
-2.897733e-02 3.064996e-03 0.0
-2.968772e-02 2.866805e-03 0.0
-3.034619e-02 2.656901e-03 0.0
-3.095003e-02 2.435797e-03 0.0
-3.149657e-02 2.204122e-03 0.0
-3.198329e-02 1.962571e-03 0.0
-3.240789e-02 1.711851e-03 0.0
-3.276828e-02 1.452666e-03 0.0
-3.306263e-02 1.185730e-03 0.0
-3.328936e-02 9.118044e-04 0.0
-3.344714e-02 6.317434e-04 0.0
-3.353486e-02 3.465358e-04 0.0
-3.355167e-02 5.732942e-05 0.0
-3.349697e-02 -2.345609e-04 0.0
-3.337049e-02 -5.276869e-04 0.0
-3.317224e-02 -8.205890e-04 0.0
-3.290259e-02 -1.111810e-03 0.0
-3.256225e-02 -1.399904e-03 0.0
-3.215231e-02 -1.683445e-03 0.0
-3.167416e-02 -1.961023e-03 0.0
-3.112959e-02 -2.231253e-03 0.0
-3.052070e-02 -2.492765e-03 0.0
-2.984994e-02 -2.744211e-03 0.0
-2.912006e-02 -2.984265e-03 0.0
-2.833411e-02 -3.211628e-03 0.0
-2.749547e-02 -3.425039e-03 0.0
-2.660778e-02 -3.623279e-03 0.0
-2.567494e-02 -3.805194e-03 0.0
-2.470112e-02 -3.969698e-03 0.0
-2.369073e-02 -4.115793e-03 0.0
-2.264839e-02 -4.242576e-03 0.0
-2.157892e-02 -4.349249e-03 0.0
-2.048730e-02 -4.435127e-03 0.0
-1.937868e-02 -4.499641e-03 0.0
-1.825829e-02 -4.542343e-03 0.0
-1.713147e-02 -4.562908e-03 0.0
-1.600359e-02 -4.561140e-03 0.0
-1.488005e-02 -4.536978e-03 0.0
-1.376622e-02 -4.490480e-03 0.0
-1.266745e-02 -4.421834e-03 0.0
-1.158899e-02 -4.331357e-03 0.0
-1.053597e-02 -4.219502e-03 0.0
-9.513380e-03 -4.086861e-03 0.0
-8.526037e-03 -3.934175e-03 0.0
-7.578523e-03 -3.762337e-03 0.0
-6.675169e-03 -3.572403e-03 0.0
-5.819999e-03 -3.365596e-03 0.0
-5.016697e-03 -3.143320e-03 0.0
-4.268551e-03 -2.907170e-03 0.0
-3.578406e-03 -2.658956e-03 0.0
-2.948613e-03 -2.400721e-03 0.0
-2.380963e-03 -2.134773e-03 0.0
-1.876630e-03 -1.863726e-03 0.0
-1.436100e-03 -1.590548e-03 0.0
-1.059096e-03 -1.318622e-03 0.0
-7.445011e-04 -1.051819e-03 0.0
-4.902687e-04 -7.945876e-04 0.0
-2.933382e-04 -5.520588e-04 0.0
-1.495414e-04 -3.301669e-04 0.0
-5.350535e-05 -1.357836e-04 0.0
1.455633e-06 2.313462e-05 0.0
2.347721e-05 1.373820e-04 0.0
2.234908e-05 1.963009e-04 0.0
9.814569e-06 1.874489e-04 0.0
0.000000e+00 9.600685e-05 0.0
0.000000e+00 -9.594360e-05 0.0
0.000000e+00 -6.761440e-05 0.0
-5.344987e-05 4.605782e-05 0.0
-1.748250e-04 2.833374e-04 0.0
-3.777062e-04 6.067591e-04 0.0
-6.672807e-04 9.864501e-04 0.0
-1.046757e-03 1.396960e-03 0.0
-1.516184e-03 1.819940e-03 0.0
-2.072813e-03 2.242693e-03 0.0
-2.712212e-03 2.656361e-03 0.0
-3.429404e-03 3.054324e-03 0.0
-4.219517e-03 3.431236e-03 0.0
-5.077863e-03 3.782712e-03 0.0
-5.999668e-03 4.105408e-03 0.0
-6.979768e-03 4.397163e-03 0.0
-8.012479e-03 4.656982e-03 0.0
-9.091677e-03 4.884827e-03 0.0
-1.021102e-02 5.081309e-03 0.0
-1.136416e-02 5.247387e-03 0.0
-1.254492e-02 5.384169e-03 0.0
-1.374735e-02 5.492798e-03 0.0
-1.496575e-02 5.574403e-03 0.0
-1.619470e-02 5.630057e-03 0.0
-1.742904e-02 5.660748e-03 0.0
-1.866387e-02 5.667343e-03 0.0
-1.989448e-02 5.650612e-03 0.0
-2.111635e-02 5.611273e-03 0.0
-2.232499e-02 5.550081e-03 0.0
-2.351596e-02 5.467878e-03 0.0
-2.468480e-02 5.365606e-03 0.0
-2.582712e-02 5.244251e-03 0.0
-2.693865e-02 5.104737e-03 0.0
-2.801536e-02 4.947823e-03 0.0
-2.905351e-02 4.774044e-03 0.0
-3.004958e-02 4.583732e-03 0.0
-3.100026e-02 4.377097e-03 0.0
-3.190234e-02 4.154350e-03 0.0
-3.275262e-02 3.915804e-03 0.0
-3.354794e-02 3.661933e-03 0.0
-3.428511e-02 3.393370e-03 0.0
-3.496108e-02 3.110858e-03 0.0
-3.557290e-02 2.815188e-03 0.0
-3.611788e-02 2.507157e-03 0.0
-3.659355e-02 2.187554e-03 0.0
-3.699770e-02 1.857185e-03 0.0
-3.732836e-02 1.516916e-03 0.0
-3.758381e-02 1.167732e-03 0.0
-3.776254e-02 8.107705e-04 0.0
-3.786331e-02 4.473515e-04 0.0
-3.788513e-02 7.897761e-05 0.0
-3.782732e-02 -2.926740e-04 0.0
-3.768956e-02 -6.657885e-04 0.0
-3.747188e-02 -1.038552e-03 0.0
-3.717469e-02 -1.409160e-03 0.0
-3.679879e-02 -1.775823e-03 0.0
-3.634536e-02 -2.136766e-03 0.0
-3.581596e-02 -2.490227e-03 0.0
-3.521255e-02 -2.834455e-03 0.0
-3.453743e-02 -3.167713e-03 0.0
-3.379326e-02 -3.488281e-03 0.0
-3.298306e-02 -3.794463e-03 0.0
-3.211018e-02 -4.084596e-03 0.0
-3.117830e-02 -4.357071e-03 0.0
-3.019143e-02 -4.610343e-03 0.0
-2.915385e-02 -4.842949e-03 0.0
-2.807016e-02 -5.053527e-03 0.0
-2.694521e-02 -5.240822e-03 0.0
-2.578410e-02 -5.403704e-03 0.0
-2.459213e-02 -5.541172e-03 0.0
-2.337482e-02 -5.652362e-03 0.0
-2.213781e-02 -5.736551e-03 0.0
-2.088689e-02 -5.793168e-03 0.0
-1.962793e-02 -5.821794e-03 0.0
-1.836686e-02 -5.822170e-03 0.0
-1.710964e-02 -5.794202e-03 0.0
-1.586219e-02 -5.737959e-03 0.0
-1.463041e-02 -5.653670e-03 0.0
-1.342010e-02 -5.541737e-03 0.0
-1.223693e-02 -5.402734e-03 0.0
-1.108641e-02 -5.237419e-03 0.0