# vtk DataFile Version 3.0
Vector Field
ASCII
DATASET RECTILINEAR_GRID
DIMENSIONS 102 102 1
X_COORDINATES 102 double
0.000000 0.100000 0.200000 0.300000 0.400000 0.500000 0.600000 0.700000 0.800000 0.900000 1.000000 1.100000 1.200000 1.300000 1.400000 1.500000 1.600000 1.700000 1.800000 1.900000 2.000000 2.100000 2.200000 2.300000 2.400000 2.500000 2.600000 2.700000 2.800000 2.900000 3.000000 3.100000 3.200000 3.300000 3.400000 3.500000 3.600000 3.700000 3.800000 3.900000 4.000000 4.100000 4.200000 4.300000 4.400000 4.500000 4.600000 4.700000 4.800000 4.900000 5.000000 5.100000 5.200000 5.300000 5.400000 5.500000 5.600000 5.700000 5.800000 5.900000 6.000000 6.100000 6.200000 6.300000 6.400000 6.500000 6.600000 6.700000 6.800000 6.900000 7.000000 7.100000 7.200000 7.300000 7.400000 7.500000 7.600000 7.700000 7.800000 7.900000 8.000000 8.100000 8.200000 8.300000 8.400000 8.500000 8.600000 8.700000 8.800000 8.900000 9.000000 9.100000 9.200000 9.300000 9.400000 9.500000 9.600000 9.700000 9.800000 9.900000 10.000000 10.100000 
Y_COORDINATES 102 double
0.000000 0.100000 0.200000 0.300000 0.400000 0.500000 0.600000 0.700000 0.800000 0.900000 1.000000 1.100000 1.200000 1.300000 1.400000 1.500000 1.600000 1.700000 1.800000 1.900000 2.000000 2.100000 2.200000 2.300000 2.400000 2.500000 2.600000 2.700000 2.800000 2.900000 3.000000 3.100000 3.200000 3.300000 3.400000 3.500000 3.600000 3.700000 3.800000 3.900000 4.000000 4.100000 4.200000 4.300000 4.400000 4.500000 4.600000 4.700000 4.800000 4.900000 5.000000 5.100000 5.200000 5.300000 5.400000 5.500000 5.600000 5.700000 5.800000 5.900000 6.000000 6.100000 6.200000 6.300000 6.400000 6.500000 6.600000 6.700000 6.800000 6.900000 7.000000 7.100000 7.200000 7.300000 7.400000 7.500000 7.600000 7.700000 7.800000 7.900000 8.000000 8.100000 8.200000 8.300000 8.400000 8.500000 8.600000 8.700000 8.800000 8.900000 9.000000 9.100000 9.200000 9.300000 9.400000 9.500000 9.600000 9.700000 9.800000 9.900000 10.000000 10.100000 
Z_COORDINATES 1 double
0.0
POINT_DATA 10404
VECTORS Velocity double
0.000000e+00 0.000000e+00 0.0
3.926788e-06 0.000000e+00 0.0
-2.476241e-05 0.000000e+00 0.0
-5.054590e-05 0.000000e+00 0.0
-6.247272e-05 0.000000e+00 0.0
-5.586254e-05 0.000000e+00 0.0
-3.124322e-05 0.000000e+00 0.0
7.721689e-06 0.000000e+00 0.0
5.667872e-05 0.000000e+00 0.0
1.125234e-04 0.000000e+00 0.0
1.742320e-04 0.000000e+00 0.0
2.425394e-04 0.000000e+00 0.0
3.188998e-04 0.000000e+00 0.0
4.043662e-04 0.000000e+00 0.0
4.988977e-04 0.000000e+00 0.0
6.012894e-04 0.000000e+00 0.0
7.096020e-04 0.000000e+00 0.0
8.217909e-04 0.000000e+00 0.0
9.362284e-04 0.000000e+00 0.0
1.051940e-03 0.000000e+00 0.0
1.168542e-03 0.000000e+00 0.0
1.285983e-03 0.000000e+00 0.0
1.404248e-03 0.000000e+00 0.0
1.523138e-03 0.000000e+00 0.0
1.642197e-03 0.000000e+00 0.0
1.760759e-03 0.000000e+00 0.0
1.878075e-03 0.000000e+00 0.0
1.993437e-03 0.000000e+00 0.0
2.106271e-03 0.000000e+00 0.0
2.216157e-03 0.000000e+00 0.0
2.322797e-03 0.000000e+00 0.0
2.425954e-03 0.000000e+00 0.0
2.525386e-03 0.000000e+00 0.0
2.620804e-03 0.000000e+00 0.0
2.711858e-03 0.000000e+00 0.0
2.798146e-03 0.000000e+00 0.0
2.879246e-03 0.000000e+00 0.0
2.954740e-03 0.000000e+00 0.0
3.024241e-03 0.000000e+00 0.0
3.087400e-03 0.000000e+00 0.0
3.143904e-03 0.000000e+00 0.0
3.193469e-03 0.000000e+00 0.0
3.235834e-03 0.000000e+00 0.0
3.270746e-03 0.000000e+00 0.0
3.297966e-03 0.000000e+00 0.0
3.317269e-03 0.000000e+00 0.0
3.328450e-03 0.000000e+00 0.0
3.331341e-03 0.000000e+00 0.0
3.325820e-03 0.000000e+00 0.0
3.311836e-03 0.000000e+00 0.0
3.289394e-03 0.000000e+00 0.0
3.258545e-03 0.000000e+00 0.0
3.219389e-03 0.000000e+00 0.0
3.172071e-03 0.000000e+00 0.0
3.116776e-03 0.000000e+00 0.0
3.053737e-03 0.000000e+00 0.0
2.983225e-03 0.000000e+00 0.0
2.905554e-03 0.000000e+00 0.0
2.821080e-03 0.000000e+00 0.0
2.730199e-03 0.000000e+00 0.0
2.633346e-03 0.000000e+00 0.0
2.530993e-03 0.000000e+00 0.0
2.423650e-03 0.000000e+00 0.0
2.311857e-03 0.000000e+00 0.0
2.196186e-03 0.000000e+00 0.0
2.077233e-03 0.000000e+00 0.0
1.955618e-03 0.000000e+00 0.0
1.831982e-03 0.000000e+00 0.0
1.706977e-03 0.000000e+00 0.0
1.581268e-03 0.000000e+00 0.0
1.455529e-03 0.000000e+00 0.0
1.330432e-03 0.000000e+00 0.0
1.206649e-03 0.000000e+00 0.0
1.084847e-03 0.000000e+00 0.0
9.656825e-04 0.000000e+00 0.0
8.498018e-04 0.000000e+00 0.0
7.378329e-04 0.000000e+00 0.0
6.303836e-04 0.000000e+00 0.0
5.280373e-04 0.000000e+00 0.0
4.313488e-04 0.000000e+00 0.0
3.408400e-04 0.000000e+00 0.0
2.569957e-04 0.000000e+00 0.0
1.802592e-04 0.000000e+00 0.0
1.110272e-04 0.000000e+00 0.0
4.964466e-05 0.000000e+00 0.0
-3.601236e-06 0.000000e+00 0.0
-4.848809e-05 0.000000e+00 0.0
-8.486700e-05 0.000000e+00 0.0
-1.126735e-04 0.000000e+00 0.0
-1.319410e-04 0.000000e+00 0.0
-1.428185e-04 0.000000e+00 0.0
-1.455956e-04 0.000000e+00 0.0
-1.407352e-04 0.000000e+00 0.0
-1.289214e-04 0.000000e+00 0.0
-1.111267e-04 0.000000e+00 0.0
-8.871181e-05 0.000000e+00 0.0
-6.356914e-05 0.000000e+00 0.0
-3.831964e-05 0.000000e+00 0.0
-1.651681e-05 0.000000e+00 0.0
-2.563966e-06 0.000000e+00 0.0
-0.000000e+00 0.000000e+00 0.0
0.000000e+00 0.000000e+00 0.0
0.000000e+00 2.308745e-05 0.0
3.019215e-05 1.195430e-05 0.0
3.828878e-05 -7.412563e-06 0.0
3.994269e-05 -1.750524e-05 0.0
3.564380e-05 -1.876803e-05 0.0
2.638638e-05 -1.049153e-05 0.0
1.151331e-05 5.547595e-06 0.0
-1.152096e-05 2.555133e-05 0.0
-4.595308e-05 4.514541e-05 0.0
-9.415708e-05 6.101462e-05 0.0
-1.566322e-04 7.187285e-05 0.0
-2.319239e-04 7.843860e-05 0.0
-3.173330e-04 8.262502e-05 0.0
-4.099454e-04 8.645756e-05 0.0
-5.074867e-04 9.122930e-05 0.0
-6.087057e-04 9.717663e-05 0.0
-7.132595e-04 1.036690e-04 0.0
-8.212856e-04 1.096988e-04 0.0
-9.329169e-04 1.143934e-04 0.0
-1.047947e-03 1.173414e-04 0.0
-1.165732e-03 1.186537e-04 0.0
-1.285308e-03 1.188063e-04 0.0
-1.405608e-03 1.183830e-04 0.0
-1.525679e-03 1.178403e-04 0.0
-1.644812e-03 1.173772e-04 0.0
-1.762562e-03 1.169319e-04 0.0
-1.878671e-03 1.162736e-04 0.0
-1.992953e-03 1.151321e-04 0.0
-2.105193e-03 1.133090e-04 0.0
-2.215080e-03 1.107369e-04 0.0
-2.322196e-03 1.074765e-04 0.0
-2.426056e-03 1.036706e-04 0.0
-2.526152e-03 9.948055e-05 0.0
-2.622004e-03 9.503169e-05 0.0
-2.713189e-03 9.038490e-05 0.0
-2.799344e-03 8.553614e-05 0.0
-2.880153e-03 8.043717e-05 0.0
-2.955324e-03 7.502469e-05 0.0
-3.024570e-03 6.924633e-05 0.0
-3.087591e-03 6.307612e-05 0.0
-3.144079e-03 5.651771e-05 0.0
-3.193715e-03 4.959821e-05 0.0
-3.236191e-03 4.235751e-05 0.0
-3.271209e-03 3.483806e-05 0.0
-3.298503e-03 2.707815e-05 0.0
-3.317836e-03 1.911004e-05 0.0
-3.329010e-03 1.096221e-05 0.0
-3.331869e-03 2.665040e-06 0.0
-3.326308e-03 -5.739877e-06 0.0
-3.312289e-03 -1.419289e-05 0.0
-3.289819e-03 -2.264585e-05 0.0
-3.258953e-03 -3.105240e-05 0.0
-3.219786e-03 -3.936535e-05 0.0
-3.172456e-03 -4.753695e-05 0.0
-3.117148e-03 -5.551987e-05 0.0
-3.054086e-03 -6.326817e-05 0.0
-2.983544e-03 -7.073795e-05 0.0
-2.905837e-03 -7.788754e-05 0.0
-2.821324e-03 -8.467726e-05 0.0
-2.730403e-03 -9.106916e-05 0.0
-2.633512e-03 -9.702662e-05 0.0
-2.531128e-03 -1.025142e-04 0.0
-2.423758e-03 -1.074977e-04 0.0
-2.311944e-03 -1.119445e-04 0.0
-2.196254e-03 -1.158240e-04 0.0
-2.077285e-03 -1.191085e-04 0.0
-1.955654e-03 -1.217734e-04 0.0
-1.831999e-03 -1.237981e-04 0.0
-1.706974e-03 -1.251660e-04 0.0
-1.581243e-03 -1.258653e-04 0.0
-1.455480e-03 -1.258890e-04 0.0
-1.330357e-03 -1.252357e-04 0.0
-1.206548e-03 -1.239076e-04 0.0
-1.084721e-03 -1.219108e-04 0.0
-9.655337e-04 -1.192550e-04 0.0
-8.496325e-04 -1.159539e-04 0.0
-7.376463e-04 -1.120247e-04 0.0
-6.301835e-04 -1.074886e-04 0.0
-5.278274e-04 -1.023705e-04 0.0
-4.311327e-04 -9.669918e-05 0.0
-3.406210e-04 -9.050725e-05 0.0
-2.567768e-04 -8.383167e-05 0.0
-1.800429e-04 -7.671381e-05 0.0
-1.108158e-04 -6.919990e-05 0.0
-4.944015e-05 -6.134153e-05 0.0
3.796999e-06 -5.319639e-05 0.0
4.867342e-05 -4.482919e-05 0.0
8.504032e-05 -3.631341e-05 0.0
1.128333e-04 -2.773355e-05 0.0
1.320860e-04 -1.918759e-05 0.0
1.429477e-04 -1.079137e-05 0.0
1.457080e-04 -2.685207e-06 0.0
1.408302e-04 4.956958e-06 0.0
1.289988e-04 1.191425e-05 0.0
1.111868e-04 1.789787e-05 0.0
8.875537e-05 2.251969e-05 0.0
6.359776e-05 2.524782e-05 0.0
3.833605e-05 2.535393e-05 0.0
1.652534e-05 2.190383e-05 0.0
2.569895e-06 1.404909e-05 0.0
0.000000e+00 2.663634e-06 0.0
0.000000e+00 -2.691699e-06 0.0
0.000000e+00 2.835673e-05 0.0
2.595594e-05 -1.319693e-05 0.0
3.876007e-05 -4.088070e-05 0.0
4.406638e-05 -3.754642e-05 0.0
3.342117e-05 -1.117594e-05 0.0
4.835640e-07 3.079086e-05 0.0
-5.999845e-05 8.072249e-05 0.0
-1.518514e-04 1.317356e-04 0.0
-2.768383e-04 1.789137e-04 0.0
-4.343862e-04 2.199642e-04 0.0
-6.219487e-04 2.549808e-04 0.0
-8.358507e-04 2.854945e-04 0.0
-1.072241e-03 3.133045e-04 0.0
-1.327793e-03 3.395850e-04 0.0
-1.599976e-03 3.645350e-04 0.0
-1.886930e-03 3.875541e-04 0.0
-2.187125e-03 4.077188e-04 0.0
-2.499006e-03 4.242790e-04 0.0
-2.820786e-03 4.369649e-04 0.0
-3.150420e-03 4.460296e-04 0.0
-3.485727e-03 4.520786e-04 0.0
-3.824571e-03 4.558050e-04 0.0
-4.165015e-03 4.577547e-04 0.0
-4.505398e-03 4.582012e-04 0.0
-4.844317e-03 4.571480e-04 0.0
-5.180550e-03 4.544289e-04 0.0
-5.512959e-03 4.498408e-04 0.0
-5.840402e-03 4.432541e-04 0.0
-6.161697e-03 4.346673e-04 0.0
-6.475614e-03 4.242002e-04 0.0
-6.780911e-03 4.120431e-04 0.0
-7.076365e-03 3.983920e-04 0.0
-7.360809e-03 3.833962e-04 0.0
-7.633144e-03 3.671334e-04 0.0
-7.892331e-03 3.496135e-04 0.0
-8.137381e-03 3.308038e-04 0.0
-8.367336e-03 3.106607e-04 0.0
-8.581250e-03 2.891562e-04 0.0
-8.778189e-03 2.662935e-04 0.0
-8.957231e-03 2.421089e-04 0.0
-9.117476e-03 2.166656e-04 0.0
-9.258062e-03 1.900432e-04 0.0
-9.378175e-03 1.623290e-04 0.0
-9.477064e-03 1.336126e-04 0.0
-9.554050e-03 1.039862e-04 0.0
-9.608534e-03 7.354879e-05 0.0
-9.640013e-03 4.241322e-05 0.0
-9.648089e-03 1.071546e-05 0.0
-9.632490e-03 -2.137244e-05 0.0
-9.593093e-03 -5.363794e-05 0.0
-9.529909e-03 -8.589094e-05 0.0
-9.443079e-03 -1.179513e-04 0.0
-9.332870e-03 -1.496435e-04 0.0
-9.199675e-03 -1.807951e-04 0.0
-9.044011e-03 -2.112367e-04 0.0
-8.866518e-03 -2.408018e-04 0.0
-8.667959e-03 -2.693277e-04 0.0
-8.449216e-03 -2.966555e-04 0.0
-8.211287e-03 -3.226303e-04 0.0
-7.955282e-03 -3.471017e-04 0.0
-7.682417e-03 -3.699247e-04 0.0
-7.394011e-03 -3.909603e-04 0.0
-7.091479e-03 -4.100772e-04 0.0
-6.776322e-03 -4.271526e-04 0.0
-6.450125e-03 -4.420742e-04 0.0
-6.114544e-03 -4.547413e-04 0.0
-5.771299e-03 -4.650662e-04 0.0
-5.422163e-03 -4.729752e-04 0.0
-5.068954e-03 -4.784097e-04 0.0
-4.713518e-03 -4.813269e-04 0.0
-4.357724e-03 -4.817009e-04 0.0
-4.003448e-03 -4.795236e-04 0.0
-3.652561e-03 -4.748013e-04 0.0
-3.306920e-03 -4.675548e-04 0.0
-2.968356e-03 -4.578188e-04 0.0
-2.638666e-03 -4.456428e-04 0.0
-2.319598e-03 -4.310915e-04 0.0
-2.012840e-03 -4.142442e-04 0.0
-1.720013e-03 -3.951962e-04 0.0
-1.442652e-03 -3.740582e-04 0.0
-1.182199e-03 -3.509571e-04 0.0
-9.399894e-04 -3.260370e-04 0.0
-7.172377e-04 -2.994600e-04 0.0
-5.150229e-04 -2.714075e-04 0.0
-3.342730e-04 -2.420823e-04 0.0
-1.757466e-04 -2.117117e-04 0.0
-4.001186e-05 -1.805510e-04 0.0
7.257848e-05 -1.488890e-04 0.0
1.619167e-04 -1.170554e-04 0.0
2.281806e-04 -8.543376e-05 0.0
2.718794e-04 -5.447123e-05 0.0
2.939155e-04 -2.470142e-05 0.0
2.956643e-04 3.228697e-06 0.0
2.790780e-04 2.852180e-05 0.0
2.468183e-04 5.017924e-05 0.0
2.024235e-04 6.693634e-05 0.0
1.505000e-04 7.719362e-05 0.0
9.689226e-05 7.898419e-05 0.0
4.870212e-05 7.011617e-05 0.0
1.386918e-05 4.890409e-05 0.0
0.000000e+00 1.655468e-05 0.0
0.000000e+00 -1.658464e-05 0.0
0.000000e+00 3.092121e-05 0.0
1.078448e-05 -4.038085e-05 0.0
1.644002e-05 -6.173659e-05 0.0
7.721640e-06 -3.156315e-05 0.0
-2.880106e-05 3.424325e-05 0.0
-1.036352e-04 1.205422e-04 0.0
-2.241050e-04 2.151175e-04 0.0
-3.938440e-04 3.092848e-04 0.0
-6.128906e-04 3.981756e-04 0.0
-8.785077e-04 4.801547e-04 0.0
-1.186431e-03 5.555988e-04 0.0
-1.532076e-03 6.255357e-04 0.0
-1.911334e-03 6.906310e-04 0.0
-2.320813e-03 7.507741e-04 0.0
-2.757659e-03 8.052177e-04 0.0
-3.219172e-03 8.530264e-04 0.0
-3.702478e-03 8.935416e-04 0.0
-4.204386e-03 9.266495e-04 0.0
-4.721452e-03 9.527859e-04 0.0
-5.250177e-03 9.727355e-04 0.0
-5.787224e-03 9.873505e-04 0.0
-6.329573e-03 9.973136e-04 0.0
-6.874567e-03 1.003020e-03 0.0
-7.419857e-03 1.004592e-03 0.0
-7.963299e-03 1.001982e-03 0.0
-8.502833e-03 9.951114e-04 0.0
-9.036408e-03 9.839789e-04 0.0
-9.561953e-03 9.687055e-04 0.0
-1.007739e-02 9.495185e-04 0.0
-1.058068e-02 9.266955e-04 0.0
-1.106985e-02 9.004987e-04 0.0
-1.154302e-02 8.711260e-04 0.0
-1.199844e-02 8.386926e-04 0.0
-1.243440e-02 8.032427e-04 0.0
-1.284928e-02 7.647792e-04 0.0
-1.324148e-02 7.232981e-04 0.0
-1.360943e-02 6.788157e-04 0.0
-1.395159e-02 6.313823e-04 0.0
-1.426643e-02 5.810838e-04 0.0
-1.455248e-02 5.280349e-04 0.0
-1.480834e-02 4.723696e-04 0.0
-1.503267e-02 4.142350e-04 0.0
-1.522423e-02 3.537888e-04 0.0
-1.538188e-02 2.912028e-04 0.0
-1.550459e-02 2.266688e-04 0.0
-1.559147e-02 1.604073e-04 0.0
-1.564176e-02 9.267694e-05 0.0
-1.565487e-02 2.378432e-05 0.0
-1.563040e-02 -4.590242e-05 0.0
-1.556815e-02 -1.159528e-04 0.0
-1.546815e-02 -1.859655e-04 0.0
-1.533062e-02 -2.555561e-04 0.0
-1.515597e-02 -3.243498e-04 0.0
-1.494484e-02 -3.919791e-04 0.0
-1.469803e-02 -4.580813e-04 0.0
-1.441656e-02 -5.222994e-04 0.0
-1.410163e-02 -5.842817e-04 0.0
-1.375463e-02 -6.436833e-04 0.0
-1.337712e-02 -7.001671e-04 0.0
-1.297086e-02 -7.534061e-04 0.0
-1.253775e-02 -8.030855e-04 0.0
-1.207986e-02 -8.489052e-04 0.0
-1.159941e-02 -8.905827e-04 0.0
-1.109876e-02 -9.278556e-04 0.0
-1.058040e-02 -9.604848e-04 0.0
-1.004694e-02 -9.882564e-04 0.0
-9.501059e-03 -1.010984e-03 0.0
-8.945554e-03 -1.028511e-03 0.0
-8.383274e-03 -1.040713e-03 0.0
-7.817119e-03 -1.047498e-03 0.0
-7.250023e-03 -1.048808e-03 0.0
-6.684931e-03 -1.044622e-03 0.0
-6.124784e-03 -1.034952e-03 0.0
-5.572501e-03 -1.019841e-03 0.0
-5.030959e-03 -9.993629e-04 0.0
-4.502981e-03 -9.736234e-04 0.0
-3.991313e-03 -9.427622e-04 0.0
-3.498608e-03 -9.069522e-04 0.0
-3.027406e-03 -8.664005e-04 0.0
-2.580116e-03 -8.213495e-04 0.0
-2.158995e-03 -7.720776e-04 0.0
-1.766129e-03 -7.189012e-04 0.0
-1.403407e-03 -6.621769e-04 0.0
-1.072504e-03 -6.023044e-04 0.0
-7.748462e-04 -5.397311e-04 0.0
-5.115893e-04 -4.749577e-04 0.0
-2.835804e-04 -4.085470e-04 0.0
-9.132075e-05 -3.411341e-04 0.0
6.508140e-05 -2.734415e-04 0.0
1.859638e-04 -2.062988e-04 0.0
2.721836e-04 -1.406726e-04 0.0
3.251972e-04 -7.769592e-05 0.0
3.471630e-04 -1.871711e-05 0.0
3.410635e-04 3.464174e-05 0.0
3.108498e-04 8.041377e-05 0.0
2.615981e-04 1.162092e-04 0.0
1.996600e-04 1.391534e-04 0.0
1.327602e-04 1.459054e-04 0.0
6.998969e-05 1.329080e-04 0.0
2.172090e-05 9.719409e-05 0.0
0.000000e+00 3.829659e-05 0.0
0.000000e+00 -3.832569e-05 0.0
0.000000e+00 3.016407e-05 0.0
-7.484407e-06 -5.767918e-05 0.0
-1.617465e-05 -5.670211e-05 0.0
-5.148225e-05 1.263941e-05 0.0
-1.292823e-04 1.272202e-04 0.0
-2.611982e-04 2.662815e-04 0.0
-4.539339e-04 4.149062e-04 0.0
-7.093637e-04 5.636401e-04 0.0
-1.025593e-03 7.075609e-04 0.0
-1.398562e-03 8.447121e-04 0.0
-1.823566e-03 9.744598e-04 0.0
-2.296228e-03 1.096283e-03 0.0
-2.812783e-03 1.209239e-03 0.0
-3.369845e-03 1.312041e-03 0.0
-3.963965e-03 1.403460e-03 0.0
-4.591290e-03 1.482747e-03 0.0
-5.247461e-03 1.549844e-03 0.0
-5.927773e-03 1.605333e-03 0.0
-6.627464e-03 1.650180e-03 0.0
-7.342003e-03 1.685417e-03 0.0
-8.067281e-03 1.711896e-03 0.0
-8.799642e-03 1.730167e-03 0.0
-9.535801e-03 1.740505e-03 0.0
-1.027270e-02 1.743025e-03 0.0
-1.100738e-02 1.737823e-03 0.0
-1.173688e-02 1.725076e-03 0.0
-1.245823e-02 1.705083e-03 0.0
-1.316850e-02 1.678237e-03 0.0
-1.386481e-02 1.644954e-03 0.0
-1.454444e-02 1.605607e-03 0.0
-1.520479e-02 1.560479e-03 0.0
-1.584344e-02 1.509753e-03 0.0
-1.645803e-02 1.453535e-03 0.0
-1.704631e-02 1.391886e-03 0.0
-1.760607e-02 1.324863e-03 0.0
-1.813512e-02 1.252546e-03 0.0
-1.863131e-02 1.175053e-03 0.0
-1.909256e-02 1.092536e-03 0.0
-1.951680e-02 1.005175e-03 0.0
-1.990211e-02 9.131717e-04 0.0
-2.024662e-02 8.167437e-04 0.0
-2.054860e-02 7.161264e-04 0.0
-2.080643e-02 6.115806e-04 0.0
-2.101865e-02 5.034012e-04 0.0
-2.118392e-02 3.919279e-04 0.0
-2.130109e-02 2.775549e-04 0.0
-2.136920e-02 1.607399e-04 0.0
-2.138749e-02 4.201432e-05 0.0
-2.135547e-02 -7.800565e-05 0.0
-2.127288e-02 -1.986189e-04 0.0
-2.113976e-02 -3.191559e-04 0.0
-2.095641e-02 -4.389678e-04 0.0
-2.072339e-02 -5.574186e-04 0.0
-2.044152e-02 -6.738815e-04 0.0
-2.011189e-02 -7.877374e-04 0.0
-1.973584e-02 -8.983740e-04 0.0
-1.931496e-02 -1.005188e-03 0.0
-1.885109e-02 -1.107588e-03 0.0
-1.834631e-02 -1.204993e-03 0.0
-1.780293e-02 -1.296845e-03 0.0
-1.722347e-02 -1.382605e-03 0.0
-1.661068e-02 -1.461760e-03 0.0
-1.596749e-02 -1.533831e-03 0.0
-1.529703e-02 -1.598370e-03 0.0
-1.460259e-02 -1.654972e-03 0.0
-1.388761e-02 -1.703273e-03 0.0
-1.315567e-02 -1.742958e-03 0.0
-1.241044e-02 -1.773760e-03 0.0
-1.165570e-02 -1.795465e-03 0.0
-1.089529e-02 -1.807914e-03 0.0
-1.013310e-02 -1.811007e-03 0.0
-9.373028e-03 -1.804704e-03 0.0
-8.618965e-03 -1.789021e-03 0.0
-7.874783e-03 -1.764030e-03 0.0
-7.144297e-03 -1.729856e-03 0.0
-6.431247e-03 -1.686681e-03 0.0
-5.739274e-03 -1.634743e-03 0.0
-5.071892e-03 -1.574341e-03 0.0
-4.432467e-03 -1.505831e-03 0.0
-3.824186e-03 -1.429633e-03 0.0
-3.250035e-03 -1.346229e-03 0.0
-2.712767e-03 -1.256168e-03 0.0
-2.214873e-03 -1.160067e-03 0.0
-1.758550e-03 -1.058621e-03 0.0
-1.345665e-03 -9.526068e-04 0.0
-9.777184e-04 -8.428931e-04 0.0
-6.557981e-04 -7.304545e-04 0.0
-3.805300e-04 -6.163878e-04 0.0
-1.520209e-04 -5.019350e-04 0.0
3.020922e-05 -3.885122e-04 0.0
1.673026e-04 -2.777482e-04 0.0
2.611601e-04 -1.715350e-04 0.0
3.145466e-04 -7.208440e-05 0.0
3.312092e-04 1.799895e-05 0.0
3.160073e-04 9.563587e-05 0.0
2.750408e-04 1.571961e-04 0.0
2.157669e-04 1.984482e-04 0.0
1.470929e-04 2.145998e-04 0.0
7.948950e-05 2.005320e-04 0.0
2.531821e-05 1.513858e-04 0.0
0.000000e+00 6.363501e-05 0.0
0.000000e+00 -6.365957e-05 0.0
0.000000e+00 2.555194e-05 0.0
-2.207903e-05 -5.791993e-05 0.0
-5.173652e-05 -1.875839e-05 0.0
-1.247771e-04 1.010989e-04 0.0
-2.564715e-04 2.730952e-04 0.0
-4.567492e-04 4.734816e-04 0.0
-7.298943e-04 6.861513e-04 0.0
-1.075545e-03 9.011337e-04 0.0
-1.490461e-03 1.112699e-03 0.0
-1.970303e-03 1.317396e-03 0.0
-2.510830e-03 1.512595e-03 0.0
-3.108288e-03 1.695782e-03 0.0
-3.759166e-03 1.864536e-03 0.0
-4.459696e-03 2.016870e-03 0.0
-5.205459e-03 2.151593e-03 0.0
-5.991286e-03 2.268458e-03 0.0
-6.811472e-03 2.368032e-03 0.0
-7.660155e-03 2.451373e-03 0.0
-8.531697e-03 2.519654e-03 0.0
-9.420927e-03 2.573882e-03 0.0
-1.032320e-02 2.614768e-03 0.0
-1.123432e-02 2.642758e-03 0.0
-1.215033e-02 2.658156e-03 0.0
-1.306739e-02 2.661266e-03 0.0
-1.398166e-02 2.652486e-03 0.0
-1.488932e-02 2.632341e-03 0.0
-1.578655e-02 2.601435e-03 0.0
-1.666966e-02 2.560377e-03 0.0
-1.753515e-02 2.509699e-03 0.0
-1.837970e-02 2.449819e-03 0.0
-1.920018e-02 2.381028e-03 0.0
-1.999361e-02 2.303525e-03 0.0
-2.075711e-02 2.217461e-03 0.0
-2.148785e-02 2.122980e-03 0.0
-2.218304e-02 2.020252e-03 0.0
-2.283996e-02 1.909479e-03 0.0
-2.345593e-02 1.790898e-03 0.0
-2.402835e-02 1.664770e-03 0.0
-2.455473e-02 1.531374e-03 0.0
-2.503270e-02 1.391009e-03 0.0
-2.546003e-02 1.243994e-03 0.0
-2.583461e-02 1.090685e-03 0.0
-2.615452e-02 9.314817e-04 0.0
-2.641797e-02 7.668476e-04 0.0
-2.662338e-02 5.973151e-04 0.0
-2.676938e-02 4.234977e-04 0.0
-2.685480e-02 2.460974e-04 0.0
-2.687879e-02 6.591341e-05 0.0
-2.684073e-02 -1.161473e-04 0.0
-2.674035e-02 -2.990682e-04 0.0
-2.657770e-02 -4.818633e-04 0.0
-2.635314e-02 -6.635662e-04 0.0
-2.606736e-02 -8.432244e-04 0.0
-2.572137e-02 -1.019895e-03 0.0
-2.531649e-02 -1.192644e-03 0.0
-2.485435e-02 -1.360547e-03 0.0
-2.433689e-02 -1.522694e-03 0.0
-2.376634e-02 -1.678189e-03 0.0
-2.314523e-02 -1.826160e-03 0.0
-2.247638e-02 -1.965763e-03 0.0
-2.176287e-02 -2.096189e-03 0.0
-2.100802e-02 -2.216668e-03 0.0
-2.021543e-02 -2.326480e-03 0.0
-1.938889e-02 -2.424956e-03 0.0
-1.853241e-02 -2.511486e-03 0.0
-1.765018e-02 -2.585525e-03 0.0
-1.674656e-02 -2.646598e-03 0.0
-1.582603e-02 -2.694303e-03 0.0
-1.489319e-02 -2.728316e-03 0.0
-1.395272e-02 -2.748395e-03 0.0
-1.300935e-02 -2.754384e-03 0.0
-1.206785e-02 -2.746219e-03 0.0
-1.113296e-02 -2.723921e-03 0.0
-1.020941e-02 -2.687592e-03 0.0
-9.301858e-03 -2.637422e-03 0.0
-8.414868e-03 -2.573682e-03 0.0
-7.552888e-03 -2.496734e-03 0.0
-6.720210e-03 -2.407028e-03 0.0
-5.920941e-03 -2.305106e-03 0.0
-5.158974e-03 -2.191604e-03 0.0
-4.437950e-03 -2.067254e-03 0.0
-3.761226e-03 -1.932890e-03 0.0
-3.131834e-03 -1.789454e-03 0.0
-2.552446e-03 -1.638002e-03 0.0
-2.025327e-03 -1.479716e-03 0.0
-1.552294e-03 -1.315915e-03 0.0
-1.134657e-03 -1.148078e-03 0.0
-7.731701e-04 -9.778612e-04 0.0
-4.679589e-04 -8.071310e-04 0.0
-2.184537e-04 -6.380012e-04 0.0
-2.330482e-05 -4.728800e-04 0.0
1.197066e-04 -3.145285e-04 0.0
2.137707e-04 -1.661299e-04 0.0
2.631599e-04 -3.137104e-05 0.0
2.733367e-04 8.547853e-05 0.0
2.510643e-04 1.794882e-04 0.0
2.045125e-04 2.450202e-04 0.0
1.433856e-04 2.757464e-04 0.0
7.915506e-05 2.647823e-04 0.0
2.559198e-05 2.049685e-04 0.0
0.000000e+00 8.924641e-05 0.0
0.000000e+00 -8.926328e-05 0.0
0.000000e+00 1.481984e-05 0.0
-3.097601e-05 -3.863481e-05 0.0
-8.815647e-05 5.407689e-05 0.0
-2.080529e-04 2.360055e-04 0.0
-4.025963e-04 4.752567e-04 0.0
-6.781546e-04 7.472089e-04 0.0
-1.035992e-03 1.035198e-03 0.0
-1.473950e-03 1.328257e-03 0.0
-1.988341e-03 1.618866e-03 0.0
-2.575306e-03 1.901227e-03 0.0
-3.231339e-03 2.170361e-03 0.0
-3.953074e-03 2.421960e-03 0.0
-4.736747e-03 2.652652e-03 0.0
-5.577732e-03 2.860295e-03 0.0
-6.470412e-03 3.044057e-03 0.0
-7.408404e-03 3.204203e-03 0.0
-8.384996e-03 3.341681e-03 0.0
-9.393612e-03 3.457676e-03 0.0
-1.042812e-02 3.553272e-03 0.0
-1.148295e-02 3.629300e-03 0.0
-1.255300e-02 3.686357e-03 0.0
-1.363347e-02 3.724931e-03 0.0
-1.471968e-02 3.745547e-03 0.0
-1.580695e-02 3.748852e-03 0.0
-1.689059e-02 3.735625e-03 0.0
-1.796597e-02 3.706726e-03 0.0
-1.902860e-02 3.662998e-03 0.0
-2.007419e-02 3.605185e-03 0.0
-2.109870e-02 3.533882e-03 0.0
-2.209829e-02 3.449535e-03 0.0
-2.306935e-02 3.352481e-03 0.0
-2.400834e-02 3.242995e-03 0.0
-2.491185e-02 3.121343e-03 0.0
-2.577649e-02 2.987808e-03 0.0
-2.659895e-02 2.842703e-03 0.0
-2.737599e-02 2.686369e-03 0.0
-2.810446e-02 2.519163e-03 0.0
-2.878134e-02 2.341457e-03 0.0
-2.940373e-02 2.153637e-03 0.0
-2.996891e-02 1.956115e-03 0.0
-3.047428e-02 1.749343e-03 0.0
-3.091742e-02 1.533830e-03 0.0
-3.129609e-02 1.310157e-03 0.0
-3.160827e-02 1.078994e-03 0.0
-3.185211e-02 8.411053e-04 0.0
-3.202605e-02 5.973625e-04 0.0
-3.212879e-02 3.487479e-04 0.0
-3.215933e-02 9.636456e-05 0.0
-3.211699e-02 -1.585543e-04 0.0
-3.200148e-02 -4.146372e-04 0.0
-3.181284e-02 -6.705378e-04 0.0
-3.155150e-02 -9.249257e-04 0.0
-3.121826e-02 -1.176481e-03 0.0
-3.081429e-02 -1.423895e-03 0.0
-3.034110e-02 -1.665865e-03 0.0
-2.980059e-02 -1.901105e-03 0.0
-2.919500e-02 -2.128346e-03 0.0
-2.852691e-02 -2.346343e-03 0.0
-2.779926e-02 -2.553884e-03 0.0
-2.701530e-02 -2.749796e-03 0.0
-2.617859e-02 -2.932958e-03 0.0
-2.529302e-02 -3.102302e-03 0.0
-2.436271e-02 -3.256828e-03 0.0
-2.339209e-02 -3.395609e-03 0.0
-2.238580e-02 -3.517800e-03 0.0
-2.134870e-02 -3.622641e-03 0.0
-2.028585e-02 -3.709471e-03 0.0
-1.920243e-02 -3.777728e-03 0.0
-1.810380e-02 -3.826959e-03 0.0
-1.699538e-02 -3.856823e-03 0.0
-1.588269e-02 -3.867098e-03 0.0
-1.477124e-02 -3.857685e-03 0.0
-1.366656e-02 -3.828609e-03 0.0
-1.257416e-02 -3.780010e-03 0.0
-1.149946e-02 -3.712145e-03 0.0
-1.044776e-02 -3.625393e-03 0.0
-9.424251e-03 -3.520254e-03 0.0
-8.433930e-03 -3.397358e-03 0.0
-7.481584e-03 -3.257458e-03 0.0
-6.571746e-03 -3.101444e-03 0.0
-5.708659e-03 -2.930340e-03 0.0
-4.896234e-03 -2.745312e-03 0.0
-4.138004e-03 -2.547679e-03 0.0
-3.437080e-03 -2.338918e-03 0.0
-2.796105e-03 -2.120682e-03 0.0
-2.217196e-03 -1.894814e-03 0.0
-1.701891e-03 -1.663371e-03 0.0
-1.251086e-03 -1.428652e-03 0.0
-8.649677e-04 -1.193235e-03 0.0
-5.429373e-04 -9.600159e-04 0.0
-2.835315e-04 -7.322693e-04 0.0
-8.433470e-05 -5.137081e-04 0.0
5.811298e-05 -3.085595e-04 0.0
1.484081e-04 -1.216478e-04 0.0
1.923870e-04 4.151844e-05 0.0
1.972230e-04 1.746712e-04 0.0
1.715354e-04 2.707269e-04 0.0
1.255474e-04 3.217532e-04 0.0
7.136915e-05 3.189794e-04 0.0
2.353879e-05 2.528177e-04 0.0
0.000000e+00 1.128038e-04 0.0
0.000000e+00 -1.128108e-04 0.0
0.000000e+00 -5.931826e-06 0.0
-3.582542e-05 -1.228479e-06 0.0
-1.264112e-04 1.608430e-04 0.0
-2.993441e-04 4.179655e-04 0.0
-5.615651e-04 7.366774e-04 0.0
-9.153155e-04 1.092501e-03 0.0
-1.359273e-03 1.468010e-03 0.0
-1.890347e-03 1.850462e-03 0.0
-2.505088e-03 2.229844e-03 0.0
-3.200294e-03 2.597782e-03 0.0
-3.972838e-03 2.947258e-03 0.0
-4.819117e-03 3.272784e-03 0.0
-5.734528e-03 3.570642e-03 0.0
-6.713287e-03 3.838894e-03 0.0
-7.748624e-03 4.077084e-03 0.0
-8.833252e-03 4.285739e-03 0.0
-9.959876e-03 4.465828e-03 0.0
-1.112157e-02 4.618356e-03 0.0
-1.231193e-02 4.744168e-03 0.0
-1.352505e-02 4.843941e-03 0.0
-1.475529e-02 4.918308e-03 0.0
-1.599719e-02 4.967988e-03 0.0
-1.724525e-02 4.993874e-03 0.0
-1.849401e-02 4.997020e-03 0.0
-1.973803e-02 4.978559e-03 0.0
-2.097205e-02 4.939606e-03 0.0
-2.219102e-02 4.881154e-03 0.0
-2.339017e-02 4.804021e-03 0.0
-2.456499e-02 4.708855e-03 0.0
-2.571119e-02 4.596172e-03 0.0
-2.682463e-02 4.466414e-03 0.0
-2.790126e-02 4.320004e-03 0.0
-2.893711e-02 4.157371e-03 0.0
-2.992830e-02 3.978968e-03 0.0
-3.087103e-02 3.785260e-03 0.0
-3.176161e-02 3.576724e-03 0.0
-3.259648e-02 3.353836e-03 0.0
-3.337224e-02 3.117085e-03 0.0
-3.408565e-02 2.866978e-03 0.0
-3.473361e-02 2.604070e-03 0.0
-3.531323e-02 2.328975e-03 0.0
-3.582180e-02 2.042394e-03 0.0
-3.625680e-02 1.745123e-03 0.0
-3.661594e-02 1.438073e-03 0.0
-3.689719e-02 1.122272e-03 0.0
-3.709880e-02 7.988794e-04 0.0
-3.721932e-02 4.691873e-04 0.0
-3.725766e-02 1.346337e-04 0.0
-3.721307e-02 -2.031907e-04 0.0
-3.708522e-02 -5.425236e-04 0.0
-3.687416e-02 -8.816184e-04 0.0
-3.658036e-02 -1.218737e-03 0.0
-3.620472e-02 -1.552148e-03 0.0
-3.574853e-02 -1.880128e-03 0.0
-3.521348e-02 -2.200965e-03 0.0
-3.460169e-02 -2.512962e-03 0.0
-3.391566e-02 -2.814449e-03 0.0
-3.315829e-02 -3.103790e-03 0.0
-3.233286e-02 -3.379390e-03 0.0
-3.144301e-02 -3.639709e-03 0.0
-3.049275e-02 -3.883273e-03 0.0
-2.948641e-02 -4.108681e-03 0.0
-2.842865e-02 -4.314618e-03 0.0
-2.732442e-02 -4.499863e-03 0.0
-2.617893e-02 -4.663303e-03 0.0
-2.499765e-02 -4.803939e-03 0.0
-2.378624e-02 -4.920893e-03 0.0
-2.255056e-02 -5.013423e-03 0.0
-2.129662e-02 -5.080925e-03 0.0
-2.003051e-02 -5.122944e-03 0.0
-1.875845e-02 -5.139180e-03 0.0
-1.748667e-02 -5.129491e-03 0.0
-1.622140e-02 -5.093904e-03 0.0
-1.496883e-02 -5.032596e-03 0.0
-1.373509e-02 -4.945900e-03 0.0
-1.252619e-02 -4.834311e-03 0.0
-1.134797e-02 -4.698487e-03 0.0
-1.020608e-02 -4.539251e-03 0.0
-9.105945e-03 -4.357600e-03 0.0
-8.052688e-03 -4.154703e-03 0.0
-7.051114e-03 -3.931912e-03 0.0
-6.105652e-03 -3.690770e-03 0.0
-5.220310e-03 -3.433015e-03 0.0
-4.398621e-03 -3.160599e-03 0.0
-3.643593e-03 -2.875701e-03 0.0
-2.957649e-03 -2.580748e-03 0.0
-2.342567e-03 -2.278441e-03 0.0
-1.799419e-03 -1.971788e-03 0.0
-1.328496e-03 -1.664143e-03 0.0
-9.292400e-04 -1.359257e-03 0.0
-6.001616e-04 -1.061332e-03 0.0
-3.387631e-04 -7.750899e-04 0.0
-1.414532e-04 -5.058522e-04 0.0
-3.462477e-06 -2.596208e-04 0.0
8.124186e-05 -4.316797e-05 0.0
1.200511e-04 1.358802e-04 0.0
1.218305e-04 2.689655e-04 0.0
9.707801e-05 3.465236e-04 0.0
5.819336e-05 3.578820e-04 0.0
1.991972e-05 2.911093e-04 0.0
0.000000e+00 1.327413e-04 0.0
0.000000e+00 -1.327372e-04 0.0
0.000000e+00 -4.086839e-05 0.0
-4.007414e-05 5.072212e-05 0.0
-1.681213e-04 2.996738e-04 0.0
-3.968105e-04 6.475187e-04 0.0
-7.278230e-04 1.060381e-03 0.0
-1.159834e-03 1.513870e-03 0.0
-1.689876e-03 1.989183e-03 0.0
-2.314639e-03 2.471233e-03 0.0
-3.031062e-03 2.947410e-03 0.0
-3.836171e-03 3.407191e-03 0.0
-4.726500e-03 3.842234e-03 0.0
-5.697530e-03 4.246571e-03 0.0
-6.743439e-03 4.616559e-03 0.0
-7.857272e-03 4.950517e-03 0.0
-9.031384e-03 5.248135e-03 0.0
-1.025798e-02 5.509842e-03 0.0
-1.152951e-02 5.736326e-03 0.0
-1.283891e-02 5.928265e-03 0.0
-1.417952e-02 6.086294e-03 0.0
-1.554499e-02 6.211096e-03 0.0
-1.692909e-02 6.303527e-03 0.0
-1.832558e-02 6.364683e-03 0.0
-1.972824e-02 6.395873e-03 0.0
-2.113088e-02 6.398519e-03 0.0
-2.252751e-02 6.374017e-03 0.0
-2.391235e-02 6.323636e-03 0.0
-2.527994e-02 6.248456e-03 0.0
-2.662511e-02 6.149365e-03 0.0
-2.794290e-02 6.027100e-03 0.0
-2.922854e-02 5.882314e-03 0.0
-3.047738e-02 5.715622e-03 0.0
-3.168488e-02 5.527641e-03 0.0
-3.284656e-02 5.318989e-03 0.0
-3.395807e-02 5.090288e-03 0.0
-3.501519e-02 4.842151e-03 0.0
-3.601385e-02 4.575183e-03 0.0
-3.695012e-02 4.289984e-03 0.0
-3.782026e-02 3.987172e-03 0.0
-3.862070e-02 3.667406e-03 0.0
-3.934803e-02 3.331410e-03 0.0
-3.999906e-02 2.979997e-03 0.0
-4.057079e-02 2.614086e-03 0.0
-4.106046e-02 2.234720e-03 0.0
-4.146555e-02 1.843074e-03 0.0
-4.178384e-02 1.440466e-03 0.0
-4.201341e-02 1.028366e-03 0.0
-4.215269e-02 6.084034e-04 0.0
-4.220048e-02 1.823780e-04 0.0
-4.215596e-02 -2.477335e-04 0.0
-4.201875e-02 -6.797457e-04 0.0
-4.178891e-02 -1.111474e-03 0.0
-4.146694e-02 -1.540734e-03 0.0
-4.105380e-02 -1.965341e-03 0.0
-4.055087e-02 -2.383116e-03 0.0
-3.996001e-02 -2.791897e-03 0.0
-3.928351e-02 -3.189539e-03 0.0
-3.852411e-02 -3.573933e-03 0.0
-3.768496e-02 -3.943009e-03 0.0
-3.676966e-02 -4.294757e-03 0.0
-3.578219e-02 -4.627231e-03 0.0
-3.472693e-02 -4.938569e-03 0.0
-3.360864e-02 -5.227000e-03 0.0
-3.243242e-02 -5.490859e-03 0.0
-3.120370e-02 -5.728603e-03 0.0
-2.992820e-02 -5.938818e-03 0.0
-2.861192e-02 -6.120235e-03 0.0
-2.726110e-02 -6.271738e-03 0.0
-2.588216e-02 -6.392379e-03 0.0
-2.448172e-02 -6.481387e-03 0.0
-2.306652e-02 -6.538174e-03 0.0
-2.164338e-02 -6.562349e-03 0.0
-2.021917e-02 -6.553720e-03 0.0
-1.880079e-02 -6.512308e-03 0.0
-1.739508e-02 -6.438327e-03 0.0
-1.600881e-02 -6.332191e-03 0.0
-1.464861e-02 -6.194519e-03 0.0
-1.332097e-02 -6.026134e-03 0.0
-1.203215e-02 -5.828076e-03 0.0
-1.078816e-02 -5.601599e-03 0.0