# vtk DataFile Version 3.0
Vector Field
ASCII
DATASET RECTILINEAR_GRID
DIMENSIONS 102 102 1
X_COORDINATES 102 double
0.000000 0.100000 0.200000 0.300000 0.400000 0.500000 0.600000 0.700000 0.800000 0.900000 1.000000 1.100000 1.200000 1.300000 1.400000 1.500000 1.600000 1.700000 1.800000 1.900000 2.000000 2.100000 2.200000 2.300000 2.400000 2.500000 2.600000 2.700000 2.800000 2.900000 3.000000 3.100000 3.200000 3.300000 3.400000 3.500000 3.600000 3.700000 3.800000 3.900000 4.000000 4.100000 4.200000 4.300000 4.400000 4.500000 4.600000 4.700000 4.800000 4.900000 5.000000 5.100000 5.200000 5.300000 5.400000 5.500000 5.600000 5.700000 5.800000 5.900000 6.000000 6.100000 6.200000 6.300000 6.400000 6.500000 6.600000 6.700000 6.800000 6.900000 7.000000 7.100000 7.200000 7.300000 7.400000 7.500000 7.600000 7.700000 7.800000 7.900000 8.000000 8.100000 8.200000 8.300000 8.400000 8.500000 8.600000 8.700000 8.800000 8.900000 9.000000 9.100000 9.200000 9.300000 9.400000 9.500000 9.600000 9.700000 9.800000 9.900000 10.000000 10.100000 
Y_COORDINATES 102 double
0.000000 0.100000 0.200000 0.300000 0.400000 0.500000 0.600000 0.700000 0.800000 0.900000 1.000000 1.100000 1.200000 1.300000 1.400000 1.500000 1.600000 1.700000 1.800000 1.900000 2.000000 2.100000 2.200000 2.300000 2.400000 2.500000 2.600000 2.700000 2.800000 2.900000 3.000000 3.100000 3.200000 3.300000 3.400000 3.500000 3.600000 3.700000 3.800000 3.900000 4.000000 4.100000 4.200000 4.300000 4.400000 4.500000 4.600000 4.700000 4.800000 4.900000 5.000000 5.100000 5.200000 5.300000 5.400000 5.500000 5.600000 5.700000 5.800000 5.900000 6.000000 6.100000 6.200000 6.300000 6.400000 6.500000 6.600000 6.700000 6.800000 6.900000 7.000000 7.100000 7.200000 7.300000 7.400000 7.500000 7.600000 7.700000 7.800000 7.900000 8.000000 8.100000 8.200000 8.300000 8.400000 8.500000 8.600000 8.700000 8.800000 8.900000 9.000000 9.100000 9.200000 9.300000 9.400000 9.500000 9.600000 9.700000 9.800000 9.900000 10.000000 10.100000 
Z_COORDINATES 1 double
0.0
POINT_DATA 10404
VECTORS Velocity double
0.000000e+00 0.000000e+00 0.0
5.232323e-06 0.000000e+00 0.0
3.958243e-06 0.000000e+00 0.0
8.843567e-06 0.000000e+00 0.0
2.244671e-05 0.000000e+00 0.0
4.543997e-05 0.000000e+00 0.0
7.786028e-05 0.000000e+00 0.0
1.193612e-04 0.000000e+00 0.0
1.691775e-04 0.000000e+00 0.0
2.260758e-04 0.000000e+00 0.0
2.884032e-04 0.000000e+00 0.0
3.542566e-04 0.000000e+00 0.0
4.217387e-04 0.000000e+00 0.0
4.892317e-04 0.000000e+00 0.0
5.556125e-04 0.000000e+00 0.0
6.203474e-04 0.000000e+00 0.0
6.834461e-04 0.000000e+00 0.0
7.452927e-04 0.000000e+00 0.0
8.064122e-04 0.000000e+00 0.0
8.672435e-04 0.000000e+00 0.0
9.279837e-04 0.000000e+00 0.0
9.885355e-04 0.000000e+00 0.0
1.048556e-03 0.000000e+00 0.0
1.107575e-03 0.000000e+00 0.0
1.165128e-03 0.000000e+00 0.0
1.220865e-03 0.000000e+00 0.0
1.274600e-03 0.000000e+00 0.0
1.326308e-03 0.000000e+00 0.0
1.376067e-03 0.000000e+00 0.0
1.423998e-03 0.000000e+00 0.0
1.470197e-03 0.000000e+00 0.0
1.514703e-03 0.000000e+00 0.0
1.557492e-03 0.000000e+00 0.0
1.598492e-03 0.000000e+00 0.0
1.637612e-03 0.000000e+00 0.0
1.674762e-03 0.000000e+00 0.0
1.709876e-03 0.000000e+00 0.0
1.742909e-03 0.000000e+00 0.0
1.773837e-03 0.000000e+00 0.0
1.802640e-03 0.000000e+00 0.0
1.829296e-03 0.000000e+00 0.0
1.853772e-03 0.000000e+00 0.0
1.876022e-03 0.000000e+00 0.0
1.895993e-03 0.000000e+00 0.0
1.913629e-03 0.000000e+00 0.0
1.928877e-03 0.000000e+00 0.0
1.941695e-03 0.000000e+00 0.0
1.952051e-03 0.000000e+00 0.0
1.959928e-03 0.000000e+00 0.0
1.965323e-03 0.000000e+00 0.0
1.968240e-03 0.000000e+00 0.0
1.968693e-03 0.000000e+00 0.0
1.966700e-03 0.000000e+00 0.0
1.962280e-03 0.000000e+00 0.0
1.955450e-03 0.000000e+00 0.0
1.946216e-03 0.000000e+00 0.0
1.934579e-03 0.000000e+00 0.0
1.920528e-03 0.000000e+00 0.0
1.904048e-03 0.000000e+00 0.0
1.885117e-03 0.000000e+00 0.0
1.863720e-03 0.000000e+00 0.0
1.839846e-03 0.000000e+00 0.0
1.813500e-03 0.000000e+00 0.0
1.784700e-03 0.000000e+00 0.0
1.753483e-03 0.000000e+00 0.0
1.719902e-03 0.000000e+00 0.0
1.684020e-03 0.000000e+00 0.0
1.645906e-03 0.000000e+00 0.0
1.605628e-03 0.000000e+00 0.0
1.563252e-03 0.000000e+00 0.0
1.518835e-03 0.000000e+00 0.0
1.472423e-03 0.000000e+00 0.0
1.424060e-03 0.000000e+00 0.0
1.373779e-03 0.000000e+00 0.0
1.321619e-03 0.000000e+00 0.0
1.267616e-03 0.000000e+00 0.0
1.211816e-03 0.000000e+00 0.0
1.154275e-03 0.000000e+00 0.0
1.095058e-03 0.000000e+00 0.0
1.034244e-03 0.000000e+00 0.0
9.719258e-04 0.000000e+00 0.0
9.082114e-04 0.000000e+00 0.0
8.432298e-04 0.000000e+00 0.0
7.771353e-04 0.000000e+00 0.0
7.101168e-04 0.000000e+00 0.0
6.424086e-04 0.000000e+00 0.0
5.743053e-04 0.000000e+00 0.0
5.061781e-04 0.000000e+00 0.0
4.384937e-04 0.000000e+00 0.0
3.718355e-04 0.000000e+00 0.0
3.069249e-04 0.000000e+00 0.0
2.446422e-04 0.000000e+00 0.0
1.860439e-04 0.000000e+00 0.0
1.323734e-04 0.000000e+00 0.0
8.505880e-05 0.000000e+00 0.0
4.568104e-05 0.000000e+00 0.0
1.587588e-05 0.000000e+00 0.0
-2.904745e-06 0.000000e+00 0.0
-9.977207e-06 0.000000e+00 0.0
-6.802661e-06 0.000000e+00 0.0
-0.000000e+00 0.000000e+00 0.0
0.000000e+00 0.000000e+00 0.0
0.000000e+00 1.882403e-05 0.0
4.781169e-06 -8.362392e-06 0.0
1.494963e-05 -2.761713e-08 0.0
1.295145e-05 1.373562e-05 0.0
-3.362105e-06 2.555973e-05 0.0
-3.338182e-05 3.380819e-05 0.0
-7.495286e-05 3.869663e-05 0.0
-1.252235e-04 4.144043e-05 0.0
-1.812504e-04 4.350381e-05 0.0
-2.404760e-04 4.608410e-05 0.0
-3.010558e-04 4.979618e-05 0.0
-3.619864e-04 5.457651e-05 0.0
-4.230256e-04 5.979988e-05 0.0
-4.844413e-04 6.455197e-05 0.0
-5.466791e-04 6.796084e-05 0.0
-6.100520e-04 6.947869e-05 0.0
-6.745413e-04 6.903016e-05 0.0
-7.397517e-04 6.699482e-05 0.0
-8.050087e-04 6.404937e-05 0.0
-8.695420e-04 6.093915e-05 0.0
-9.326782e-04 5.826257e-05 0.0
-9.939768e-04 5.633610e-05 0.0
-1.053274e-03 5.516915e-05 0.0
-1.110639e-03 5.453624e-05 0.0
-1.166269e-03 5.410394e-05 0.0
-1.220377e-03 5.355977e-05 0.0
-1.273106e-03 5.270125e-05 0.0
-1.324488e-03 5.146577e-05 0.0
-1.374453e-03 4.990676e-05 0.0
-1.422870e-03 4.813847e-05 0.0
-1.469596e-03 4.627666e-05 0.0
-1.514514e-03 4.439653e-05 0.0
-1.557551e-03 4.251794e-05 0.0
-1.598673e-03 4.061546e-05 0.0
-1.637870e-03 3.864300e-05 0.0
-1.675133e-03 3.656051e-05 0.0
-1.710434e-03 3.435290e-05 0.0
-1.743726e-03 3.203651e-05 0.0
-1.774936e-03 2.965384e-05 0.0
-1.803982e-03 2.726061e-05 0.0
-1.830783e-03 2.491042e-05 0.0
-1.855266e-03 2.264157e-05 0.0
-1.877381e-03 2.046875e-05 0.0
-1.897100e-03 1.838044e-05 0.0
-1.914417e-03 1.634169e-05 0.0
-1.929340e-03 1.430098e-05 0.0
-1.941891e-03 1.219985e-05 0.0
-1.952092e-03 9.983681e-06 0.0
-1.959961e-03 7.612097e-06 0.0
-1.965503e-03 5.067439e-06 0.0
-1.968707e-03 2.359848e-06 0.0
-1.969544e-03 -4.720121e-07 0.0
-1.967971e-03 -3.364786e-06 0.0
-1.963937e-03 -6.240287e-06 0.0
-1.957387e-03 -9.020429e-06 0.0
-1.948272e-03 -1.163966e-05 0.0
-1.936561e-03 -1.405680e-05 0.0
-1.922242e-03 -1.626300e-05 0.0
-1.905332e-03 -1.828386e-05 0.0
-1.885870e-03 -2.017489e-05 0.0
-1.863918e-03 -2.201126e-05 0.0
-1.839548e-03 -2.387383e-05 0.0
-1.812836e-03 -2.583424e-05 0.0
-1.783848e-03 -2.794223e-05 0.0
-1.752639e-03 -3.021762e-05 0.0
-1.719244e-03 -3.264829e-05 0.0
-1.683682e-03 -3.519430e-05 0.0
-1.645961e-03 -3.779682e-05 0.0
-1.606082e-03 -4.038957e-05 0.0
-1.564048e-03 -4.291029e-05 0.0
-1.519870e-03 -4.530992e-05 0.0
-1.473573e-03 -4.755813e-05 0.0
-1.425197e-03 -4.964459e-05 0.0
-1.374795e-03 -5.157651e-05 0.0
-1.322435e-03 -5.337353e-05 0.0
-1.268191e-03 -5.506130e-05 0.0
-1.212142e-03 -5.666529e-05 0.0
-1.154371e-03 -5.820583e-05 0.0
-1.094962e-03 -5.969489e-05 0.0
-1.034000e-03 -6.113469e-05 0.0
-9.715784e-04 -6.251762e-05 0.0
-9.077976e-04 -6.382681e-05 0.0
-8.427768e-04 -6.503688e-05 0.0
-7.766605e-04 -6.611423e-05 0.0
-7.096295e-04 -6.701642e-05 0.0
-6.419130e-04 -6.769074e-05 0.0
-5.738031e-04 -6.807217e-05 0.0
-5.056711e-04 -6.808091e-05 0.0
-4.379859e-04 -6.762006e-05 0.0
-3.713336e-04 -6.657310e-05 0.0
-3.064381e-04 -6.480268e-05 0.0
-2.441821e-04 -6.215144e-05 0.0
-1.856234e-04 -5.844479e-05 0.0
-1.320053e-04 -5.349680e-05 0.0
-8.475448e-05 -4.712478e-05 0.0
-4.544750e-05 -3.917840e-05 0.0
-1.571507e-05 -2.960224e-05 0.0
2.997932e-06 -1.858334e-05 0.0
1.001903e-05 -6.892801e-06 0.0
6.814459e-06 3.333141e-06 0.0
0.000000e+00 6.943302e-06 0.0
0.000000e+00 -6.888465e-06 0.0
0.000000e+00 2.406376e-05 0.0
6.445066e-06 -4.900055e-06 0.0
-6.904788e-07 1.305897e-05 0.0
-3.253501e-05 4.613293e-05 0.0
-9.204309e-05 8.061091e-05 0.0
-1.780023e-04 1.119073e-04 0.0
-2.870115e-04 1.387793e-04 0.0
-4.148051e-04 1.616517e-04 0.0
-5.571364e-04 1.814353e-04 0.0
-7.103149e-04 1.988547e-04 0.0
-8.714533e-04 2.141559e-04 0.0
-1.038470e-03 2.271118e-04 0.0
-1.209913e-03 2.372304e-04 0.0
-1.384701e-03 2.440487e-04 0.0
-1.561873e-03 2.473936e-04 0.0
-1.740419e-03 2.475177e-04 0.0
-1.919236e-03 2.450743e-04 0.0
-2.097184e-03 2.409577e-04 0.0
-2.273208e-03 2.360759e-04 0.0
-2.446450e-03 2.311424e-04 0.0
-2.616322e-03 2.265516e-04 0.0
-2.782500e-03 2.223666e-04 0.0
-2.944863e-03 2.184038e-04 0.0
-3.103391e-03 2.143680e-04 0.0
-3.258074e-03 2.099852e-04 0.0
-3.408851e-03 2.050900e-04 0.0
-3.555583e-03 1.996512e-04 0.0
-3.698071e-03 1.937443e-04 0.0
-3.836090e-03 1.874940e-04 0.0
-3.969425e-03 1.810165e-04 0.0
-4.097893e-03 1.743806e-04 0.0
-4.221351e-03 1.675986e-04 0.0
-4.339686e-03 1.606403e-04 0.0
-4.452798e-03 1.534602e-04 0.0
-4.560584e-03 1.460247e-04 0.0
-4.662927e-03 1.383294e-04 0.0
-4.759692e-03 1.304031e-04 0.0
-4.850732e-03 1.223000e-04 0.0
-4.935896e-03 1.140856e-04 0.0
-5.015042e-03 1.058199e-04 0.0
-5.088042e-03 9.754452e-05 0.0
-5.154791e-03 8.927457e-05 0.0
-5.215207e-03 8.099713e-05 0.0
-5.269229e-03 7.267502e-05 0.0
-5.316814e-03 6.425514e-05 0.0
-5.357929e-03 5.567968e-05 0.0
-5.392547e-03 4.689844e-05 0.0
-5.420636e-03 3.788040e-05 0.0
-5.442160e-03 2.862245e-05 0.0
-5.457068e-03 1.915360e-05 0.0
-5.465302e-03 9.533632e-06 0.0
-5.466796e-03 -1.538507e-07 0.0
-5.461487e-03 -9.812400e-06 0.0
-5.449317e-03 -1.934953e-05 0.0
-5.430248e-03 -2.869529e-05 0.0
-5.404260e-03 -3.781235e-05 0.0
-5.371362e-03 -4.670131e-05 0.0
-5.331587e-03 -5.539940e-05 0.0
-5.284996e-03 -6.397212e-05 0.0
-5.231665e-03 -7.249948e-05 0.0
-5.171683e-03 -8.105955e-05 0.0
-5.105140e-03 -8.971275e-05 0.0
-5.032122e-03 -9.849006e-05 0.0
-4.952709e-03 -1.073873e-04 0.0
-4.866970e-03 -1.163664e-04 0.0
-4.774971e-03 -1.253631e-04 0.0
-4.676775e-03 -1.342982e-04 0.0
-4.572452e-03 -1.430914e-04 0.0
-4.462082e-03 -1.516725e-04 0.0
-4.345761e-03 -1.599902e-04 0.0
-4.223602e-03 -1.680153e-04 0.0
-4.095737e-03 -1.757402e-04 0.0
-3.962312e-03 -1.831742e-04 0.0
-3.823489e-03 -1.903362e-04 0.0
-3.679437e-03 -1.972480e-04 0.0
-3.530337e-03 -2.039273e-04 0.0
-3.376377e-03 -2.103828e-04 0.0
-3.217755e-03 -2.166112e-04 0.0
-3.054681e-03 -2.225956e-04 0.0
-2.887388e-03 -2.283044e-04 0.0
-2.716136e-03 -2.336906e-04 0.0
-2.541227e-03 -2.386901e-04 0.0
-2.363021e-03 -2.432178e-04 0.0
-2.181957e-03 -2.471635e-04 0.0
-1.998575e-03 -2.503848e-04 0.0
-1.813548e-03 -2.527001e-04 0.0
-1.627716e-03 -2.538806e-04 0.0
-1.442124e-03 -2.536430e-04 0.0
-1.258065e-03 -2.516440e-04 0.0
-1.077123e-03 -2.474765e-04 0.0
-9.012128e-04 -2.406714e-04 0.0
-7.326152e-04 -2.307073e-04 0.0
-5.739892e-04 -2.170289e-04 0.0
-4.283604e-04 -1.990837e-04 0.0
-2.990546e-04 -1.763893e-04 0.0
-1.895397e-04 -1.486520e-04 0.0
-1.031121e-04 -1.159884e-04 0.0
-4.230748e-05 -7.934811e-05 0.0
-7.841050e-06 -4.131828e-05 0.0
3.164863e-06 -7.631131e-06 0.0
0.000000e+00 1.015010e-05 0.0
0.000000e+00 -1.005258e-05 0.0
0.000000e+00 1.555450e-05 0.0
4.258405e-07 5.798161e-06 0.0
-3.262896e-05 4.656210e-05 0.0
-1.008633e-04 1.100275e-04 0.0
-2.059385e-04 1.782741e-04 0.0
-3.458344e-04 2.436597e-04 0.0
-5.165096e-04 3.028985e-04 0.0
-7.131427e-04 3.549941e-04 0.0
-9.309874e-04 3.998751e-04 0.0
-1.165842e-03 4.376577e-04 0.0
-1.414194e-03 4.683706e-04 0.0
-1.673134e-03 4.919849e-04 0.0
-1.940159e-03 5.085934e-04 0.0
-2.212978e-03 5.185976e-04 0.0
-2.489396e-03 5.227945e-04 0.0
-2.767304e-03 5.223228e-04 0.0
-3.044760e-03 5.184854e-04 0.0
-3.320104e-03 5.125196e-04 0.0
-3.592053e-03 5.053946e-04 0.0
-3.859717e-03 4.977006e-04 0.0
-4.122551e-03 4.896533e-04 0.0
-4.380243e-03 4.811935e-04 0.0
-4.632592e-03 4.721327e-04 0.0
-4.879399e-03 4.622897e-04 0.0
-5.120414e-03 4.515772e-04 0.0
-5.355323e-03 4.400242e-04 0.0
-5.583775e-03 4.277454e-04 0.0
-5.805425e-03 4.148853e-04 0.0
-6.019962e-03 4.015637e-04 0.0
-6.227127e-03 3.878451e-04 0.0
-6.426708e-03 3.737357e-04 0.0
-6.618519e-03 3.592039e-04 0.0
-6.802383e-03 3.442093e-04 0.0
-6.978111e-03 3.287300e-04 0.0
-7.145497e-03 3.127773e-04 0.0
-7.304322e-03 2.963965e-04 0.0
-7.454357e-03 2.796566e-04 0.0
-7.595383e-03 2.626341e-04 0.0
-7.727195e-03 2.453961e-04 0.0
-7.849615e-03 2.279878e-04 0.0
-7.962488e-03 2.104252e-04 0.0
-8.065690e-03 1.926953e-04 0.0
-8.159117e-03 1.747610e-04 0.0
-8.242683e-03 1.565717e-04 0.0
-8.316309e-03 1.380759e-04 0.0
-8.379919e-03 1.192346e-04 0.0
-8.433434e-03 1.000341e-04 0.0
-8.476766e-03 8.049362e-05 0.0
-8.509819e-03 6.066777e-05 0.0
-8.532492e-03 4.064214e-05 0.0
-8.544687e-03 2.052270e-05 0.0
-8.546315e-03 4.209508e-07 0.0
-8.537308e-03 -1.956160e-05 0.0
-8.517624e-03 -3.935116e-05 0.0
-8.487254e-03 -5.891536e-05 0.0
-8.446220e-03 -7.826409e-05 0.0
-8.394575e-03 -9.744323e-05 0.0
-8.332395e-03 -1.165217e-04 0.0
-8.259770e-03 -1.355747e-04 0.0
-8.176798e-03 -1.546654e-04 0.0
-8.083572e-03 -1.738304e-04 0.0
-7.980186e-03 -1.930701e-04 0.0
-7.866723e-03 -2.123470e-04 0.0
-7.743268e-03 -2.315911e-04 0.0
-7.609906e-03 -2.507109e-04 0.0
-7.466736e-03 -2.696071e-04 0.0
-7.313871e-03 -2.881869e-04 0.0
-7.151448e-03 -3.063745e-04 0.0
-6.979625e-03 -3.241172e-04 0.0
-6.798587e-03 -3.413866e-04 0.0
-6.608539e-03 -3.581747e-04 0.0
-6.409703e-03 -3.744875e-04 0.0
-6.202317e-03 -3.903368e-04 0.0
-5.986630e-03 -4.057324e-04 0.0
-5.762901e-03 -4.206766e-04 0.0
-5.531402e-03 -4.351594e-04 0.0
-5.292417e-03 -4.491568e-04 0.0
-5.046252e-03 -4.626287e-04 0.0
-4.793239e-03 -4.755177e-04 0.0
-4.533750e-03 -4.877466e-04 0.0
-4.268207e-03 -4.992134e-04 0.0
-3.997106e-03 -5.097844e-04 0.0
-3.721034e-03 -5.192844e-04 0.0
-3.440704e-03 -5.274842e-04 0.0
-3.156985e-03 -5.340873e-04 0.0
-2.870945e-03 -5.387144e-04 0.0
-2.583904e-03 -5.408902e-04 0.0
-2.297481e-03 -5.400307e-04 0.0
-2.013651e-03 -5.354358e-04 0.0
-1.734800e-03 -5.262881e-04 0.0
-1.463768e-03 -5.116630e-04 0.0
-1.203878e-03 -4.905560e-04 0.0
-9.589341e-04 -4.619312e-04 0.0
-7.331666e-04 -4.248090e-04 0.0
-5.311035e-04 -3.784096e-04 0.0
-3.573203e-04 -3.223909e-04 0.0
-2.160188e-04 -2.572455e-04 0.0
-1.103520e-04 -1.849715e-04 0.0
-4.143183e-05 -1.101934e-04 0.0
-7.018517e-06 -4.199885e-05 0.0
0.000000e+00 3.177137e-06 0.0
0.000000e+00 -3.021094e-06 0.0
0.000000e+00 -6.803592e-06 0.0
-1.049881e-05 2.462040e-05 0.0
-7.185974e-05 1.034317e-04 0.0
-1.777017e-04 2.085230e-04 0.0
-3.273320e-04 3.201136e-04 0.0
-5.176654e-04 4.280684e-04 0.0
-7.442884e-04 5.270552e-04 0.0
-1.002303e-03 6.144792e-04 0.0
-1.286906e-03 6.891907e-04 0.0
-1.593666e-03 7.507906e-04 0.0
-1.918546e-03 7.993609e-04 0.0
-2.257801e-03 8.354305e-04 0.0
-2.607868e-03 8.600103e-04 0.0
-2.965319e-03 8.745725e-04 0.0
-3.326924e-03 8.809212e-04 0.0
-3.689782e-03 8.809661e-04 0.0
-4.051465e-03 8.764667e-04 0.0
-4.410101e-03 8.688233e-04 0.0
-4.764372e-03 8.589755e-04 0.0
-5.113418e-03 8.474233e-04 0.0
-5.456672e-03 8.343435e-04 0.0
-5.793708e-03 8.197493e-04 0.0
-6.124111e-03 8.036321e-04 0.0
-6.447418e-03 7.860484e-04 0.0
-6.763117e-03 7.671386e-04 0.0
-7.070685e-03 7.470953e-04 0.0
-7.369638e-03 7.261082e-04 0.0
-7.659557e-03 7.043178e-04 0.0
-7.940104e-03 6.817933e-04 0.0
-8.210997e-03 6.585403e-04 0.0
-8.471989e-03 6.345288e-04 0.0
-8.722830e-03 6.097271e-04 0.0
-8.963255e-03 5.841282e-04 0.0
-9.192977e-03 5.577627e-04 0.0
-9.411693e-03 5.306960e-04 0.0
-9.619098e-03 5.030147e-04 0.0
-9.814902e-03 4.748086e-04 0.0
-9.998840e-03 4.461534e-04 0.0
-1.017068e-02 4.170985e-04 0.0
-1.033023e-02 3.876618e-04 0.0
-1.047731e-02 3.578309e-04 0.0
-1.061179e-02 3.275709e-04 0.0
-1.073355e-02 2.968362e-04 0.0
-1.084245e-02 2.655860e-04 0.0
-1.093838e-02 2.337986e-04 0.0
-1.102120e-02 2.014839e-04 0.0
-1.109078e-02 1.686903e-04 0.0
-1.114697e-02 1.355036e-04 0.0
-1.118963e-02 1.020394e-04 0.0
-1.121862e-02 6.842736e-05 0.0
-1.123381e-02 3.479370e-05 0.0
-1.123514e-02 1.243082e-06 0.0
-1.122255e-02 -3.215395e-05 0.0
-1.119604e-02 -6.537078e-05 0.0
-1.115564e-02 -9.842561e-05 0.0
-1.110141e-02 -1.313692e-04 0.0
-1.103343e-02 -1.642674e-04 0.0
-1.095180e-02 -1.971809e-04 0.0
-1.085662e-02 -2.301471e-04 0.0
-1.074797e-02 -2.631676e-04 0.0
-1.062593e-02 -2.962026e-04 0.0
-1.049058e-02 -3.291741e-04 0.0
-1.034201e-02 -3.619761e-04 0.0
-1.018031e-02 -3.944887e-04 0.0
-1.000560e-02 -4.265941e-04 0.0
-9.818026e-03 -4.581891e-04 0.0
-9.617759e-03 -4.891943e-04 0.0
-9.405012e-03 -5.195569e-04 0.0
-9.180019e-03 -5.492479e-04 0.0
-8.943044e-03 -5.782557e-04 0.0
-8.694365e-03 -6.065776e-04 0.0
-8.434279e-03 -6.342114e-04 0.0
-8.163090e-03 -6.611481e-04 0.0
-7.881118e-03 -6.873675e-04 0.0
-7.588695e-03 -7.128357e-04 0.0
-7.286167e-03 -7.375037e-04 0.0
-6.973910e-03 -7.613069e-04 0.0
-6.652325e-03 -7.841631e-04 0.0
-6.321861e-03 -8.059692e-04 0.0
-5.983020e-03 -8.265933e-04 0.0
-5.636377e-03 -8.458648e-04 0.0
-5.282604e-03 -8.635603e-04 0.0
-4.922496e-03 -8.793861e-04 0.0
-4.557005e-03 -8.929578e-04 0.0
-4.187288e-03 -9.037794e-04 0.0
-3.814751e-03 -9.112204e-04 0.0
-3.441110e-03 -9.144966e-04 0.0
-3.068451e-03 -9.126547e-04 0.0
-2.699287e-03 -9.045639e-04 0.0
-2.336616e-03 -8.889210e-04 0.0
-1.983966e-03 -8.642750e-04 0.0
-1.645403e-03 -8.290779e-04 0.0
-1.325518e-03 -7.817740e-04 0.0
-1.029336e-03 -7.209461e-04 0.0
-7.621555e-04 -6.455436e-04 0.0
-5.292653e-04 -5.552322e-04 0.0
-3.355290e-04 -4.509335e-04 0.0
-1.848026e-04 -3.356498e-04 0.0
-7.923907e-05 -2.157071e-04 0.0
-1.861329e-05 -1.025745e-04 0.0
0.000000e+00 -1.538626e-05 0.0
0.000000e+00 1.561076e-05 0.0
0.000000e+00 -4.088897e-05 0.0
-2.368445e-05 5.113715e-05 0.0
-1.117240e-04 1.838087e-04 0.0
-2.529597e-04 3.418454e-04 0.0
-4.440686e-04 5.054154e-04 0.0
-6.807639e-04 6.626466e-04 0.0
-9.582533e-04 8.065262e-04 0.0
-1.271600e-03 9.330946e-04 0.0
-1.615944e-03 1.040379e-03 0.0
-1.986554e-03 1.127789e-03 0.0
-2.378783e-03 1.195810e-03 0.0
-2.788017e-03 1.245821e-03 0.0
-3.209716e-03 1.279904e-03 0.0
-3.639543e-03 1.300585e-03 0.0
-4.073576e-03 1.310514e-03 0.0
-4.508497e-03 1.312146e-03 0.0
-4.941710e-03 1.307499e-03 0.0
-5.371333e-03 1.298041e-03 0.0
-5.796074e-03 1.284721e-03 0.0
-6.215035e-03 1.268096e-03 0.0
-6.627512e-03 1.248504e-03 0.0
-7.032844e-03 1.226214e-03 0.0
-7.430338e-03 1.201516e-03 0.0
-7.819269e-03 1.174732e-03 0.0
-8.198925e-03 1.146191e-03 0.0
-8.568661e-03 1.116173e-03 0.0
-8.927936e-03 1.084872e-03 0.0
-9.276311e-03 1.052384e-03 0.0
-9.613430e-03 1.018729e-03 0.0
-9.938974e-03 9.838881e-04 0.0
-1.025263e-02 9.478444e-04 0.0
-1.055406e-02 9.106098e-04 0.0
-1.084291e-02 8.722371e-04 0.0
-1.111879e-02 8.328142e-04 0.0
-1.138133e-02 7.924477e-04 0.0
-1.163016e-02 7.512426e-04 0.0
-1.186498e-02 7.092849e-04 0.0
-1.208549e-02 6.666300e-04 0.0
-1.229145e-02 6.232985e-04 0.0
-1.248266e-02 5.792801e-04 0.0
-1.265894e-02 5.345434e-04 0.0
-1.282012e-02 4.890509e-04 0.0
-1.296604e-02 4.427756e-04 0.0
-1.309654e-02 3.957176e-04 0.0
-1.321142e-02 3.479159e-04 0.0
-1.331051e-02 2.994529e-04 0.0
-1.339360e-02 2.504501e-04 0.0
-1.346050e-02 2.010551e-04 0.0
-1.351103e-02 1.514221e-04 0.0
-1.354505e-02 1.016906e-04 0.0
-1.356247e-02 5.196682e-05 0.0
-1.356322e-02 2.312233e-06 0.0
-1.354730e-02 -4.725729e-05 0.0
-1.351474e-02 -9.676654e-05 0.0
-1.346562e-02 -1.462666e-04 0.0
-1.340001e-02 -1.958126e-04 0.0
-1.331800e-02 -2.454419e-04 0.0
-1.321967e-02 -2.951564e-04 0.0
-1.310509e-02 -3.449138e-04 0.0
-1.297433e-02 -3.946272e-04 0.0
-1.282744e-02 -4.441740e-04 0.0
-1.266451e-02 -4.934109e-04 0.0
-1.248564e-02 -5.421907e-04 0.0
-1.229094e-02 -5.903788e-04 0.0
-1.208058e-02 -6.378645e-04 0.0
-1.185477e-02 -6.845662e-04 0.0
-1.161374e-02 -7.304305e-04 0.0
-1.135778e-02 -7.754255e-04 0.0
-1.108719e-02 -8.195318e-04 0.0
-1.080228e-02 -8.627326e-04 0.0
-1.050338e-02 -9.050052e-04 0.0
-1.019085e-02 -9.463154e-04 0.0
-9.865047e-03 -9.866154e-04 0.0
-9.526335e-03 -1.025842e-03 0.0
-9.175111e-03 -1.063920e-03 0.0
-8.811796e-03 -1.100759e-03 0.0
-8.436842e-03 -1.136253e-03 0.0
-8.050747e-03 -1.170278e-03 0.0
-7.654063e-03 -1.202680e-03 0.0
-7.247412e-03 -1.233265e-03 0.0
-6.831504e-03 -1.261780e-03 0.0
-6.407167e-03 -1.287893e-03 0.0
-5.975373e-03 -1.311165e-03 0.0
-5.537280e-03 -1.331028e-03 0.0
-5.094281e-03 -1.346751e-03 0.0
-4.648058e-03 -1.357413e-03 0.0
-4.200645e-03 -1.361880e-03 0.0
-3.754486e-03 -1.358782e-03 0.0
-3.312503e-03 -1.346513e-03 0.0
-2.878147e-03 -1.323241e-03 0.0
-2.455433e-03 -1.286950e-03 0.0
-2.048947e-03 -1.235520e-03 0.0
-1.663815e-03 -1.166859e-03 0.0
-1.305603e-03 -1.079109e-03 0.0
-9.801481e-04 -9.709456e-04 0.0
-6.933061e-04 -8.420194e-04 0.0
-4.506043e-04 -6.935821e-04 0.0
-2.568299e-04 -5.293700e-04 0.0
-1.156637e-04 -3.568181e-04 0.0
-2.952621e-05 -1.886565e-04 0.0
0.000000e+00 -4.485743e-05 0.0
0.000000e+00 4.515380e-05 0.0
0.000000e+00 -8.385880e-05 0.0
-3.732492e-05 8.496576e-05 0.0
-1.484372e-04 2.864757e-04 0.0
-3.210391e-04 5.082620e-04 0.0
-5.494136e-04 7.314925e-04 0.0
-8.280823e-04 9.433191e-04 0.0
-1.151742e-03 1.135634e-03 0.0
-1.515195e-03 1.303639e-03 0.0
-1.913252e-03 1.445037e-03 0.0
-2.340640e-03 1.559493e-03 0.0
-2.791954e-03 1.648225e-03 0.0
-3.261735e-03 1.713613e-03 0.0
-3.744664e-03 1.758775e-03 0.0
-4.235834e-03 1.787101e-03 0.0
-4.731009e-03 1.801837e-03 0.0
-5.226787e-03 1.805766e-03 0.0
-5.720616e-03 1.801060e-03 0.0
-6.210666e-03 1.789293e-03 0.0
-6.695612e-03 1.771571e-03 0.0
-7.174405e-03 1.748707e-03 0.0
-7.646091e-03 1.721379e-03 0.0
-8.109723e-03 1.690220e-03 0.0
-8.564345e-03 1.655835e-03 0.0
-9.009044e-03 1.618765e-03 0.0
-9.443003e-03 1.579447e-03 0.0
-9.865536e-03 1.538177e-03 0.0
-1.027609e-02 1.495117e-03 0.0
-1.067422e-02 1.450331e-03 0.0
-1.105952e-02 1.403828e-03 0.0
-1.143162e-02 1.355619e-03 0.0
-1.179010e-02 1.305741e-03 0.0
-1.213454e-02 1.254275e-03 0.0
-1.246449e-02 1.201334e-03 0.0
-1.277950e-02 1.147046e-03 0.0
-1.307916e-02 1.091535e-03 0.0
-1.336308e-02 1.034897e-03 0.0
-1.363094e-02 9.771968e-04 0.0
-1.388243e-02 9.184586e-04 0.0
-1.411734e-02 8.586759e-04 0.0
-1.433542e-02 7.978228e-04 0.0
-1.453649e-02 7.358718e-04 0.0
-1.472035e-02 6.728130e-04 0.0
-1.488677e-02 6.086720e-04 0.0
-1.503552e-02 5.435207e-04 0.0
-1.516637e-02 4.774793e-04 0.0
-1.527906e-02 4.107075e-04 0.0
-1.537336e-02 3.433857e-04 0.0
-1.544905e-02 2.756918e-04 0.0
-1.550595e-02 2.077765e-04 0.0
-1.554396e-02 1.397453e-04 0.0
-1.556301e-02 7.164988e-05 0.0
-1.556309e-02 3.492742e-06 0.0
-1.554423e-02 -6.475792e-05 0.0
-1.550650e-02 -1.331483e-04 0.0
-1.544996e-02 -2.017152e-04 0.0
-1.537468e-02 -2.704637e-04 0.0
-1.528072e-02 -3.393524e-04 0.0
-1.516813e-02 -4.082885e-04 0.0
-1.503694e-02 -4.771343e-04 0.0
-1.488720e-02 -5.457217e-04 0.0
-1.471898e-02 -6.138713e-04 0.0
-1.453236e-02 -6.814116e-04 0.0
-1.432747e-02 -7.481941e-04 0.0
-1.410449e-02 -8.141028e-04 0.0
-1.386365e-02 -8.790541e-04 0.0
-1.360520e-02 -9.429924e-04 0.0
-1.332944e-02 -1.005879e-03 0.0
-1.303670e-02 -1.067682e-03 0.0
-1.272732e-02 -1.128364e-03 0.0
-1.240165e-02 -1.187877e-03 0.0
-1.206007e-02 -1.246155e-03 0.0
-1.170296e-02 -1.303119e-03 0.0
-1.133071e-02 -1.358675e-03 0.0
-1.094375e-02 -1.412717e-03 0.0
-1.054253e-02 -1.465129e-03 0.0
-1.012753e-02 -1.515785e-03 0.0
-9.699292e-03 -1.564540e-03 0.0
-9.258385e-03 -1.611227e-03 0.0
-8.805460e-03 -1.655635e-03 0.0
-8.341241e-03 -1.697496e-03 0.0
-7.866557e-03 -1.736463e-03 0.0
-7.382363e-03 -1.772075e-03 0.0
-6.889778e-03 -1.803731e-03 0.0
-6.390129e-03 -1.830656e-03 0.0
-5.884997e-03 -1.851860e-03 0.0
-5.376282e-03 -1.866105e-03 0.0
-4.866257e-03 -1.871879e-03 0.0
-4.357639e-03 -1.867370e-03 0.0
-3.853648e-03 -1.850470e-03 0.0
-3.358057e-03 -1.818792e-03 0.0
-2.875225e-03 -1.769737e-03 0.0
-2.410101e-03 -1.700594e-03 0.0
-1.968184e-03 -1.608722e-03 0.0
-1.555441e-03 -1.491795e-03 0.0
-1.178153e-03 -1.348174e-03 0.0
-8.427151e-04 -1.177395e-03 0.0
-5.553983e-04 -9.808401e-04 0.0
-3.221037e-04 -7.626037e-04 0.0
-1.482663e-04 -5.305938e-04 0.0
-3.903051e-05 -2.978307e-04 0.0
0.000000e+00 -8.382680e-05 0.0
0.000000e+00 8.419289e-05 0.0
0.000000e+00 -1.330570e-04 0.0
-4.982897e-05 1.259808e-04 0.0
-1.798225e-04 4.095594e-04 0.0
-3.792539e-04 7.047829e-04 0.0
-6.404497e-04 9.942488e-04 0.0
-9.567885e-04 1.264854e-03 0.0
-1.322240e-03 1.508094e-03 0.0
-1.730992e-03 1.719012e-03 0.0
-2.177169e-03 1.895575e-03 0.0
-2.654702e-03 2.038127e-03 0.0
-3.157367e-03 2.148827e-03 0.0
-3.678997e-03 2.231049e-03 0.0
-4.213791e-03 2.288760e-03 0.0
-4.756628e-03 2.325962e-03 0.0
-5.303281e-03 2.346271e-03 0.0
-5.850464e-03 2.352691e-03 0.0
-6.395725e-03 2.347584e-03 0.0
-6.937225e-03 2.332774e-03 0.0
-7.473491e-03 2.309717e-03 0.0
-8.003222e-03 2.279656e-03 0.0
-8.525175e-03 2.243704e-03 0.0
-9.038142e-03 2.202866e-03 0.0
-9.540994e-03 2.158001e-03 0.0
-1.003273e-02 2.109786e-03 0.0
-1.051251e-02 2.058693e-03 0.0
-1.097965e-02 2.005006e-03 0.0
-1.143359e-02 1.948873e-03 0.0
-1.187385e-02 1.890366e-03 0.0
-1.229997e-02 1.829543e-03 0.0
-1.271145e-02 1.766481e-03 0.0
-1.310781e-02 1.701296e-03 0.0
-1.348854e-02 1.634133e-03 0.0
-1.385312e-02 1.565145e-03 0.0
-1.420107e-02 1.494476e-03 0.0
-1.453197e-02 1.422237e-03 0.0
-1.484544e-02 1.348502e-03 0.0
-1.514114e-02 1.273303e-03 0.0
-1.541879e-02 1.196638e-03 0.0
-1.567815e-02 1.118488e-03 0.0
-1.591897e-02 1.038839e-03 0.0
-1.614101e-02 9.576998e-04 0.0
-1.634401e-02 8.751252e-04 0.0
-1.652769e-02 7.912227e-04 0.0
-1.669174e-02 7.061527e-04 0.0
-1.683588e-02 6.201139e-04 0.0
-1.695981e-02 5.333195e-04 0.0
-1.706330e-02 4.459686e-04 0.0
-1.714613e-02 3.582204e-04 0.0
-1.720819e-02 2.701772e-04 0.0
-1.724939e-02 1.818804e-04 0.0
-1.726972e-02 9.332149e-05 0.0
-1.726922e-02 4.463637e-06 0.0
-1.724791e-02 -8.472996e-05 0.0
-1.720586e-02 -1.742705e-04 0.0
-1.714311e-02 -2.641233e-04 0.0
-1.705967e-02 -3.541965e-04 0.0
-1.695557e-02 -4.443433e-04 0.0
-1.683082e-02 -5.343746e-04 0.0
-1.668542e-02 -6.240785e-04 0.0
-1.651944e-02 -7.132435e-04 0.0
-1.633296e-02 -8.016778e-04 0.0
-1.612610e-02 -8.892231e-04 0.0
-1.589906e-02 -9.757590e-04 0.0
-1.565205e-02 -1.061200e-03 0.0
-1.538536e-02 -1.145483e-03 0.0
-1.509930e-02 -1.228561e-03 0.0
-1.479419e-02 -1.310381e-03 0.0
-1.447038e-02 -1.390880e-03 0.0
-1.412824e-02 -1.469978e-03 0.0
-1.376814e-02 -1.547575e-03 0.0
-1.339049e-02 -1.623558e-03 0.0
-1.299568e-02 -1.697799e-03 0.0
-1.258417e-02 -1.770162e-03 0.0
-1.215641e-02 -1.840505e-03 0.0
-1.171292e-02 -1.908681e-03 0.0
-1.125424e-02 -1.974528e-03 0.0
-1.078097e-02 -2.037863e-03 0.0
-1.029376e-02 -2.098469e-03 0.0
-9.793338e-03 -2.156072e-03 0.0
-9.280516e-03 -2.210321e-03 0.0
-8.756217e-03 -2.260757e-03 0.0
-8.221500e-03 -2.306781e-03 0.0
-7.677604e-03 -2.347616e-03 0.0
-7.125986e-03 -2.382261e-03 0.0
-6.568375e-03 -2.409454e-03 0.0
-6.006833e-03 -2.427626e-03 0.0
-5.443816e-03 -2.434869e-03 0.0
-4.882235e-03 -2.428915e-03 0.0
-4.325525e-03 -2.407137e-03 0.0
-3.777686e-03 -2.366582e-03 0.0
-3.243321e-03 -2.304047e-03 0.0
-2.727638e-03 -2.216218e-03 0.0
-2.236425e-03 -2.099871e-03 0.0
-1.775980e-03 -1.952175e-03 0.0
-1.352999e-03 -1.771087e-03 0.0
-9.744399e-04 -1.555885e-03 0.0
-6.473803e-04 -1.307834e-03 0.0
-3.789165e-04 -1.030999e-03 0.0
-1.762416e-04 -7.331997e-04 0.0
-4.698067e-05 -4.270226e-04 0.0
0.000000e+00 -1.307391e-04 0.0
0.000000e+00 1.311690e-04 0.0
0.000000e+00 -1.864824e-04 0.0
-5.992395e-05 1.741491e-04 0.0
-2.049086e-04 5.508066e-04 0.0
-4.269662e-04 9.276542e-04 0.0
-7.168806e-04 1.288770e-03 0.0
-1.066888e-03 1.621474e-03 0.0
-1.469969e-03 1.917582e-03 0.0
-1.919340e-03 2.172658e-03 0.0
-2.408147e-03 2.385458e-03 0.0
-2.929398e-03 2.557295e-03 0.0
-3.476131e-03 2.691318e-03 0.0
-4.041714e-03 2.791747e-03 0.0
-4.620186e-03 2.863167e-03 0.0
-5.206503e-03 2.909977e-03 0.0
-5.796620e-03 2.936066e-03 0.0
-6.387407e-03 2.944695e-03 0.0
-6.976437e-03 2.938560e-03 0.0
-7.561742e-03 2.919927e-03 0.0
-8.141607e-03 2.890770e-03 0.0
-8.714441e-03 2.852839e-03 0.0
-9.278752e-03 2.807682e-03 0.0
-9.833172e-03 2.756604e-03 0.0
-1.037650e-02 2.700631e-03 0.0
-1.090773e-02 2.640504e-03 0.0
-1.142605e-02 2.576706e-03 0.0
-1.193077e-02 2.509529e-03 0.0
-1.242130e-02 2.439153e-03 0.0
-1.289710e-02 2.365718e-03 0.0
-1.335759e-02 2.289363e-03 0.0
-1.380220e-02 2.210257e-03 0.0
-1.423037e-02 2.128582e-03 0.0
-1.464151e-02 2.044526e-03 0.0
-1.503510e-02 1.958257e-03 0.0
-1.541066e-02 1.869903e-03 0.0
-1.576777e-02 1.779553e-03 0.0
-1.610604e-02 1.687245e-03 0.0
-1.642518e-02 1.592988e-03 0.0
-1.672488e-02 1.496771e-03 0.0
-1.700487e-02 1.398595e-03 0.0
-1.726487e-02 1.298490e-03 0.0
-1.750456e-02 1.196543e-03 0.0
-1.772361e-02 1.092900e-03 0.0
-1.792168e-02 9.877610e-04 0.0
-1.809842e-02 8.813650e-04 0.0
-1.825350e-02 7.739556e-04 0.0
-1.838664e-02 6.657506e-04 0.0
-1.849761e-02 5.569142e-04 0.0
-1.858629e-02 4.475431e-04 0.0
-1.865257e-02 3.376685e-04 0.0
-1.869645e-02 2.272735e-04 0.0
-1.871794e-02 1.163228e-04 0.0
-1.871705e-02 4.794506e-06 0.0
-1.869380e-02 -1.072900e-04 0.0
-1.864821e-02 -2.198495e-04 0.0
-1.858026e-02 -3.327379e-04 0.0
-1.848992e-02 -4.457528e-04 0.0
-1.837718e-02 -5.586551e-04 0.0
-1.824202e-02 -6.711940e-04 0.0
-1.808448e-02 -7.831312e-04 0.0
-1.790463e-02 -8.942602e-04 0.0
-1.770262e-02 -1.004416e-03 0.0
-1.747861e-02 -1.113475e-03 0.0
-1.723285e-02 -1.221347e-03 0.0
-1.696561e-02 -1.327960e-03 0.0
-1.667720e-02 -1.433249e-03 0.0
-1.636794e-02 -1.537135e-03 0.0
-1.603818e-02 -1.639525e-03 0.0
-1.568827e-02 -1.740302e-03 0.0
-1.531860e-02 -1.839330e-03 0.0
-1.492954e-02 -1.936457e-03 0.0
-1.452152e-02 -2.031524e-03 0.0
-1.409499e-02 -2.124364e-03 0.0
-1.365041e-02 -2.214810e-03 0.0
-1.318831e-02 -2.302691e-03 0.0
-1.270923e-02 -2.387828e-03 0.0
-1.221379e-02 -2.470027e-03 0.0
-1.170263e-02 -2.549060e-03 0.0