# vtk DataFile Version 3.0
Vector Field
ASCII
DATASET RECTILINEAR_GRID
DIMENSIONS 102 102 1
X_COORDINATES 102 double
0.000000 0.100000 0.200000 0.300000 0.400000 0.500000 0.600000 0.700000 0.800000 0.900000 1.000000 1.100000 1.200000 1.300000 1.400000 1.500000 1.600000 1.700000 1.800000 1.900000 2.000000 2.100000 2.200000 2.300000 2.400000 2.500000 2.600000 2.700000 2.800000 2.900000 3.000000 3.100000 3.200000 3.300000 3.400000 3.500000 3.600000 3.700000 3.800000 3.900000 4.000000 4.100000 4.200000 4.300000 4.400000 4.500000 4.600000 4.700000 4.800000 4.900000 5.000000 5.100000 5.200000 5.300000 5.400000 5.500000 5.600000 5.700000 5.800000 5.900000 6.000000 6.100000 6.200000 6.300000 6.400000 6.500000 6.600000 6.700000 6.800000 6.900000 7.000000 7.100000 7.200000 7.300000 7.400000 7.500000 7.600000 7.700000 7.800000 7.900000 8.000000 8.100000 8.200000 8.300000 8.400000 8.500000 8.600000 8.700000 8.800000 8.900000 9.000000 9.100000 9.200000 9.300000 9.400000 9.500000 9.600000 9.700000 9.800000 9.900000 10.000000 10.100000 
Y_COORDINATES 102 double
0.000000 0.100000 0.200000 0.300000 0.400000 0.500000 0.600000 0.700000 0.800000 0.900000 1.000000 1.100000 1.200000 1.300000 1.400000 1.500000 1.600000 1.700000 1.800000 1.900000 2.000000 2.100000 2.200000 2.300000 2.400000 2.500000 2.600000 2.700000 2.800000 2.900000 3.000000 3.100000 3.200000 3.300000 3.400000 3.500000 3.600000 3.700000 3.800000 3.900000 4.000000 4.100000 4.200000 4.300000 4.400000 4.500000 4.600000 4.700000 4.800000 4.900000 5.000000 5.100000 5.200000 5.300000 5.400000 5.500000 5.600000 5.700000 5.800000 5.900000 6.000000 6.100000 6.200000 6.300000 6.400000 6.500000 6.600000 6.700000 6.800000 6.900000 7.000000 7.100000 7.200000 7.300000 7.400000 7.500000 7.600000 7.700000 7.800000 7.900000 8.000000 8.100000 8.200000 8.300000 8.400000 8.500000 8.600000 8.700000 8.800000 8.900000 9.000000 9.100000 9.200000 9.300000 9.400000 9.500000 9.600000 9.700000 9.800000 9.900000 10.000000 10.100000 
Z_COORDINATES 1 double
0.0
POINT_DATA 10404
VECTORS Velocity double
0.000000e+00 0.000000e+00 0.0
1.850228e-05 0.000000e+00 0.0
-1.296859e-06 0.000000e+00 0.0
-2.351778e-05 0.000000e+00 0.0
-3.738772e-05 0.000000e+00 0.0
-3.735718e-05 0.000000e+00 0.0
-2.194786e-05 0.000000e+00 0.0
7.837389e-06 0.000000e+00 0.0
4.999127e-05 0.000000e+00 0.0
1.024683e-04 0.000000e+00 0.0
1.635472e-04 0.000000e+00 0.0
2.318062e-04 0.000000e+00 0.0
3.060126e-04 0.000000e+00 0.0
3.851153e-04 0.000000e+00 0.0
4.683432e-04 0.000000e+00 0.0
5.552924e-04 0.000000e+00 0.0
6.458911e-04 0.000000e+00 0.0
7.402171e-04 0.000000e+00 0.0
8.382454e-04 0.000000e+00 0.0
9.396457e-04 0.000000e+00 0.0
1.043719e-03 0.000000e+00 0.0
1.149491e-03 0.000000e+00 0.0
1.255899e-03 0.000000e+00 0.0
1.361996e-03 0.000000e+00 0.0
1.467080e-03 0.000000e+00 0.0
1.570724e-03 0.000000e+00 0.0
1.672719e-03 0.000000e+00 0.0
1.772974e-03 0.000000e+00 0.0
1.871408e-03 0.000000e+00 0.0
1.967880e-03 0.000000e+00 0.0
2.062158e-03 0.000000e+00 0.0
2.153925e-03 0.000000e+00 0.0
2.242807e-03 0.000000e+00 0.0
2.328405e-03 0.000000e+00 0.0
2.410323e-03 0.000000e+00 0.0
2.488191e-03 0.000000e+00 0.0
2.561670e-03 0.000000e+00 0.0
2.630458e-03 0.000000e+00 0.0
2.694285e-03 0.000000e+00 0.0
2.752907e-03 0.000000e+00 0.0
2.806101e-03 0.000000e+00 0.0
2.853649e-03 0.000000e+00 0.0
2.895342e-03 0.000000e+00 0.0
2.930965e-03 0.000000e+00 0.0
2.960308e-03 0.000000e+00 0.0
2.983164e-03 0.000000e+00 0.0
2.999335e-03 0.000000e+00 0.0
3.008650e-03 0.000000e+00 0.0
3.010963e-03 0.000000e+00 0.0
3.006178e-03 0.000000e+00 0.0
2.994253e-03 0.000000e+00 0.0
2.975190e-03 0.000000e+00 0.0
2.949031e-03 0.000000e+00 0.0
2.915853e-03 0.000000e+00 0.0
2.875764e-03 0.000000e+00 0.0
2.828903e-03 0.000000e+00 0.0
2.775442e-03 0.000000e+00 0.0
2.715583e-03 0.000000e+00 0.0
2.649568e-03 0.000000e+00 0.0
2.577669e-03 0.000000e+00 0.0
2.500197e-03 0.000000e+00 0.0
2.417496e-03 0.000000e+00 0.0
2.329943e-03 0.000000e+00 0.0
2.237946e-03 0.000000e+00 0.0
2.141937e-03 0.000000e+00 0.0
2.042378e-03 0.000000e+00 0.0
1.939749e-03 0.000000e+00 0.0
1.834553e-03 0.000000e+00 0.0
1.727310e-03 0.000000e+00 0.0
1.618556e-03 0.000000e+00 0.0
1.508840e-03 0.000000e+00 0.0
1.398721e-03 0.000000e+00 0.0
1.288766e-03 0.000000e+00 0.0
1.179543e-03 0.000000e+00 0.0
1.071621e-03 0.000000e+00 0.0
9.655672e-04 0.000000e+00 0.0
8.619399e-04 0.000000e+00 0.0
7.612894e-04 0.000000e+00 0.0
6.641530e-04 0.000000e+00 0.0
5.710520e-04 0.000000e+00 0.0
4.824892e-04 0.000000e+00 0.0
3.989452e-04 0.000000e+00 0.0
3.208752e-04 0.000000e+00 0.0
2.487057e-04 0.000000e+00 0.0
1.828304e-04 0.000000e+00 0.0
1.236052e-04 0.000000e+00 0.0
7.134328e-05 0.000000e+00 0.0
2.630847e-05 0.000000e+00 0.0
-1.129260e-05 0.000000e+00 0.0
-4.132100e-05 0.000000e+00 0.0
-6.371960e-05 0.000000e+00 0.0
-7.853234e-05 0.000000e+00 0.0
-8.593156e-05 0.000000e+00 0.0
-8.625759e-05 0.000000e+00 0.0
-8.007852e-05 0.000000e+00 0.0
-6.828158e-05 0.000000e+00 0.0
-5.221448e-05 0.000000e+00 0.0
-3.389891e-05 0.000000e+00 0.0
-1.631404e-05 0.000000e+00 0.0
-3.573225e-06 0.000000e+00 0.0
-0.000000e+00 0.000000e+00 0.0
0.000000e+00 0.000000e+00 0.0
0.000000e+00 3.505314e-05 0.0
1.504773e-05 -1.268966e-06 0.0
3.820010e-05 -1.398071e-06 0.0
5.032331e-05 2.725884e-06 0.0
4.942901e-05 5.968626e-06 0.0
3.615390e-05 9.424448e-06 0.0
1.197207e-05 1.395940e-05 0.0
-2.179740e-05 2.004172e-05 0.0
-6.409225e-05 2.774970e-05 0.0
-1.139672e-04 3.699679e-05 0.0
-1.705893e-04 4.758464e-05 0.0
-2.333964e-04 5.906778e-05 0.0
-3.022352e-04 7.063381e-05 0.0
-3.773036e-04 8.118721e-05 0.0
-4.588742e-04 8.965624e-05 0.0
-5.469322e-04 9.537367e-05 0.0
-6.409201e-04 9.832607e-05 0.0
-7.397168e-04 9.914238e-05 0.0
-8.418492e-04 9.883488e-05 0.0
-9.458240e-04 9.842369e-05 0.0
-1.050431e-03 9.861199e-05 0.0
-1.154900e-03 9.962869e-05 0.0
-1.258895e-03 1.012647e-04 0.0
-1.362367e-03 1.030441e-04 0.0
-1.465367e-03 1.044378e-04 0.0
-1.567890e-03 1.050353e-04 0.0
-1.669781e-03 1.046318e-04 0.0
-1.770722e-03 1.032291e-04 0.0
-1.870273e-03 1.009800e-04 0.0
-1.967931e-03 9.811161e-05 0.0
-2.063190e-03 9.485448e-05 0.0
-2.155580e-03 9.139434e-05 0.0
-2.244692e-03 8.784759e-05 0.0
-2.330181e-03 8.425750e-05 0.0
-2.411760e-03 8.060471e-05 0.0
-2.489182e-03 7.682643e-05 0.0
-2.562225e-03 7.283956e-05 0.0
-2.630677e-03 6.856324e-05 0.0
-2.694316e-03 6.393729e-05 0.0
-2.752908e-03 5.893331e-05 0.0
-2.806197e-03 5.355708e-05 0.0
-2.853918e-03 4.784284e-05 0.0
-2.895801e-03 4.184168e-05 0.0
-2.931581e-03 3.560820e-05 0.0
-2.961015e-03 2.918910e-05 0.0
-2.983889e-03 2.261685e-05 0.0
-3.000019e-03 1.590940e-05 0.0
-3.009257e-03 9.075462e-06 0.0
-3.011488e-03 2.123538e-06 0.0
-3.006638e-03 -4.926326e-06 0.0
-2.994675e-03 -1.203507e-05 0.0
-2.975600e-03 -1.916493e-05 0.0
-2.949445e-03 -2.627386e-05 0.0
-2.916273e-03 -3.331689e-05 0.0
-2.876178e-03 -4.024973e-05 0.0
-2.829294e-03 -4.703190e-05 0.0
-2.775793e-03 -5.362813e-05 0.0
-2.715884e-03 -6.000775e-05 0.0
-2.649816e-03 -6.614271e-05 0.0
-2.577870e-03 -7.200518e-05 0.0
-2.500361e-03 -7.756575e-05 0.0
-2.417634e-03 -8.279269e-05 0.0
-2.330062e-03 -8.765249e-05 0.0
-2.238048e-03 -9.211121e-05 0.0
-2.142022e-03 -9.613616e-05 0.0
-2.042438e-03 -9.969749e-05 0.0
-1.939779e-03 -1.027694e-04 0.0
-1.834545e-03 -1.053306e-04 0.0
-1.727261e-03 -1.073641e-04 0.0
-1.618466e-03 -1.088572e-04 0.0
-1.508713e-03 -1.098001e-04 0.0
-1.398563e-03 -1.101859e-04 0.0
-1.288583e-03 -1.100101e-04 0.0
-1.179344e-03 -1.092706e-04 0.0
-1.071412e-03 -1.079667e-04 0.0
-9.653503e-04 -1.060998e-04 0.0
-8.617178e-04 -1.036740e-04 0.0
-7.610625e-04 -1.006967e-04 0.0
-6.639208e-04 -9.717923e-05 0.0
-5.708141e-04 -9.313640e-05 0.0
-4.822457e-04 -8.858718e-05 0.0
-3.986973e-04 -8.355437e-05 0.0
-3.206254e-04 -7.806452e-05 0.0
-2.484573e-04 -7.214785e-05 0.0
-1.825870e-04 -6.583845e-05 0.0
-1.233709e-04 -5.917477e-05 0.0
-7.112206e-05 -5.220029e-05 0.0
-2.610416e-05 -4.496463e-05 0.0
1.147672e-05 -3.752520e-05 0.0
4.148249e-05 -2.994949e-05 0.0
6.385701e-05 -2.231889e-05 0.0
7.864515e-05 -1.473391e-05 0.0
8.602004e-05 -7.322439e-06 0.0
8.632284e-05 -2.521284e-07 0.0
8.012240e-05 6.249473e-06 0.0
6.830675e-05 1.186333e-05 0.0
5.222440e-05 1.612903e-05 0.0
3.389790e-05 1.837231e-05 0.0
1.630752e-05 1.763594e-05 0.0
3.567426e-06 1.278557e-05 0.0
0.000000e+00 3.612920e-06 0.0
0.000000e+00 -3.618086e-06 0.0
0.000000e+00 4.316708e-05 0.0
2.634713e-05 -5.421991e-06 0.0
4.434593e-05 -1.840479e-05 0.0
4.864861e-05 -9.071181e-06 0.0
3.201926e-05 1.183457e-05 0.0
-9.145268e-06 4.029296e-05 0.0
-7.636185e-05 7.326465e-05 0.0
-1.697082e-04 1.086388e-04 0.0
-2.882515e-04 1.450280e-04 0.0
-4.304888e-04 1.814877e-04 0.0
-5.947936e-04 2.171571e-04 0.0
-7.797164e-04 2.509969e-04 0.0
-9.840233e-04 2.817945e-04 0.0
-1.206503e-03 3.084323e-04 0.0
-1.445689e-03 3.302505e-04 0.0
-1.699684e-03 3.472827e-04 0.0
-1.966178e-03 3.602303e-04 0.0
-2.242649e-03 3.701880e-04 0.0
-2.526647e-03 3.782587e-04 0.0
-2.816031e-03 3.852250e-04 0.0
-3.109078e-03 3.913952e-04 0.0
-3.404455e-03 3.966434e-04 0.0
-3.701100e-03 4.005827e-04 0.0
-3.998065e-03 4.027758e-04 0.0
-4.294400e-03 4.029008e-04 0.0
-4.589090e-03 4.008334e-04 0.0
-4.881045e-03 3.966450e-04 0.0
-5.169129e-03 3.905465e-04 0.0
-5.452200e-03 3.828126e-04 0.0
-5.729146e-03 3.737135e-04 0.0
-5.998913e-03 3.634672e-04 0.0
-6.260513e-03 3.522166e-04 0.0
-6.513025e-03 3.400256e-04 0.0
-6.755589e-03 3.268911e-04 0.0
-6.987390e-03 3.127641e-04 0.0
-7.207643e-03 2.975758e-04 0.0
-7.415584e-03 2.812620e-04 0.0
-7.610453e-03 2.637834e-04 0.0
-7.791492e-03 2.451367e-04 0.0
-7.957947e-03 2.253558e-04 0.0
-8.109073e-03 2.045046e-04 0.0
-8.244144e-03 1.826649e-04 0.0
-8.362468e-03 1.599222e-04 0.0
-8.463399e-03 1.363561e-04 0.0
-8.546342e-03 1.120359e-04 0.0
-8.610764e-03 8.702310e-05 0.0
-8.656200e-03 6.137922e-05 0.0
-8.682255e-03 3.517641e-05 0.0
-8.688616e-03 8.509014e-06 0.0
-8.675060e-03 -1.849440e-05 0.0
-8.641475e-03 -4.566966e-05 0.0
-8.587848e-03 -7.286387e-05 0.0
-8.514266e-03 -9.992974e-05 0.0
-8.420916e-03 -1.267251e-04 0.0
-8.308084e-03 -1.531135e-04 0.0
-8.176158e-03 -1.789639e-04 0.0
-8.025628e-03 -2.041495e-04 0.0
-7.857081e-03 -2.285452e-04 0.0
-7.671199e-03 -2.520254e-04 0.0
-7.468761e-03 -2.744638e-04 0.0
-7.250633e-03 -2.957331e-04 0.0
-7.017772e-03 -3.157071e-04 0.0
-6.771222e-03 -3.342629e-04 0.0
-6.512105e-03 -3.512837e-04 0.0
-6.241625e-03 -3.666610e-04 0.0
-5.961056e-03 -3.802958e-04 0.0
-5.671740e-03 -3.921000e-04 0.0
-5.375077e-03 -4.019960e-04 0.0
-5.072521e-03 -4.099172e-04 0.0
-4.765569e-03 -4.158074e-04 0.0
-4.455750e-03 -4.196208e-04 0.0
-4.144623e-03 -4.213224e-04 0.0
-3.833761e-03 -4.208890e-04 0.0
-3.524744e-03 -4.183093e-04 0.0
-3.219152e-03 -4.135823e-04 0.0
-2.918555e-03 -4.067179e-04 0.0
-2.624505e-03 -3.977383e-04 0.0
-2.338531e-03 -3.866783e-04 0.0
-2.062123e-03 -3.735855e-04 0.0
-1.796729e-03 -3.585210e-04 0.0
-1.543740e-03 -3.415588e-04 0.0
-1.304487e-03 -3.227869e-04 0.0
-1.080222e-03 -3.023069e-04 0.0
-8.721111e-04 -2.802354e-04 0.0
-6.812229e-04 -2.567052e-04 0.0
-5.085113e-04 -2.318675e-04 0.0
-3.548009e-04 -2.058951e-04 0.0
-2.207668e-04 -1.789866e-04 0.0
-1.069103e-04 -1.513726e-04 0.0
-1.352845e-05 -1.233245e-04 0.0
5.932540e-05 -9.516737e-05 0.0
1.118936e-04 -6.729741e-05 0.0
1.447852e-04 -4.020919e-05 0.0
1.590694e-04 -1.453103e-05 0.0
1.564050e-04 8.919965e-06 0.0
1.392122e-04 2.906311e-05 0.0
1.108930e-04 4.445591e-05 0.0
7.608354e-05 5.319003e-05 0.0
4.085905e-05 5.286918e-05 0.0
1.269514e-05 4.095823e-05 0.0
0.000000e+00 1.631692e-05 0.0
0.000000e+00 -1.632602e-05 0.0
0.000000e+00 4.262810e-05 0.0
2.467762e-05 -1.472571e-05 0.0
2.690498e-05 -2.830495e-05 0.0
9.331061e-06 -1.642826e-06 0.0
-3.736962e-05 4.942720e-05 0.0
-1.189700e-04 1.154134e-04 0.0
-2.385435e-04 1.895009e-04 0.0
-3.969686e-04 2.670520e-04 0.0
-5.936026e-04 3.449549e-04 0.0
-8.269918e-04 4.209301e-04 0.0
-1.095383e-03 4.930301e-04 0.0
-1.396895e-03 5.594824e-04 0.0
-1.729400e-03 6.188535e-04 0.0
-2.090319e-03 6.703386e-04 0.0
-2.476526e-03 7.139410e-04 0.0
-2.884468e-03 7.503980e-04 0.0
-3.310454e-03 7.808707e-04 0.0
-3.750977e-03 8.065372e-04 0.0
-4.202952e-03 8.282596e-04 0.0
-4.663784e-03 8.464360e-04 0.0
-5.131287e-03 8.610486e-04 0.0
-5.603528e-03 8.718403e-04 0.0
-6.078665e-03 8.785205e-04 0.0
-6.554844e-03 8.809191e-04 0.0
-7.030163e-03 8.790550e-04 0.0
-7.502684e-03 8.731263e-04 0.0
-7.970487e-03 8.634525e-04 0.0
-8.431705e-03 8.503977e-04 0.0
-8.884560e-03 8.343058e-04 0.0
-9.327379e-03 8.154560e-04 0.0
-9.758588e-03 7.940413e-04 0.0
-1.017671e-02 7.701679e-04 0.0
-1.058033e-02 7.438696e-04 0.0
-1.096810e-02 7.151311e-04 0.0
-1.133871e-02 6.839173e-04 0.0
-1.169087e-02 6.501998e-04 0.0
-1.202330e-02 6.139779e-04 0.0
-1.233473e-02 5.752889e-04 0.0
-1.262392e-02 5.342087e-04 0.0
-1.288965e-02 4.908433e-04 0.0
-1.313074e-02 4.453153e-04 0.0
-1.334606e-02 3.977521e-04 0.0
-1.353457e-02 3.482777e-04 0.0
-1.369528e-02 2.970120e-04 0.0
-1.382730e-02 2.440763e-04 0.0
-1.392983e-02 1.896040e-04 0.0
-1.400216e-02 1.337523e-04 0.0
-1.404369e-02 7.671331e-05 0.0
-1.405394e-02 1.872301e-05 0.0
-1.403258e-02 -3.993049e-05 0.0
-1.397942e-02 -9.891242e-05 0.0
-1.389444e-02 -1.579085e-04 0.0
-1.377780e-02 -2.166183e-04 0.0
-1.362979e-02 -2.747518e-04 0.0
-1.345088e-02 -3.320250e-04 0.0
-1.324167e-02 -3.881574e-04 0.0
-1.300295e-02 -4.428689e-04 0.0
-1.273563e-02 -4.958781e-04 0.0
-1.244079e-02 -5.469030e-04 0.0
-1.211965e-02 -5.956623e-04 0.0
-1.177357e-02 -6.418792e-04 0.0
-1.140406e-02 -6.852847e-04 0.0
-1.101275e-02 -7.256213e-04 0.0
-1.060143e-02 -7.626463e-04 0.0
-1.017198e-02 -7.961334e-04 0.0
-9.726404e-03 -8.258749e-04 0.0
-9.266820e-03 -8.516825e-04 0.0
-8.795425e-03 -8.733878e-04 0.0
-8.314499e-03 -8.908433e-04 0.0
-7.826391e-03 -9.039232e-04 0.0
-7.333503e-03 -9.125247e-04 0.0
-6.838278e-03 -9.165694e-04 0.0
-6.343187e-03 -9.160052e-04 0.0
-5.850713e-03 -9.108078e-04 0.0
-5.363337e-03 -9.009770e-04 0.0
-4.883528e-03 -8.865381e-04 0.0
-4.413725e-03 -8.675429e-04 0.0
-3.956326e-03 -8.440701e-04 0.0
-3.513671e-03 -8.162260e-04 0.0
-3.088028e-03 -7.841451e-04 0.0
-2.681574e-03 -7.479906e-04 0.0
-2.296384e-03 -7.079553e-04 0.0
-1.934408e-03 -6.642635e-04 0.0
-1.597454e-03 -6.171731e-04 0.0
-1.287167e-03 -5.669790e-04 0.0
-1.005007e-03 -5.140183e-04 0.0
-7.522205e-04 -4.586763e-04 0.0
-5.298077e-04 -4.013965e-04 0.0
-3.384861e-04 -3.426929e-04 0.0
-1.786423e-04 -2.831675e-04 0.0
-5.027363e-05 -2.235348e-04 0.0
4.708647e-05 -1.646552e-04 0.0
1.144619e-04 -1.075808e-04 0.0
1.535556e-04 -5.361945e-05 0.0
1.668980e-04 -4.415732e-06 0.0
1.580269e-04 3.794185e-05 0.0
1.316905e-04 7.080039e-05 0.0
9.404879e-05 9.084020e-05 0.0
5.283804e-05 9.408816e-05 0.0
1.753680e-05 7.626759e-05 0.0
0.000000e+00 3.386186e-05 0.0
0.000000e+00 -3.386800e-05 0.0
0.000000e+00 3.455249e-05 0.0
1.236774e-05 -2.186721e-05 0.0
-6.511983e-06 -2.057152e-05 0.0
-5.379991e-05 3.642238e-05 0.0
-1.394504e-04 1.291664e-04 0.0
-2.699337e-04 2.434606e-04 0.0
-4.487500e-04 3.692604e-04 0.0
-6.770560e-04 4.995105e-04 0.0
-9.544809e-04 6.291275e-04 0.0
-1.279792e-03 7.541965e-04 0.0
-1.651189e-03 8.715926e-04 0.0
-2.066260e-03 9.789896e-04 0.0
-2.521828e-03 1.075036e-03 0.0
-3.013924e-03 1.159441e-03 0.0
-3.538009e-03 1.232811e-03 0.0
-4.089358e-03 1.296275e-03 0.0
-4.663483e-03 1.351020e-03 0.0
-5.256394e-03 1.397945e-03 0.0
-5.864668e-03 1.437510e-03 0.0
-6.485321e-03 1.469791e-03 0.0
-7.115614e-03 1.494669e-03 0.0
-7.752866e-03 1.512026e-03 0.0
-8.394357e-03 1.521888e-03 0.0
-9.037307e-03 1.524473e-03 0.0
-9.678928e-03 1.520165e-03 0.0
-1.031649e-02 1.509445e-03 0.0
-1.094738e-02 1.492815e-03 0.0
-1.156911e-02 1.470734e-03 0.0
-1.217939e-02 1.443574e-03 0.0
-1.277605e-02 1.411611e-03 0.0
-1.335702e-02 1.375019e-03 0.0
-1.392036e-02 1.333897e-03 0.0
-1.446420e-02 1.288287e-03 0.0
-1.498669e-02 1.238215e-03 0.0
-1.548602e-02 1.183709e-03 0.0
-1.596043e-02 1.124829e-03 0.0
-1.640814e-02 1.061671e-03 0.0
-1.682742e-02 9.943677e-04 0.0
-1.721658e-02 9.230771e-04 0.0
-1.757401e-02 8.479724e-04 0.0
-1.789815e-02 7.692301e-04 0.0
-1.818754e-02 6.870257e-04 0.0
-1.844081e-02 6.015373e-04 0.0
-1.865671e-02 5.129549e-04 0.0
-1.883406e-02 4.214937e-04 0.0
-1.897183e-02 3.274074e-04 0.0
-1.906909e-02 2.309982e-04 0.0
-1.912506e-02 1.326240e-04 0.0
-1.913912e-02 3.270244e-05 0.0
-1.911086e-02 -6.828459e-05 0.0
-1.904004e-02 -1.697993e-04 0.0
-1.892666e-02 -2.713285e-04 0.0
-1.877090e-02 -3.723752e-04 0.0
-1.857319e-02 -4.724507e-04 0.0
-1.833414e-02 -5.710689e-04 0.0
-1.805456e-02 -6.677426e-04 0.0
-1.773548e-02 -7.619818e-04 0.0
-1.737811e-02 -8.532957e-04 0.0
-1.698389e-02 -9.411956e-04 0.0
-1.655443e-02 -1.025200e-03 0.0
-1.609153e-02 -1.104838e-03 0.0
-1.559721e-02 -1.179657e-03 0.0
-1.507364e-02 -1.249225e-03 0.0
-1.452316e-02 -1.313132e-03 0.0
-1.394830e-02 -1.370997e-03 0.0
-1.335170e-02 -1.422464e-03 0.0
-1.273617e-02 -1.467211e-03 0.0
-1.210462e-02 -1.504948e-03 0.0
-1.146006e-02 -1.535417e-03 0.0
-1.080560e-02 -1.558402e-03 0.0
-1.014443e-02 -1.573725e-03 0.0
-9.479772e-03 -1.581251e-03 0.0
-8.814910e-03 -1.580892e-03 0.0
-8.153129e-03 -1.572605e-03 0.0
-7.497718e-03 -1.556395e-03 0.0
-6.851948e-03 -1.532305e-03 0.0
-6.219050e-03 -1.500430e-03 0.0
-5.602199e-03 -1.460905e-03 0.0
-5.004488e-03 -1.413917e-03 0.0
-4.428915e-03 -1.359698e-03 0.0
-3.878354e-03 -1.298534e-03 0.0
-3.355536e-03 -1.230759e-03 0.0
-2.863024e-03 -1.156766e-03 0.0
-2.403187e-03 -1.077005e-03 0.0
-1.978172e-03 -9.919938e-04 0.0
-1.589868e-03 -9.023233e-04 0.0
-1.239878e-03 -8.086695e-04 0.0
-9.294709e-04 -7.118081e-04 0.0
-6.595319e-04 -6.126350e-04 0.0
-4.305075e-04 -5.121931e-04 0.0
-2.423327e-04 -4.117085e-04 0.0
-9.434563e-05 -3.126388e-04 0.0
1.481576e-05 -2.167365e-04 0.0
8.733531e-05 -1.261318e-04 0.0
1.263642e-04 -4.343627e-05 0.0
1.361806e-04 2.813422e-05 0.0
1.223605e-04 8.462910e-05 0.0
9.195313e-05 1.212560e-04 0.0
5.369026e-05 1.323587e-04 0.0
1.838551e-05 1.115799e-04 0.0
0.000000e+00 5.225494e-05 0.0
0.000000e+00 -5.225154e-05 0.0
0.000000e+00 2.023231e-05 0.0
-4.452136e-06 -2.168482e-05 0.0
-4.724962e-05 1.154218e-05 0.0
-1.296520e-04 1.122753e-04 0.0
-2.606898e-04 2.577865e-04 0.0
-4.462725e-04 4.303619e-04 0.0
-6.896001e-04 6.172371e-04 0.0
-9.918550e-04 8.089926e-04 0.0
-1.352878e-03 9.984802e-04 0.0
-1.771518e-03 1.180196e-03 0.0
-2.245639e-03 1.350104e-03 0.0
-2.771992e-03 1.505669e-03 0.0
-3.346225e-03 1.645827e-03 0.0
-3.963168e-03 1.770714e-03 0.0
-4.617318e-03 1.881189e-03 0.0
-5.303351e-03 1.978298e-03 0.0
-6.016465e-03 2.062870e-03 0.0
-6.752469e-03 2.135350e-03 0.0
-7.507646e-03 2.195859e-03 0.0
-8.278529e-03 2.244378e-03 0.0
-9.061683e-03 2.280952e-03 0.0
-9.853592e-03 2.305810e-03 0.0
-1.065066e-02 2.319399e-03 0.0
-1.144927e-02 2.322332e-03 0.0
-1.224588e-02 2.315300e-03 0.0
-1.303712e-02 2.298991e-03 0.0
-1.381979e-02 2.274023e-03 0.0
-1.459094e-02 2.240904e-03 0.0
-1.534778e-02 2.200027e-03 0.0
-1.608768e-02 2.151669e-03 0.0
-1.680815e-02 2.096020e-03 0.0
-1.750677e-02 2.033215e-03 0.0
-1.818120e-02 1.963363e-03 0.0
-1.882912e-02 1.886581e-03 0.0
-1.944825e-02 1.803011e-03 0.0
-2.003633e-02 1.712828e-03 0.0
-2.059117e-02 1.616237e-03 0.0
-2.111061e-02 1.513464e-03 0.0
-2.159258e-02 1.404741e-03 0.0
-2.203512e-02 1.290302e-03 0.0
-2.243636e-02 1.170378e-03 0.0
-2.279452e-02 1.045211e-03 0.0
-2.310798e-02 9.150642e-04 0.0
-2.337519e-02 7.802386e-04 0.0
-2.359476e-02 6.410884e-04 0.0
-2.376541e-02 4.980303e-04 0.0
-2.388604e-02 3.515490e-04 0.0
-2.395572e-02 2.021986e-04 0.0
-2.397371e-02 5.060449e-05 0.0
-2.393952e-02 -1.025326e-04 0.0
-2.385290e-02 -2.564427e-04 0.0
-2.371385e-02 -4.103768e-04 0.0
-2.352262e-02 -5.635962e-04 0.0
-2.327970e-02 -7.153638e-04 0.0
-2.298584e-02 -8.649392e-04 0.0
-2.264205e-02 -1.011578e-03 0.0
-2.224957e-02 -1.154532e-03 0.0
-2.180989e-02 -1.293058e-03 0.0
-2.132474e-02 -1.426421e-03 0.0
-2.079611e-02 -1.553897e-03 0.0
-2.022620e-02 -1.674787e-03 0.0
-1.961746e-02 -1.788415e-03 0.0
-1.897255e-02 -1.894134e-03 0.0
-1.829435e-02 -1.991331e-03 0.0
-1.758591e-02 -2.079431e-03 0.0
-1.685047e-02 -2.157899e-03 0.0
-1.609144e-02 -2.226245e-03 0.0
-1.531238e-02 -2.284029e-03 0.0
-1.451696e-02 -2.330864e-03 0.0
-1.370898e-02 -2.366421e-03 0.0
-1.289230e-02 -2.390432e-03 0.0
-1.207088e-02 -2.402696e-03 0.0
-1.124871e-02 -2.403078e-03 0.0
-1.042980e-02 -2.391519e-03 0.0
-9.618164e-03 -2.368023e-03 0.0
-8.817795e-03 -2.332661e-03 0.0
-8.032634e-03 -2.285575e-03 0.0
-7.266547e-03 -2.226974e-03 0.0
-6.523305e-03 -2.157142e-03 0.0
-5.806557e-03 -2.076435e-03 0.0
-5.119796e-03 -1.985287e-03 0.0
-4.466340e-03 -1.884214e-03 0.0
-3.849294e-03 -1.773815e-03 0.0
-3.271522e-03 -1.654783e-03 0.0
-2.735612e-03 -1.527913e-03 0.0
-2.243832e-03 -1.394112e-03 0.0
-1.798094e-03 -1.254415e-03 0.0
-1.399899e-03 -1.110009e-03 0.0
-1.050281e-03 -9.622550e-04 0.0
-7.497447e-04 -8.127287e-04 0.0
-4.981847e-04 -6.632642e-04 0.0
-2.948011e-04 -5.160155e-04 0.0
-1.379961e-04 -3.735330e-04 0.0
-2.525876e-05 -2.388596e-04 0.0
4.696159e-05 -1.156470e-04 0.0
8.339306e-05 -8.288118e-06 0.0
9.009058e-05 7.794012e-05 0.0
7.460411e-05 1.367500e-04 0.0
4.622651e-05 1.607430e-04 0.0
1.646322e-05 1.413500e-04 0.0
0.000000e+00 6.872507e-05 0.0
0.000000e+00 -6.870731e-05 0.0
0.000000e+00 -2.245279e-07 0.0
-2.195074e-05 -1.081675e-05 0.0
-9.023170e-05 7.170786e-05 0.0
-2.111994e-04 2.299449e-04 0.0
-3.918408e-04 4.394227e-04 0.0
-6.367736e-04 6.799585e-04 0.0
-9.485654e-04 9.364318e-04 0.0
-1.328232e-03 1.197203e-03 0.0
-1.775527e-03 1.453286e-03 0.0
-2.288924e-03 1.697991e-03 0.0
-2.865488e-03 1.926811e-03 0.0
-3.500885e-03 2.137268e-03 0.0
-4.189687e-03 2.328528e-03 0.0
-4.925921e-03 2.500802e-03 0.0
-5.703662e-03 2.654716e-03 0.0
-6.517450e-03 2.790834e-03 0.0
-7.362423e-03 2.909446e-03 0.0
-8.234211e-03 3.010609e-03 0.0
-9.128689e-03 3.094330e-03 0.0
-1.004175e-02 3.160758e-03 0.0
-1.096917e-02 3.210296e-03 0.0
-1.190660e-02 3.243612e-03 0.0
-1.284968e-02 3.261561e-03 0.0
-1.379409e-02 3.265077e-03 0.0
-1.473570e-02 3.255073e-03 0.0
-1.567063e-02 3.232366e-03 0.0
-1.659522e-02 3.197644e-03 0.0
-1.750608e-02 3.151453e-03 0.0
-1.839999e-02 3.094211e-03 0.0
-1.927390e-02 3.026237e-03 0.0
-2.012489e-02 2.947786e-03 0.0
-2.095007e-02 2.859086e-03 0.0
-2.174663e-02 2.760366e-03 0.0
-2.251180e-02 2.651880e-03 0.0
-2.324284e-02 2.533905e-03 0.0
-2.393707e-02 2.406739e-03 0.0
-2.459189e-02 2.270689e-03 0.0
-2.520481e-02 2.126061e-03 0.0
-2.577341e-02 1.973153e-03 0.0
-2.629543e-02 1.812262e-03 0.0
-2.676871e-02 1.643696e-03 0.0
-2.719121e-02 1.467794e-03 0.0
-2.756102e-02 1.284943e-03 0.0
-2.787636e-02 1.095599e-03 0.0
-2.813561e-02 9.002897e-04 0.0
-2.833730e-02 6.996258e-04 0.0
-2.848015e-02 4.942961e-04 0.0
-2.856311e-02 2.850706e-04 0.0
-2.858536e-02 7.280263e-05 0.0
-2.854634e-02 -1.415637e-04 0.0
-2.844578e-02 -3.569937e-04 0.0
-2.828368e-02 -5.724624e-04 0.0
-2.806033e-02 -7.869442e-04 0.0
-2.777632e-02 -9.994075e-04 0.0
-2.743251e-02 -1.208813e-03 0.0
-2.703005e-02 -1.414118e-03 0.0
-2.657038e-02 -1.614280e-03 0.0
-2.605525e-02 -1.808266e-03 0.0
-2.548667e-02 -1.995058e-03 0.0
-2.486694e-02 -2.173658e-03 0.0
-2.419864e-02 -2.343098e-03 0.0
-2.348460e-02 -2.502443e-03 0.0
-2.272793e-02 -2.650795e-03 0.0
-2.193196e-02 -2.787301e-03 0.0
-2.110024e-02 -2.911158e-03 0.0
-2.023653e-02 -3.021622e-03 0.0
-1.934479e-02 -3.118008e-03 0.0
-1.842915e-02 -3.199702e-03 0.0
-1.749389e-02 -3.266167e-03 0.0
-1.654339e-02 -3.316946e-03 0.0
-1.558218e-02 -3.351667e-03 0.0
-1.461484e-02 -3.370050e-03 0.0
-1.364601e-02 -3.371912e-03 0.0
-1.268036e-02 -3.357166e-03 0.0
-1.172255e-02 -3.325819e-03 0.0
-1.077722e-02 -3.277973e-03 0.0
-9.848958e-03 -3.213824e-03 0.0
-8.942253e-03 -3.133669e-03 0.0
-8.061485e-03 -3.037905e-03 0.0
-7.210888e-03 -2.927034e-03 0.0
-6.394517e-03 -2.801667e-03 0.0
-5.616212e-03 -2.662530e-03 0.0
-4.879570e-03 -2.510471e-03 0.0
-4.187900e-03 -2.346468e-03 0.0
-3.544184e-03 -2.171642e-03 0.0
-2.951035e-03 -1.987271e-03 0.0
-2.410646e-03 -1.794811e-03 0.0
-1.924732e-03 -1.595924e-03 0.0
-1.494475e-03 -1.392509e-03 0.0
-1.120453e-03 -1.186744e-03 0.0
-8.025625e-04 -9.811462e-04 0.0
-5.399319e-04 -7.786359e-04 0.0
-3.308291e-04 -5.826252e-04 0.0
-1.725571e-04 -3.971214e-04 0.0
-6.134448e-05 -2.268502e-04 0.0
7.772390e-06 -7.739674e-05 0.0
4.107774e-05 4.464225e-05 0.0
4.633759e-05 1.314964e-04 0.0
3.303829e-05 1.740480e-04 0.0
1.278983e-05 1.616044e-04 0.0
0.000000e+00 8.152099e-05 0.0
0.000000e+00 -8.148577e-05 0.0
0.000000e+00 -2.785568e-05 0.0
-3.801222e-05 1.244494e-05 0.0
-1.326387e-04 1.615965e-04 0.0
-2.940701e-04 3.914671e-04 0.0
-5.267987e-04 6.763610e-04 0.0
-8.339157e-04 9.943336e-04 0.0
-1.217177e-03 1.328266e-03 0.0
-1.677084e-03 1.664706e-03 0.0
-2.212750e-03 1.993385e-03 0.0
-2.821703e-03 2.306996e-03 0.0
-3.499851e-03 2.600925e-03 0.0
-4.241779e-03 2.872759e-03 0.0
-5.041323e-03 3.121571e-03 0.0
-5.892197e-03 3.347185e-03 0.0
-6.788473e-03 3.549603e-03 0.0
-7.724764e-03 3.728737e-03 0.0
-8.696142e-03 3.884409e-03 0.0
-9.697908e-03 4.016518e-03 0.0
-1.072536e-02 4.125218e-03 0.0
-1.177364e-02 4.211013e-03 0.0
-1.283775e-02 4.274743e-03 0.0
-1.391264e-02 4.317484e-03 0.0
-1.499328e-02 4.340416e-03 0.0
-1.607485e-02 4.344695e-03 0.0
-1.715276e-02 4.331371e-03 0.0
-1.822271e-02 4.301341e-03 0.0
-1.928067e-02 4.255346e-03 0.0
-2.032285e-02 4.193980e-03 0.0
-2.134564e-02 4.117727e-03 0.0
-2.234556e-02 4.026998e-03 0.0
-2.331923e-02 3.922172e-03 0.0
-2.426335e-02 3.803623e-03 0.0
-2.517463e-02 3.671742e-03 0.0
-2.604987e-02 3.526933e-03 0.0
-2.688593e-02 3.369610e-03 0.0
-2.767975e-02 3.200182e-03 0.0
-2.842841e-02 3.019041e-03 0.0
-2.912908e-02 2.826564e-03 0.0
-2.977909e-02 2.623122e-03 0.0
-3.037586e-02 2.409095e-03 0.0
-3.091698e-02 2.184900e-03 0.0
-3.140015e-02 1.951014e-03 0.0
-3.182320e-02 1.707987e-03 0.0
-3.218412e-02 1.456456e-03 0.0
-3.248108e-02 1.197149e-03 0.0
-3.271244e-02 9.308827e-04 0.0
-3.287679e-02 6.585651e-04 0.0
-3.297295e-02 3.811981e-04 0.0
-3.300003e-02 9.988556e-05 0.0
-3.295742e-02 -1.841551e-04 0.0
-3.284482e-02 -4.695878e-04 0.0
-3.266223e-02 -7.550713e-04 0.0
-3.240997e-02 -1.039253e-03 0.0
-3.208868e-02 -1.320769e-03 0.0
-3.169933e-02 -1.598246e-03 0.0
-3.124323e-02 -1.870311e-03 0.0
-3.072198e-02 -2.135596e-03 0.0
-3.013754e-02 -2.392746e-03 0.0
-2.949219e-02 -2.640426e-03 0.0
-2.878852e-02 -2.877330e-03 0.0
-2.802943e-02 -3.102185e-03 0.0
-2.721810e-02 -3.313758e-03 0.0
-2.635803e-02 -3.510868e-03 0.0
-2.545295e-02 -3.692389e-03 0.0
-2.450688e-02 -3.857261e-03 0.0
-2.352403e-02 -4.004501e-03 0.0
-2.250887e-02 -4.133208e-03 0.0
-2.146604e-02 -4.242574e-03 0.0
-2.040035e-02 -4.331891e-03 0.0
-1.931676e-02 -4.400558e-03 0.0
-1.822035e-02 -4.448089e-03 0.0
-1.711629e-02 -4.474114e-03 0.0
-1.600980e-02 -4.478389e-03 0.0
-1.490616e-02 -4.460798e-03 0.0
-1.381062e-02 -4.421351e-03 0.0
-1.272840e-02 -4.360181e-03 0.0
-1.166468e-02 -4.277548e-03 0.0
-1.062451e-02 -4.173844e-03 0.0
-9.612827e-03 -4.049597e-03 0.0
-8.634403e-03 -3.905474e-03 0.0
-7.693800e-03 -3.742289e-03 0.0
-6.795343e-03 -3.561008e-03 0.0
-5.943073e-03 -3.362760e-03 0.0
-5.140710e-03 -3.148847e-03 0.0
-4.391603e-03 -2.920759e-03 0.0
-3.698684e-03 -2.680195e-03 0.0
-3.064412e-03 -2.429082e-03 0.0
-2.490720e-03 -2.169611e-03 0.0
-1.978946e-03 -1.904274e-03 0.0
-1.529770e-03 -1.635910e-03 0.0
-1.143135e-03 -1.367770e-03 0.0
-8.181690e-04 -1.103591e-03 0.0
-5.530997e-04 -8.476845e-04 0.0
-3.451627e-04 -6.050496e-04 0.0
-1.905095e-04 -3.814959e-04 0.0
-8.410886e-05 -1.837910e-04 0.0
-1.963723e-05 -1.982348e-05 0.0
1.065468e-05 1.012090e-04 0.0
1.613642e-05 1.685709e-04 0.0
8.072770e-06 1.696730e-04 0.0
0.000000e+00 8.959891e-05 0.0
0.000000e+00 -8.954430e-05 0.0
0.000000e+00 -6.413815e-05 0.0
-5.172142e-05 4.865221e-05 0.0
-1.729680e-04 2.817185e-04 0.0
-3.756407e-04 5.975568e-04 0.0
-6.618267e-04 9.693874e-04 0.0
-1.033071e-03 1.374013e-03 0.0
-1.490037e-03 1.792848e-03 0.0
-2.032159e-03 2.211312e-03 0.0
-2.657287e-03 2.618554e-03 0.0
-3.361572e-03 3.007124e-03 0.0
-4.139707e-03 3.372394e-03 0.0
-4.985482e-03 3.711754e-03 0.0
-5.892431e-03 4.023768e-03 0.0
-6.854330e-03 4.307503e-03 0.0
-7.865415e-03 4.562195e-03 0.0
-8.920315e-03 4.787193e-03 0.0
-1.001385e-02 4.982097e-03 0.0
-1.114078e-02 5.146914e-03 0.0
-1.229572e-02 5.282132e-03 0.0
-1.347309e-02 5.388676e-03 0.0
-1.466720e-02 5.467785e-03 0.0
-1.587241e-02 5.520848e-03 0.0
-1.708326e-02 5.549258e-03 0.0
-1.829451e-02 5.554307e-03 0.0
-1.950124e-02 5.537127e-03 0.0
-2.069881e-02 5.498677e-03 0.0
-2.188283e-02 5.439762e-03 0.0
-2.304914e-02 5.361066e-03 0.0
-2.419374e-02 5.263191e-03 0.0
-2.531274e-02 5.146699e-03 0.0
-2.640231e-02 5.012141e-03 0.0
-2.745871e-02 4.860075e-03 0.0
-2.847825e-02 4.691060e-03 0.0
-2.945734e-02 4.505648e-03 0.0
-3.039248e-02 4.304371e-03 0.0
-3.128031e-02 4.087727e-03 0.0
-3.211760e-02 3.856189e-03 0.0
-3.290126e-02 3.610211e-03 0.0
-3.362832e-02 3.350256e-03 0.0
-3.429598e-02 3.076826e-03 0.0
-3.490152e-02 2.790483e-03 0.0
-3.544241e-02 2.491872e-03 0.0
-3.591624e-02 2.181732e-03 0.0
-3.632080e-02 1.860899e-03 0.0
-3.665405e-02 1.530307e-03 0.0
-3.691422e-02 1.190990e-03 0.0
-3.709976e-02 8.440872e-04 0.0
-3.720940e-02 4.908547e-04 0.0
-3.724217e-02 1.326751e-04 0.0
-3.719740e-02 -2.289280e-04 0.0
-3.707473e-02 -5.922805e-04 0.0
-3.687418e-02 -9.556904e-04 0.0
-3.659607e-02 -1.317447e-03 0.0
-3.624111e-02 -1.675823e-03 0.0
-3.581035e-02 -2.029089e-03 0.0
-3.530521e-02 -2.375510e-03 0.0
-3.472747e-02 -2.713364e-03 0.0
-3.407929e-02 -3.040943e-03 0.0
-3.336314e-02 -3.356563e-03 0.0
-3.258189e-02 -3.658571e-03 0.0
-3.173872e-02 -3.945355e-03 0.0
-3.083713e-02 -4.215354e-03 0.0
-2.988095e-02 -4.467068e-03 0.0
-2.887430e-02 -4.699071e-03 0.0
-2.782159e-02 -4.910020e-03 0.0
-2.672746e-02 -5.098670e-03 0.0
-2.559683e-02 -5.263880e-03 0.0
-2.443481e-02 -5.404629e-03 0.0
-2.324670e-02 -5.520022e-03 0.0
-2.203797e-02 -5.609297e-03 0.0
-2.081422e-02 -5.671838e-03 0.0
-1.958115e-02 -5.707177e-03 0.0
-1.834454e-02 -5.715000e-03 0.0
-1.711018e-02 -5.695155e-03 0.0
-1.588388e-02 -5.647653e-03 0.0
-1.467141e-02 -5.572660e-03 0.0
-1.347846e-02 -5.470506e-03 0.0
-1.231064e-02 -5.341689e-03 0.0
-1.117338e-02 -5.186880e-03 0.0