# vtk DataFile Version 3.0
Vector Field
ASCII
DATASET RECTILINEAR_GRID
DIMENSIONS 102 102 1
X_COORDINATES 102 double
0.000000 0.100000 0.200000 0.300000 0.400000 0.500000 0.600000 0.700000 0.800000 0.900000 1.000000 1.100000 1.200000 1.300000 1.400000 1.500000 1.600000 1.700000 1.800000 1.900000 2.000000 2.100000 2.200000 2.300000 2.400000 2.500000 2.600000 2.700000 2.800000 2.900000 3.000000 3.100000 3.200000 3.300000 3.400000 3.500000 3.600000 3.700000 3.800000 3.900000 4.000000 4.100000 4.200000 4.300000 4.400000 4.500000 4.600000 4.700000 4.800000 4.900000 5.000000 5.100000 5.200000 5.300000 5.400000 5.500000 5.600000 5.700000 5.800000 5.900000 6.000000 6.100000 6.200000 6.300000 6.400000 6.500000 6.600000 6.700000 6.800000 6.900000 7.000000 7.100000 7.200000 7.300000 7.400000 7.500000 7.600000 7.700000 7.800000 7.900000 8.000000 8.100000 8.200000 8.300000 8.400000 8.500000 8.600000 8.700000 8.800000 8.900000 9.000000 9.100000 9.200000 9.300000 9.400000 9.500000 9.600000 9.700000 9.800000 9.900000 10.000000 10.100000 
Y_COORDINATES 102 double
0.000000 0.100000 0.200000 0.300000 0.400000 0.500000 0.600000 0.700000 0.800000 0.900000 1.000000 1.100000 1.200000 1.300000 1.400000 1.500000 1.600000 1.700000 1.800000 1.900000 2.000000 2.100000 2.200000 2.300000 2.400000 2.500000 2.600000 2.700000 2.800000 2.900000 3.000000 3.100000 3.200000 3.300000 3.400000 3.500000 3.600000 3.700000 3.800000 3.900000 4.000000 4.100000 4.200000 4.300000 4.400000 4.500000 4.600000 4.700000 4.800000 4.900000 5.000000 5.100000 5.200000 5.300000 5.400000 5.500000 5.600000 5.700000 5.800000 5.900000 6.000000 6.100000 6.200000 6.300000 6.400000 6.500000 6.600000 6.700000 6.800000 6.900000 7.000000 7.100000 7.200000 7.300000 7.400000 7.500000 7.600000 7.700000 7.800000 7.900000 8.000000 8.100000 8.200000 8.300000 8.400000 8.500000 8.600000 8.700000 8.800000 8.900000 9.000000 9.100000 9.200000 9.300000 9.400000 9.500000 9.600000 9.700000 9.800000 9.900000 10.000000 10.100000 
Z_COORDINATES 1 double
0.0
POINT_DATA 10404
VECTORS Velocity double
0.000000e+00 0.000000e+00 0.0
-8.015817e-06 0.000000e+00 0.0
-3.001410e-05 0.000000e+00 0.0
-4.366846e-05 0.000000e+00 0.0
-4.477681e-05 0.000000e+00 0.0
-3.248775e-05 0.000000e+00 0.0
-8.157972e-06 0.000000e+00 0.0
2.594238e-05 0.000000e+00 0.0
6.752831e-05 0.000000e+00 0.0
1.148893e-04 0.000000e+00 0.0
1.671719e-04 0.000000e+00 0.0
2.243499e-04 0.000000e+00 0.0
2.869312e-04 0.000000e+00 0.0
3.555241e-04 0.000000e+00 0.0
4.304237e-04 0.000000e+00 0.0
5.113588e-04 0.000000e+00 0.0
5.974635e-04 0.000000e+00 0.0
6.874503e-04 0.000000e+00 0.0
7.798972e-04 0.000000e+00 0.0
8.735384e-04 0.000000e+00 0.0
9.674691e-04 0.000000e+00 0.0
1.061216e-03 0.000000e+00 0.0
1.154674e-03 0.000000e+00 0.0
1.247953e-03 0.000000e+00 0.0
1.341188e-03 0.000000e+00 0.0
1.434379e-03 0.000000e+00 0.0
1.527299e-03 0.000000e+00 0.0
1.619493e-03 0.000000e+00 0.0
1.710354e-03 0.000000e+00 0.0
1.799239e-03 0.000000e+00 0.0
1.885585e-03 0.000000e+00 0.0
1.968994e-03 0.000000e+00 0.0
2.049250e-03 0.000000e+00 0.0
2.126289e-03 0.000000e+00 0.0
2.200122e-03 0.000000e+00 0.0
2.270747e-03 0.000000e+00 0.0
2.338080e-03 0.000000e+00 0.0
2.401922e-03 0.000000e+00 0.0
2.461961e-03 0.000000e+00 0.0
2.517820e-03 0.000000e+00 0.0
2.569110e-03 0.000000e+00 0.0
2.615490e-03 0.000000e+00 0.0
2.656693e-03 0.000000e+00 0.0
2.692545e-03 0.000000e+00 0.0
2.722940e-03 0.000000e+00 0.0
2.747817e-03 0.000000e+00 0.0
2.767121e-03 0.000000e+00 0.0
2.780780e-03 0.000000e+00 0.0
2.788694e-03 0.000000e+00 0.0
2.790742e-03 0.000000e+00 0.0
2.786798e-03 0.000000e+00 0.0
2.776763e-03 0.000000e+00 0.0
2.760569e-03 0.000000e+00 0.0
2.738193e-03 0.000000e+00 0.0
2.709661e-03 0.000000e+00 0.0
2.675047e-03 0.000000e+00 0.0
2.634469e-03 0.000000e+00 0.0
2.588079e-03 0.000000e+00 0.0
2.536059e-03 0.000000e+00 0.0
2.478613e-03 0.000000e+00 0.0
2.415966e-03 0.000000e+00 0.0
2.348360e-03 0.000000e+00 0.0
2.276057e-03 0.000000e+00 0.0
2.199342e-03 0.000000e+00 0.0
2.118521e-03 0.000000e+00 0.0
2.033929e-03 0.000000e+00 0.0
1.945924e-03 0.000000e+00 0.0
1.854892e-03 0.000000e+00 0.0
1.761242e-03 0.000000e+00 0.0
1.665408e-03 0.000000e+00 0.0
1.567840e-03 0.000000e+00 0.0
1.469004e-03 0.000000e+00 0.0
1.369381e-03 0.000000e+00 0.0
1.269460e-03 0.000000e+00 0.0
1.169737e-03 0.000000e+00 0.0
1.070712e-03 0.000000e+00 0.0
9.728884e-04 0.000000e+00 0.0
8.767706e-04 0.000000e+00 0.0
7.828616e-04 0.000000e+00 0.0
6.916610e-04 0.000000e+00 0.0
6.036631e-04 0.000000e+00 0.0
5.193541e-04 0.000000e+00 0.0
4.392092e-04 0.000000e+00 0.0
3.636898e-04 0.000000e+00 0.0
2.932408e-04 0.000000e+00 0.0
2.282868e-04 0.000000e+00 0.0
1.692284e-04 0.000000e+00 0.0
1.164372e-04 0.000000e+00 0.0
7.024899e-05 0.000000e+00 0.0
3.095621e-05 0.000000e+00 0.0
-1.203827e-06 0.000000e+00 0.0
-2.606474e-05 0.000000e+00 0.0
-4.355432e-05 0.000000e+00 0.0
-5.373003e-05 0.000000e+00 0.0
-5.683400e-05 0.000000e+00 0.0
-5.338112e-05 0.000000e+00 0.0
-4.430288e-05 0.000000e+00 0.0
-3.118082e-05 0.000000e+00 0.0
-1.659985e-05 0.000000e+00 0.0
-4.531203e-06 0.000000e+00 0.0
-0.000000e+00 0.000000e+00 0.0
0.000000e+00 0.000000e+00 0.0
0.000000e+00 6.716288e-06 0.0
2.146512e-05 7.014701e-06 0.0
2.432724e-05 -8.681009e-06 0.0
2.440949e-05 -1.484090e-05 0.0
1.990978e-05 -1.307671e-05 0.0
1.007715e-05 -4.818059e-06 0.0
-5.801191e-06 8.074394e-06 0.0
-2.875741e-05 2.327568e-05 0.0
-6.005393e-05 3.837017e-05 0.0
-1.007972e-04 5.133368e-05 0.0
-1.515050e-04 6.096602e-05 0.0
-2.118399e-04 6.708689e-05 0.0
-2.806208e-04 7.042238e-05 0.0
-3.560941e-04 7.223842e-05 0.0
-4.363507e-04 7.386530e-05 0.0
-5.197355e-04 7.627763e-05 0.0
-6.051220e-04 7.985136e-05 0.0
-6.919902e-04 8.434411e-05 0.0
-7.803143e-04 8.906980e-05 0.0
-8.703238e-04 9.318567e-05 0.0
-9.622298e-04 9.598970e-05 0.0
-1.056003e-03 9.713672e-05 0.0
-1.151269e-03 9.671669e-05 0.0
-1.247329e-03 9.518516e-05 0.0
-1.343304e-03 9.318368e-05 0.0
-1.438313e-03 9.131822e-05 0.0
-1.531654e-03 8.997122e-05 0.0
-1.622902e-03 8.920531e-05 0.0
-1.711915e-03 8.878093e-05 0.0
-1.798751e-03 8.827082e-05 0.0
-1.883537e-03 8.722339e-05 0.0
-1.966327e-03 8.531632e-05 0.0
-2.047013e-03 8.245081e-05 0.0
-2.125293e-03 7.876232e-05 0.0
-2.200715e-03 7.455374e-05 0.0
-2.272761e-03 7.018218e-05 0.0
-2.340942e-03 6.594175e-05 0.0
-2.404877e-03 6.198118e-05 0.0
-2.464324e-03 5.827808e-05 0.0
-2.519165e-03 5.467021e-05 0.0
-2.569361e-03 5.092546e-05 0.0
-2.614889e-03 4.682258e-05 0.0
-2.655689e-03 4.221592e-05 0.0
-2.691631e-03 3.706732e-05 0.0
-2.722515e-03 3.144151e-05 0.0
-2.748089e-03 2.547349e-05 0.0
-2.768088e-03 1.932314e-05 0.0
-2.782266e-03 1.313257e-05 0.0
-2.790424e-03 6.998134e-06 0.0
-2.792425e-03 9.615776e-07 0.0
-2.788204e-03 -4.979445e-06 0.0
-2.777760e-03 -1.085198e-05 0.0
-2.761133e-03 -1.670228e-05 0.0
-2.738392e-03 -2.257054e-05 0.0
-2.709619e-03 -2.847587e-05 0.0
-2.674904e-03 -3.441050e-05 0.0
-2.634349e-03 -4.034153e-05 0.0
-2.588068e-03 -4.621768e-05 0.0
-2.536195e-03 -5.197826e-05 0.0
-2.478891e-03 -5.756205e-05 0.0
-2.416345e-03 -6.291420e-05 0.0
-2.348783e-03 -6.799040e-05 0.0
-2.276465e-03 -7.275795e-05 0.0
-2.199685e-03 -7.719424e-05 0.0
-2.118766e-03 -8.128356e-05 0.0
-2.034061e-03 -8.501348e-05 0.0
-1.945946e-03 -8.837184e-05 0.0
-1.854818e-03 -9.134482e-05 0.0
-1.761094e-03 -9.391641e-05 0.0
-1.665206e-03 -9.606869e-05 0.0
-1.567601e-03 -9.778302e-05 0.0
-1.468743e-03 -9.904137e-05 0.0
-1.369105e-03 -9.982761e-05 0.0
-1.269172e-03 -1.001285e-04 0.0
-1.169439e-03 -9.993414e-05 0.0
-1.070404e-03 -9.923820e-05 0.0
-9.725707e-04 -9.803681e-05 0.0
-8.764436e-04 -9.632870e-05 0.0
-7.825268e-04 -9.411521e-05 0.0
-6.913208e-04 -9.140013e-05 0.0
-6.033203e-04 -8.818963e-05 0.0
-5.190118e-04 -8.449229e-05 0.0
-4.388706e-04 -8.031940e-05 0.0
-3.633588e-04 -7.568509e-05 0.0
-2.929215e-04 -7.060652e-05 0.0
-2.279831e-04 -6.510414e-05 0.0
-1.689439e-04 -5.920227e-05 0.0
-1.161748e-04 -5.293005e-05 0.0
-7.001117e-05 -4.632282e-05 0.0
-3.074490e-05 -3.942420e-05 0.0
1.387096e-06 -3.228918e-05 0.0
2.621884e-05 -2.498871e-05 0.0
4.367891e-05 -1.761719e-05 0.0
5.382580e-05 -1.030442e-05 0.0
5.690263e-05 -3.235067e-06 0.0
5.342558e-05 3.318151e-06 0.0
4.432721e-05 8.938698e-06 0.0
3.118998e-05 1.297640e-05 0.0
1.659890e-05 1.442942e-05 0.0
4.525625e-06 1.191122e-05 0.0
0.000000e+00 4.363523e-06 0.0
0.000000e+00 -4.355701e-06 0.0
0.000000e+00 8.498983e-06 0.0
1.510744e-05 -1.410370e-05 0.0
2.243520e-05 -3.028549e-05 0.0
2.204039e-05 -2.276151e-05 0.0
6.624670e-06 1.471075e-06 0.0
-2.827134e-05 3.590895e-05 0.0
-8.550634e-05 7.531569e-05 0.0
-1.668053e-04 1.153553e-04 0.0
-2.728654e-04 1.528010e-04 0.0
-4.033263e-04 1.857291e-04 0.0
-5.567982e-04 2.135509e-04 0.0
-7.310488e-04 2.367850e-04 0.0
-9.233404e-04 2.566114e-04 0.0
-1.130831e-03 2.743445e-04 0.0
-1.350926e-03 2.909816e-04 0.0
-1.581503e-03 3.069437e-04 0.0
-1.820963e-03 3.220476e-04 0.0
-2.068133e-03 3.356774e-04 0.0
-2.322070e-03 3.470705e-04 0.0
-2.581846e-03 3.556151e-04 0.0
-2.846378e-03 3.610662e-04 0.0
-3.114356e-03 3.636202e-04 0.0
-3.384278e-03 3.638389e-04 0.0
-3.654571e-03 3.624607e-04 0.0
-3.923743e-03 3.601691e-04 0.0
-4.190515e-03 3.574013e-04 0.0
-4.453888e-03 3.542541e-04 0.0
-4.713127e-03 3.505094e-04 0.0
-4.967671e-03 3.457603e-04 0.0
-5.217018e-03 3.395849e-04 0.0
-5.460605e-03 3.317051e-04 0.0
-5.697746e-03 3.220785e-04 0.0
-5.927618e-03 3.109001e-04 0.0
-6.149310e-03 2.985244e-04 0.0
-6.361892e-03 2.853423e-04 0.0
-6.564497e-03 2.716599e-04 0.0
-6.756372e-03 2.576194e-04 0.0
-6.936890e-03 2.431826e-04 0.0
-7.105530e-03 2.281738e-04 0.0
-7.261825e-03 2.123596e-04 0.0
-7.405321e-03 1.955347e-04 0.0
-7.535531e-03 1.775859e-04 0.0
-7.651923e-03 1.585190e-04 0.0
-7.753932e-03 1.384463e-04 0.0
-7.840980e-03 1.175482e-04 0.0
-7.912514e-03 9.602384e-05 0.0
-7.968032e-03 7.404903e-05 0.0
-8.007108e-03 5.175150e-05 0.0
-8.029401e-03 2.920712e-05 0.0
-8.034663e-03 6.454425e-06 0.0
-8.022738e-03 -1.647784e-05 0.0
-7.993556e-03 -3.954734e-05 0.0
-7.947126e-03 -6.271135e-05 0.0
-7.883518e-03 -8.590677e-05 0.0
-7.802864e-03 -1.090428e-04 0.0
-7.705361e-03 -1.320033e-04 0.0
-7.591270e-03 -1.546541e-04 0.0
-7.460930e-03 -1.768534e-04 0.0
-7.314756e-03 -1.984607e-04 0.0
-7.153245e-03 -2.193439e-04 0.0
-6.976979e-03 -2.393830e-04 0.0
-6.786625e-03 -2.584707e-04 0.0
-6.582929e-03 -2.765106e-04 0.0
-6.366717e-03 -2.934138e-04 0.0
-6.138885e-03 -3.090956e-04 0.0
-5.900401e-03 -3.234730e-04 0.0
-5.652295e-03 -3.364638e-04 0.0
-5.395659e-03 -3.479866e-04 0.0
-5.131639e-03 -3.579629e-04 0.0
-4.861436e-03 -3.663180e-04 0.0
-4.586293e-03 -3.729838e-04 0.0
-4.307501e-03 -3.778999e-04 0.0
-4.026382e-03 -3.810149e-04 0.0
-3.744290e-03 -3.822875e-04 0.0
-3.462601e-03 -3.816867e-04 0.0
-3.182707e-03 -3.791918e-04 0.0
-2.906008e-03 -3.747905e-04 0.0
-2.633908e-03 -3.684793e-04 0.0
-2.367808e-03 -3.602637e-04 0.0
-2.109095e-03 -3.501586e-04 0.0
-1.859140e-03 -3.381888e-04 0.0
-1.619286e-03 -3.243890e-04 0.0
-1.390843e-03 -3.088053e-04 0.0
-1.175075e-03 -2.914952e-04 0.0
-9.731951e-04 -2.725292e-04 0.0
-7.863499e-04 -2.519927e-04 0.0
-6.156076e-04 -2.299882e-04 0.0
-4.619419e-04 -2.066394e-04 0.0
-3.262119e-04 -1.820965e-04 0.0
-2.091353e-04 -1.565442e-04 0.0
-1.112545e-04 -1.302133e-04 0.0
-3.288864e-05 -1.033978e-04 0.0
2.593088e-05 -7.647980e-05 0.0
6.555144e-05 -4.996805e-05 0.0
8.682908e-05 -2.455579e-05 0.0
9.131034e-05 -1.206133e-06 0.0
8.148371e-05 1.872202e-05 0.0
6.110529e-05 3.331112e-05 0.0
3.555697e-05 3.993407e-05 0.0
1.210715e-05 3.531753e-05 0.0
0.000000e+00 1.642735e-05 0.0
0.000000e+00 -1.641473e-05 0.0
0.000000e+00 1.234229e-05 0.0
2.683408e-06 -3.197494e-05 0.0
3.092133e-06 -3.904167e-05 0.0
-1.193719e-05 -8.450797e-06 0.0
-5.200533e-05 4.741435e-05 0.0
-1.235303e-04 1.171764e-04 0.0
-2.305542e-04 1.924715e-04 0.0
-3.750494e-04 2.672539e-04 0.0
-5.570991e-04 3.376831e-04 0.0
-7.751569e-04 4.018987e-04 0.0
-1.026455e-03 4.596027e-04 0.0
-1.307523e-03 5.114747e-04 0.0
-1.614714e-03 5.585442e-04 0.0
-1.944614e-03 6.016692e-04 0.0
-2.294281e-03 6.412285e-04 0.0
-2.661274e-03 6.770633e-04 0.0
-3.043536e-03 7.086283e-04 0.0
-3.439186e-03 7.352652e-04 0.0
-3.846310e-03 7.564910e-04 0.0
-4.262822e-03 7.722052e-04 0.0
-4.686428e-03 7.827563e-04 0.0
-5.114703e-03 7.888547e-04 0.0
-5.545241e-03 7.913727e-04 0.0
-5.975819e-03 7.911066e-04 0.0
-6.404519e-03 7.885807e-04 0.0
-6.829763e-03 7.839611e-04 0.0
-7.250265e-03 7.770920e-04 0.0
-7.664909e-03 7.676337e-04 0.0
-8.072614e-03 7.552435e-04 0.0
-8.472223e-03 7.397354e-04 0.0
-8.862454e-03 7.211642e-04 0.0
-9.241914e-03 6.998152e-04 0.0
-9.609166e-03 6.761135e-04 0.0
-9.962817e-03 6.504932e-04 0.0
-1.030159e-02 6.232765e-04 0.0
-1.062437e-02 5.946033e-04 0.0
-1.093017e-02 5.644275e-04 0.0
-1.121811e-02 5.325739e-04 0.0
-1.148736e-02 4.988272e-04 0.0
-1.173707e-02 4.630204e-04 0.0
-1.196634e-02 4.250941e-04 0.0
-1.217424e-02 3.851155e-04 0.0
-1.235984e-02 3.432566e-04 0.0
-1.252220e-02 2.997500e-04 0.0
-1.266046e-02 2.548383e-04 0.0
-1.277385e-02 2.087355e-04 0.0
-1.286168e-02 1.616077e-04 0.0
-1.292340e-02 1.135765e-04 0.0
-1.295853e-02 6.473779e-05 0.0
-1.296675e-02 1.519142e-05 0.0
-1.294779e-02 -3.492814e-05 0.0
-1.290153e-02 -8.543640e-05 0.0
-1.282792e-02 -1.361347e-04 0.0
-1.272705e-02 -1.868011e-04 0.0
-1.259909e-02 -2.371918e-04 0.0
-1.244434e-02 -2.870478e-04 0.0
-1.226323e-02 -3.361051e-04 0.0
-1.205629e-02 -3.841030e-04 0.0
-1.182420e-02 -4.307900e-04 0.0
-1.156778e-02 -4.759269e-04 0.0
-1.128795e-02 -5.192868e-04 0.0
-1.098578e-02 -5.606527e-04 0.0
-1.066245e-02 -5.998150e-04 0.0
-1.031926e-02 -6.365686e-04 0.0
-9.957611e-03 -6.707122e-04 0.0
-9.579029e-03 -7.020482e-04 0.0
-9.185127e-03 -7.303848e-04 0.0
-8.777616e-03 -7.555387e-04 0.0
-8.358300e-03 -7.773377e-04 0.0
-7.929063e-03 -7.956235e-04 0.0
-7.491866e-03 -8.102538e-04 0.0
-7.048733e-03 -8.211043e-04 0.0
-6.601746e-03 -8.280693e-04 0.0
-6.153033e-03 -8.310631e-04 0.0
-5.704757e-03 -8.300208e-04 0.0
-5.259104e-03 -8.248985e-04 0.0
-4.818274e-03 -8.156705e-04 0.0
-4.384471e-03 -8.023306e-04 0.0
-3.959888e-03 -7.848924e-04 0.0
-3.546702e-03 -7.633908e-04 0.0
-3.147053e-03 -7.378825e-04 0.0
-2.763039e-03 -7.084479e-04 0.0
-2.396697e-03 -6.751922e-04 0.0
-2.049990e-03 -6.382479e-04 0.0
-1.724788e-03 -5.977775e-04 0.0
-1.422849e-03 -5.539777e-04 0.0
-1.145797e-03 -5.070857e-04 0.0
-8.950944e-04 -4.573872e-04 0.0
-6.720073e-04 -4.052280e-04 0.0
-4.775644e-04 -3.510309e-04 0.0
-3.125024e-04 -2.953188e-04 0.0
-1.771949e-04 -2.387484e-04 0.0
-7.156089e-05 -1.821568e-04 0.0
5.057898e-06 -1.266299e-04 0.0
5.405611e-05 -7.359720e-05 0.0
7.777027e-05 -2.496358e-05 0.0
7.973152e-05 1.671695e-05 0.0
6.495778e-05 4.804067e-05 0.0
4.026166e-05 6.458604e-05 0.0
1.461502e-05 6.092018e-05 0.0
0.000000e+00 3.099856e-05 0.0
0.000000e+00 -3.097406e-05 0.0
0.000000e+00 1.423711e-05 0.0
-1.022703e-05 -3.986814e-05 0.0
-2.360520e-05 -2.647430e-05 0.0
-6.271312e-05 3.660016e-05 0.0
-1.376727e-04 1.320647e-04 0.0
-2.553736e-04 2.446527e-04 0.0
-4.198051e-04 3.635894e-04 0.0
-6.323241e-04 4.816092e-04 0.0
-8.920214e-04 5.944046e-04 0.0
-1.196281e-03 6.999593e-04 0.0
-1.541459e-03 7.977701e-04 0.0
-1.923544e-03 8.880721e-04 0.0
-2.338655e-03 9.712109e-04 0.0
-2.783313e-03 1.047259e-03 0.0
-3.254479e-03 1.115903e-03 0.0
-3.749417e-03 1.176560e-03 0.0
-4.265478e-03 1.228620e-03 0.0
-4.799892e-03 1.271711e-03 0.0
-5.349649e-03 1.305889e-03 0.0
-5.911509e-03 1.331682e-03 0.0
-6.482122e-03 1.349983e-03 0.0
-7.058223e-03 1.361835e-03 0.0
-7.636823e-03 1.368178e-03 0.0
-8.215334e-03 1.369656e-03 0.0
-8.791586e-03 1.366534e-03 0.0
-9.363738e-03 1.358748e-03 0.0
-9.930128e-03 1.346064e-03 0.0
-1.048911e-02 1.328260e-03 0.0
-1.103893e-02 1.305291e-03 0.0
-1.157770e-02 1.277356e-03 0.0
-1.210345e-02 1.244873e-03 0.0
-1.261418e-02 1.208370e-03 0.0
-1.310802e-02 1.168349e-03 0.0
-1.358328e-02 1.125163e-03 0.0
-1.403844e-02 1.078959e-03 0.0
-1.447221e-02 1.029693e-03 0.0
-1.488335e-02 9.772028e-04 0.0
-1.527066e-02 9.213069e-04 0.0
-1.563292e-02 8.618954e-04 0.0
-1.596886e-02 7.989822e-04 0.0
-1.627713e-02 7.327121e-04 0.0
-1.655643e-02 6.633293e-04 0.0
-1.680547e-02 5.911257e-04 0.0
-1.702306e-02 5.163907e-04 0.0
-1.720815e-02 4.393775e-04 0.0
-1.735979e-02 3.602923e-04 0.0
-1.747719e-02 2.793057e-04 0.0
-1.755964e-02 1.965787e-04 0.0
-1.760659e-02 1.122936e-04 0.0
-1.761756e-02 2.668326e-05 0.0
-1.759222e-02 -5.994600e-05 0.0
-1.753036e-02 -1.472137e-04 0.0
-1.743190e-02 -2.347229e-04 0.0
-1.729693e-02 -3.220614e-04 0.0
-1.712568e-02 -4.088077e-04 0.0
-1.691855e-02 -4.945389e-04 0.0
-1.667612e-02 -5.788380e-04 0.0
-1.639914e-02 -6.612976e-04 0.0
-1.608852e-02 -7.415214e-04 0.0
-1.574534e-02 -8.191226e-04 0.0
-1.537088e-02 -8.937224e-04 0.0
-1.496653e-02 -9.649468e-04 0.0
-1.453387e-02 -1.032426e-03 0.0
-1.407461e-02 -1.095795e-03 0.0
-1.359063e-02 -1.154696e-03 0.0
-1.308393e-02 -1.208781e-03 0.0
-1.255666e-02 -1.257717e-03 0.0
-1.201108e-02 -1.301190e-03 0.0
-1.144959e-02 -1.338909e-03 0.0
-1.087468e-02 -1.370607e-03 0.0
-1.028896e-02 -1.396047e-03 0.0
-9.695114e-03 -1.415019e-03 0.0
-9.095898e-03 -1.427347e-03 0.0
-8.494133e-03 -1.432885e-03 0.0
-7.892683e-03 -1.431524e-03 0.0
-7.294443e-03 -1.423188e-03 0.0
-6.702327e-03 -1.407836e-03 0.0
-6.119247e-03 -1.385459e-03 0.0
-5.548104e-03 -1.356083e-03 0.0
-4.991768e-03 -1.319774e-03 0.0
-4.453063e-03 -1.276635e-03 0.0
-3.934748e-03 -1.226812e-03 0.0
-3.439495e-03 -1.170494e-03 0.0
-2.969870e-03 -1.107920e-03 0.0
-2.528311e-03 -1.039385e-03 0.0
-2.117094e-03 -9.652424e-04 0.0
-1.738306e-03 -8.859195e-04 0.0
-1.393810e-03 -8.019290e-04 0.0
-1.085193e-03 -7.138886e-04 0.0
-8.137200e-04 -6.225476e-04 0.0
-5.802589e-04 -5.288231e-04 0.0
-3.852001e-04 -4.338501e-04 0.0
-2.283504e-04 -3.390497e-04 0.0
-1.088014e-04 -2.462224e-04 0.0
-2.476904e-05 -1.576731e-04 0.0
2.659788e-05 -7.637420e-05 0.0
4.943945e-05 -6.168957e-06 0.0
4.943633e-05 4.799918e-05 0.0
3.410394e-05 7.987400e-05 0.0
1.325173e-05 8.172814e-05 0.0
0.000000e+00 4.420618e-05 0.0
0.000000e+00 -4.416436e-05 0.0
0.000000e+00 1.130575e-05 0.0
-2.040191e-05 -3.455998e-05 0.0
-5.262145e-05 1.178537e-05 0.0
-1.230087e-04 1.168862e-04 0.0
-2.406432e-04 2.595333e-04 0.0
-4.115353e-04 4.219766e-04 0.0
-6.386069e-04 5.918981e-04 0.0
-9.220367e-04 7.612165e-04 0.0
-1.259849e-03 9.251077e-04 0.0
-1.648678e-03 1.081007e-03 0.0
-2.084533e-03 1.227656e-03 0.0
-2.563390e-03 1.364341e-03 0.0
-3.081515e-03 1.490404e-03 0.0
-3.635528e-03 1.605055e-03 0.0
-4.222255e-03 1.707437e-03 0.0
-4.838501e-03 1.796824e-03 0.0
-5.480838e-03 1.872854e-03 0.0
-6.145493e-03 1.935680e-03 0.0
-6.828392e-03 1.985989e-03 0.0
-7.525320e-03 2.024858e-03 0.0
-8.232172e-03 2.053515e-03 0.0
-8.945180e-03 2.073070e-03 0.0
-9.661059e-03 2.084310e-03 0.0
-1.037702e-02 2.087625e-03 0.0
-1.109066e-02 2.083075e-03 0.0
-1.179977e-02 2.070557e-03 0.0
-1.250215e-02 2.050009e-03 0.0
-1.319548e-02 2.021563e-03 0.0
-1.387727e-02 1.985606e-03 0.0
-1.454497e-02 1.942731e-03 0.0
-1.519602e-02 1.893610e-03 0.0
-1.582805e-02 1.838844e-03 0.0
-1.643891e-02 1.778843e-03 0.0
-1.702672e-02 1.713784e-03 0.0
-1.758981e-02 1.643642e-03 0.0
-1.812660e-02 1.568283e-03 0.0
-1.863556e-02 1.487579e-03 0.0
-1.911508e-02 1.401491e-03 0.0
-1.956352e-02 1.310123e-03 0.0
-1.997916e-02 1.213712e-03 0.0
-2.036030e-02 1.112585e-03 0.0
-2.070532e-02 1.007098e-03 0.0
-2.101271e-02 8.975935e-04 0.0
-2.128110e-02 7.843631e-04 0.0
-2.150929e-02 6.676541e-04 0.0
-2.169621e-02 5.476873e-04 0.0
-2.184091e-02 4.246905e-04 0.0
-2.194259e-02 2.989331e-04 0.0
-2.200054e-02 1.707535e-04 0.0
-2.201417e-02 4.057840e-05 0.0
-2.198306e-02 -9.106905e-05 0.0
-2.190693e-02 -2.235831e-04 0.0
-2.178568e-02 -3.563494e-04 0.0
-2.161941e-02 -4.887513e-04 0.0
-2.140842e-02 -6.201758e-04 0.0
-2.115323e-02 -7.500180e-04 0.0
-2.085455e-02 -8.776828e-04 0.0
-2.051333e-02 -1.002583e-03 0.0
-2.013069e-02 -1.124139e-03 0.0
-1.970797e-02 -1.241771e-03 0.0
-1.924671e-02 -1.354903e-03 0.0
-1.874864e-02 -1.462962e-03 0.0
-1.821567e-02 -1.565376e-03 0.0
-1.764989e-02 -1.661584e-03 0.0
-1.705360e-02 -1.751040e-03 0.0
-1.642924e-02 -1.833217e-03 0.0
-1.577942e-02 -1.907615e-03 0.0
-1.510693e-02 -1.973765e-03 0.0
-1.441469e-02 -2.031234e-03 0.0
-1.370575e-02 -2.079624e-03 0.0
-1.298328e-02 -2.118582e-03 0.0
-1.225056e-02 -2.147795e-03 0.0
-1.151097e-02 -2.166999e-03 0.0
-1.076793e-02 -2.175977e-03 0.0
-1.002494e-02 -2.174563e-03 0.0
-9.285533e-03 -2.162647e-03 0.0
-8.553252e-03 -2.140167e-03 0.0
-7.831647e-03 -2.107115e-03 0.0
-7.124244e-03 -2.063538e-03 0.0
-6.434531e-03 -2.009538e-03 0.0
-5.765936e-03 -1.945283e-03 0.0
-5.121797e-03 -1.871001e-03 0.0
-4.505346e-03 -1.786995e-03 0.0
-3.919675e-03 -1.693641e-03 0.0
-3.367709e-03 -1.591400e-03 0.0
-2.852168e-03 -1.480830e-03 0.0
-2.375535e-03 -1.362599e-03 0.0
-1.940002e-03 -1.237506e-03 0.0
-1.547426e-03 -1.106509e-03 0.0
-1.199258e-03 -9.707582e-04 0.0
-8.964762e-04 -8.316488e-04 0.0
-6.394873e-04 -6.908823e-04 0.0
-4.280266e-04 -5.505540e-04 0.0
-2.610281e-04 -4.132649e-04 0.0
-1.364781e-04 -2.822670e-04 0.0
-5.124894e-05 -1.616471e-04 0.0
-9.134060e-07 -5.654895e-05 0.0
2.047005e-05 2.657118e-05 0.0
2.062686e-05 7.967287e-05 0.0
9.492833e-06 9.281799e-05 0.0
0.000000e+00 5.365494e-05 0.0
0.000000e+00 -5.359110e-05 0.0
0.000000e+00 8.527193e-07 0.0
-2.714724e-05 -1.535764e-05 0.0
-8.201312e-05 7.699166e-05 0.0
-1.888601e-04 2.340550e-04 0.0
-3.545023e-04 4.319121e-04 0.0
-5.830076e-04 6.517021e-04 0.0
-8.755739e-04 8.802916e-04 0.0
-1.231005e-03 1.108958e-03 0.0
-1.646448e-03 1.332128e-03 0.0
-2.118191e-03 1.546250e-03 0.0
-2.642307e-03 1.748881e-03 0.0
-3.215037e-03 1.938085e-03 0.0
-3.832873e-03 2.112154e-03 0.0
-4.492420e-03 2.269604e-03 0.0
-5.190154e-03 2.409321e-03 0.0
-5.922197e-03 2.530748e-03 0.0
-6.684207e-03 2.633996e-03 0.0
-7.471434e-03 2.719817e-03 0.0
-8.278921e-03 2.789423e-03 0.0
-9.101795e-03 2.844207e-03 0.0
-9.935544e-03 2.885444e-03 0.0
-1.077619e-02 2.914077e-03 0.0
-1.162031e-02 2.930641e-03 0.0
-1.246493e-02 2.935338e-03 0.0
-1.330729e-02 2.928222e-03 0.0
-1.414464e-02 2.909413e-03 0.0
-1.497410e-02 2.879253e-03 0.0
-1.579262e-02 2.838350e-03 0.0
-1.659706e-02 2.787511e-03 0.0
-1.738433e-02 2.727589e-03 0.0
-1.815154e-02 2.659323e-03 0.0
-1.889611e-02 2.583214e-03 0.0
-1.961572e-02 2.499500e-03 0.0
-2.030834e-02 2.408201e-03 0.0
-2.097204e-02 2.309237e-03 0.0
-2.160492e-02 2.202548e-03 0.0
-2.220502e-02 2.088189e-03 0.0
-2.277031e-02 1.966367e-03 0.0
-2.329872e-02 1.837421e-03 0.0
-2.378819e-02 1.701770e-03 0.0
-2.423674e-02 1.559846e-03 0.0
-2.464254e-02 1.412041e-03 0.0
-2.500393e-02 1.258692e-03 0.0
-2.531940e-02 1.100088e-03 0.0
-2.558762e-02 9.364999e-04 0.0
-2.580738e-02 7.682225e-04 0.0
-2.597759e-02 5.956123e-04 0.0
-2.609729e-02 4.191143e-04 0.0
-2.616562e-02 2.392778e-04 0.0
-2.618191e-02 5.675921e-05 0.0
-2.614563e-02 -1.276817e-04 0.0
-2.605645e-02 -3.132053e-04 0.0
-2.591428e-02 -4.989750e-04 0.0
-2.571925e-02 -6.841625e-04 0.0
-2.547174e-02 -8.679490e-04 0.0
-2.517236e-02 -1.049525e-03 0.0
-2.482197e-02 -1.228084e-03 0.0
-2.442166e-02 -1.402822e-03 0.0
-2.397278e-02 -1.572930e-03 0.0
-2.347686e-02 -1.737596e-03 0.0
-2.293570e-02 -1.896004e-03 0.0
-2.235131e-02 -2.047343e-03 0.0
-2.172591e-02 -2.190809e-03 0.0
-2.106194e-02 -2.325618e-03 0.0
-2.036206e-02 -2.451007e-03 0.0
-1.962912e-02 -2.566248e-03 0.0
-1.886618e-02 -2.670650e-03 0.0
-1.807646e-02 -2.763567e-03 0.0
-1.726337e-02 -2.844399e-03 0.0
-1.643047e-02 -2.912600e-03 0.0
-1.558143e-02 -2.967678e-03 0.0
-1.472008e-02 -3.009202e-03 0.0
-1.385033e-02 -3.036805e-03 0.0
-1.297617e-02 -3.050189e-03 0.0
-1.210167e-02 -3.049124e-03 0.0
-1.123091e-02 -3.033459e-03 0.0
-1.036802e-02 -3.003112e-03 0.0
-9.517109e-03 -2.958078e-03 0.0
-8.682273e-03 -2.898428e-03 0.0
-7.867547e-03 -2.824318e-03 0.0
-7.076891e-03 -2.735991e-03 0.0
-6.314164e-03 -2.633780e-03 0.0
-5.583086e-03 -2.518123e-03 0.0
-4.887213e-03 -2.389563e-03 0.0
-4.229895e-03 -2.248765e-03 0.0
-3.614243e-03 -2.096529e-03 0.0
-3.043075e-03 -1.933811e-03 0.0
-2.518877e-03 -1.761749e-03 0.0
-2.043733e-03 -1.581696e-03 0.0
-1.619266e-03 -1.395268e-03 0.0
-1.246559e-03 -1.204399e-03 0.0
-9.260643e-04 -1.011421e-03 0.0
-6.575014e-04 -8.191606e-04 0.0
-4.397451e-04 -6.310649e-04 0.0
-2.706962e-04 -4.513593e-04 0.0
-1.471445e-04 -2.852420e-04 0.0
-6.461863e-05 -1.391188e-04 0.0
-1.721324e-05 -2.087823e-05 0.0
2.622261e-06 5.979351e-05 0.0
4.390676e-06 9.100579e-05 0.0
0.000000e+00 5.800188e-05 0.0
0.000000e+00 -5.791197e-05 0.0
0.000000e+00 -1.950594e-05 0.0
-3.148967e-05 1.671356e-05 0.0
-1.118521e-04 1.684930e-04 0.0
-2.584034e-04 3.881378e-04 0.0
-4.749281e-04 6.502354e-04 0.0
-7.629582e-04 9.358135e-04 0.0
-1.121757e-03 1.231335e-03 0.0
-1.548890e-03 1.527381e-03 0.0
-2.040948e-03 1.817330e-03 0.0
-2.594199e-03 2.096318e-03 0.0
-3.204970e-03 2.360524e-03 0.0
-3.869760e-03 2.606806e-03 0.0
-4.585099e-03 2.832615e-03 0.0
-5.347301e-03 3.036088e-03 0.0
-6.152218e-03 3.216181e-03 0.0
-6.995122e-03 3.372736e-03 0.0
-7.870762e-03 3.506402e-03 0.0
-8.773588e-03 3.618411e-03 0.0
-9.698078e-03 3.710245e-03 0.0
-1.063905e-02 3.783309e-03 0.0
-1.159187e-02 3.838682e-03 0.0
-1.255252e-02 3.877043e-03 0.0
-1.351742e-02 3.898743e-03 0.0
-1.448327e-02 3.904011e-03 0.0
-1.544678e-02 3.893164e-03 0.0
-1.640452e-02 3.866774e-03 0.0
-1.735288e-02 3.825694e-03 0.0
-1.828817e-02 3.770971e-03 0.0
-1.920679e-02 3.703677e-03 0.0
-2.010535e-02 3.624721e-03 0.0
-2.098079e-02 3.534737e-03 0.0
-2.183041e-02 3.434058e-03 0.0
-2.265176e-02 3.322785e-03 0.0
-2.344255e-02 3.200920e-03 0.0
-2.420050e-02 3.068499e-03 0.0
-2.492330e-02 2.925689e-03 0.0
-2.560854e-02 2.772816e-03 0.0
-2.625378e-02 2.610335e-03 0.0
-2.685661e-02 2.438763e-03 0.0
-2.741472e-02 2.258612e-03 0.0
-2.792598e-02 2.070333e-03 0.0
-2.838839e-02 1.874312e-03 0.0
-2.880018e-02 1.670880e-03 0.0
-2.915972e-02 1.460360e-03 0.0
-2.946550e-02 1.243115e-03 0.0
-2.971615e-02 1.019586e-03 0.0
-2.991043e-02 7.903211e-04 0.0
-3.004720e-02 5.559889e-04 0.0
-3.012550e-02 3.173762e-04 0.0
-3.014453e-02 7.538052e-05 0.0
-3.010370e-02 -1.690018e-04 0.0
-3.000268e-02 -4.146994e-04 0.0
-2.984137e-02 -6.606510e-04 0.0
-2.961995e-02 -9.058053e-04 0.0
-2.933886e-02 -1.149116e-03 0.0
-2.899881e-02 -1.389537e-03 0.0
-2.860078e-02 -1.626013e-03 0.0
-2.814601e-02 -1.857479e-03 0.0
-2.763599e-02 -2.082859e-03 0.0
-2.707248e-02 -2.301067e-03 0.0
-2.645747e-02 -2.511017e-03 0.0
-2.579323e-02 -2.711632e-03 0.0
-2.508227e-02 -2.901849e-03 0.0
-2.432735e-02 -3.080637e-03 0.0
-2.353146e-02 -3.246996e-03 0.0
-2.269782e-02 -3.399974e-03 0.0
-2.182989e-02 -3.538666e-03 0.0
-2.093131e-02 -3.662225e-03 0.0
-2.000591e-02 -3.769866e-03 0.0
-1.905770e-02 -3.860870e-03 0.0
-1.809085e-02 -3.934592e-03 0.0
-1.710964e-02 -3.990469e-03 0.0
-1.611848e-02 -4.028017e-03 0.0
-1.512188e-02 -4.046846e-03 0.0
-1.412440e-02 -4.046659e-03 0.0
-1.313066e-02 -4.027257e-03 0.0
-1.214529e-02 -3.988540e-03 0.0
-1.117292e-02 -3.930509e-03 0.0
-1.021813e-02 -3.853267e-03 0.0
-9.285473e-03 -3.757031e-03 0.0
-8.379380e-03 -3.642136e-03 0.0
-7.504171e-03 -3.509039e-03 0.0
-6.664009e-03 -3.358334e-03 0.0
-5.862859e-03 -3.190760e-03 0.0
-5.104454e-03 -3.007216e-03 0.0
-4.392246e-03 -2.808781e-03 0.0
-3.729362e-03 -2.596740e-03 0.0
-3.118544e-03 -2.372610e-03 0.0
-2.562094e-03 -2.138190e-03 0.0
-2.061802e-03 -1.895604e-03 0.0
-1.618870e-03 -1.647374e-03 0.0
-1.233832e-03 -1.396502e-03 0.0
-9.064566e-04 -1.146579e-03 0.0
-6.356514e-04 -9.019130e-04 0.0
-4.193549e-04 -6.676981e-04 0.0
-2.544298e-04 -4.502093e-04 0.0
-1.365494e-04 -2.570426e-04 0.0
-6.007353e-05 -9.739746e-05 0.0
-1.791588e-05 1.759252e-05 0.0
-1.381401e-06 7.442800e-05 0.0
0.000000e+00 5.657723e-05 0.0
0.000000e+00 -5.645819e-05 0.0
0.000000e+00 -5.152290e-05 0.0
-3.523689e-05 5.965122e-05 0.0
-1.429140e-04 2.847927e-04 0.0
-3.305284e-04 5.785609e-04 0.0
-5.985740e-04 9.151311e-04 0.0
-9.459669e-04 1.275904e-03 0.0
-1.370212e-03 1.647031e-03 0.0
-1.867953e-03 2.018221e-03 0.0
-2.435520e-03 2.381589e-03 0.0
-3.069293e-03 2.730859e-03 0.0
-3.765787e-03 3.060927e-03 0.0
-4.521508e-03 3.367710e-03 0.0
-5.332687e-03 3.648183e-03 0.0
-6.195022e-03 3.900462e-03 0.0
-7.103535e-03 4.123824e-03 0.0
-8.052625e-03 4.318578e-03 0.0
-9.036295e-03 4.485792e-03 0.0
-1.004850e-02 4.626912e-03 0.0
-1.108350e-02 4.743379e-03 0.0
-1.213608e-02 4.836359e-03 0.0
-1.320164e-02 4.906641e-03 0.0
-1.427607e-02 4.954717e-03 0.0
-1.535551e-02 4.980983e-03 0.0
-1.643614e-02 4.985964e-03 0.0
-1.751397e-02 4.970467e-03 0.0
-1.858487e-02 4.935604e-03 0.0
-1.964462e-02 4.882685e-03 0.0
-2.068910e-02 4.813020e-03 0.0
-2.171445e-02 4.727725e-03 0.0
-2.271718e-02 4.627599e-03 0.0
-2.369417e-02 4.513110e-03 0.0
-2.464257e-02 4.384478e-03 0.0
-2.555970e-02 4.241821e-03 0.0
-2.644291e-02 4.085304e-03 0.0
-2.728948e-02 3.915229e-03 0.0
-2.809665e-02 3.732060e-03 0.0
-2.886161e-02 3.536380e-03 0.0
-2.958161e-02 3.328816e-03 0.0
-3.025403e-02 3.109965e-03 0.0
-3.087639e-02 2.880345e-03 0.0
-3.144644e-02 2.640393e-03 0.0
-3.196208e-02 2.390490e-03 0.0
-3.242139e-02 2.131014e-03 0.0
-3.282257e-02 1.862395e-03 0.0
-3.316394e-02 1.585158e-03 0.0
-3.344396e-02 1.299948e-03 0.0
-3.366119e-02 1.007547e-03 0.0
-3.381435e-02 7.088622e-04 0.0
-3.390237e-02 4.049221e-04 0.0
-3.392437e-02 9.685767e-05 0.0
-3.387973e-02 -2.141053e-04 0.0
-3.376809e-02 -5.266643e-04 0.0
-3.358939e-02 -8.395235e-04 0.0
-3.334383e-02 -1.151387e-03 0.0
-3.303192e-02 -1.460949e-03 0.0
-3.265445e-02 -1.766889e-03 0.0
-3.221248e-02 -2.067862e-03 0.0
-3.170737e-02 -2.362505e-03 0.0
-3.114077e-02 -2.649438e-03 0.0
-3.051458e-02 -2.927276e-03 0.0
-2.983104e-02 -3.194635e-03 0.0
-2.909261e-02 -3.450150e-03 0.0
-2.830209e-02 -3.692481e-03 0.0
-2.746250e-02 -3.920324e-03 0.0
-2.657717e-02 -4.132425e-03 0.0
-2.564965e-02 -4.327579e-03 0.0
-2.468374e-02 -4.504649e-03 0.0
-2.368347e-02 -4.662563e-03 0.0
-2.265307e-02 -4.800329e-03 0.0
-2.159696e-02 -4.917041e-03 0.0
-2.051973e-02 -5.011884e-03 0.0
-1.942611e-02 -5.084145e-03 0.0
-1.832097e-02 -5.133219e-03 0.0
-1.720926e-02 -5.158613e-03 0.0
-1.609602e-02 -5.159954e-03 0.0
-1.498634e-02 -5.136996e-03 0.0
-1.388532e-02 -5.089621e-03 0.0
-1.279805e-02 -5.017836e-03 0.0