# vtk DataFile Version 3.0
Vector Field
ASCII
DATASET RECTILINEAR_GRID
DIMENSIONS 102 102 1
X_COORDINATES 102 double
0.000000 0.100000 0.200000 0.300000 0.400000 0.500000 0.600000 0.700000 0.800000 0.900000 1.000000 1.100000 1.200000 1.300000 1.400000 1.500000 1.600000 1.700000 1.800000 1.900000 2.000000 2.100000 2.200000 2.300000 2.400000 2.500000 2.600000 2.700000 2.800000 2.900000 3.000000 3.100000 3.200000 3.300000 3.400000 3.500000 3.600000 3.700000 3.800000 3.900000 4.000000 4.100000 4.200000 4.300000 4.400000 4.500000 4.600000 4.700000 4.800000 4.900000 5.000000 5.100000 5.200000 5.300000 5.400000 5.500000 5.600000 5.700000 5.800000 5.900000 6.000000 6.100000 6.200000 6.300000 6.400000 6.500000 6.600000 6.700000 6.800000 6.900000 7.000000 7.100000 7.200000 7.300000 7.400000 7.500000 7.600000 7.700000 7.800000 7.900000 8.000000 8.100000 8.200000 8.300000 8.400000 8.500000 8.600000 8.700000 8.800000 8.900000 9.000000 9.100000 9.200000 9.300000 9.400000 9.500000 9.600000 9.700000 9.800000 9.900000 10.000000 10.100000 
Y_COORDINATES 102 double
0.000000 0.100000 0.200000 0.300000 0.400000 0.500000 0.600000 0.700000 0.800000 0.900000 1.000000 1.100000 1.200000 1.300000 1.400000 1.500000 1.600000 1.700000 1.800000 1.900000 2.000000 2.100000 2.200000 2.300000 2.400000 2.500000 2.600000 2.700000 2.800000 2.900000 3.000000 3.100000 3.200000 3.300000 3.400000 3.500000 3.600000 3.700000 3.800000 3.900000 4.000000 4.100000 4.200000 4.300000 4.400000 4.500000 4.600000 4.700000 4.800000 4.900000 5.000000 5.100000 5.200000 5.300000 5.400000 5.500000 5.600000 5.700000 5.800000 5.900000 6.000000 6.100000 6.200000 6.300000 6.400000 6.500000 6.600000 6.700000 6.800000 6.900000 7.000000 7.100000 7.200000 7.300000 7.400000 7.500000 7.600000 7.700000 7.800000 7.900000 8.000000 8.100000 8.200000 8.300000 8.400000 8.500000 8.600000 8.700000 8.800000 8.900000 9.000000 9.100000 9.200000 9.300000 9.400000 9.500000 9.600000 9.700000 9.800000 9.900000 10.000000 10.100000 
Z_COORDINATES 1 double
0.0
POINT_DATA 10404
VECTORS Velocity double
0.000000e+00 0.000000e+00 0.0
-2.521079e-06 0.000000e+00 0.0
-2.282403e-05 0.000000e+00 0.0
-3.817575e-05 0.000000e+00 0.0
-4.257671e-05 0.000000e+00 0.0
-3.358226e-05 0.000000e+00 0.0
-1.127621e-05 0.000000e+00 0.0
2.264090e-05 0.000000e+00 0.0
6.568736e-05 0.000000e+00 0.0
1.154176e-04 0.000000e+00 0.0
1.701089e-04 0.000000e+00 0.0
2.291420e-04 0.000000e+00 0.0
2.929578e-04 0.000000e+00 0.0
3.626108e-04 0.000000e+00 0.0
4.391042e-04 0.000000e+00 0.0
5.227729e-04 0.000000e+00 0.0
6.129597e-04 0.000000e+00 0.0
7.080951e-04 0.000000e+00 0.0
8.061227e-04 0.000000e+00 0.0
9.050754e-04 0.000000e+00 0.0
1.003566e-03 0.000000e+00 0.0
1.101014e-03 0.000000e+00 0.0
1.197558e-03 0.000000e+00 0.0
1.293732e-03 0.000000e+00 0.0
1.390060e-03 0.000000e+00 0.0
1.486741e-03 0.000000e+00 0.0
1.583523e-03 0.000000e+00 0.0
1.679769e-03 0.000000e+00 0.0
1.774662e-03 0.000000e+00 0.0
1.867425e-03 0.000000e+00 0.0
1.957481e-03 0.000000e+00 0.0
2.044498e-03 0.000000e+00 0.0
2.128333e-03 0.000000e+00 0.0
2.208922e-03 0.000000e+00 0.0
2.286172e-03 0.000000e+00 0.0
2.359906e-03 0.000000e+00 0.0
2.429853e-03 0.000000e+00 0.0
2.495693e-03 0.000000e+00 0.0
2.557106e-03 0.000000e+00 0.0
2.613816e-03 0.000000e+00 0.0
2.665603e-03 0.000000e+00 0.0
2.712290e-03 0.000000e+00 0.0
2.753714e-03 0.000000e+00 0.0
2.789705e-03 0.000000e+00 0.0
2.820066e-03 0.000000e+00 0.0
2.844584e-03 0.000000e+00 0.0
2.863040e-03 0.000000e+00 0.0
2.875236e-03 0.000000e+00 0.0
2.881012e-03 0.000000e+00 0.0
2.880261e-03 0.000000e+00 0.0
2.872936e-03 0.000000e+00 0.0
2.859042e-03 0.000000e+00 0.0
2.838616e-03 0.000000e+00 0.0
2.811720e-03 0.000000e+00 0.0
2.778429e-03 0.000000e+00 0.0
2.738839e-03 0.000000e+00 0.0
2.693066e-03 0.000000e+00 0.0
2.641253e-03 0.000000e+00 0.0
2.583578e-03 0.000000e+00 0.0
2.520253e-03 0.000000e+00 0.0
2.451529e-03 0.000000e+00 0.0
2.377689e-03 0.000000e+00 0.0
2.299050e-03 0.000000e+00 0.0
2.215957e-03 0.000000e+00 0.0
2.128780e-03 0.000000e+00 0.0
2.037915e-03 0.000000e+00 0.0
1.943778e-03 0.000000e+00 0.0
1.846807e-03 0.000000e+00 0.0
1.747458e-03 0.000000e+00 0.0
1.646208e-03 0.000000e+00 0.0
1.543546e-03 0.000000e+00 0.0
1.439977e-03 0.000000e+00 0.0
1.336017e-03 0.000000e+00 0.0
1.232186e-03 0.000000e+00 0.0
1.129012e-03 0.000000e+00 0.0
1.027023e-03 0.000000e+00 0.0
9.267466e-04 0.000000e+00 0.0
8.287069e-04 0.000000e+00 0.0
7.334224e-04 0.000000e+00 0.0
6.414030e-04 0.000000e+00 0.0
5.531471e-04 0.000000e+00 0.0
4.691392e-04 0.000000e+00 0.0
3.898465e-04 0.000000e+00 0.0
3.157159e-04 0.000000e+00 0.0
2.471705e-04 0.000000e+00 0.0
1.846058e-04 0.000000e+00 0.0
1.283851e-04 0.000000e+00 0.0
7.883374e-05 0.000000e+00 0.0
3.623273e-05 0.000000e+00 0.0
8.091139e-07 0.000000e+00 0.0
-2.727606e-05 0.000000e+00 0.0
-4.794505e-05 0.000000e+00 0.0
-6.122864e-05 0.000000e+00 0.0
-6.730298e-05 0.000000e+00 0.0
-6.654636e-05 0.000000e+00 0.0
-5.962906e-05 0.000000e+00 0.0
-4.765652e-05 0.000000e+00 0.0
-3.239490e-05 0.000000e+00 0.0
-1.659374e-05 0.000000e+00 0.0
-4.261276e-06 0.000000e+00 0.0
-0.000000e+00 0.000000e+00 0.0
0.000000e+00 0.000000e+00 0.0
0.000000e+00 1.288927e-05 0.0
1.347496e-05 -1.621801e-06 0.0
1.962696e-05 -1.407024e-05 0.0
2.268935e-05 -1.669212e-05 0.0
2.067462e-05 -1.215964e-05 0.0
1.294878e-05 -1.860490e-06 0.0
-1.165083e-06 1.247388e-05 0.0
-2.295915e-05 2.853630e-05 0.0
-5.416838e-05 4.375783e-05 0.0
-9.633719e-05 5.596658e-05 0.0
-1.501131e-04 6.403213e-05 0.0
-2.148280e-04 6.816875e-05 0.0
-2.885690e-04 6.974572e-05 0.0
-3.687093e-04 7.068144e-05 0.0
-4.526708e-04 7.267966e-05 0.0
-5.385996e-04 7.662196e-05 0.0
-6.257007e-04 8.234411e-05 0.0
-7.141394e-04 8.884416e-05 0.0
-8.046060e-04 9.478703e-05 0.0
-8.977639e-04 9.906349e-05 0.0
-9.938173e-04 1.011718e-04 0.0
-1.092346e-03 1.012988e-04 0.0
-1.192423e-03 1.001195e-04 0.0
-1.292909e-03 9.844878e-05 0.0
-1.392776e-03 9.691435e-05 0.0
-1.491311e-03 9.577805e-05 0.0
-1.588162e-03 9.494498e-05 0.0
-1.683229e-03 9.411221e-05 0.0
-1.776500e-03 9.296042e-05 0.0
-1.867898e-03 9.129751e-05 0.0
-1.957207e-03 8.910533e-05 0.0
-2.044089e-03 8.649459e-05 0.0
-2.128154e-03 8.361257e-05 0.0
-2.209034e-03 8.055795e-05 0.0
-2.286435e-03 7.734062e-05 0.0
-2.360138e-03 7.389475e-05 0.0
-2.429967e-03 7.012731e-05 0.0
-2.495744e-03 6.597208e-05 0.0
-2.557255e-03 6.142313e-05 0.0
-2.614235e-03 5.653645e-05 0.0
-2.666388e-03 5.140434e-05 0.0
-2.713414e-03 4.611841e-05 0.0
-2.755037e-03 4.073817e-05 0.0
-2.791027e-03 3.527708e-05 0.0
-2.821205e-03 2.970836e-05 0.0
-2.845426e-03 2.398490e-05 0.0
-2.863573e-03 1.806336e-05 0.0
-2.875532e-03 1.192328e-05 0.0
-2.881194e-03 5.576071e-06 0.0
-2.880455e-03 -9.358343e-07 0.0
-2.873233e-03 -7.543803e-06 0.0
-2.859478e-03 -1.417776e-05 0.0
-2.839176e-03 -2.078156e-05 0.0
-2.812350e-03 -2.731382e-05 0.0
-2.779064e-03 -3.374611e-05 0.0
-2.739420e-03 -4.005838e-05 0.0
-2.693556e-03 -4.623335e-05 0.0
-2.641640e-03 -5.225177e-05 0.0
-2.583871e-03 -5.808975e-05 0.0
-2.520472e-03 -6.371845e-05 0.0
-2.451696e-03 -6.910533e-05 0.0
-2.377823e-03 -7.421634e-05 0.0
-2.299162e-03 -7.901798e-05 0.0
-2.216049e-03 -8.347878e-05 0.0
-2.128850e-03 -8.757003e-05 0.0
-2.037957e-03 -9.126587e-05 0.0
-1.943788e-03 -9.454303e-05 0.0
-1.846781e-03 -9.738048e-05 0.0
-1.747395e-03 -9.975911e-05 0.0
-1.646110e-03 -1.016617e-04 0.0
-1.543415e-03 -1.030731e-04 0.0
-1.439818e-03 -1.039804e-04 0.0
-1.335832e-03 -1.043732e-04 0.0
-1.231980e-03 -1.042440e-04 0.0
-1.128788e-03 -1.035884e-04 0.0
-1.026783e-03 -1.024045e-04 0.0
-9.264937e-04 -1.006925e-04 0.0
-8.284433e-04 -9.845568e-05 0.0
-7.331508e-04 -9.569987e-05 0.0
-6.411261e-04 -9.243371e-05 0.0
-5.528680e-04 -8.866863e-05 0.0
-4.688609e-04 -8.441898e-05 0.0
-3.895722e-04 -7.970206e-05 0.0
-3.154489e-04 -7.453832e-05 0.0
-2.469139e-04 -6.895168e-05 0.0
-1.843626e-04 -6.296991e-05 0.0
-1.281580e-04 -5.662530e-05 0.0
-7.862543e-05 -4.995565e-05 0.0
-3.604524e-05 -4.300566e-05 0.0
-6.441562e-07 -3.582914e-05 0.0
2.741726e-05 -2.849219e-05 0.0
4.806189e-05 -2.107822e-05 0.0
6.132117e-05 -1.369570e-05 0.0
6.737187e-05 -6.490098e-06 0.0
6.659337e-05 3.361448e-07 0.0
5.965708e-05 6.491231e-06 0.0
4.766923e-05 1.153980e-05 0.0
3.239783e-05 1.482069e-05 0.0
1.659209e-05 1.535341e-05 0.0
4.256710e-06 1.188219e-05 0.0
0.000000e+00 3.803387e-06 0.0
0.000000e+00 -3.754854e-06 0.0
0.000000e+00 1.801427e-05 0.0
1.120063e-05 -2.076408e-05 0.0
2.172767e-05 -3.489061e-05 0.0
2.422598e-05 -2.440978e-05 0.0
1.109967e-05 2.499609e-06 0.0
-2.240727e-05 3.930164e-05 0.0
-7.952395e-05 8.059713e-05 0.0
-1.623944e-04 1.218428e-04 0.0
-2.720150e-04 1.596319e-04 0.0
-4.080157e-04 1.920824e-04 0.0
-5.686095e-04 2.189797e-04 0.0
-7.508804e-04 2.414778e-04 0.0
-9.513713e-04 2.614095e-04 0.0
-1.166770e-03 2.804576e-04 0.0
-1.394445e-03 2.995047e-04 0.0
-1.632644e-03 3.183943e-04 0.0
-1.880344e-03 3.361459e-04 0.0
-2.136851e-03 3.514788e-04 0.0
-2.401376e-03 3.633824e-04 0.0
-2.672751e-03 3.714943e-04 0.0
-2.949383e-03 3.761579e-04 0.0
-3.229421e-03 3.781920e-04 0.0
-3.511019e-03 3.785165e-04 0.0
-3.792567e-03 3.778182e-04 0.0
-4.072799e-03 3.763831e-04 0.0
-4.350754e-03 3.741298e-04 0.0
-4.625656e-03 3.707819e-04 0.0
-4.896758e-03 3.660703e-04 0.0
-5.163247e-03 3.598731e-04 0.0
-5.424222e-03 3.522472e-04 0.0
-5.678732e-03 3.433658e-04 0.0
-5.925847e-03 3.334153e-04 0.0
-6.164710e-03 3.225097e-04 0.0
-6.394556e-03 3.106596e-04 0.0
-6.614690e-03 2.977984e-04 0.0
-6.824445e-03 2.838413e-04 0.0
-7.023143e-03 2.687431e-04 0.0
-7.210076e-03 2.525291e-04 0.0
-7.384510e-03 2.352889e-04 0.0
-7.545707e-03 2.171439e-04 0.0
-7.692954e-03 1.982067e-04 0.0
-7.825590e-03 1.785508e-04 0.0
-7.943011e-03 1.582016e-04 0.0
-8.044670e-03 1.371486e-04 0.0
-8.130068e-03 1.153709e-04 0.0
-8.198743e-03 9.286357e-05 0.0
-8.250266e-03 6.965666e-05 0.0
-8.284243e-03 4.582175e-05 0.0
-8.300331e-03 2.146800e-05 0.0
-8.298255e-03 -3.266281e-06 0.0
-8.277831e-03 -2.821856e-05 0.0
-8.238975e-03 -5.323619e-05 0.0
-8.181699e-03 -7.819215e-05 0.0
-8.106110e-03 -1.029761e-04 0.0
-8.012404e-03 -1.274857e-04 0.0
-7.900862e-03 -1.516193e-04 0.0
-7.771852e-03 -1.752709e-04 0.0
-7.625824e-03 -1.983284e-04 0.0
-7.463312e-03 -2.206743e-04 0.0
-7.284933e-03 -2.421884e-04 0.0
-7.091392e-03 -2.627501e-04 0.0
-6.883473e-03 -2.822418e-04 0.0
-6.662045e-03 -3.005503e-04 0.0
-6.428055e-03 -3.175679e-04 0.0
-6.182526e-03 -3.331930e-04 0.0
-5.926554e-03 -3.473300e-04 0.0
-5.661298e-03 -3.598900e-04 0.0
-5.387979e-03 -3.707906e-04 0.0
-5.107876e-03 -3.799568e-04 0.0
-4.822313e-03 -3.873216e-04 0.0
-4.532659e-03 -3.928267e-04 0.0
-4.240317e-03 -3.964233e-04 0.0
-3.946719e-03 -3.980727e-04 0.0
-3.653318e-03 -3.977473e-04 0.0
-3.361578e-03 -3.954310e-04 0.0
-3.072968e-03 -3.911166e-04 0.0
-2.788955e-03 -3.848070e-04 0.0
-2.510997e-03 -3.765151e-04 0.0
-2.240533e-03 -3.662644e-04 0.0
-1.978978e-03 -3.540891e-04 0.0
-1.727713e-03 -3.400347e-04 0.0
-1.488075e-03 -3.241583e-04 0.0
-1.261351e-03 -3.065290e-04 0.0
-1.048762e-03 -2.872294e-04 0.0
-8.514610e-04 -2.663564e-04 0.0
-6.705120e-04 -2.440232e-04 0.0
-5.068802e-04 -2.203623e-04 0.0
-3.614126e-04 -1.955292e-04 0.0
-2.348167e-04 -1.697082e-04 0.0
-1.276325e-04 -1.431208e-04 0.0
-4.019588e-05 -1.160371e-04 0.0
2.741062e-05 -8.879360e-05 0.0
7.542391e-05 -6.181859e-05 0.0
1.044939e-04 -3.567047e-05 0.0
1.158117e-04 -1.109264e-05 0.0
1.112875e-04 1.090382e-05 0.0
9.378927e-05 2.892555e-05 0.0
6.743742e-05 4.105995e-05 0.0
3.789143e-05 4.478692e-05 0.0
1.246839e-05 3.719305e-05 0.0
0.000000e+00 1.615997e-05 0.0
0.000000e+00 -1.609287e-05 0.0
0.000000e+00 2.189192e-05 0.0
2.483605e-06 -3.708896e-05 0.0
5.375779e-06 -4.312550e-05 0.0
-7.643669e-06 -9.873957e-06 0.0
-4.657946e-05 4.897357e-05 0.0
-1.184399e-04 1.217892e-04 0.0
-2.278512e-04 1.997385e-04 0.0
-3.771600e-04 2.764393e-04 0.0
-5.664493e-04 3.480028e-04 0.0
-7.937548e-04 4.128988e-04 0.0
-1.055609e-03 4.714493e-04 0.0
-1.347840e-03 5.249807e-04 0.0
-1.666387e-03 5.748772e-04 0.0
-2.007878e-03 6.218512e-04 0.0
-2.369807e-03 6.656602e-04 0.0
-2.750317e-03 7.053072e-04 0.0
-3.147761e-03 7.395628e-04 0.0
-3.560276e-03 7.675337e-04 0.0
-3.985546e-03 7.890246e-04 0.0
-4.420844e-03 8.045667e-04 0.0
-4.863277e-03 8.151547e-04 0.0
-5.310090e-03 8.218490e-04 0.0
-5.758895e-03 8.254367e-04 0.0
-6.207740e-03 8.262764e-04 0.0
-6.655017e-03 8.243528e-04 0.0
-7.099295e-03 8.194691e-04 0.0
-7.539153e-03 8.114573e-04 0.0
-7.973098e-03 8.003093e-04 0.0
-8.399565e-03 7.861919e-04 0.0
-8.816984e-03 7.693678e-04 0.0
-9.223860e-03 7.500845e-04 0.0
-9.618821e-03 7.284927e-04 0.0
-1.000061e-02 7.046267e-04 0.0
-1.036806e-02 6.784438e-04 0.0
-1.072003e-02 6.498920e-04 0.0
-1.105535e-02 6.189694e-04 0.0
-1.137284e-02 5.857492e-04 0.0
-1.167130e-02 5.503661e-04 0.0
-1.194957e-02 5.129780e-04 0.0
-1.220651e-02 4.737237e-04 0.0
-1.244109e-02 4.326969e-04 0.0
-1.265233e-02 3.899438e-04 0.0
-1.283933e-02 3.454831e-04 0.0
-1.300124e-02 2.993356e-04 0.0
-1.313726e-02 2.515527e-04 0.0
-1.324662e-02 2.022331e-04 0.0
-1.332864e-02 1.515267e-04 0.0
-1.338269e-02 9.962697e-05 0.0
-1.340825e-02 4.676020e-05 0.0
-1.340494e-02 -6.821862e-06 0.0
-1.337248e-02 -6.084038e-05 0.0
-1.331079e-02 -1.150252e-04 0.0
-1.321989e-02 -1.691299e-04 0.0
-1.309996e-02 -2.229180e-04 0.0
-1.295130e-02 -2.761528e-04 0.0
-1.277436e-02 -3.285913e-04 0.0
-1.256971e-02 -3.799837e-04 0.0
-1.233804e-02 -4.300738e-04 0.0
-1.208021e-02 -4.786034e-04 0.0
-1.179719e-02 -5.253154e-04 0.0
-1.149009e-02 -5.699569e-04 0.0
-1.116015e-02 -6.122818e-04 0.0
-1.080874e-02 -6.520523e-04 0.0
-1.043736e-02 -6.890401e-04 0.0
-1.004761e-02 -7.230272e-04 0.0
-9.641223e-03 -7.538075e-04 0.0
-9.220015e-03 -7.811878e-04 0.0
-8.785909e-03 -8.049898e-04 0.0
-8.340910e-03 -8.250511e-04 0.0
-7.887102e-03 -8.412275e-04 0.0
-7.426633e-03 -8.533938e-04 0.0
-6.961710e-03 -8.614456e-04 0.0
-6.494582e-03 -8.653004e-04 0.0
-6.027529e-03 -8.648986e-04 0.0
-5.562853e-03 -8.602051e-04 0.0
-5.102861e-03 -8.512055e-04 0.0
-4.649858e-03 -8.379069e-04 0.0
-4.206132e-03 -8.203388e-04 0.0
-3.773939e-03 -7.985540e-04 0.0
-3.355496e-03 -7.726296e-04 0.0
-2.952961e-03 -7.426674e-04 0.0
-2.568423e-03 -7.087955e-04 0.0
-2.203881e-03 -6.711699e-04 0.0
-1.861234e-03 -6.299764e-04 0.0
-1.542258e-03 -5.854343e-04 0.0
-1.248582e-03 -5.378002e-04 0.0
-9.816727e-04 -4.873745e-04 0.0
-7.427954e-04 -4.345098e-04 0.0
-5.329844e-04 -3.796231e-04 0.0
-3.529974e-04 -3.232125e-04 0.0
-2.032589e-04 -2.658809e-04 0.0
-8.378926e-05 -2.083692e-04 0.0
5.888796e-06 -1.516034e-04 0.0
6.687032e-05 -9.675945e-05 0.0
1.010240e-04 -4.535426e-05 0.0
1.111860e-04 6.331354e-07 0.0
1.013922e-04 3.860983e-05 0.0
7.713119e-05 6.521142e-05 0.0
4.558702e-05 7.622164e-05 0.0
1.591257e-05 6.675831e-05 0.0
0.000000e+00 3.196369e-05 0.0
0.000000e+00 -3.187270e-05 0.0
0.000000e+00 2.165486e-05 0.0
-8.043511e-06 -4.375917e-05 0.0
-2.000197e-05 -2.983312e-05 0.0
-5.841325e-05 3.604832e-05 0.0
-1.340255e-04 1.351373e-04 0.0
-2.544838e-04 2.516590e-04 0.0
-4.243566e-04 3.742403e-04 0.0
-6.451337e-04 4.953560e-04 0.0
-9.155328e-04 6.108945e-04 0.0
-1.232223e-03 7.193894e-04 0.0
-1.590830e-03 8.209518e-04 0.0
-1.986938e-03 9.161471e-04 0.0
-2.416763e-03 1.005138e-03 0.0
-2.877353e-03 1.087325e-03 0.0
-3.366321e-03 1.161506e-03 0.0
-3.881343e-03 1.226385e-03 0.0
-4.419701e-03 1.281125e-03 0.0
-4.978079e-03 1.325675e-03 0.0
-5.552679e-03 1.360760e-03 0.0
-6.139560e-03 1.387573e-03 0.0
-6.735026e-03 1.407339e-03 0.0
-7.335878e-03 1.420975e-03 0.0
-7.939461e-03 1.428942e-03 0.0
-8.543524e-03 1.431327e-03 0.0
-9.145997e-03 1.428053e-03 0.0
-9.744801e-03 1.419098e-03 0.0
-1.033776e-02 1.404613e-03 0.0
-1.092263e-02 1.384920e-03 0.0
-1.149720e-02 1.360408e-03 0.0
-1.205940e-02 1.331421e-03 0.0
-1.260730e-02 1.298175e-03 0.0
-1.313918e-02 1.260755e-03 0.0
-1.365338e-02 1.219168e-03 0.0
-1.414829e-02 1.173422e-03 0.0
-1.462228e-02 1.123583e-03 0.0
-1.507369e-02 1.069792e-03 0.0
-1.550087e-02 1.012247e-03 0.0
-1.590222e-02 9.511518e-04 0.0
-1.627621e-02 8.866804e-04 0.0
-1.662142e-02 8.189527e-04 0.0
-1.693651e-02 7.480426e-04 0.0
-1.722023e-02 6.740059e-04 0.0
-1.747137e-02 5.969152e-04 0.0
-1.768879e-02 5.168886e-04 0.0
-1.787140e-02 4.341044e-04 0.0
-1.801818e-02 3.488006e-04 0.0
-1.812821e-02 2.612644e-04 0.0
-1.820069e-02 1.718197e-04 0.0
-1.823497e-02 8.081935e-05 0.0
-1.823057e-02 -1.135360e-05 0.0
-1.818719e-02 -1.042747e-04 0.0
-1.810471e-02 -1.975139e-04 0.0
-1.798318e-02 -2.906539e-04 0.0
-1.782282e-02 -3.832773e-04 0.0
-1.762405e-02 -4.749601e-04 0.0
-1.738744e-02 -5.652699e-04 0.0
-1.711375e-02 -6.537683e-04 0.0
-1.680391e-02 -7.400144e-04 0.0
-1.645906e-02 -8.235689e-04 0.0
-1.608048e-02 -9.039976e-04 0.0
-1.566965e-02 -9.808743e-04 0.0
-1.522824e-02 -1.053782e-03 0.0
-1.475806e-02 -1.122318e-03 0.0
-1.426109e-02 -1.186091e-03 0.0
-1.373947e-02 -1.244730e-03 0.0
-1.319549e-02 -1.297880e-03 0.0
-1.263156e-02 -1.345211e-03 0.0
-1.205022e-02 -1.386419e-03 0.0
-1.145414e-02 -1.421227e-03 0.0
-1.084608e-02 -1.449388e-03 0.0
-1.022887e-02 -1.470691e-03 0.0
-9.605459e-03 -1.484957e-03 0.0
-8.978808e-03 -1.492046e-03 0.0
-8.351944e-03 -1.491856e-03 0.0
-7.727914e-03 -1.484328e-03 0.0
-7.109775e-03 -1.469437e-03 0.0
-6.500578e-03 -1.447197e-03 0.0
-5.903349e-03 -1.417661e-03 0.0
-5.321072e-03 -1.380925e-03 0.0
-4.756673e-03 -1.337123e-03 0.0
-4.212999e-03 -1.286437e-03 0.0
-3.692797e-03 -1.229093e-03 0.0
-3.198696e-03 -1.165368e-03 0.0
-2.733178e-03 -1.095592e-03 0.0
-2.298557e-03 -1.020154e-03 0.0
-1.896946e-03 -9.395096e-04 0.0
-1.530229e-03 -8.541919e-04 0.0
-1.200014e-03 -7.648252e-04 0.0
-9.075936e-04 -6.721443e-04 0.0
-6.538861e-04 -5.770218e-04 0.0
-4.393658e-04 -4.805034e-04 0.0
-2.639805e-04 -3.838575e-04 0.0
-1.270460e-04 -2.886415e-04 0.0
-2.711944e-05 -1.967903e-04 0.0
3.815403e-05 -1.107324e-04 0.0
7.221846e-05 -3.353698e-05 0.0
7.981015e-05 3.091185e-05 0.0
6.717422e-05 7.774108e-05 0.0
4.231994e-05 1.009698e-04 0.0
1.544961e-05 9.352272e-05 0.0
0.000000e+00 4.730769e-05 0.0
0.000000e+00 -4.718937e-05 0.0
0.000000e+00 1.570141e-05 0.0
-1.696325e-05 -3.722683e-05 0.0
-4.892802e-05 9.695100e-06 0.0
-1.202548e-04 1.181311e-04 0.0
-2.408861e-04 2.653200e-04 0.0
-4.175419e-04 4.328085e-04 0.0
-6.534446e-04 6.077727e-04 0.0
-9.485092e-04 7.821033e-04 0.0
-1.300075e-03 9.513785e-04 0.0
-1.704028e-03 1.113562e-03 0.0
-2.155951e-03 1.267673e-03 0.0
-2.651944e-03 1.412759e-03 0.0
-3.188873e-03 1.547424e-03 0.0
-3.764100e-03 1.669925e-03 0.0
-4.374920e-03 1.778648e-03 0.0
-5.018052e-03 1.872631e-03 0.0
-5.689425e-03 1.951857e-03 0.0
-6.384344e-03 2.017187e-03 0.0
-7.097916e-03 2.069986e-03 0.0
-7.825526e-03 2.111650e-03 0.0
-8.563146e-03 2.143234e-03 0.0
-9.307394e-03 2.165320e-03 0.0
-1.005536e-02 2.178116e-03 0.0
-1.080435e-02 2.181693e-03 0.0
-1.155163e-02 2.176206e-03 0.0
-1.229438e-02 2.162002e-03 0.0
-1.302970e-02 2.139598e-03 0.0
-1.375473e-02 2.109553e-03 0.0
-1.446680e-02 2.072346e-03 0.0
-1.516345e-02 2.028296e-03 0.0
-1.584243e-02 1.977571e-03 0.0
-1.650161e-02 1.920261e-03 0.0
-1.713889e-02 1.856460e-03 0.0
-1.775219e-02 1.786328e-03 0.0
-1.833939e-02 1.710101e-03 0.0
-1.889838e-02 1.628055e-03 0.0
-1.942714e-02 1.540460e-03 0.0
-1.992374e-02 1.447535e-03 0.0
-2.038637e-02 1.349435e-03 0.0
-2.081335e-02 1.246270e-03 0.0
-2.120304e-02 1.138141e-03 0.0
-2.155392e-02 1.025178e-03 0.0
-2.186449e-02 9.075736e-04 0.0
-2.213330e-02 7.855895e-04 0.0
-2.235902e-02 6.595564e-04 0.0
-2.254041e-02 5.298582e-04 0.0
-2.267635e-02 3.969190e-04 0.0
-2.276594e-02 2.611969e-04 0.0
-2.280841e-02 1.231866e-04 0.0
-2.280321e-02 -1.656849e-05 0.0
-2.275001e-02 -1.574591e-04 0.0
-2.264865e-02 -2.988494e-04 0.0
-2.249920e-02 -4.401031e-04 0.0
-2.230194e-02 -5.805766e-04 0.0
-2.205736e-02 -7.196176e-04 0.0
-2.176617e-02 -8.565667e-04 0.0
-2.142928e-02 -9.907617e-04 0.0
-2.104786e-02 -1.121541e-03 0.0
-2.062328e-02 -1.248249e-03 0.0
-2.015713e-02 -1.370235e-03 0.0
-1.965123e-02 -1.486860e-03 0.0
-1.910759e-02 -1.597500e-03 0.0
-1.852844e-02 -1.701544e-03 0.0
-1.791621e-02 -1.798407e-03 0.0
-1.727350e-02 -1.887526e-03 0.0
-1.660310e-02 -1.968369e-03 0.0
-1.590796e-02 -2.040440e-03 0.0
-1.519119e-02 -2.103281e-03 0.0
-1.445603e-02 -2.156475e-03 0.0
-1.370586e-02 -2.199655e-03 0.0
-1.294414e-02 -2.232500e-03 0.0
-1.217444e-02 -2.254745e-03 0.0
-1.140040e-02 -2.266178e-03 0.0
-1.062569e-02 -2.266648e-03 0.0
-9.854047e-03 -2.256063e-03 0.0
-9.089185e-03 -2.234388e-03 0.0
-8.334823e-03 -2.201647e-03 0.0
-7.594649e-03 -2.157925e-03 0.0
-6.872295e-03 -2.103369e-03 0.0
-6.171319e-03 -2.038191e-03 0.0
-5.495177e-03 -1.962671e-03 0.0
-4.847202e-03 -1.877162e-03 0.0
-4.230572e-03 -1.782093e-03 0.0
-3.648283e-03 -1.677976e-03 0.0
-3.103117e-03 -1.565416e-03 0.0
-2.597604e-03 -1.445119e-03 0.0
-2.133984e-03 -1.317909e-03 0.0
-1.714156e-03 -1.184750e-03 0.0
-1.339628e-03 -1.046770e-03 0.0
-1.011453e-03 -9.052959e-04 0.0
-7.301490e-04 -7.619065e-04 0.0
-4.956159e-04 -6.184903e-04 0.0
-3.070284e-04 -4.773295e-04 0.0
-1.627145e-04 -3.412052e-04 0.0
-6.001814e-05 -2.135301e-04 0.0
4.854811e-06 -9.851231e-05 0.0
3.700769e-05 -1.343791e-06 0.0
4.304652e-05 7.159953e-05 0.0
3.133763e-05 1.125761e-04 0.0
1.244649e-05 1.123115e-04 0.0
0.000000e+00 5.965213e-05 0.0
0.000000e+00 -5.950358e-05 0.0
0.000000e+00 2.592042e-06 0.0
-2.324816e-05 -1.650138e-05 0.0
-7.918625e-05 7.688512e-05 0.0
-1.890204e-04 2.381145e-04 0.0
-3.604771e-04 4.417270e-04 0.0
-5.980473e-04 6.681165e-04 0.0
-9.027789e-04 9.038790e-04 0.0
-1.272848e-03 1.140479e-03 0.0
-1.704646e-03 1.372728e-03 0.0
-2.194011e-03 1.597256e-03 0.0
-2.737137e-03 1.811303e-03 0.0
-3.330911e-03 2.012111e-03 0.0
-3.972656e-03 2.196931e-03 0.0
-4.659526e-03 2.363451e-03 0.0
-5.387944e-03 2.510288e-03 0.0
-6.153351e-03 2.637238e-03 0.0
-6.950389e-03 2.745145e-03 0.0
-7.773384e-03 2.835461e-03 0.0
-8.616903e-03 2.909705e-03 0.0
-9.476132e-03 2.969053e-03 0.0
-1.034696e-02 3.014203e-03 0.0
-1.122582e-02 3.045491e-03 0.0
-1.210937e-02 3.063142e-03 0.0
-1.299427e-02 3.067504e-03 0.0
-1.387707e-02 3.059144e-03 0.0
-1.475422e-02 3.038800e-03 0.0
-1.562227e-02 3.007240e-03 0.0
-1.647795e-02 2.965114e-03 0.0
-1.731824e-02 2.912886e-03 0.0
-1.814036e-02 2.850847e-03 0.0
-1.894170e-02 2.779204e-03 0.0
-1.971968e-02 2.698171e-03 0.0
-2.047174e-02 2.608031e-03 0.0
-2.119529e-02 2.509137e-03 0.0
-2.188782e-02 2.401869e-03 0.0
-2.254685e-02 2.286578e-03 0.0
-2.317008e-02 2.163546e-03 0.0
-2.375532e-02 2.032977e-03 0.0
-2.430050e-02 1.895030e-03 0.0
-2.480366e-02 1.749856e-03 0.0
-2.526289e-02 1.597654e-03 0.0
-2.567635e-02 1.438690e-03 0.0
-2.604226e-02 1.273316e-03 0.0
-2.635893e-02 1.101954e-03 0.0
-2.662480e-02 9.250814e-04 0.0
-2.683845e-02 7.432218e-04 0.0
-2.699865e-02 5.569364e-04 0.0
-2.710436e-02 3.668320e-04 0.0
-2.715474e-02 1.735743e-04 0.0
-2.714917e-02 -2.209380e-05 0.0
-2.708726e-02 -2.193361e-04 0.0
-2.696885e-02 -4.172691e-04 0.0
-2.679400e-02 -6.150000e-04 0.0
-2.656303e-02 -8.116257e-04 0.0
-2.627652e-02 -1.006234e-03 0.0
-2.593529e-02 -1.197910e-03 0.0
-2.554042e-02 -1.385736e-03 0.0
-2.509326e-02 -1.568796e-03 0.0
-2.459541e-02 -1.746180e-03 0.0
-2.404873e-02 -1.916988e-03 0.0
-2.345533e-02 -2.080331e-03 0.0
-2.281757e-02 -2.235339e-03 0.0
-2.213803e-02 -2.381164e-03 0.0
-2.141953e-02 -2.516990e-03 0.0
-2.066511e-02 -2.642036e-03 0.0
-1.987800e-02 -2.755564e-03 0.0
-1.906165e-02 -2.856883e-03 0.0
-1.821966e-02 -2.945359e-03 0.0
-1.735581e-02 -3.020415e-03 0.0
-1.647401e-02 -3.081541e-03 0.0
-1.557830e-02 -3.128292e-03 0.0
-1.467283e-02 -3.160301e-03 0.0
-1.376181e-02 -3.177275e-03 0.0
-1.284954e-02 -3.179001e-03 0.0
-1.194034e-02 -3.165354e-03 0.0
-1.103852e-02 -3.136287e-03 0.0
-1.014842e-02 -3.091838e-03 0.0
-9.274302e-03 -3.032129e-03 0.0
-8.420388e-03 -2.957371e-03 0.0
-7.590799e-03 -2.867869e-03 0.0
-6.789539e-03 -2.764022e-03 0.0
-6.020458e-03 -2.646333e-03 0.0
-5.287226e-03 -2.515416e-03 0.0
-4.593294e-03 -2.372001e-03 0.0
-3.941856e-03 -2.216946e-03 0.0
-3.335812e-03 -2.051257e-03 0.0
-2.777713e-03 -1.876101e-03 0.0
-2.269719e-03 -1.692839e-03 0.0
-1.813531e-03 -1.503052e-03 0.0
-1.410330e-03 -1.308592e-03 0.0
-1.060696e-03 -1.111636e-03 0.0
-7.645236e-04 -9.147595e-04 0.0
-5.209211e-04 -7.210291e-04 0.0
-3.281032e-04 -5.341204e-04 0.0
-1.832706e-04 -3.584602e-04 0.0
-8.248239e-05 -1.993992e-04 0.0
-2.051164e-05 -6.341342e-05 0.0
9.316343e-06 4.167275e-05 0.0
1.534713e-05 1.064467e-04 0.0
7.937546e-06 1.196227e-04 0.0
0.000000e+00 6.749150e-05 0.0
0.000000e+00 -6.731029e-05 0.0
0.000000e+00 -1.931250e-05 0.0
-2.767028e-05 1.744796e-05 0.0
-1.107154e-04 1.710664e-04 0.0
-2.627273e-04 3.960714e-04 0.0
-4.881467e-04 6.656256e-04 0.0
-7.884644e-04 9.601227e-04 0.0
-1.162369e-03 1.265969e-03 0.0
-1.606670e-03 1.573933e-03 0.0
-2.117481e-03 1.877439e-03 0.0
-2.691164e-03 2.171198e-03 0.0
-3.324718e-03 2.450462e-03 0.0
-4.015534e-03 2.710935e-03 0.0
-4.760777e-03 2.949142e-03 0.0
-5.556764e-03 3.162882e-03 0.0
-6.398674e-03 3.351444e-03 0.0
-7.280713e-03 3.515411e-03 0.0
-8.196634e-03 3.656150e-03 0.0
-9.140344e-03 3.775190e-03 0.0
-1.010634e-02 3.873767e-03 0.0
-1.108984e-02 3.952659e-03 0.0
-1.208662e-02 4.012308e-03 0.0
-1.309272e-02 4.053082e-03 0.0
-1.410419e-02 4.075519e-03 0.0
-1.511696e-02 4.080410e-03 0.0
-1.612690e-02 4.068732e-03 0.0
-1.712996e-02 4.041480e-03 0.0
-1.812229e-02 3.999511e-03 0.0
-1.910036e-02 3.943468e-03 0.0
-2.006086e-02 3.873806e-03 0.0
-2.100067e-02 3.790886e-03 0.0
-2.191671e-02 3.695081e-03 0.0
-2.280594e-02 3.586826e-03 0.0
-2.366534e-02 3.466620e-03 0.0
-2.449193e-02 3.334969e-03 0.0
-2.528286e-02 3.192327e-03 0.0
-2.603540e-02 3.039058e-03 0.0
-2.674700e-02 2.875434e-03 0.0
-2.741523e-02 2.701673e-03 0.0
-2.803776e-02 2.517997e-03 0.0
-2.861233e-02 2.324675e-03 0.0
-2.913673e-02 2.122058e-03 0.0
-2.960884e-02 1.910584e-03 0.0
-3.002663e-02 1.690764e-03 0.0
-3.038820e-02 1.463169e-03 0.0
-3.069180e-02 1.228414e-03 0.0
-3.093588e-02 9.871568e-04 0.0
-3.111910e-02 7.401127e-04 0.0
-3.124030e-02 4.880667e-04 0.0
-3.129857e-02 2.318944e-04 0.0
-3.129321e-02 -2.742188e-05 0.0
-3.122378e-02 -2.887833e-04 0.0
-3.109007e-02 -5.510279e-04 0.0
-3.089218e-02 -8.129797e-04 0.0
-3.063047e-02 -1.073451e-03 0.0
-3.030556e-02 -1.331247e-03 0.0
-2.991840e-02 -1.585166e-03 0.0
-2.947022e-02 -1.834005e-03 0.0
-2.896253e-02 -2.076562e-03 0.0
-2.839714e-02 -2.311639e-03 0.0
-2.777615e-02 -2.538050e-03 0.0
-2.710193e-02 -2.754623e-03 0.0
-2.637714e-02 -2.960211e-03 0.0
-2.560469e-02 -3.153698e-03 0.0
-2.478775e-02 -3.334010e-03 0.0
-2.392975e-02 -3.500119e-03 0.0
-2.303435e-02 -3.651055e-03 0.0
-2.210540e-02 -3.785913e-03 0.0
-2.114699e-02 -3.903856e-03 0.0
-2.016335e-02 -4.004129e-03 0.0
-1.915892e-02 -4.086058e-03 0.0
-1.813823e-02 -4.149062e-03 0.0
-1.710595e-02 -4.192656e-03 0.0
-1.606685e-02 -4.216456e-03 0.0
-1.502575e-02 -4.220184e-03 0.0
-1.398751e-02 -4.203672e-03 0.0
-1.295701e-02 -4.166865e-03 0.0
-1.193912e-02 -4.109816e-03 0.0
-1.093865e-02 -4.032690e-03 0.0
-9.960327e-03 -3.935775e-03 0.0
-9.008802e-03 -3.819481e-03 0.0
-8.088565e-03 -3.684347e-03 0.0
-7.203937e-03 -3.531050e-03 0.0
-6.359029e-03 -3.360413e-03 0.0
-5.557703e-03 -3.173416e-03 0.0
-4.803527e-03 -2.971212e-03 0.0
-4.099732e-03 -2.755142e-03 0.0
-3.449160e-03 -2.526764e-03 0.0
-2.854208e-03 -2.287881e-03 0.0
-2.316770e-03 -2.040582e-03 0.0
-1.838162e-03 -1.787292e-03 0.0
-1.419054e-03 -1.530836e-03 0.0
-1.059386e-03 -1.274520e-03 0.0
-7.582768e-04 -1.022232e-03 0.0
-5.139297e-04 -7.785607e-04 0.0
-3.235343e-04 -5.489490e-04 0.0
-1.831620e-04 -3.398661e-04 0.0
-8.765253e-05 -1.590175e-04 0.0
-3.049114e-05 -1.558317e-05 0.0
-3.651766e-06 7.951294e-05 0.0
2.608343e-06 1.132684e-04 0.0
0.000000e+00 7.000587e-05 0.0
0.000000e+00 -6.979018e-05 0.0
0.000000e+00 -5.175497e-05 0.0
-3.200888e-05 6.240764e-05 0.0
-1.442940e-04 2.906285e-04 0.0
-3.400838e-04 5.915582e-04 0.0
-6.200145e-04 9.381038e-04 0.0
-9.824947e-04 1.311182e-03 0.0
-1.424270e-03 1.696893e-03 0.0
-1.941460e-03 2.084813e-03 0.0
-2.530456e-03 2.466497e-03 0.0
-3.188303e-03 2.834612e-03 0.0
-3.912453e-03 3.182766e-03 0.0
-4.700115e-03 3.505820e-03 0.0
-5.547589e-03 3.800311e-03 0.0
-6.449922e-03 4.064629e-03 0.0
-7.401060e-03 4.298777e-03 0.0
-8.394360e-03 4.503785e-03 0.0
-9.423239e-03 4.681014e-03 0.0
-1.048164e-02 4.831635e-03 0.0
-1.156421e-02 4.956424e-03 0.0
-1.266612e-02 5.055873e-03 0.0
-1.378283e-02 5.130461e-03 0.0
-1.490977e-02 5.180887e-03 0.0
-1.604230e-02 5.208153e-03 0.0
-1.717571e-02 5.213473e-03 0.0
-1.830538e-02 5.198080e-03 0.0
-1.942694e-02 5.163053e-03 0.0
-2.053634e-02 5.109245e-03 0.0
-2.162976e-02 5.037307e-03 0.0
-2.270357e-02 4.947794e-03 0.0
-2.375422e-02 4.841270e-03 0.0
-2.477817e-02 4.718359e-03 0.0
-2.577194e-02 4.579732e-03 0.0
-2.673213e-02 4.426051e-03 0.0
-2.765546e-02 4.257896e-03 0.0
-2.853884e-02 4.075733e-03 0.0
-2.937934e-02 3.879922e-03 0.0
-3.017417e-02 3.670764e-03 0.0
-3.092063e-02 3.448560e-03 0.0
-3.161609e-02 3.213667e-03 0.0
-3.225800e-02 2.966526e-03 0.0
-3.284387e-02 2.707662e-03 0.0
-3.337133e-02 2.437677e-03 0.0
-3.383813e-02 2.157225e-03 0.0
-3.424221e-02 1.867007e-03 0.0
-3.458168e-02 1.567772e-03 0.0
-3.485486e-02 1.260334e-03 0.0
-3.506029e-02 9.455887e-04 0.0
-3.519670e-02 6.245386e-04 0.0
-3.526309e-02 2.983063e-04 0.0
-3.525868e-02 -3.185547e-05 0.0
-3.518297e-02 -3.645609e-04 0.0
-3.503575e-02 -6.983489e-04 0.0
-3.481709e-02 -1.031741e-03 0.0
-3.452740e-02 -1.363244e-03 0.0
-3.416738e-02 -1.691355e-03 0.0
-3.373807e-02 -2.014558e-03 0.0
-3.324081e-02 -2.331335e-03 0.0
-3.267727e-02 -2.640163e-03 0.0
-3.204945e-02 -2.939527e-03 0.0
-3.135965e-02 -3.227921e-03 0.0
-3.061049e-02 -3.503862e-03 0.0
-2.980488e-02 -3.765898e-03 0.0
-2.894605e-02 -4.012617e-03 0.0
-2.803748e-02 -4.242660e-03 0.0
-2.708295e-02 -4.454730e-03 0.0
-2.608648e-02 -4.647599e-03 0.0
-2.505235e-02 -4.820123e-03 0.0
-2.398503e-02 -4.971246e-03 0.0
-2.288923e-02 -5.100010e-03 0.0
-2.176979e-02 -5.205566e-03 0.0
-2.063175e-02 -5.287179e-03 0.0
-1.948025e-02 -5.344234e-03 0.0
-1.832054e-02 -5.376246e-03 0.0
-1.715793e-02 -5.382865e-03 0.0
-1.599780e-02 -5.363880e-03 0.0
-1.484553e-02 -5.319222e-03 0.0
-1.370646e-02 -5.248963e-03 0.0
-1.258592e-02 -5.153321e-03 0.0