# vtk DataFile Version 3.0
Vector Field
ASCII
DATASET RECTILINEAR_GRID
DIMENSIONS 102 102 1
X_COORDINATES 102 double
0.000000 0.100000 0.200000 0.300000 0.400000 0.500000 0.600000 0.700000 0.800000 0.900000 1.000000 1.100000 1.200000 1.300000 1.400000 1.500000 1.600000 1.700000 1.800000 1.900000 2.000000 2.100000 2.200000 2.300000 2.400000 2.500000 2.600000 2.700000 2.800000 2.900000 3.000000 3.100000 3.200000 3.300000 3.400000 3.500000 3.600000 3.700000 3.800000 3.900000 4.000000 4.100000 4.200000 4.300000 4.400000 4.500000 4.600000 4.700000 4.800000 4.900000 5.000000 5.100000 5.200000 5.300000 5.400000 5.500000 5.600000 5.700000 5.800000 5.900000 6.000000 6.100000 6.200000 6.300000 6.400000 6.500000 6.600000 6.700000 6.800000 6.900000 7.000000 7.100000 7.200000 7.300000 7.400000 7.500000 7.600000 7.700000 7.800000 7.900000 8.000000 8.100000 8.200000 8.300000 8.400000 8.500000 8.600000 8.700000 8.800000 8.900000 9.000000 9.100000 9.200000 9.300000 9.400000 9.500000 9.600000 9.700000 9.800000 9.900000 10.000000 10.100000 
Y_COORDINATES 102 double
0.000000 0.100000 0.200000 0.300000 0.400000 0.500000 0.600000 0.700000 0.800000 0.900000 1.000000 1.100000 1.200000 1.300000 1.400000 1.500000 1.600000 1.700000 1.800000 1.900000 2.000000 2.100000 2.200000 2.300000 2.400000 2.500000 2.600000 2.700000 2.800000 2.900000 3.000000 3.100000 3.200000 3.300000 3.400000 3.500000 3.600000 3.700000 3.800000 3.900000 4.000000 4.100000 4.200000 4.300000 4.400000 4.500000 4.600000 4.700000 4.800000 4.900000 5.000000 5.100000 5.200000 5.300000 5.400000 5.500000 5.600000 5.700000 5.800000 5.900000 6.000000 6.100000 6.200000 6.300000 6.400000 6.500000 6.600000 6.700000 6.800000 6.900000 7.000000 7.100000 7.200000 7.300000 7.400000 7.500000 7.600000 7.700000 7.800000 7.900000 8.000000 8.100000 8.200000 8.300000 8.400000 8.500000 8.600000 8.700000 8.800000 8.900000 9.000000 9.100000 9.200000 9.300000 9.400000 9.500000 9.600000 9.700000 9.800000 9.900000 10.000000 10.100000 
Z_COORDINATES 1 double
0.0
POINT_DATA 10404
VECTORS Velocity double
0.000000e+00 0.000000e+00 0.0
-2.332237e-05 0.000000e+00 0.0
-2.677727e-05 0.000000e+00 0.0
-2.682530e-05 0.000000e+00 0.0
-2.256299e-05 0.000000e+00 0.0
-1.368539e-05 0.000000e+00 0.0
8.387706e-07 0.000000e+00 0.0
2.287916e-05 0.000000e+00 0.0
5.457165e-05 0.000000e+00 0.0
9.754897e-05 0.000000e+00 0.0
1.523515e-04 0.000000e+00 0.0
2.182207e-04 0.000000e+00 0.0
2.933089e-04 0.000000e+00 0.0
3.751978e-04 0.000000e+00 0.0
4.615338e-04 0.000000e+00 0.0
5.505625e-04 0.000000e+00 0.0
6.413990e-04 0.000000e+00 0.0
7.339720e-04 0.000000e+00 0.0
8.287042e-04 0.000000e+00 0.0
9.260762e-04 0.000000e+00 0.0
1.026247e-03 0.000000e+00 0.0
1.128862e-03 0.000000e+00 0.0
1.233080e-03 0.000000e+00 0.0
1.337786e-03 0.000000e+00 0.0
1.441863e-03 0.000000e+00 0.0
1.544440e-03 0.000000e+00 0.0
1.645004e-03 0.000000e+00 0.0
1.743390e-03 0.000000e+00 0.0
1.839655e-03 0.000000e+00 0.0
1.933909e-03 0.000000e+00 0.0
2.026163e-03 0.000000e+00 0.0
2.116246e-03 0.000000e+00 0.0
2.203794e-03 0.000000e+00 0.0
2.288310e-03 0.000000e+00 0.0
2.369256e-03 0.000000e+00 0.0
2.446140e-03 0.000000e+00 0.0
2.518571e-03 0.000000e+00 0.0
2.586278e-03 0.000000e+00 0.0
2.649084e-03 0.000000e+00 0.0
2.706855e-03 0.000000e+00 0.0
2.759459e-03 0.000000e+00 0.0
2.806728e-03 0.000000e+00 0.0
2.848448e-03 0.000000e+00 0.0
2.884365e-03 0.000000e+00 0.0
2.914215e-03 0.000000e+00 0.0
2.937744e-03 0.000000e+00 0.0
2.954732e-03 0.000000e+00 0.0
2.965002e-03 0.000000e+00 0.0
2.968428e-03 0.000000e+00 0.0
2.964930e-03 0.000000e+00 0.0
2.954483e-03 0.000000e+00 0.0
2.937099e-03 0.000000e+00 0.0
2.912818e-03 0.000000e+00 0.0
2.881703e-03 0.000000e+00 0.0
2.843848e-03 0.000000e+00 0.0
2.799375e-03 0.000000e+00 0.0
2.748440e-03 0.000000e+00 0.0
2.691228e-03 0.000000e+00 0.0
2.627963e-03 0.000000e+00 0.0
2.558896e-03 0.000000e+00 0.0
2.484315e-03 0.000000e+00 0.0
2.404539e-03 0.000000e+00 0.0
2.319916e-03 0.000000e+00 0.0
2.230830e-03 0.000000e+00 0.0
2.137691e-03 0.000000e+00 0.0
2.040939e-03 0.000000e+00 0.0
1.941040e-03 0.000000e+00 0.0
1.838481e-03 0.000000e+00 0.0
1.733768e-03 0.000000e+00 0.0
1.627424e-03 0.000000e+00 0.0
1.519981e-03 0.000000e+00 0.0
1.411982e-03 0.000000e+00 0.0
1.303974e-03 0.000000e+00 0.0
1.196508e-03 0.000000e+00 0.0
1.090136e-03 0.000000e+00 0.0
9.854092e-04 0.000000e+00 0.0
8.828756e-04 0.000000e+00 0.0
7.830763e-04 0.000000e+00 0.0
6.865429e-04 0.000000e+00 0.0
5.937945e-04 0.000000e+00 0.0
5.053337e-04 0.000000e+00 0.0
4.216435e-04 0.000000e+00 0.0
3.431841e-04 0.000000e+00 0.0
2.703886e-04 0.000000e+00 0.0
2.036599e-04 0.000000e+00 0.0
1.433663e-04 0.000000e+00 0.0
8.983641e-05 0.000000e+00 0.0
4.335331e-05 0.000000e+00 0.0
4.146716e-06 0.000000e+00 0.0
-2.761678e-05 0.000000e+00 0.0
-5.184703e-05 0.000000e+00 0.0
-6.854919e-05 0.000000e+00 0.0
-7.785011e-05 0.000000e+00 0.0
-8.003729e-05 0.000000e+00 0.0
-7.561788e-05 0.000000e+00 0.0
-6.540914e-05 0.000000e+00 0.0
-5.067963e-05 0.000000e+00 0.0
-3.336580e-05 0.000000e+00 0.0
-1.636624e-05 0.000000e+00 0.0
-3.758206e-06 0.000000e+00 0.0
-0.000000e+00 0.000000e+00 0.0
0.000000e+00 0.000000e+00 0.0
0.000000e+00 -7.679350e-06 0.0
-1.174706e-05 -2.777082e-05 0.0
5.851662e-06 -2.558778e-05 0.0
2.535831e-05 -1.323331e-05 0.0
3.769584e-05 3.907947e-06 0.0
3.728583e-05 1.972472e-05 0.0
2.159022e-05 3.127307e-05 0.0
-9.266031e-06 3.822504e-05 0.0
-5.319984e-05 4.209460e-05 0.0
-1.071507e-04 4.520738e-05 0.0
-1.681089e-04 4.966601e-05 0.0
-2.339194e-04 5.658993e-05 0.0
-3.036574e-04 6.582223e-05 0.0
-3.775168e-04 7.613777e-05 0.0
-4.563182e-04 8.581608e-05 0.0
-5.408630e-04 9.332761e-05 0.0
-6.313910e-04 9.786734e-05 0.0
-7.273287e-04 9.955728e-05 0.0
-8.273797e-04 9.928618e-05 0.0
-9.298772e-04 9.829531e-05 0.0
-1.033227e-03 9.769896e-05 0.0
-1.136269e-03 9.812343e-05 0.0
-1.238436e-03 9.957550e-05 0.0
-1.339686e-03 1.015493e-04 0.0
-1.440285e-03 1.032929e-04 0.0
-1.540515e-03 1.041138e-04 0.0
-1.640452e-03 1.036114e-04 0.0
-1.739849e-03 1.017670e-04 0.0
-1.838166e-03 9.888884e-05 0.0
-1.934686e-03 9.545580e-05 0.0
-2.028681e-03 9.193199e-05 0.0
-2.119547e-03 8.862100e-05 0.0
-2.206876e-03 8.560101e-05 0.0
-2.290449e-03 8.274735e-05 0.0
-2.370174e-03 7.981725e-05 0.0
-2.445996e-03 7.655568e-05 0.0
-2.517817e-03 7.278211e-05 0.0
-2.585449e-03 6.843322e-05 0.0
-2.648616e-03 6.355752e-05 0.0
-2.706972e-03 5.827486e-05 0.0
-2.760159e-03 5.272324e-05 0.0
-2.807834e-03 4.701386e-05 0.0
-2.849709e-03 4.120721e-05 0.0
-2.885547e-03 3.531243e-05 0.0
-2.915164e-03 2.930343e-05 0.0
-2.938405e-03 2.314160e-05 0.0
-2.955137e-03 1.679583e-05 0.0
-2.965235e-03 1.025452e-05 0.0
-2.968587e-03 3.529359e-06 0.0
-2.965100e-03 -3.345430e-06 0.0
-2.954721e-03 -1.031102e-05 0.0
-2.937430e-03 -1.731649e-05 0.0
-2.913243e-03 -2.431428e-05 0.0
-2.882208e-03 -3.125872e-05 0.0
-2.844408e-03 -3.810525e-05 0.0
-2.799960e-03 -4.481034e-05 0.0
-2.749015e-03 -5.133225e-05 0.0
-2.691762e-03 -5.763250e-05 0.0
-2.628424e-03 -6.367722e-05 0.0
-2.559261e-03 -6.943788e-05 0.0
-2.484571e-03 -7.489074e-05 0.0
-2.404684e-03 -8.001532e-05 0.0
-2.319964e-03 -8.479211e-05 0.0
-2.230801e-03 -8.920043e-05 0.0
-2.137612e-03 -9.321702e-05 0.0
-2.040836e-03 -9.681577e-05 0.0
-1.940932e-03 -9.996860e-05 0.0
-1.838379e-03 -1.026473e-04 0.0
-1.733675e-03 -1.048255e-04 0.0
-1.627333e-03 -1.064808e-04 0.0
-1.519883e-03 -1.075958e-04 0.0
-1.411864e-03 -1.081589e-04 0.0
-1.303827e-03 -1.081639e-04 0.0
-1.196328e-03 -1.076097e-04 0.0
-1.089922e-03 -1.064982e-04 0.0
-9.851651e-04 -1.048336e-04 0.0
-8.826077e-04 -1.026221e-04 0.0
-7.827922e-04 -9.987165e-05 0.0
-6.862501e-04 -9.659237e-05 0.0
-5.934992e-04 -9.279680e-05 0.0
-5.050406e-04 -8.850038e-05 0.0
-4.213561e-04 -8.372179e-05 0.0
-3.429044e-04 -7.848335e-05 0.0
-2.701186e-04 -7.281122e-05 0.0
-2.034012e-04 -6.673569e-05 0.0
-1.431207e-04 -6.029157e-05 0.0
-8.960577e-05 -5.351876e-05 0.0
-4.313969e-05 -4.646327e-05 0.0
-3.952271e-06 -3.917873e-05 0.0
2.778996e-05 -3.172862e-05 0.0
5.199721e-05 -2.418970e-05 0.0
6.867524e-05 -1.665743e-05 0.0
7.795156e-05 -9.253497e-06 0.0
8.011453e-05 -2.138654e-06 0.0
7.567211e-05 4.467655e-06 0.0
6.544238e-05 1.025536e-05 0.0
5.069485e-05 1.477302e-05 0.0
3.336682e-05 1.735325e-05 0.0
1.635801e-05 1.703393e-05 0.0
3.748675e-06 1.263425e-05 0.0
0.000000e+00 3.773600e-06 0.0
0.000000e+00 -3.772232e-06 0.0
0.000000e+00 1.564857e-05 0.0
1.366010e-06 -3.714751e-05 0.0
2.579328e-05 -3.518879e-05 0.0
3.947922e-05 -1.259791e-05 0.0
3.161502e-05 2.022768e-05 0.0
-3.850857e-06 5.530416e-05 0.0
-6.893753e-05 8.890034e-05 0.0
-1.628087e-04 1.203421e-04 0.0
-2.830039e-04 1.505796e-04 0.0
-4.265592e-04 1.808810e-04 0.0
-5.908367e-04 2.118854e-04 0.0
-7.739381e-04 2.431831e-04 0.0
-9.746865e-04 2.734393e-04 0.0
-1.192286e-03 3.009160e-04 0.0
-1.425861e-03 3.241262e-04 0.0
-1.674079e-03 3.423481e-04 0.0
-1.935012e-03 3.558089e-04 0.0
-2.206257e-03 3.655079e-04 0.0
-2.485238e-03 3.727871e-04 0.0
-2.769562e-03 3.788432e-04 0.0
-3.057272e-03 3.843670e-04 0.0
-3.346943e-03 3.894205e-04 0.0
-3.637595e-03 3.935559e-04 0.0
-3.928497e-03 3.960916e-04 0.0
-4.218943e-03 3.964211e-04 0.0
-4.508083e-03 3.942405e-04 0.0
-4.794859e-03 3.896287e-04 0.0
-5.078039e-03 3.829780e-04 0.0
-5.356322e-03 3.748276e-04 0.0
-5.628457e-03 3.656750e-04 0.0
-5.893335e-03 3.558348e-04 0.0
-6.150027e-03 3.453843e-04 0.0
-6.397757e-03 3.341984e-04 0.0
-6.635844e-03 3.220439e-04 0.0
-6.863629e-03 3.086895e-04 0.0
-7.080421e-03 2.939895e-04 0.0
-7.285470e-03 2.779203e-04 0.0
-7.477976e-03 2.605670e-04 0.0
-7.657116e-03 2.420777e-04 0.0
-7.822080e-03 2.226094e-04 0.0
-7.972103e-03 2.022862e-04 0.0
-8.106476e-03 1.811812e-04 0.0
-8.224554e-03 1.593215e-04 0.0
-8.325746e-03 1.367082e-04 0.0
-8.409512e-03 1.133412e-04 0.0
-8.475355e-03 8.923799e-05 0.0
-8.522825e-03 6.444444e-05 0.0
-8.551527e-03 3.903689e-05 0.0
-8.561132e-03 1.312055e-05 0.0
-8.551401e-03 -1.317064e-05 0.0
-8.522196e-03 -3.966685e-05 0.0
-8.473483e-03 -6.621672e-05 0.0
-8.405321e-03 -9.267721e-05 0.0
-8.317867e-03 -1.189086e-04 0.0
-8.211368e-03 -1.447727e-04 0.0
-8.086171e-03 -1.701337e-04 0.0
-7.942715e-03 -1.948596e-04 0.0
-7.781538e-03 -2.188239e-04 0.0
-7.603276e-03 -2.419062e-04 0.0
-7.408657e-03 -2.639917e-04 0.0
-7.198504e-03 -2.849697e-04 0.0
-6.973726e-03 -3.047317e-04 0.0
-6.735316e-03 -3.231696e-04 0.0
-6.484346e-03 -3.401757e-04 0.0
-6.221962e-03 -3.556433e-04 0.0
-5.949379e-03 -3.694693e-04 0.0
-5.667878e-03 -3.815563e-04 0.0
-5.378796e-03 -3.918159e-04 0.0
-5.083528e-03 -4.001709e-04 0.0
-4.783512e-03 -4.065567e-04 0.0
-4.480226e-03 -4.109221e-04 0.0
-4.175180e-03 -4.132293e-04 0.0
-3.869903e-03 -4.134535e-04 0.0
-3.565937e-03 -4.115827e-04 0.0
-3.264826e-03 -4.076149e-04 0.0
-2.968111e-03 -4.015573e-04 0.0
-2.677317e-03 -3.934272e-04 0.0
-2.393950e-03 -3.832527e-04 0.0
-2.119486e-03 -3.710727e-04 0.0
-1.855359e-03 -3.569384e-04 0.0
-1.602958e-03 -3.409135e-04 0.0
-1.363613e-03 -3.230747e-04 0.0
-1.138589e-03 -3.035128e-04 0.0
-9.290681e-04 -2.823330e-04 0.0
-7.361452e-04 -2.596569e-04 0.0
-5.608093e-04 -2.356237e-04 0.0
-4.039292e-04 -2.103935e-04 0.0
-2.662348e-04 -1.841516e-04 0.0
-1.482931e-04 -1.571142e-04 0.0
-5.047858e-05 -1.295369e-04 0.0
2.706510e-05 -1.017274e-04 0.0
8.447609e-05 -7.406276e-05 0.0
1.222441e-04 -4.701620e-05 0.0
1.413039e-04 -2.119341e-05 0.0
1.431636e-04 2.612634e-06 0.0
1.300787e-04 2.334465e-05 0.0
1.052770e-04 3.957891e-05 0.0
7.322292e-05 4.941148e-05 0.0
3.985025e-05 5.041055e-05 0.0
1.258560e-05 3.990300e-05 0.0
0.000000e+00 1.636335e-05 0.0
0.000000e+00 -1.636684e-05 0.0
0.000000e+00 3.669988e-05 0.0
7.844657e-06 -3.855934e-05 0.0
2.159682e-05 -3.449810e-05 0.0
1.255668e-05 4.388463e-06 0.0
-2.985034e-05 6.196923e-05 0.0
-1.109579e-04 1.283011e-04 0.0
-2.321588e-04 1.981203e-04 0.0
-3.924098e-04 2.691877e-04 0.0
-5.895682e-04 3.405943e-04 0.0
-8.213601e-04 4.115313e-04 0.0
-1.085858e-03 4.806575e-04 0.0
-1.381487e-03 5.460713e-04 0.0
-1.706709e-03 6.057254e-04 0.0
-2.059615e-03 6.580050e-04 0.0
-2.437643e-03 7.021838e-04 0.0
-2.837562e-03 7.385605e-04 0.0
-3.255707e-03 7.682414e-04 0.0
-3.688370e-03 7.926805e-04 0.0
-4.132176e-03 8.131742e-04 0.0
-4.584321e-03 8.304982e-04 0.0
-5.042600e-03 8.447947e-04 0.0
-5.505259e-03 8.557068e-04 0.0
-5.970748e-03 8.626675e-04 0.0
-6.437494e-03 8.652117e-04 0.0
-6.903753e-03 8.631926e-04 0.0
-7.367586e-03 8.568463e-04 0.0
-7.826944e-03 8.467037e-04 0.0
-8.279798e-03 8.334089e-04 0.0
-8.724266e-03 8.175262e-04 0.0
-9.158686e-03 7.994056e-04 0.0
-9.581615e-03 7.791435e-04 0.0
-9.991775e-03 7.566338e-04 0.0
-1.038797e-02 7.316746e-04 0.0
-1.076899e-02 7.040819e-04 0.0
-1.113360e-02 6.737692e-04 0.0
-1.148049e-02 6.407746e-04 0.0
-1.180834e-02 6.052380e-04 0.0
-1.211581e-02 5.673499e-04 0.0
-1.240165e-02 5.272965e-04 0.0
-1.266464e-02 4.852232e-04 0.0
-1.290368e-02 4.412240e-04 0.0
-1.311772e-02 3.953535e-04 0.0
-1.330579e-02 3.476526e-04 0.0
-1.346696e-02 2.981738e-04 0.0
-1.360038e-02 2.470000e-04 0.0
-1.370526e-02 1.942532e-04 0.0
-1.378087e-02 1.400946e-04 0.0
-1.382662e-02 8.472204e-05 0.0
-1.384200e-02 2.836910e-05 0.0
-1.382666e-02 -2.869144e-05 0.0
-1.378039e-02 -8.613625e-05 0.0
-1.370316e-02 -1.436623e-04 0.0
-1.359505e-02 -2.009765e-04 0.0
-1.345631e-02 -2.577913e-04 0.0
-1.328736e-02 -3.138228e-04 0.0
-1.308874e-02 -3.687919e-04 0.0
-1.286116e-02 -4.224256e-04 0.0
-1.260546e-02 -4.744567e-04 0.0
-1.232267e-02 -5.246238e-04 0.0
-1.201392e-02 -5.726691e-04 0.0
-1.168050e-02 -6.183381e-04 0.0
-1.132384e-02 -6.613786e-04 0.0
-1.094551e-02 -7.015425e-04 0.0
-1.054716e-02 -7.385879e-04 0.0
-1.013062e-02 -7.722834e-04 0.0
-9.697774e-03 -8.024114e-04 0.0
-9.250649e-03 -8.287727e-04 0.0
-8.791349e-03 -8.511889e-04 0.0
-8.322067e-03 -8.695047e-04 0.0
-7.845067e-03 -8.835884e-04 0.0
-7.362673e-03 -8.933332e-04 0.0
-6.877255e-03 -8.986564e-04 0.0
-6.391215e-03 -8.995004e-04 0.0
-5.906974e-03 -8.958333e-04 0.0
-5.426956e-03 -8.876457e-04 0.0
-4.953580e-03 -8.749508e-04 0.0
-4.489241e-03 -8.577855e-04 0.0
-4.036300e-03 -8.362117e-04 0.0
-3.597072e-03 -8.103172e-04 0.0
-3.173806e-03 -7.802169e-04 0.0
-2.768673e-03 -7.460537e-04 0.0
-2.383752e-03 -7.079993e-04 0.0
-2.021009e-03 -6.662563e-04 0.0
-1.682280e-03 -6.210600e-04 0.0
-1.369252e-03 -5.726817e-04 0.0
-1.083438e-03 -5.214332e-04 0.0
-8.261532e-04 -4.676732e-04 0.0
-5.984838e-04 -4.118164e-04 0.0
-4.012475e-04 -3.543461e-04 0.0
-2.349492e-04 -2.958311e-04 0.0
-9.972275e-05 -2.369501e-04 0.0
4.742776e-06 -1.785247e-04 0.0
7.929617e-05 -1.215663e-04 0.0
1.254450e-04 -6.733908e-05 0.0
1.455066e-04 -1.744602e-05 0.0
1.427921e-04 2.606198e-05 0.0
1.218175e-04 6.055633e-05 0.0
8.852007e-05 8.271156e-05 0.0
5.045111e-05 8.848210e-05 0.0
1.698374e-05 7.337312e-05 0.0
0.000000e+00 3.334991e-05 0.0
0.000000e+00 -3.335132e-05 0.0
0.000000e+00 4.692609e-05 0.0
9.812147e-06 -3.165876e-05 0.0
8.972873e-07 -1.694691e-05 0.0
-4.252552e-05 4.717567e-05 0.0
-1.290008e-04 1.400596e-04 0.0
-2.625110e-04 2.496329e-04 0.0
-4.440123e-04 3.683757e-04 0.0
-6.728706e-04 4.915114e-04 0.0
-9.479023e-04 6.154335e-04 0.0
-1.267886e-03 7.368217e-04 0.0
-1.631565e-03 8.524159e-04 0.0
-2.037327e-03 9.592798e-04 0.0
-2.482798e-03 1.055264e-03 0.0
-2.964628e-03 1.139366e-03 0.0
-3.478574e-03 1.211785e-03 0.0
-4.019865e-03 1.273636e-03 0.0
-4.583715e-03 1.326429e-03 0.0
-5.165777e-03 1.371533e-03 0.0
-5.762400e-03 1.409796e-03 0.0
-6.370625e-03 1.441438e-03 0.0
-6.987975e-03 1.466203e-03 0.0
-7.612157e-03 1.483658e-03 0.0
-8.240793e-03 1.493513e-03 0.0
-8.871282e-03 1.495827e-03 0.0
-9.500813e-03 1.491045e-03 0.0
-1.012649e-02 1.479888e-03 0.0
-1.074551e-02 1.463156e-03 0.0
-1.135532e-02 1.441524e-03 0.0
-1.195366e-02 1.415412e-03 0.0
-1.253854e-02 1.384967e-03 0.0
-1.310820e-02 1.350130e-03 0.0
-1.366093e-02 1.310755e-03 0.0
-1.419501e-02 1.266733e-03 0.0
-1.470867e-02 1.218060e-03 0.0
-1.520005e-02 1.164861e-03 0.0
-1.566731e-02 1.107350e-03 0.0
-1.610863e-02 1.045776e-03 0.0
-1.652226e-02 9.803695e-04 0.0
-1.690659e-02 9.113059e-04 0.0
-1.726008e-02 8.387095e-04 0.0
-1.758130e-02 7.626711e-04 0.0
-1.786890e-02 6.832792e-04 0.0
-1.812158e-02 6.006473e-04 0.0
-1.833811e-02 5.149324e-04 0.0
-1.851735e-02 4.263413e-04 0.0
-1.865823e-02 3.351298e-04 0.0
-1.875985e-02 2.415994e-04 0.0
-1.882139e-02 1.460958e-04 0.0
-1.884225e-02 4.901274e-05 0.0
-1.882196e-02 -4.920127e-05 0.0
-1.876028e-02 -1.480303e-04 0.0
-1.865715e-02 -2.469755e-04 0.0
-1.851271e-02 -3.455493e-04 0.0
-1.832730e-02 -4.432712e-04 0.0
-1.810146e-02 -5.396676e-04 0.0
-1.783593e-02 -6.342702e-04 0.0
-1.753165e-02 -7.266164e-04 0.0
-1.718977e-02 -8.162472e-04 0.0
-1.681162e-02 -9.027064e-04 0.0
-1.639872e-02 -9.855406e-04 0.0
-1.595277e-02 -1.064300e-03 0.0
-1.547568e-02 -1.138542e-03 0.0
-1.496948e-02 -1.207835e-03 0.0
-1.443641e-02 -1.271767e-03 0.0
-1.387886e-02 -1.329947e-03 0.0
-1.329935e-02 -1.382011e-03 0.0
-1.270056e-02 -1.427630e-03 0.0
-1.208528e-02 -1.466507e-03 0.0
-1.145643e-02 -1.498382e-03 0.0
-1.081699e-02 -1.523032e-03 0.0
-1.017006e-02 -1.540273e-03 0.0
-9.518762e-03 -1.549961e-03 0.0
-8.866283e-03 -1.551992e-03 0.0
-8.215828e-03 -1.546307e-03 0.0
-7.570606e-03 -1.532889e-03 0.0
-6.933821e-03 -1.511759e-03 0.0
-6.308643e-03 -1.482984e-03 0.0
-5.698199e-03 -1.446672e-03 0.0
-5.105549e-03 -1.402979e-03 0.0
-4.533665e-03 -1.352108e-03 0.0
-3.985413e-03 -1.294308e-03 0.0
-3.463530e-03 -1.229882e-03 0.0
-2.970599e-03 -1.159186e-03 0.0
-2.509024e-03 -1.082632e-03 0.0
-2.081005e-03 -1.000698e-03 0.0
-1.688504e-03 -9.139318e-04 0.0
-1.333210e-03 -8.229645e-04 0.0
-1.016501e-03 -7.285235e-04 0.0
-7.393926e-04 -6.314534e-04 0.0
-5.024802e-04 -5.327422e-04 0.0
-3.058713e-04 -4.335578e-04 0.0
-1.490988e-04 -3.352961e-04 0.0
-3.101807e-05 -2.396460e-04 0.0
5.031750e-05 -1.486735e-04 0.0
9.780184e-05 -6.492919e-05 0.0
1.154441e-04 8.421034e-06 0.0
1.085466e-04 6.745516e-05 0.0
8.389338e-05 1.073659e-04 0.0
4.997705e-05 1.223997e-04 0.0
1.741189e-05 1.059397e-04 0.0
0.000000e+00 5.076326e-05 0.0
0.000000e+00 -5.075606e-05 0.0
0.000000e+00 4.204362e-05 0.0
6.075909e-06 -1.768259e-05 0.0
-3.192898e-05 2.127343e-05 0.0
-1.156330e-04 1.227083e-04 0.0
-2.508843e-04 2.630560e-04 0.0
-4.403634e-04 4.278611e-04 0.0
-6.849688e-04 6.067651e-04 0.0
-9.848352e-04 7.918936e-04 0.0
-1.339826e-03 9.767034e-04 0.0
-1.749493e-03 1.155554e-03 0.0
-2.212697e-03 1.323802e-03 0.0
-2.727165e-03 1.478131e-03 0.0
-3.289272e-03 1.616788e-03 0.0
-3.894178e-03 1.739535e-03 0.0
-4.536305e-03 1.847260e-03 0.0
-5.209960e-03 1.941375e-03 0.0
-5.909907e-03 2.023221e-03 0.0
-6.631682e-03 2.093652e-03 0.0
-7.371594e-03 2.152924e-03 0.0
-8.126489e-03 2.200854e-03 0.0
-8.893389e-03 2.237136e-03 0.0
-9.669192e-03 2.261662e-03 0.0
-1.045051e-02 2.274717e-03 0.0
-1.123371e-02 2.276995e-03 0.0
-1.201508e-02 2.269452e-03 0.0
-1.279102e-02 2.253087e-03 0.0
-1.355826e-02 2.228730e-03 0.0
-1.431393e-02 2.196917e-03 0.0
-1.505548e-02 2.157881e-03 0.0
-1.578062e-02 2.111641e-03 0.0
-1.648713e-02 2.058142e-03 0.0
-1.717278e-02 1.997376e-03 0.0
-1.783529e-02 1.929454e-03 0.0
-1.847228e-02 1.854610e-03 0.0
-1.908139e-02 1.773156e-03 0.0
-1.966031e-02 1.685421e-03 0.0
-2.020685e-02 1.591691e-03 0.0
-2.071893e-02 1.492189e-03 0.0
-2.119464e-02 1.387078e-03 0.0
-2.163212e-02 1.276495e-03 0.0
-2.202966e-02 1.160583e-03 0.0
-2.238556e-02 1.039521e-03 0.0
-2.269824e-02 9.135454e-04 0.0
-2.296618e-02 7.829506e-04 0.0
-2.318798e-02 6.480899e-04 0.0
-2.336237e-02 5.093713e-04 0.0
-2.348824e-02 3.672576e-04 0.0
-2.356465e-02 2.222694e-04 0.0
-2.359088e-02 7.499258e-05 0.0
-2.356639e-02 -7.391396e-05 0.0
-2.349089e-02 -2.237081e-04 0.0
-2.336431e-02 -3.736602e-04 0.0
-2.318684e-02 -5.230517e-04 0.0
-2.295891e-02 -6.711721e-04 0.0
-2.268118e-02 -8.173162e-04 0.0
-2.235456e-02 -9.607820e-04 0.0
-2.198021e-02 -1.100869e-03 0.0
-2.155952e-02 -1.236875e-03 0.0
-2.109412e-02 -1.368101e-03 0.0
-2.058586e-02 -1.493851e-03 0.0
-2.003682e-02 -1.613436e-03 0.0
-1.944929e-02 -1.726186e-03 0.0
-1.882580e-02 -1.831454e-03 0.0
-1.816906e-02 -1.928624e-03 0.0
-1.748198e-02 -2.017116e-03 0.0
-1.676765e-02 -2.096393e-03 0.0
-1.602935e-02 -2.165966e-03 0.0
-1.527048e-02 -2.225391e-03 0.0
-1.449459e-02 -2.274278e-03 0.0
-1.370533e-02 -2.312290e-03 0.0
-1.290647e-02 -2.339147e-03 0.0
-1.210182e-02 -2.354626e-03 0.0
-1.129527e-02 -2.358569e-03 0.0
-1.049072e-02 -2.350885e-03 0.0
-9.692087e-03 -2.331547e-03 0.0
-8.903278e-03 -2.300590e-03 0.0
-8.128161e-03 -2.258117e-03 0.0
-7.370547e-03 -2.204298e-03 0.0
-6.634161e-03 -2.139371e-03 0.0
-5.922622e-03 -2.063649e-03 0.0
-5.239413e-03 -1.977517e-03 0.0
-4.587856e-03 -1.881439e-03 0.0
-3.971078e-03 -1.775963e-03 0.0
-3.391986e-03 -1.661724e-03 0.0
-2.853227e-03 -1.539457e-03 0.0
-2.357155e-03 -1.410005e-03 0.0
-1.905783e-03 -1.274338e-03 0.0
-1.500740e-03 -1.133569e-03 0.0
-1.143210e-03 -9.889854e-04 0.0
-8.338704e-04 -8.420832e-04 0.0
-5.728168e-04 -6.946130e-04 0.0
-3.594717e-04 -5.486424e-04 0.0
-1.924846e-04 -4.066340e-04 0.0
-6.961403e-05 -2.715446e-04 0.0
1.240313e-05 -1.469467e-04 0.0
5.799352e-05 -3.716925e-05 0.0
7.290167e-05 5.254707e-05 0.0
6.436865e-05 1.158988e-04 0.0
4.138260e-05 1.453860e-04 0.0
1.514269e-05 1.321798e-04 0.0
0.000000e+00 6.590618e-05 0.0
0.000000e+00 -6.588509e-05 0.0
0.000000e+00 2.128018e-05 0.0
-3.628969e-06 2.331691e-06 0.0
-7.282966e-05 8.290303e-05 0.0
-1.985937e-04 2.362604e-04 0.0
-3.842281e-04 4.372554e-04 0.0
-6.314832e-04 6.688234e-04 0.0
-9.414759e-04 9.175195e-04 0.0
-1.315067e-03 1.172366e-03 0.0
-1.752733e-03 1.424255e-03 0.0
-2.254083e-03 1.665894e-03 0.0
-2.817330e-03 1.892005e-03 0.0
-3.439004e-03 2.099445e-03 0.0
-4.114089e-03 2.287039e-03 0.0
-4.836546e-03 2.455076e-03 0.0
-5.600043e-03 2.604605e-03 0.0
-6.398620e-03 2.736744e-03 0.0
-7.227091e-03 2.852220e-03 0.0
-8.081095e-03 2.951228e-03 0.0
-8.956841e-03 3.033586e-03 0.0
-9.850728e-03 3.099064e-03 0.0
-1.075900e-02 3.147705e-03 0.0
-1.167756e-02 3.180010e-03 0.0
-1.260203e-02 3.196932e-03 0.0
-1.352792e-02 3.199691e-03 0.0
-1.445087e-02 3.189525e-03 0.0
-1.536693e-02 3.167459e-03 0.0
-1.627254e-02 3.134185e-03 0.0
-1.716459e-02 3.090061e-03 0.0
-1.804023e-02 3.035226e-03 0.0
-1.889675e-02 2.969747e-03 0.0
-1.973139e-02 2.893748e-03 0.0
-2.054135e-02 2.807482e-03 0.0
-2.132377e-02 2.711323e-03 0.0
-2.207577e-02 2.605707e-03 0.0
-2.279458e-02 2.491063e-03 0.0
-2.347753e-02 2.367756e-03 0.0
-2.412214e-02 2.236071e-03 0.0
-2.472605e-02 2.096225e-03 0.0
-2.528703e-02 1.948412e-03 0.0
-2.580295e-02 1.792836e-03 0.0
-2.627177e-02 1.629747e-03 0.0
-2.669149e-02 1.459463e-03 0.0
-2.706026e-02 1.282365e-03 0.0
-2.737629e-02 1.098904e-03 0.0
-2.763798e-02 9.095910e-04 0.0
-2.784386e-02 7.150054e-04 0.0
-2.799267e-02 5.157942e-04 0.0
-2.808335e-02 3.126814e-04 0.0
-2.811506e-02 1.064747e-04 0.0
-2.808721e-02 -1.019280e-04 0.0
-2.799947e-02 -3.115323e-04 0.0
-2.785178e-02 -5.213491e-04 0.0
-2.764437e-02 -7.303975e-04 0.0
-2.737773e-02 -9.376998e-04 0.0
-2.705265e-02 -1.142278e-03 0.0
-2.667019e-02 -1.343151e-03 0.0
-2.623168e-02 -1.539332e-03 0.0
-2.573874e-02 -1.729832e-03 0.0
-2.519325e-02 -1.913666e-03 0.0
-2.459737e-02 -2.089855e-03 0.0
-2.395350e-02 -2.257441e-03 0.0
-2.326432e-02 -2.415496e-03 0.0
-2.253276e-02 -2.563127e-03 0.0
-2.176198e-02 -2.699486e-03 0.0
-2.095537e-02 -2.823778e-03 0.0
-2.011652e-02 -2.935261e-03 0.0
-1.924924e-02 -3.033256e-03 0.0
-1.835748e-02 -3.117149e-03 0.0
-1.744537e-02 -3.186393e-03 0.0
-1.651716e-02 -3.240515e-03 0.0
-1.557721e-02 -3.279123e-03 0.0
-1.462995e-02 -3.301907e-03 0.0
-1.367991e-02 -3.308644e-03 0.0
-1.273161e-02 -3.299206e-03 0.0
-1.178963e-02 -3.273557e-03 0.0
-1.085848e-02 -3.231750e-03 0.0
-9.942678e-03 -3.173931e-03 0.0
-9.046642e-03 -3.100340e-03 0.0
-8.174698e-03 -3.011318e-03 0.0
-7.331046e-03 -2.907303e-03 0.0
-6.519723e-03 -2.788842e-03 0.0
-5.744574e-03 -2.656591e-03 0.0
-5.009217e-03 -2.511324e-03 0.0
-4.317006e-03 -2.353940e-03 0.0
-3.670990e-03 -2.185478e-03 0.0
-3.073872e-03 -2.007129e-03 0.0
-2.527957e-03 -1.820258e-03 0.0
-2.035102e-03 -1.626429e-03 0.0
-1.596654e-03 -1.427438e-03 0.0
-1.213381e-03 -1.225360e-03 0.0
-8.853976e-04 -1.022600e-03 0.0
-6.120765e-04 -8.219665e-04 0.0
-3.919546e-04 -6.267582e-04 0.0
-2.226274e-04 -4.408736e-04 0.0
-1.006357e-04 -2.689396e-04 0.0
-2.134557e-05 -1.164600e-04 0.0
2.118317e-05 1.001742e-05 0.0
3.436068e-05 1.027203e-04 0.0
2.729981e-05 1.524461e-04 0.0
1.120288e-05 1.482760e-04 0.0
0.000000e+00 7.710825e-05 0.0
0.000000e+00 -7.706904e-05 0.0
0.000000e+00 -1.372860e-05 0.0
-1.824074e-05 2.852757e-05 0.0
-1.177513e-04 1.702696e-04 0.0
-2.848727e-04 3.915838e-04 0.0
-5.209605e-04 6.665659e-04 0.0
-8.271961e-04 9.755118e-04 0.0
-1.204866e-03 1.302106e-03 0.0
-1.655061e-03 1.632823e-03 0.0
-2.178061e-03 1.956814e-03 0.0
-2.772661e-03 2.266007e-03 0.0
-3.435783e-03 2.555139e-03 0.0
-4.162537e-03 2.821486e-03 0.0
-4.946743e-03 3.064249e-03 0.0
-5.781703e-03 3.283731e-03 0.0
-6.660948e-03 3.480550e-03 0.0
-7.578717e-03 3.655093e-03 0.0
-8.530064e-03 3.807333e-03 0.0
-9.510628e-03 3.936969e-03 0.0
-1.051624e-02 4.043748e-03 0.0
-1.154255e-02 4.127791e-03 0.0
-1.258485e-02 4.189769e-03 0.0
-1.363806e-02 4.230865e-03 0.0
-1.469701e-02 4.252565e-03 0.0
-1.575665e-02 4.256366e-03 0.0
-1.681232e-02 4.243520e-03 0.0
-1.785984e-02 4.214911e-03 0.0
-1.889550e-02 4.171062e-03 0.0
-1.991590e-02 4.112266e-03 0.0
-2.091778e-02 4.038746e-03 0.0
-2.189788e-02 3.950795e-03 0.0
-2.285289e-02 3.848837e-03 0.0
-2.377944e-02 3.733412e-03 0.0
-2.467418e-02 3.605106e-03 0.0
-2.553386e-02 3.464474e-03 0.0
-2.635538e-02 3.311985e-03 0.0
-2.713581e-02 3.148007e-03 0.0
-2.787239e-02 2.972830e-03 0.0
-2.856250e-02 2.786715e-03 0.0
-2.920359e-02 2.589941e-03 0.0
-2.979324e-02 2.382835e-03 0.0
-3.032908e-02 2.165794e-03 0.0
-3.080887e-02 1.939289e-03 0.0
-3.123048e-02 1.703863e-03 0.0
-3.159192e-02 1.460127e-03 0.0
-3.189137e-02 1.208771e-03 0.0
-3.212723e-02 9.505614e-04 0.0
-3.229807e-02 6.863564e-04 0.0
-3.240273e-02 4.171079e-04 0.0
-3.244027e-02 1.438690e-04 0.0
-3.241006e-02 -1.322022e-04 0.0
-3.231172e-02 -4.098374e-04 0.0
-3.214521e-02 -6.877610e-04 0.0
-3.191078e-02 -9.646963e-04 0.0
-3.160899e-02 -1.239360e-03 0.0
-3.124073e-02 -1.510459e-03 0.0
-3.080717e-02 -1.776687e-03 0.0
-3.030982e-02 -2.036733e-03 0.0
-2.975047e-02 -2.289281e-03 0.0
-2.913125e-02 -2.533026e-03 0.0
-2.845457e-02 -2.766682e-03 0.0
-2.772316e-02 -2.988991e-03 0.0
-2.694002e-02 -3.198740e-03 0.0
-2.610845e-02 -3.394763e-03 0.0
-2.523202e-02 -3.575952e-03 0.0
-2.431455e-02 -3.741264e-03 0.0
-2.336009e-02 -3.889725e-03 0.0
-2.237291e-02 -4.020440e-03 0.0
-2.135747e-02 -4.132595e-03 0.0
-2.031841e-02 -4.225467e-03 0.0
-1.926052e-02 -4.298431e-03 0.0
-1.818871e-02 -4.350968e-03 0.0
-1.710798e-02 -4.382669e-03 0.0
-1.602341e-02 -4.393241e-03 0.0
-1.494013e-02 -4.382514e-03 0.0
-1.386326e-02 -4.350442e-03 0.0
-1.279792e-02 -4.297099e-03 0.0
-1.174918e-02 -4.222679e-03 0.0
-1.072202e-02 -4.127504e-03 0.0
-9.721315e-03 -4.012026e-03 0.0
-8.751793e-03 -3.876832e-03 0.0
-7.817993e-03 -3.722650e-03 0.0
-6.924237e-03 -3.550355e-03 0.0
-6.074590e-03 -3.360981e-03 0.0
-5.272814e-03 -3.155726e-03 0.0
-4.522327e-03 -2.935975e-03 0.0
-3.826154e-03 -2.703312e-03 0.0
-3.186876e-03 -2.459545e-03 0.0
-2.606571e-03 -2.206742e-03 0.0
-2.086752e-03 -1.947264e-03 0.0
-1.628302e-03 -1.683817e-03 0.0
-1.231395e-03 -1.419512e-03 0.0
-8.954175e-04 -1.157948e-03 0.0
-6.188816e-04 -9.032969e-04 0.0
-3.993334e-04 -6.604239e-04 0.0
-2.332576e-04 -4.350169e-04 0.0
-1.159776e-04 -2.337410e-04 0.0
-4.154797e-05 -6.441388e-05 0.0
-2.620107e-06 6.379070e-05 0.0
9.736789e-06 1.400876e-04 0.0
6.293209e-06 1.517180e-04 0.0
0.000000e+00 8.339978e-05 0.0
0.000000e+00 -8.333913e-05 0.0
0.000000e+00 -6.019429e-05 0.0
-3.551206e-05 6.228533e-05 0.0
-1.629039e-04 2.853302e-04 0.0
-3.697456e-04 5.908399e-04 0.0
-6.560545e-04 9.525273e-04 0.0
-1.022537e-03 1.348363e-03 0.0
-1.470203e-03 1.759845e-03 0.0
-1.999553e-03 2.171860e-03 0.0
-2.609746e-03 2.572816e-03 0.0
-3.298055e-03 2.954623e-03 0.0
-4.059818e-03 3.312364e-03 0.0
-4.888897e-03 3.643596e-03 0.0
-5.778443e-03 3.947418e-03 0.0
-6.721677e-03 4.223583e-03 0.0
-7.712426e-03 4.471856e-03 0.0
-8.745277e-03 4.691769e-03 0.0
-9.815379e-03 4.882723e-03 0.0
-1.091806e-02 5.044302e-03 0.0
-1.204843e-02 5.176591e-03 0.0
-1.320122e-02 5.280338e-03 0.0
-1.437076e-02 5.356897e-03 0.0
-1.555124e-02 5.407982e-03 0.0
-1.673698e-02 5.435339e-03 0.0
-1.792269e-02 5.440463e-03 0.0
-1.910360e-02 5.424452e-03 0.0
-2.027541e-02 5.388027e-03 0.0
-2.143415e-02 5.331669e-03 0.0
-2.257604e-02 5.255792e-03 0.0
-2.369729e-02 5.160887e-03 0.0
-2.479406e-02 5.047579e-03 0.0
-2.586251e-02 4.916602e-03 0.0
-2.689879e-02 4.768721e-03 0.0
-2.789922e-02 4.604643e-03 0.0
-2.886026e-02 4.424965e-03 0.0
-2.977856e-02 4.230161e-03 0.0
-3.065095e-02 4.020618e-03 0.0
-3.147439e-02 3.796684e-03 0.0
-3.224596e-02 3.558722e-03 0.0
-3.296283e-02 3.307147e-03 0.0
-3.362226e-02 3.042441e-03 0.0
-3.422161e-02 2.765161e-03 0.0
-3.475840e-02 2.475939e-03 0.0
-3.523025e-02 2.175482e-03 0.0
-3.563501e-02 1.864579e-03 0.0
-3.597067e-02 1.544113e-03 0.0
-3.623546e-02 1.215062e-03 0.0
-3.642784e-02 8.785141e-04 0.0
-3.654653e-02 5.356669e-04 0.0
-3.659053e-02 1.878358e-04 0.0
-3.655912e-02 -1.635428e-04 0.0
-3.645193e-02 -5.169035e-04 0.0
-3.626889e-02 -8.706538e-04 0.0
-3.601028e-02 -1.223184e-03 0.0
-3.567670e-02 -1.572866e-03 0.0
-3.526912e-02 -1.918050e-03 0.0
-3.478881e-02 -2.257071e-03 0.0
-3.423742e-02 -2.588256e-03 0.0
-3.361692e-02 -2.909939e-03 0.0
-3.292963e-02 -3.220468e-03 0.0
-3.217822e-02 -3.518222e-03 0.0
-3.136568e-02 -3.801623e-03 0.0
-3.049533e-02 -4.069142e-03 0.0
-2.957081e-02 -4.319312e-03 0.0
-2.859603e-02 -4.550735e-03 0.0
-2.757520e-02 -4.762090e-03 0.0
-2.651279e-02 -4.952140e-03 0.0
-2.541350e-02 -5.119749e-03 0.0
-2.428224e-02 -5.263882e-03 0.0
-2.312411e-02 -5.383622e-03 0.0
-2.194440e-02 -5.478176e-03 0.0
-2.074852e-02 -5.546885e-03 0.0
-1.954198e-02 -5.589232e-03 0.0
-1.833040e-02 -5.604846e-03 0.0
-1.711942e-02 -5.593512e-03 0.0
-1.591470e-02 -5.555170e-03 0.0
-1.472190e-02 -5.489914e-03 0.0
-1.354659e-02 -5.397994e-03 0.0
-1.239428e-02 -5.279819e-03 0.0