# vtk DataFile Version 3.0
Vector Field
ASCII
DATASET RECTILINEAR_GRID
DIMENSIONS 102 102 1
X_COORDINATES 102 double
0.000000 0.100000 0.200000 0.300000 0.400000 0.500000 0.600000 0.700000 0.800000 0.900000 1.000000 1.100000 1.200000 1.300000 1.400000 1.500000 1.600000 1.700000 1.800000 1.900000 2.000000 2.100000 2.200000 2.300000 2.400000 2.500000 2.600000 2.700000 2.800000 2.900000 3.000000 3.100000 3.200000 3.300000 3.400000 3.500000 3.600000 3.700000 3.800000 3.900000 4.000000 4.100000 4.200000 4.300000 4.400000 4.500000 4.600000 4.700000 4.800000 4.900000 5.000000 5.100000 5.200000 5.300000 5.400000 5.500000 5.600000 5.700000 5.800000 5.900000 6.000000 6.100000 6.200000 6.300000 6.400000 6.500000 6.600000 6.700000 6.800000 6.900000 7.000000 7.100000 7.200000 7.300000 7.400000 7.500000 7.600000 7.700000 7.800000 7.900000 8.000000 8.100000 8.200000 8.300000 8.400000 8.500000 8.600000 8.700000 8.800000 8.900000 9.000000 9.100000 9.200000 9.300000 9.400000 9.500000 9.600000 9.700000 9.800000 9.900000 10.000000 10.100000 
Y_COORDINATES 102 double
0.000000 0.100000 0.200000 0.300000 0.400000 0.500000 0.600000 0.700000 0.800000 0.900000 1.000000 1.100000 1.200000 1.300000 1.400000 1.500000 1.600000 1.700000 1.800000 1.900000 2.000000 2.100000 2.200000 2.300000 2.400000 2.500000 2.600000 2.700000 2.800000 2.900000 3.000000 3.100000 3.200000 3.300000 3.400000 3.500000 3.600000 3.700000 3.800000 3.900000 4.000000 4.100000 4.200000 4.300000 4.400000 4.500000 4.600000 4.700000 4.800000 4.900000 5.000000 5.100000 5.200000 5.300000 5.400000 5.500000 5.600000 5.700000 5.800000 5.900000 6.000000 6.100000 6.200000 6.300000 6.400000 6.500000 6.600000 6.700000 6.800000 6.900000 7.000000 7.100000 7.200000 7.300000 7.400000 7.500000 7.600000 7.700000 7.800000 7.900000 8.000000 8.100000 8.200000 8.300000 8.400000 8.500000 8.600000 8.700000 8.800000 8.900000 9.000000 9.100000 9.200000 9.300000 9.400000 9.500000 9.600000 9.700000 9.800000 9.900000 10.000000 10.100000 
Z_COORDINATES 1 double
0.0
POINT_DATA 10404
VECTORS Velocity double
0.000000e+00 0.000000e+00 0.0
-3.242219e-05 0.000000e+00 0.0
-5.078185e-05 0.000000e+00 0.0
-6.067555e-05 0.000000e+00 0.0
-6.062081e-05 0.000000e+00 0.0
-5.157688e-05 0.000000e+00 0.0
-3.404458e-05 0.000000e+00 0.0
-6.851225e-06 0.000000e+00 0.0
3.234247e-05 0.000000e+00 0.0
8.575188e-05 0.000000e+00 0.0
1.543545e-04 0.000000e+00 0.0
2.375018e-04 0.000000e+00 0.0
3.332726e-04 0.000000e+00 0.0
4.392111e-04 0.000000e+00 0.0
5.530181e-04 0.000000e+00 0.0
6.729237e-04 0.000000e+00 0.0
7.977166e-04 0.000000e+00 0.0
9.265687e-04 0.000000e+00 0.0
1.058834e-03 0.000000e+00 0.0
1.193925e-03 0.000000e+00 0.0
1.331275e-03 0.000000e+00 0.0
1.470334e-03 0.000000e+00 0.0
1.610551e-03 0.000000e+00 0.0
1.751330e-03 0.000000e+00 0.0
1.891988e-03 0.000000e+00 0.0
2.031757e-03 0.000000e+00 0.0
2.169834e-03 0.000000e+00 0.0
2.305464e-03 0.000000e+00 0.0
2.438020e-03 0.000000e+00 0.0
2.567026e-03 0.000000e+00 0.0
2.692140e-03 0.000000e+00 0.0
2.813079e-03 0.000000e+00 0.0
2.929539e-03 0.000000e+00 0.0
3.041139e-03 0.000000e+00 0.0
3.147406e-03 0.000000e+00 0.0
3.247800e-03 0.000000e+00 0.0
3.341760e-03 0.000000e+00 0.0
3.428756e-03 0.000000e+00 0.0
3.508317e-03 0.000000e+00 0.0
3.580038e-03 0.000000e+00 0.0
3.643571e-03 0.000000e+00 0.0
3.698595e-03 0.000000e+00 0.0
3.744801e-03 0.000000e+00 0.0
3.781880e-03 0.000000e+00 0.0
3.809519e-03 0.000000e+00 0.0
3.827424e-03 0.000000e+00 0.0
3.835331e-03 0.000000e+00 0.0
3.833040e-03 0.000000e+00 0.0
3.820448e-03 0.000000e+00 0.0
3.797541e-03 0.000000e+00 0.0
3.764376e-03 0.000000e+00 0.0
3.721076e-03 0.000000e+00 0.0
3.667819e-03 0.000000e+00 0.0
3.604832e-03 0.000000e+00 0.0
3.532391e-03 0.000000e+00 0.0
3.450822e-03 0.000000e+00 0.0
3.360502e-03 0.000000e+00 0.0
3.261858e-03 0.000000e+00 0.0
3.155369e-03 0.000000e+00 0.0
3.041564e-03 0.000000e+00 0.0
2.921018e-03 0.000000e+00 0.0
2.794352e-03 0.000000e+00 0.0
2.662227e-03 0.000000e+00 0.0
2.525340e-03 0.000000e+00 0.0
2.384419e-03 0.000000e+00 0.0
2.240224e-03 0.000000e+00 0.0
2.093538e-03 0.000000e+00 0.0
1.945164e-03 0.000000e+00 0.0
1.795919e-03 0.000000e+00 0.0
1.646629e-03 0.000000e+00 0.0
1.498118e-03 0.000000e+00 0.0
1.351209e-03 0.000000e+00 0.0
1.206716e-03 0.000000e+00 0.0
1.065440e-03 0.000000e+00 0.0
9.281654e-04 0.000000e+00 0.0
7.956544e-04 0.000000e+00 0.0
6.686424e-04 0.000000e+00 0.0
5.478333e-04 0.000000e+00 0.0
4.338946e-04 0.000000e+00 0.0
3.274522e-04 0.000000e+00 0.0
2.290852e-04 0.000000e+00 0.0
1.393202e-04 0.000000e+00 0.0
5.862587e-05 0.000000e+00 0.0
-1.259368e-05 0.000000e+00 0.0
-7.400541e-05 0.000000e+00 0.0
-1.253560e-04 0.000000e+00 0.0
-1.664811e-04 0.000000e+00 0.0
-1.973169e-04 0.000000e+00 0.0
-2.179136e-04 0.000000e+00 0.0
-2.284535e-04 0.000000e+00 0.0
-2.292755e-04 0.000000e+00 0.0
-2.209054e-04 0.000000e+00 0.0
-2.040991e-04 0.000000e+00 0.0
-1.799015e-04 0.000000e+00 0.0
-1.497285e-04 0.000000e+00 0.0
-1.154842e-04 0.000000e+00 0.0
-7.972128e-05 0.000000e+00 0.0
-4.583969e-05 0.000000e+00 0.0
-1.823282e-05 0.000000e+00 0.0
-1.938081e-06 0.000000e+00 0.0
-0.000000e+00 0.000000e+00 0.0
0.000000e+00 0.000000e+00 0.0
0.000000e+00 -1.038524e-05 0.0
3.616202e-06 -1.825613e-05 0.0
1.311339e-05 -3.843252e-05 0.0
3.168499e-05 -3.828389e-05 0.0
4.999478e-05 -2.133239e-05 0.0
5.941988e-05 3.145730e-06 0.0
5.308662e-05 2.737052e-05 0.0
2.726408e-05 4.663768e-05 0.0
-1.830966e-05 5.981340e-05 0.0
-8.129665e-05 6.841337e-05 0.0
-1.582545e-04 7.499477e-05 0.0
-2.459916e-04 8.171716e-05 0.0
-3.422846e-04 8.961292e-05 0.0
-4.459082e-04 9.861275e-05 0.0
-5.562545e-04 1.080112e-04 0.0
-6.729018e-04 1.169765e-04 0.0
-7.953559e-04 1.248580e-04 0.0
-9.229937e-04 1.312604e-04 0.0
-1.055109e-03 1.359958e-04 0.0
-1.190950e-03 1.390365e-04 0.0
-1.329700e-03 1.405142e-04 0.0
-1.470442e-03 1.407322e-04 0.0
-1.612166e-03 1.401309e-04 0.0
-1.753841e-03 1.391800e-04 0.0
-1.894538e-03 1.382300e-04 0.0
-2.033543e-03 1.373968e-04 0.0
-2.170392e-03 1.365352e-04 0.0
-2.304815e-03 1.353193e-04 0.0
-2.436615e-03 1.333910e-04 0.0
-2.565534e-03 1.305076e-04 0.0
-2.691171e-03 1.266268e-04 0.0
-2.812967e-03 1.219001e-04 0.0
-2.930264e-03 1.165905e-04 0.0
-3.042393e-03 1.109603e-04 0.0
-3.148754e-03 1.051771e-04 0.0
-3.248858e-03 9.927255e-05 0.0
-3.342322e-03 9.315960e-05 0.0
-3.428825e-03 8.668939e-05 0.0
-3.508065e-03 7.971959e-05 0.0
-3.579710e-03 7.216645e-05 0.0
-3.643386e-03 6.402586e-05 0.0
-3.698680e-03 5.536307e-05 0.0
-3.745170e-03 4.628197e-05 0.0
-3.782452e-03 3.688958e-05 0.0
-3.810171e-03 2.726950e-05 0.0
-3.828035e-03 1.747188e-05 0.0
-3.835826e-03 7.520725e-06 0.0
-3.833397e-03 -2.565508e-06 0.0
-3.820692e-03 -1.274229e-05 0.0
-3.797722e-03 -2.296244e-05 0.0
-3.764547e-03 -3.317317e-05 0.0
-3.721274e-03 -4.331035e-05 0.0
-3.668058e-03 -5.330272e-05 0.0
-3.605107e-03 -6.307880e-05 0.0
-3.532686e-03 -7.257246e-05 0.0
-3.451119e-03 -8.172511e-05 0.0
-3.360785e-03 -9.048495e-05 0.0
-3.262118e-03 -9.880449e-05 0.0
-3.155604e-03 -1.066381e-04 0.0
-3.041774e-03 -1.139407e-04 0.0
-2.921205e-03 -1.206675e-04 0.0
-2.794517e-03 -1.267753e-04 0.0
-2.662371e-03 -1.322240e-04 0.0
-2.525462e-03 -1.369771e-04 0.0
-2.384524e-03 -1.410027e-04 0.0
-2.240315e-03 -1.442733e-04 0.0
-2.093620e-03 -1.467655e-04 0.0
-1.945242e-03 -1.484599e-04 0.0
-1.795995e-03 -1.493412e-04 0.0
-1.646703e-03 -1.493996e-04 0.0
-1.498189e-03 -1.486314e-04 0.0
-1.351272e-03 -1.470376e-04 0.0
-1.206768e-03 -1.446246e-04 0.0
-1.065476e-03 -1.414041e-04 0.0
-9.281829e-04 -1.373938e-04 0.0
-7.956516e-04 -1.326168e-04 0.0
-6.686198e-04 -1.271021e-04 0.0
-5.477933e-04 -1.208835e-04 0.0
-4.338411e-04 -1.139997e-04 0.0
-3.273898e-04 -1.064938e-04 0.0
-2.290184e-04 -9.841334e-05 0.0
-1.392530e-04 -8.981030e-05 0.0
-5.856099e-05 -8.074172e-05 0.0
1.265492e-05 -7.127045e-05 0.0
7.406295e-05 -6.146599e-05 0.0
1.254106e-04 -5.140670e-05 0.0
1.665340e-04 -4.118096e-05 0.0
1.973689e-04 -3.088897e-05 0.0
2.179649e-04 -2.064521e-05 0.0
2.285039e-04 -1.058292e-05 0.0
2.293239e-04 -8.590856e-07 0.0
2.209505e-04 8.338210e-06 0.0
2.041395e-04 1.677849e-05 0.0
1.799360e-04 2.417281e-05 0.0
1.497563e-04 3.014981e-05 0.0
1.155051e-04 3.422168e-05 0.0
7.973534e-05 3.574005e-05 0.0
4.584801e-05 3.385776e-05 0.0
1.823774e-05 2.758101e-05 0.0
1.941911e-06 1.626638e-05 0.0
0.000000e+00 1.912495e-06 0.0
0.000000e+00 -1.922366e-06 0.0
0.000000e+00 1.423100e-05 0.0
4.721231e-06 -5.287924e-05 0.0
3.692797e-05 -7.269254e-05 0.0
6.625919e-05 -5.422359e-05 0.0
7.530287e-05 -1.064271e-05 0.0
5.156882e-05 4.343876e-05 0.0
-1.190066e-05 9.844968e-05 0.0
-1.170915e-04 1.498550e-04 0.0
-2.624464e-04 1.968937e-04 0.0
-4.445988e-04 2.406587e-04 0.0
-6.597974e-04 2.824165e-04 0.0
-9.046750e-04 3.226952e-04 0.0
-1.176391e-03 3.611731e-04 0.0
-1.472426e-03 3.970459e-04 0.0
-1.790325e-03 4.294705e-04 0.0
-2.127581e-03 4.578335e-04 0.0
-2.481640e-03 4.818082e-04 0.0
-2.849974e-03 5.013043e-04 0.0
-3.230103e-03 5.164211e-04 0.0
-3.619577e-03 5.274456e-04 0.0
-4.015948e-03 5.348534e-04 0.0
-4.416784e-03 5.392568e-04 0.0
-4.819738e-03 5.412773e-04 0.0
-5.222657e-03 5.413858e-04 0.0
-5.623657e-03 5.397834e-04 0.0
-6.021133e-03 5.363893e-04 0.0
-6.413689e-03 5.309364e-04 0.0
-6.800019e-03 5.231317e-04 0.0
-7.178792e-03 5.128084e-04 0.0
-7.548585e-03 5.000051e-04 0.0
-7.907885e-03 4.849482e-04 0.0
-8.255142e-03 4.679598e-04 0.0
-8.588840e-03 4.493381e-04 0.0
-8.907556e-03 4.292665e-04 0.0
-9.209985e-03 4.077803e-04 0.0
-9.494922e-03 3.847946e-04 0.0
-9.761222e-03 3.601719e-04 0.0
-1.000776e-02 3.337955e-04 0.0
-1.023341e-02 3.056216e-04 0.0
-1.043703e-02 2.756968e-04 0.0
-1.061748e-02 2.441430e-04 0.0
-1.077367e-02 2.111229e-04 0.0
-1.090456e-02 1.768044e-04 0.0
-1.100922e-02 1.413367e-04 0.0
-1.108683e-02 1.048460e-04 0.0
-1.113671e-02 6.744794e-05 0.0
-1.115830e-02 2.927279e-05 0.0
-1.115122e-02 -9.504860e-06 0.0
-1.111525e-02 -4.863313e-05 0.0
-1.105036e-02 -8.785428e-05 0.0
-1.095668e-02 -1.269218e-04 0.0
-1.083449e-02 -1.655957e-04 0.0
-1.068424e-02 -2.036449e-04 0.0
-1.050655e-02 -2.408489e-04 0.0
-1.030218e-02 -2.769984e-04 0.0
-1.007204e-02 -3.118932e-04 0.0
-9.817196e-03 -3.453388e-04 0.0
-9.538861e-03 -3.771451e-04 0.0
-9.238380e-03 -4.071254e-04 0.0
-8.917231e-03 -4.350985e-04 0.0
-8.577019e-03 -4.608906e-04 0.0
-8.219470e-03 -4.843382e-04 0.0
-7.846421e-03 -5.052904e-04 0.0
-7.459810e-03 -5.236098e-04 0.0
-7.061667e-03 -5.391741e-04 0.0
-6.654100e-03 -5.518761e-04 0.0
-6.239283e-03 -5.616250e-04 0.0
-5.819442e-03 -5.683474e-04 0.0
-5.396841e-03 -5.719891e-04 0.0
-4.973766e-03 -5.725170e-04 0.0
-4.552511e-03 -5.699211e-04 0.0
-4.135364e-03 -5.642108e-04 0.0
-3.724589e-03 -5.554138e-04 0.0
-3.322421e-03 -5.435771e-04 0.0
-2.931047e-03 -5.287669e-04 0.0
-2.552591e-03 -5.110688e-04 0.0
-2.189103e-03 -4.905874e-04 0.0
-1.842542e-03 -4.674463e-04 0.0
-1.514763e-03 -4.417878e-04 0.0
-1.207500e-03 -4.137735e-04 0.0
-9.223517e-04 -3.835842e-04 0.0
-6.607660e-04 -3.514220e-04 0.0
-4.240228e-04 -3.175113e-04 0.0
-2.132152e-04 -2.821018e-04 0.0
-2.922986e-05 -2.454705e-04 0.0
1.272760e-04 -2.079262e-04 0.0
2.559017e-04 -1.698151e-04 0.0
3.565386e-04 -1.315305e-04 0.0
4.294072e-04 -9.351608e-05 0.0
4.751053e-04 -5.628276e-05 0.0
4.946696e-04 -2.042558e-05 0.0
4.896512e-04 1.335301e-05 0.0
4.622129e-04 4.421162e-05 0.0
4.152511e-04 7.112811e-05 0.0
3.525478e-04 9.284568e-05 0.0
2.789496e-04 1.078117e-04 0.0
2.005510e-04 1.141302e-04 0.0
1.248048e-04 1.095959e-04 0.0
6.036337e-05 9.201416e-05 0.0
1.625941e-05 6.036222e-05 0.0
0.000000e+00 1.816380e-05 0.0
0.000000e+00 -1.817355e-05 0.0
0.000000e+00 4.479213e-05 0.0
1.758403e-06 -7.612348e-05 0.0
3.360748e-05 -9.096518e-05 0.0
4.602355e-05 -4.738277e-05 0.0
1.884985e-05 3.170117e-05 0.0
-6.030487e-05 1.281298e-04 0.0
-1.968926e-04 2.308519e-04 0.0
-3.914314e-04 3.343240e-04 0.0
-6.417364e-04 4.362228e-04 0.0
-9.446381e-04 5.354252e-04 0.0
-1.296849e-03 6.308293e-04 0.0
-1.695115e-03 7.210493e-04 0.0
-2.136028e-03 8.046327e-04 0.0
-2.615861e-03 8.803843e-04 0.0
-3.130583e-03 9.475362e-04 0.0
-3.676001e-03 1.005733e-03 0.0
-4.247916e-03 1.054939e-03 0.0
-4.842200e-03 1.095370e-03 0.0
-5.454787e-03 1.127478e-03 0.0
-6.081657e-03 1.151948e-03 0.0
-6.718873e-03 1.169618e-03 0.0
-7.362682e-03 1.181330e-03 0.0
-8.009633e-03 1.187752e-03 0.0
-8.656651e-03 1.189254e-03 0.0
-9.301011e-03 1.185892e-03 0.0
-9.940232e-03 1.177526e-03 0.0
-1.057192e-02 1.163996e-03 0.0
-1.119368e-02 1.145278e-03 0.0
-1.180300e-02 1.121551e-03 0.0
-1.239736e-02 1.093173e-03 0.0
-1.297425e-02 1.060568e-03 0.0
-1.353127e-02 1.024106e-03 0.0
-1.406618e-02 9.840154e-04 0.0
-1.457690e-02 9.403560e-04 0.0
-1.506145e-02 8.930670e-04 0.0
-1.551795e-02 8.420441e-04 0.0
-1.594448e-02 7.872194e-04 0.0
-1.633916e-02 7.286126e-04 0.0
-1.670010e-02 6.663432e-04 0.0
-1.702544e-02 6.006092e-04 0.0
-1.731339e-02 5.316501e-04 0.0
-1.756231e-02 4.597116e-04 0.0
-1.777067e-02 3.850278e-04 0.0
-1.793711e-02 3.078236e-04 0.0
-1.806044e-02 2.283340e-04 0.0
-1.813964e-02 1.468334e-04 0.0
-1.817390e-02 6.366415e-05 0.0
-1.816263e-02 -2.073805e-05 0.0
-1.810548e-02 -1.058222e-04 0.0
-1.800240e-02 -1.910346e-04 0.0
-1.785358e-02 -2.758547e-04 0.0
-1.765949e-02 -3.597886e-04 0.0
-1.742083e-02 -4.423648e-04 0.0
-1.713858e-02 -5.231292e-04 0.0
-1.681395e-02 -6.016398e-04 0.0
-1.644838e-02 -6.774631e-04 0.0
-1.604355e-02 -7.501726e-04 0.0
-1.560136e-02 -8.193493e-04 0.0
-1.512391e-02 -8.845856e-04 0.0
-1.461354e-02 -9.454892e-04 0.0
-1.407277e-02 -1.001687e-03 0.0
-1.350430e-02 -1.052831e-03 0.0
-1.291102e-02 -1.098597e-03 0.0
-1.229597e-02 -1.138689e-03 0.0
-1.166234e-02 -1.172845e-03 0.0
-1.101343e-02 -1.200832e-03 0.0
-1.035264e-02 -1.222455e-03 0.0
-9.683476e-03 -1.237557e-03 0.0
-9.009479e-03 -1.246022e-03 0.0
-8.334243e-03 -1.247782e-03 0.0
-7.661369e-03 -1.242812e-03 0.0
-6.994452e-03 -1.231135e-03 0.0
-6.337057e-03 -1.212809e-03 0.0
-5.692696e-03 -1.187936e-03 0.0
-5.064805e-03 -1.156655e-03 0.0
-4.456727e-03 -1.119149e-03 0.0
-3.871681e-03 -1.075642e-03 0.0
-3.312746e-03 -1.026398e-03 0.0
-2.782833e-03 -9.717246e-04 0.0
-2.284661e-03 -9.119724e-04 0.0
-1.820736e-03 -8.475372e-04 0.0
-1.393321e-03 -7.788622e-04 0.0
-1.004411e-03 -7.064422e-04 0.0
-6.556995e-04 -6.308269e-04 0.0
-3.485506e-04 -5.526274e-04 0.0
-8.395696e-05 -4.725232e-04 0.0
1.375000e-04 -3.912729e-04 0.0
3.156966e-04 -3.097273e-04 0.0
4.510357e-04 -2.288564e-04 0.0
5.445091e-04 -1.497592e-04 0.0
5.977817e-04 -7.370344e-05 0.0
6.132925e-04 -2.164888e-06 0.0
5.943737e-04 6.312204e-05 0.0
5.453884e-04 1.201042e-04 0.0
4.718846e-04 1.663401e-04 0.0
3.807490e-04 1.989380e-04 0.0
2.803242e-04 2.145460e-04 0.0
1.804216e-04 2.094901e-04 0.0
9.214703e-05 1.802802e-04 0.0
2.758023e-05 1.249207e-04 0.0
0.000000e+00 4.573567e-05 0.0
0.000000e+00 -4.574461e-05 0.0
0.000000e+00 6.838856e-05 0.0
9.472959e-07 -8.151348e-05 0.0
1.321279e-05 -8.245997e-05 0.0
-1.335436e-05 -5.074815e-06 0.0
-9.704247e-05 1.202691e-04 0.0
-2.476234e-04 2.729713e-04 0.0
-4.686072e-04 4.399876e-04 0.0
-7.599050e-04 6.132764e-04 0.0
-1.119856e-03 7.873935e-04 0.0
-1.546223e-03 9.580172e-04 0.0
-2.036335e-03 1.121423e-03 0.0
-2.586843e-03 1.274533e-03 0.0
-3.193563e-03 1.415089e-03 0.0
-3.851565e-03 1.541685e-03 0.0
-4.555459e-03 1.653621e-03 0.0
-5.299680e-03 1.750715e-03 0.0
-6.078658e-03 1.833173e-03 0.0
-6.886860e-03 1.901540e-03 0.0
-7.718806e-03 1.956666e-03 0.0
-8.569122e-03 1.999604e-03 0.0
-9.432671e-03 2.031437e-03 0.0
-1.030470e-02 2.053070e-03 0.0
-1.118092e-02 2.065095e-03 0.0
-1.205746e-02 2.067779e-03 0.0
-1.293073e-02 2.061179e-03 0.0
-1.379727e-02 2.045342e-03 0.0
-1.465358e-02 2.020455e-03 0.0
-1.549609e-02 1.986910e-03 0.0
-1.632124e-02 1.945258e-03 0.0
-1.712553e-02 1.896085e-03 0.0
-1.790568e-02 1.839879e-03 0.0
-1.865860e-02 1.776949e-03 0.0
-1.938144e-02 1.707416e-03 0.0
-2.007148e-02 1.631272e-03 0.0
-2.072608e-02 1.548475e-03 0.0
-2.134260e-02 1.459033e-03 0.0
-2.191841e-02 1.363054e-03 0.0
-2.245089e-02 1.260750e-03 0.0
-2.293748e-02 1.152413e-03 0.0
-2.337572e-02 1.038372e-03 0.0
-2.376332e-02 9.189611e-04 0.0
-2.409818e-02 7.945070e-04 0.0
-2.437837e-02 6.653431e-04 0.0
-2.460217e-02 5.318359e-04 0.0
-2.476805e-02 3.944182e-04 0.0
-2.487472e-02 2.536178e-04 0.0
-2.492113e-02 1.100773e-04 0.0
-2.490653e-02 -3.543319e-05 0.0
-2.483047e-02 -1.820054e-04 0.0
-2.469290e-02 -3.287327e-04 0.0
-2.449408e-02 -4.747592e-04 0.0
-2.423465e-02 -6.192676e-04 0.0
-2.391555e-02 -7.614684e-04 0.0
-2.353809e-02 -9.005897e-04 0.0
-2.310385e-02 -1.035871e-03 0.0
-2.261475e-02 -1.166564e-03 0.0
-2.207301e-02 -1.291929e-03 0.0
-2.148114e-02 -1.411248e-03 0.0
-2.084193e-02 -1.523823e-03 0.0
-2.015846e-02 -1.628986e-03 0.0
-1.943407e-02 -1.726106e-03 0.0
-1.867234e-02 -1.814588e-03 0.0
-1.787709e-02 -1.893882e-03 0.0
-1.705234e-02 -1.963483e-03 0.0
-1.620228e-02 -2.022939e-03 0.0
-1.533130e-02 -2.071856e-03 0.0
-1.444390e-02 -2.109899e-03 0.0
-1.354468e-02 -2.136802e-03 0.0
-1.263836e-02 -2.152368e-03 0.0
-1.172967e-02 -2.156476e-03 0.0
-1.082341e-02 -2.149085e-03 0.0
-9.924312e-03 -2.130226e-03 0.0
-9.037120e-03 -2.099999e-03 0.0
-8.166484e-03 -2.058572e-03 0.0
-7.316964e-03 -2.006182e-03 0.0
-6.492989e-03 -1.943139e-03 0.0
-5.698830e-03 -1.869823e-03 0.0
-4.938570e-03 -1.786686e-03 0.0
-4.216068e-03 -1.694256e-03 0.0
-3.534930e-03 -1.593138e-03 0.0
-2.898475e-03 -1.484015e-03 0.0
-2.309697e-03 -1.367655e-03 0.0
-1.771231e-03 -1.244916e-03 0.0
-1.285310e-03 -1.116750e-03 0.0
-8.537226e-04 -9.842144e-04 0.0
-4.777616e-04 -8.484830e-04 0.0
-1.581713e-04 -7.108633e-04 0.0
1.049156e-04 -5.728169e-04 0.0
3.120411e-04 -4.359874e-04 0.0
4.645188e-04 -3.022449e-04 0.0
5.645197e-04 -1.737141e-04 0.0
6.151797e-04 -5.283564e-05 0.0
6.207202e-04 5.757053e-05 0.0
5.865783e-04 1.542356e-04 0.0
5.195344e-04 2.333741e-04 0.0
4.278297e-04 2.906333e-04 0.0
3.212462e-04 3.211206e-04 0.0
2.111351e-04 3.195928e-04 0.0
1.104454e-04 2.809614e-04 0.0
3.402402e-05 2.013337e-04 0.0
0.000000e+00 7.975124e-05 0.0
0.000000e+00 -7.975797e-05 0.0
0.000000e+00 7.603966e-05 0.0
4.327936e-07 -6.908332e-05 0.0
-2.141492e-05 -4.227323e-05 0.0
-1.017908e-04 8.156067e-05 0.0
-2.545544e-04 2.672852e-04 0.0
-4.863016e-04 4.919462e-04 0.0
-7.992317e-04 7.394597e-04 0.0
-1.193488e-03 9.980409e-04 0.0
-1.668329e-03 1.258377e-03 0.0
-2.222271e-03 1.512873e-03 0.0
-2.852765e-03 1.755537e-03 0.0
-3.555938e-03 1.982007e-03 0.0
-4.326676e-03 2.189434e-03 0.0
-5.158975e-03 2.376186e-03 0.0
-6.046342e-03 2.541517e-03 0.0
-6.982082e-03 2.685333e-03 0.0
-7.959427e-03 2.808069e-03 0.0
-8.971602e-03 2.910601e-03 0.0
-1.001193e-02 2.994115e-03 0.0
-1.107397e-02 3.059884e-03 0.0
-1.215173e-02 3.109040e-03 0.0
-1.323971e-02 3.142413e-03 0.0
-1.433292e-02 3.160514e-03 0.0
-1.542667e-02 3.163659e-03 0.0
-1.651642e-02 3.152157e-03 0.0
-1.759759e-02 3.126473e-03 0.0
-1.866556e-02 3.087282e-03 0.0
-1.971572e-02 3.035395e-03 0.0
-2.074360e-02 2.971624e-03 0.0
-2.174497e-02 2.896633e-03 0.0
-2.271593e-02 2.810865e-03 0.0
-2.365280e-02 2.714545e-03 0.0
-2.455215e-02 2.607759e-03 0.0
-2.541058e-02 2.490559e-03 0.0
-2.622474e-02 2.363060e-03 0.0
-2.699127e-02 2.225487e-03 0.0
-2.770683e-02 2.078168e-03 0.0
-2.836818e-02 1.921507e-03 0.0
-2.897220e-02 1.755933e-03 0.0
-2.951597e-02 1.581877e-03 0.0
-2.999678e-02 1.399765e-03 0.0
-3.041212e-02 1.210042e-03 0.0
-3.075973e-02 1.013208e-03 0.0
-3.103755e-02 8.098591e-04 0.0
-3.124375e-02 6.007107e-04 0.0
-3.137679e-02 3.866180e-04 0.0
-3.143541e-02 1.685809e-04 0.0
-3.141874e-02 -5.225363e-05 0.0
-3.132629e-02 -2.745840e-04 0.0
-3.115799e-02 -4.971048e-04 0.0
-3.091421e-02 -7.185663e-04 0.0
-3.059571e-02 -9.377586e-04 0.0
-3.020366e-02 -1.153497e-03 0.0
-2.973963e-02 -1.364612e-03 0.0
-2.920556e-02 -1.569952e-03 0.0
-2.860377e-02 -1.768378e-03 0.0
-2.793695e-02 -1.958779e-03 0.0
-2.720816e-02 -2.140071e-03 0.0
-2.642081e-02 -2.311210e-03 0.0
-2.557863e-02 -2.471196e-03 0.0
-2.468568e-02 -2.619081e-03 0.0
-2.374633e-02 -2.753972e-03 0.0
-2.276521e-02 -2.875041e-03 0.0
-2.174720e-02 -2.981528e-03 0.0
-2.069743e-02 -3.072754e-03 0.0
-1.962120e-02 -3.148123e-03 0.0
-1.852399e-02 -3.207134e-03 0.0
-1.741142e-02 -3.249383e-03 0.0
-1.628923e-02 -3.274574e-03 0.0
-1.516318e-02 -3.282521e-03 0.0
-1.403911e-02 -3.273153e-03 0.0
-1.292282e-02 -3.246512e-03 0.0
-1.182008e-02 -3.202742e-03 0.0
-1.073658e-02 -3.142090e-03 0.0
-9.677872e-03 -3.064908e-03 0.0
-8.649380e-03 -2.971659e-03 0.0
-7.656323e-03 -2.862911e-03 0.0
-6.703690e-03 -2.739349e-03 0.0
-5.796202e-03 -2.601768e-03 0.0
-4.938272e-03 -2.451085e-03 0.0
-4.133957e-03 -2.288339e-03 0.0
-3.386923e-03 -2.114693e-03 0.0
-2.700390e-03 -1.931448e-03 0.0
-2.077088e-03 -1.740050e-03 0.0
-1.519202e-03 -1.542099e-03 0.0
-1.028316e-03 -1.339372e-03 0.0
-6.053441e-04 -1.133840e-03 0.0
-2.504680e-04 -9.277021e-04 0.0
3.694756e-05 -7.234144e-04 0.0
2.584310e-04 -5.237410e-04 0.0
4.165117e-04 -3.318077e-04 0.0
5.148231e-04 -1.511593e-04 0.0
5.582109e-04 1.417133e-05 0.0
5.528484e-04 1.595879e-04 0.0
5.063414e-04 2.798717e-04 0.0
4.278253e-04 3.691406e-04 0.0
3.280510e-04 4.208866e-04 0.0
2.194899e-04 4.281458e-04 0.0
1.165701e-04 3.838729e-04 0.0
3.632564e-05 2.815699e-04 0.0
0.000000e+00 1.160685e-04 0.0
0.000000e+00 -1.160717e-04 0.0
0.000000e+00 6.288661e-05 0.0
-3.456106e-06 -4.202666e-05 0.0
-6.848471e-05 3.199407e-05 0.0
-2.107523e-04 2.197189e-04 0.0
-4.391388e-04 4.832188e-04 0.0
-7.576779e-04 7.965972e-04 0.0
-1.168051e-03 1.139843e-03 0.0
-1.670916e-03 1.496937e-03 0.0
-2.266087e-03 1.854844e-03 0.0
-2.952128e-03 2.203243e-03 0.0
-3.725959e-03 2.534439e-03 0.0
-4.582843e-03 2.843107e-03 0.0
-5.516716e-03 3.125853e-03 0.0
-6.520647e-03 3.380723e-03 0.0
-7.587210e-03 3.606836e-03 0.0
-8.708708e-03 3.804155e-03 0.0
-9.877310e-03 3.973325e-03 0.0
-1.108520e-02 4.115471e-03 0.0
-1.232480e-02 4.231935e-03 0.0
-1.358895e-02 4.323995e-03 0.0
-1.487104e-02 4.392681e-03 0.0
-1.616495e-02 4.438742e-03 0.0
-1.746496e-02 4.462765e-03 0.0
-1.876545e-02 4.465368e-03 0.0
-2.006081e-02 4.447339e-03 0.0
-2.134537e-02 4.409686e-03 0.0
-2.261349e-02 4.353547e-03 0.0
-2.385973e-02 4.280019e-03 0.0
-2.507894e-02 4.190012e-03 0.0
-2.626634e-02 4.084161e-03 0.0
-2.741749e-02 3.962848e-03 0.0
-2.852816e-02 3.826301e-03 0.0
-2.959423e-02 3.674711e-03 0.0
-3.061162e-02 3.508337e-03 0.0
-3.157627e-02 3.327549e-03 0.0
-3.248414e-02 3.132820e-03 0.0
-3.333130e-02 2.924683e-03 0.0
-3.411399e-02 2.703684e-03 0.0
-3.482865e-02 2.470361e-03 0.0
-3.547197e-02 2.225243e-03 0.0
-3.604087e-02 1.968892e-03 0.0
-3.653249e-02 1.701941e-03 0.0
-3.694423e-02 1.425144e-03 0.0
-3.727371e-02 1.139400e-03 0.0
-3.751884e-02 8.457710e-04 0.0
-3.767784e-02 5.454809e-04 0.0
-3.774933e-02 2.399150e-04 0.0
-3.773232e-02 -6.937693e-05 0.0
-3.762630e-02 -3.806683e-04 0.0
-3.743120e-02 -6.922046e-04 0.0
-3.714747e-02 -1.002281e-03 0.0
-3.677598e-02 -1.309224e-03 0.0
-3.631809e-02 -1.611383e-03 0.0
-3.577560e-02 -1.907127e-03 0.0
-3.515073e-02 -2.194848e-03 0.0
-3.444619e-02 -2.472964e-03 0.0
-3.366507e-02 -2.739933e-03 0.0
-3.281091e-02 -2.994257e-03 0.0
-3.188766e-02 -3.234490e-03 0.0
-3.089963e-02 -3.459246e-03 0.0
-2.985154e-02 -3.667210e-03 0.0
-2.874840e-02 -3.857141e-03 0.0
-2.759560e-02 -4.027886e-03 0.0
-2.639877e-02 -4.178390e-03 0.0
-2.516385e-02 -4.307708e-03 0.0
-2.389698e-02 -4.415013e-03 0.0
-2.260452e-02 -4.499606e-03 0.0
-2.129298e-02 -4.560925e-03 0.0
-1.996900e-02 -4.598551e-03 0.0
-1.863931e-02 -4.612218e-03 0.0
-1.731065e-02 -4.601815e-03 0.0
-1.598978e-02 -4.567389e-03 0.0
-1.468341e-02 -4.509130e-03 0.0
-1.339815e-02 -4.427373e-03 0.0
-1.214048e-02 -4.322601e-03 0.0
-1.091672e-02 -4.195449e-03 0.0
-9.732953e-03 -4.046708e-03 0.0
-8.594996e-03 -3.877325e-03 0.0
-7.508366e-03 -3.688411e-03 0.0
-6.478216e-03 -3.481240e-03 0.0
-5.509293e-03 -3.257261e-03 0.0
-4.605884e-03 -3.018099e-03 0.0
-3.771764e-03 -2.765568e-03 0.0
-3.010137e-03 -2.501679e-03 0.0
-2.323577e-03 -2.228665e-03 0.0
-1.713965e-03 -1.948994e-03 0.0
-1.182418e-03 -1.665401e-03 0.0
-7.292143e-04 -1.380921e-03 0.0
-3.537126e-04 -1.098931e-03 0.0
-5.426592e-05 -8.232019e-04 0.0
1.718696e-04 -5.579561e-04 0.0
3.286320e-04 -3.079331e-04 0.0
4.212647e-04 -7.847152e-05 0.0
4.564075e-04 1.244361e-04 0.0
4.421963e-04 2.940745e-04 0.0
3.883513e-04 4.229776e-04 0.0
3.062892e-04 5.029410e-04 0.0
2.092994e-04 5.251277e-04 0.0
1.128949e-04 4.802694e-04 0.0
3.553713e-05 3.589195e-04 0.0
0.000000e+00 1.515975e-04 0.0
0.000000e+00 -1.515963e-04 0.0
0.000000e+00 2.802761e-05 0.0
-1.362723e-05 -3.474611e-06 0.0
-1.255470e-04 1.423446e-04 0.0
-3.324849e-04 4.155182e-04 0.0
-6.391680e-04 7.763031e-04 0.0
-1.047980e-03 1.195241e-03 0.0
-1.560392e-03 1.648175e-03 0.0
-2.177149e-03 2.115224e-03 0.0
-2.897784e-03 2.580390e-03 0.0
-3.720093e-03 3.031382e-03 0.0
-4.639976e-03 3.459270e-03 0.0
-5.651681e-03 3.857917e-03 0.0
-6.748240e-03 4.223348e-03 0.0
-7.921876e-03 4.553236e-03 0.0
-9.164289e-03 4.846553e-03 0.0
-1.046686e-02 5.103305e-03 0.0
-1.182086e-02 5.324254e-03 0.0
-1.321771e-02 5.510585e-03 0.0
-1.464925e-02 5.663566e-03 0.0
-1.610784e-02 5.784323e-03 0.0
-1.758635e-02 5.873780e-03 0.0
-1.907803e-02 5.932769e-03 0.0
-2.057625e-02 5.962208e-03 0.0
-2.207439e-02 5.963239e-03 0.0
-2.356576e-02 5.937234e-03 0.0
-2.504375e-02 5.885699e-03 0.0
-2.650194e-02 5.810078e-03 0.0
-2.793430e-02 5.711579e-03 0.0
-2.933517e-02 5.591095e-03 0.0
-3.069931e-02 5.449228e-03 0.0
-3.202172e-02 5.286403e-03 0.0
-3.329753e-02 5.103000e-03 0.0
-3.452196e-02 4.899465e-03 0.0
-3.569020e-02 4.676349e-03 0.0
-3.679755e-02 4.434299e-03 0.0
-3.783941e-02 4.174002e-03 0.0
-3.881136e-02 3.896140e-03 0.0
-3.970924e-02 3.601368e-03 0.0
-4.052912e-02 3.290333e-03 0.0
-4.126733e-02 2.963713e-03 0.0
-4.192045e-02 2.622278e-03 0.0
-4.248527e-02 2.266932e-03 0.0
-4.295885e-02 1.898751e-03 0.0
-4.333853e-02 1.518989e-03 0.0
-4.362200e-02 1.129080e-03 0.0
-4.380730e-02 7.306329e-04 0.0
-4.389291e-02 3.254364e-04 0.0
-4.387780e-02 -8.452979e-05 0.0
-4.376138e-02 -4.970739e-04 0.0
-4.354362e-02 -9.099353e-04 0.0
-4.322499e-02 -1.320891e-03 0.0
-4.280648e-02 -1.727743e-03 0.0
-4.228958e-02 -2.128318e-03 0.0
-4.167628e-02 -2.520472e-03 0.0
-4.096907e-02 -2.902090e-03 0.0
-4.017097e-02 -3.271103e-03 0.0
-3.928544e-02 -3.625489e-03 0.0
-3.831643e-02 -3.963284e-03 0.0
-3.726835e-02 -4.282592e-03 0.0
-3.614604e-02 -4.581589e-03 0.0
-3.495473e-02 -4.858545e-03 0.0
-3.370008e-02 -5.111825e-03 0.0
-3.238809e-02 -5.339914e-03 0.0
-3.102509e-02 -5.541422e-03 0.0
-2.961771e-02 -5.715105e-03 0.0
-2.817286e-02 -5.859873e-03 0.0
-2.669767e-02 -5.974800e-03 0.0
-2.519946e-02 -6.059141e-03 0.0
-2.368567e-02 -6.112334e-03 0.0
-2.216389e-02 -6.134013e-03 0.0
-2.064170e-02 -6.124014e-03 0.0
-1.912672e-02 -6.082386e-03 0.0
-1.762652e-02 -6.009362e-03 0.0
-1.614855e-02 -5.905371e-03 0.0
-1.470014e-02 -5.771037e-03 0.0
-1.328842e-02 -5.607189e-03 0.0
-1.192028e-02 -5.414860e-03 0.0
-1.060233e-02 -5.195292e-03 0.0
-9.340795e-03 -4.949943e-03 0.0
-8.141545e-03 -4.680489e-03 0.0
-7.009971e-03 -4.388834e-03 0.0
-5.950957e-03 -4.077116e-03 0.0
-4.968812e-03 -3.747720e-03 0.0
-4.067210e-03 -3.403293e-03 0.0
-3.249123e-03 -3.046767e-03 0.0
-2.516753e-03 -2.681380e-03 0.0
-1.871460e-03 -2.310711e-03 0.0
-1.313682e-03 -1.938714e-03 0.0
-8.428572e-04 -1.569771e-03 0.0
-4.573335e-04 -1.208738e-03 0.0
-1.542859e-04 -8.610146e-04 0.0
7.037864e-05 -5.326071e-04 0.0
2.221037e-04 -2.302050e-04 0.0
3.077867e-04 3.874536e-05 0.0
3.358686e-04 2.659851e-04 0.0
3.164280e-04 4.424109e-04 0.0
2.613104e-04 5.580512e-04 0.0
1.843402e-04 6.020902e-04 0.0
1.016920e-04 5.629098e-04 0.0
3.252949e-05 4.280742e-04 0.0
0.000000e+00 1.841190e-04 0.0
0.000000e+00 -1.841130e-04 0.0
0.000000e+00 -2.654582e-05 0.0
-3.057828e-05 4.532861e-05 0.0
-1.889871e-04 2.911448e-04 0.0
-4.602335e-04 6.737942e-04 0.0
-8.461254e-04 1.152048e-03 0.0
-1.347907e-03 1.692788e-03 0.0
-1.966477e-03 2.268274e-03 0.0
-2.701785e-03 2.855723e-03 0.0
-3.552180e-03 3.437122e-03 0.0
-4.514093e-03 3.998845e-03 0.0
-5.582165e-03 4.531006e-03 0.0
-6.749594e-03 5.026711e-03 0.0
-8.008516e-03 5.481415e-03 0.0
-9.350296e-03 5.892451e-03 0.0
-1.076577e-02 6.258658e-03 0.0
-1.224551e-02 6.580016e-03 0.0
-1.378015e-02 6.857224e-03 0.0
-1.536062e-02 7.091294e-03 0.0
-1.697841e-02 7.283269e-03 0.0
-1.862546e-02 7.434121e-03 0.0
-2.029408e-02 7.544842e-03 0.0
-2.197669e-02 7.616605e-03 0.0
-2.366570e-02 7.650880e-03 0.0
-2.535346e-02 7.649424e-03 0.0
-2.703239e-02 7.614126e-03 0.0
-2.869516e-02 7.546812e-03 0.0
-3.033484e-02 7.449041e-03 0.0
-3.194497e-02 7.322020e-03 0.0
-3.351949e-02 7.166630e-03 0.0
-3.505262e-02 6.983552e-03 0.0
-3.653876e-02 6.773412e-03 0.0
-3.797238e-02 6.536889e-03 0.0
-3.934799e-02 6.274762e-03 0.0
-4.066018e-02 5.987885e-03 0.0
-4.190368e-02 5.677126e-03 0.0
-4.307347e-02 5.343328e-03 0.0
-4.416476e-02 4.987283e-03 0.0
-4.517302e-02 4.609764e-03 0.0
-4.609399e-02 4.211578e-03 0.0
-4.692365e-02 3.793629e-03 0.0
-4.765821e-02 3.356974e-03 0.0
-4.829414e-02 2.902852e-03 0.0
-4.882821e-02 2.432696e-03 0.0
-4.925751e-02 1.948128e-03 0.0
-4.957952e-02 1.450961e-03 0.0
-4.979216e-02 9.432017e-04 0.0
-4.989380e-02 4.270656e-04 0.0
-4.988330e-02 -9.499884e-05 0.0
-4.976006e-02 -6.202876e-04 0.0
-4.952401e-02 -1.145977e-03 0.0
-4.917565e-02 -1.669273e-03 0.0
-4.871603e-02 -2.187407e-03 0.0
-4.814676e-02 -2.697642e-03 0.0
-4.746999e-02 -3.197277e-03 0.0
-4.668846e-02 -3.683657e-03 0.0
-4.580540e-02 -4.154175e-03 0.0
-4.482462e-02 -4.606286e-03 0.0
-4.375041e-02 -5.037511e-03 0.0
-4.258757e-02 -5.445454e-03 0.0
-4.134138e-02 -5.827811e-03 0.0
-4.001757e-02 -6.182389e-03 0.0
-3.862230e-02 -6.507125e-03 0.0
-3.716214e-02 -6.800100e-03 0.0
-3.564403e-02 -7.059556e-03 0.0
-3.407523e-02 -7.283914e-03 0.0
-3.246331e-02 -7.471790e-03 0.0
-3.081611e-02 -7.622004e-03 0.0
-2.914166e-02 -7.733599e-03 0.0
-2.744815e-02 -7.805848e-03 0.0
-2.574391e-02 -7.838267e-03 0.0
-2.403732e-02 -7.830624e-03 0.0
-2.233678e-02 -7.782957e-03 0.0
-2.065063e-02 -7.695542e-03 0.0
-1.898712e-02 -7.568905e-03 0.0
-1.735435e-02 -7.403819e-03 0.0
-1.576024e-02 -7.201317e-03 0.0
-1.421241e-02 -6.962693e-03 0.0
-1.271820e-02 -6.689507e-03 0.0
-1.128455e-02 -6.383590e-03 0.0
-9.917991e-03 -6.047052e-03 0.0