# vtk DataFile Version 3.0
Vector Field
ASCII
DATASET RECTILINEAR_GRID
DIMENSIONS 102 102 1
X_COORDINATES 102 double
0.000000 0.100000 0.200000 0.300000 0.400000 0.500000 0.600000 0.700000 0.800000 0.900000 1.000000 1.100000 1.200000 1.300000 1.400000 1.500000 1.600000 1.700000 1.800000 1.900000 2.000000 2.100000 2.200000 2.300000 2.400000 2.500000 2.600000 2.700000 2.800000 2.900000 3.000000 3.100000 3.200000 3.300000 3.400000 3.500000 3.600000 3.700000 3.800000 3.900000 4.000000 4.100000 4.200000 4.300000 4.400000 4.500000 4.600000 4.700000 4.800000 4.900000 5.000000 5.100000 5.200000 5.300000 5.400000 5.500000 5.600000 5.700000 5.800000 5.900000 6.000000 6.100000 6.200000 6.300000 6.400000 6.500000 6.600000 6.700000 6.800000 6.900000 7.000000 7.100000 7.200000 7.300000 7.400000 7.500000 7.600000 7.700000 7.800000 7.900000 8.000000 8.100000 8.200000 8.300000 8.400000 8.500000 8.600000 8.700000 8.800000 8.900000 9.000000 9.100000 9.200000 9.300000 9.400000 9.500000 9.600000 9.700000 9.800000 9.900000 10.000000 10.100000 
Y_COORDINATES 102 double
0.000000 0.100000 0.200000 0.300000 0.400000 0.500000 0.600000 0.700000 0.800000 0.900000 1.000000 1.100000 1.200000 1.300000 1.400000 1.500000 1.600000 1.700000 1.800000 1.900000 2.000000 2.100000 2.200000 2.300000 2.400000 2.500000 2.600000 2.700000 2.800000 2.900000 3.000000 3.100000 3.200000 3.300000 3.400000 3.500000 3.600000 3.700000 3.800000 3.900000 4.000000 4.100000 4.200000 4.300000 4.400000 4.500000 4.600000 4.700000 4.800000 4.900000 5.000000 5.100000 5.200000 5.300000 5.400000 5.500000 5.600000 5.700000 5.800000 5.900000 6.000000 6.100000 6.200000 6.300000 6.400000 6.500000 6.600000 6.700000 6.800000 6.900000 7.000000 7.100000 7.200000 7.300000 7.400000 7.500000 7.600000 7.700000 7.800000 7.900000 8.000000 8.100000 8.200000 8.300000 8.400000 8.500000 8.600000 8.700000 8.800000 8.900000 9.000000 9.100000 9.200000 9.300000 9.400000 9.500000 9.600000 9.700000 9.800000 9.900000 10.000000 10.100000 
Z_COORDINATES 1 double
0.0
POINT_DATA 10404
VECTORS Velocity double
0.000000e+00 0.000000e+00 0.0
2.799913e-05 0.000000e+00 0.0
9.437620e-06 0.000000e+00 0.0
-1.191134e-05 0.000000e+00 0.0
-2.670566e-05 0.000000e+00 0.0
-2.889156e-05 0.000000e+00 0.0
-1.575709e-05 0.000000e+00 0.0
1.244301e-05 0.000000e+00 0.0
5.325319e-05 0.000000e+00 0.0
1.031772e-04 0.000000e+00 0.0
1.588889e-04 0.000000e+00 0.0
2.181128e-04 0.000000e+00 0.0
2.799380e-04 0.000000e+00 0.0
3.445655e-04 0.000000e+00 0.0
4.127007e-04 0.000000e+00 0.0
4.849035e-04 0.000000e+00 0.0
5.611676e-04 0.000000e+00 0.0
6.408535e-04 0.000000e+00 0.0
7.229254e-04 0.000000e+00 0.0
8.063213e-04 0.000000e+00 0.0
8.902619e-04 0.000000e+00 0.0
9.743667e-04 0.000000e+00 0.0
1.058563e-03 0.000000e+00 0.0
1.142873e-03 0.000000e+00 0.0
1.227198e-03 0.000000e+00 0.0
1.311217e-03 0.000000e+00 0.0
1.394419e-03 0.000000e+00 0.0
1.476239e-03 0.000000e+00 0.0
1.556211e-03 0.000000e+00 0.0
1.634066e-03 0.000000e+00 0.0
1.709726e-03 0.000000e+00 0.0
1.783223e-03 0.000000e+00 0.0
1.854576e-03 0.000000e+00 0.0
1.923700e-03 0.000000e+00 0.0
1.990374e-03 0.000000e+00 0.0
2.054283e-03 0.000000e+00 0.0
2.115089e-03 0.000000e+00 0.0
2.172510e-03 0.000000e+00 0.0
2.226365e-03 0.000000e+00 0.0
2.276564e-03 0.000000e+00 0.0
2.323070e-03 0.000000e+00 0.0
2.365836e-03 0.000000e+00 0.0
2.404763e-03 0.000000e+00 0.0
2.439682e-03 0.000000e+00 0.0
2.470375e-03 0.000000e+00 0.0
2.496609e-03 0.000000e+00 0.0
2.518184e-03 0.000000e+00 0.0
2.534960e-03 0.000000e+00 0.0
2.546864e-03 0.000000e+00 0.0
2.553880e-03 0.000000e+00 0.0
2.556018e-03 0.000000e+00 0.0
2.553284e-03 0.000000e+00 0.0
2.545672e-03 0.000000e+00 0.0
2.533143e-03 0.000000e+00 0.0
2.515639e-03 0.000000e+00 0.0
2.493098e-03 0.000000e+00 0.0
2.465480e-03 0.000000e+00 0.0
2.432787e-03 0.000000e+00 0.0
2.395074e-03 0.000000e+00 0.0
2.352446e-03 0.000000e+00 0.0
2.305050e-03 0.000000e+00 0.0
2.253065e-03 0.000000e+00 0.0
2.196685e-03 0.000000e+00 0.0
2.136111e-03 0.000000e+00 0.0
2.071549e-03 0.000000e+00 0.0
2.003210e-03 0.000000e+00 0.0
1.931315e-03 0.000000e+00 0.0
1.856103e-03 0.000000e+00 0.0
1.777833e-03 0.000000e+00 0.0
1.696794e-03 0.000000e+00 0.0
1.613297e-03 0.000000e+00 0.0
1.527686e-03 0.000000e+00 0.0
1.440324e-03 0.000000e+00 0.0
1.351598e-03 0.000000e+00 0.0
1.261910e-03 0.000000e+00 0.0
1.171679e-03 0.000000e+00 0.0
1.081336e-03 0.000000e+00 0.0
9.913228e-04 0.000000e+00 0.0
9.020909e-04 0.000000e+00 0.0
8.141010e-04 0.000000e+00 0.0
7.278234e-04 0.000000e+00 0.0
6.437360e-04 0.000000e+00 0.0
5.623238e-04 0.000000e+00 0.0
4.840769e-04 0.000000e+00 0.0
4.094888e-04 0.000000e+00 0.0
3.390545e-04 0.000000e+00 0.0
2.732678e-04 0.000000e+00 0.0
2.126176e-04 0.000000e+00 0.0
1.575830e-04 0.000000e+00 0.0
1.086276e-04 0.000000e+00 0.0
6.619051e-05 0.000000e+00 0.0
3.067351e-05 0.000000e+00 0.0
2.420586e-06 0.000000e+00 0.0
-1.831248e-05 0.000000e+00 0.0
-3.140842e-05 0.000000e+00 0.0
-3.697338e-05 0.000000e+00 0.0
-3.548188e-05 0.000000e+00 0.0
-2.803349e-05 0.000000e+00 0.0
-1.677872e-05 0.000000e+00 0.0
-5.526417e-06 0.000000e+00 0.0
-0.000000e+00 0.000000e+00 0.0
0.000000e+00 0.000000e+00 0.0
0.000000e+00 4.146852e-05 0.0
1.754167e-05 4.058865e-06 0.0
4.193285e-05 8.538267e-06 0.0
5.224226e-05 1.469103e-05 0.0
4.668915e-05 1.514682e-05 0.0
2.734922e-05 1.253206e-05 0.0
-1.720320e-06 1.040338e-05 0.0
-3.664845e-05 1.180559e-05 0.0
-7.512899e-05 1.799174e-05 0.0
-1.167973e-04 2.818104e-05 0.0
-1.627279e-04 4.020850e-05 0.0
-2.144510e-04 5.161539e-05 0.0
-2.729896e-04 6.065014e-05 0.0
-3.383204e-04 6.677932e-05 0.0
-4.094019e-04 7.058448e-05 0.0
-4.846463e-04 7.320731e-05 0.0
-5.625353e-04 7.567659e-05 0.0
-6.420730e-04 7.844514e-05 0.0
-7.228984e-04 8.131127e-05 0.0
-8.050725e-04 8.368871e-05 0.0
-8.887065e-04 8.502788e-05 0.0
-9.736456e-04 8.514993e-05 0.0
-1.059359e-03 8.433547e-05 0.0
-1.145058e-03 8.315642e-05 0.0
-1.229949e-03 8.217033e-05 0.0
-1.313478e-03 8.165043e-05 0.0
-1.395431e-03 8.148320e-05 0.0
-1.475878e-03 8.126620e-05 0.0
-1.554985e-03 8.053538e-05 0.0
-1.632814e-03 7.899629e-05 0.0
-1.709206e-03 7.664796e-05 0.0
-1.783784e-03 7.375377e-05 0.0
-1.856059e-03 7.069281e-05 0.0
-1.925580e-03 6.777633e-05 0.0
-1.992050e-03 6.511905e-05 0.0
-2.055351e-03 6.261683e-05 0.0
-2.115495e-03 6.002670e-05 0.0
-2.172526e-03 5.709931e-05 0.0
-2.226415e-03 5.369760e-05 0.0
-2.277013e-03 4.985085e-05 0.0
-2.324054e-03 4.572858e-05 0.0
-2.367218e-03 4.155542e-05 0.0
-2.406207e-03 3.751003e-05 0.0
-2.440809e-03 3.365234e-05 0.0
-2.470922e-03 2.990551e-05 0.0
-2.496535e-03 2.609396e-05 0.0
-2.517679e-03 2.201682e-05 0.0
-2.534373e-03 1.752512e-05 0.0
-2.546572e-03 1.257420e-05 0.0
-2.554162e-03 7.235512e-06 0.0
-2.556968e-03 1.669285e-06 0.0
-2.554794e-03 -3.927164e-06 0.0
-2.547479e-03 -9.373369e-06 0.0
-2.534920e-03 -1.456348e-05 0.0
-2.517090e-03 -1.947791e-05 0.0
-2.494037e-03 -2.417097e-05 0.0
-2.465863e-03 -2.874003e-05 0.0
-2.432705e-03 -3.328785e-05 0.0
-2.394705e-03 -3.788985e-05 0.0
-2.351999e-03 -4.257476e-05 0.0
-2.304708e-03 -4.732115e-05 0.0
-2.252944e-03 -5.206761e-05 0.0
-2.196821e-03 -5.673075e-05 0.0
-2.136470e-03 -6.122459e-05 0.0
-2.072047e-03 -6.547602e-05 0.0
-2.003745e-03 -6.943340e-05 0.0
-1.931793e-03 -7.306802e-05 0.0
-1.856454e-03 -7.636989e-05 0.0
-1.778022e-03 -7.934060e-05 0.0
-1.696816e-03 -8.198568e-05 0.0
-1.613176e-03 -8.430837e-05 0.0
-1.527455e-03 -8.630595e-05 0.0
-1.440023e-03 -8.796855e-05 0.0
-1.351261e-03 -8.928009e-05 0.0
-1.261564e-03 -9.022028e-05 0.0
-1.171342e-03 -9.076701e-05 0.0
-1.081014e-03 -9.089842e-05 0.0
-9.910174e-04 -9.059482e-05 0.0
-9.017984e-04 -8.983923e-05 0.0
-8.138170e-04 -8.861758e-05 0.0
-7.275434e-04 -8.691858e-05 0.0
-6.434568e-04 -8.473360e-05 0.0
-5.620435e-04 -8.205642e-05 0.0
-4.837958e-04 -7.888315e-05 0.0
-4.092090e-04 -7.521217e-05 0.0
-3.387795e-04 -7.104404e-05 0.0
-2.730016e-04 -6.638163e-05 0.0
-2.123645e-04 -6.123107e-05 0.0
-1.573474e-04 -5.560285e-05 0.0
-1.084136e-04 -4.951331e-05 0.0
-6.600125e-05 -4.298713e-05 0.0
-3.051087e-05 -3.606187e-05 0.0
-2.285556e-06 -2.879477e-05 0.0
1.841991e-05 -2.127396e-05 0.0
3.148944e-05 -1.363808e-05 0.0
3.703055e-05 -6.110065e-06 0.0
3.551951e-05 9.408533e-07 0.0
2.805742e-05 6.891251e-06 0.0
1.679507e-05 1.069043e-05 0.0
5.537659e-06 1.068435e-05 0.0
0.000000e+00 4.964578e-06 0.0
0.000000e+00 -4.964558e-06 0.0
0.000000e+00 4.386549e-05 0.0
2.949056e-05 7.647841e-06 0.0
4.296827e-05 -1.048560e-06 0.0
4.012433e-05 6.806217e-06 0.0
1.627630e-05 2.043092e-05 0.0
-2.891563e-05 3.922807e-05 0.0
-9.419450e-05 6.337693e-05 0.0
-1.783390e-04 9.240755e-05 0.0
-2.808498e-04 1.245727e-04 0.0
-4.018124e-04 1.572043e-04 0.0
-5.413085e-04 1.876160e-04 0.0
-6.988116e-04 2.139814e-04 0.0
-8.728978e-04 2.357657e-04 0.0
-1.061380e-03 2.535737e-04 0.0
-1.261751e-03 2.685682e-04 0.0
-1.471690e-03 2.817881e-04 0.0
-1.689392e-03 2.936944e-04 0.0
-1.913601e-03 3.041104e-04 0.0
-2.143400e-03 3.125103e-04 0.0
-2.377891e-03 3.184481e-04 0.0
-2.615967e-03 3.218818e-04 0.0
-2.856269e-03 3.232360e-04 0.0
-3.097325e-03 3.232042e-04 0.0
-3.337777e-03 3.224220e-04 0.0
-3.576558e-03 3.211972e-04 0.0
-3.812943e-03 3.194273e-04 0.0
-4.046450e-03 3.167255e-04 0.0
-4.276664e-03 3.126711e-04 0.0
-4.503077e-03 3.070451e-04 0.0
-4.725007e-03 2.999403e-04 0.0
-4.941635e-03 2.917058e-04 0.0
-5.152116e-03 2.827751e-04 0.0
-5.355698e-03 2.734737e-04 0.0
-5.551795e-03 2.638991e-04 0.0
-5.739987e-03 2.539208e-04 0.0
-5.919945e-03 2.432844e-04 0.0
-6.091342e-03 2.317581e-04 0.0
-6.253778e-03 2.192500e-04 0.0
-6.406750e-03 2.058472e-04 0.0
-6.549687e-03 1.917687e-04 0.0
-6.682005e-03 1.772646e-04 0.0
-6.803177e-03 1.625097e-04 0.0
-6.912770e-03 1.475394e-04 0.0
-7.010457e-03 1.322478e-04 0.0
-7.095977e-03 1.164444e-04 0.0
-7.169101e-03 9.993895e-05 0.0
-7.229579e-03 8.262084e-05 0.0
-7.277118e-03 6.450390e-05 0.0
-7.311385e-03 4.572515e-05 0.0
-7.332034e-03 2.650406e-05 0.0
-7.338743e-03 7.082588e-06 0.0
-7.331257e-03 -1.233011e-05 0.0
-7.309419e-03 -3.159068e-05 0.0
-7.273174e-03 -5.065653e-05 0.0
-7.222554e-03 -6.955816e-05 0.0
-7.157666e-03 -8.835838e-05 0.0
-7.078666e-03 -1.071105e-04 0.0
-6.985745e-03 -1.258270e-04 0.0
-6.879122e-03 -1.444647e-04 0.0
-6.759048e-03 -1.629277e-04 0.0
-6.625808e-03 -1.810827e-04 0.0
-6.479741e-03 -1.987801e-04 0.0
-6.321242e-03 -2.158745e-04 0.0
-6.150776e-03 -2.322386e-04 0.0
-5.968881e-03 -2.477695e-04 0.0
-5.776163e-03 -2.623873e-04 0.0
-5.573302e-03 -2.760293e-04 0.0
-5.361038e-03 -2.886417e-04 0.0
-5.140173e-03 -3.001720e-04 0.0
-4.911564e-03 -3.105641e-04 0.0
-4.676120e-03 -3.197557e-04 0.0
-4.434802e-03 -3.276785e-04 0.0
-4.188619e-03 -3.342605e-04 0.0
-3.938625e-03 -3.394285e-04 0.0
-3.685923e-03 -3.431115e-04 0.0
-3.431658e-03 -3.452426e-04 0.0
-3.177012e-03 -3.457609e-04 0.0
-2.923208e-03 -3.446132e-04 0.0
-2.671499e-03 -3.417532e-04 0.0
-2.423168e-03 -3.371407e-04 0.0
-2.179523e-03 -3.307424e-04 0.0
-1.941890e-03 -3.225313e-04 0.0
-1.711613e-03 -3.124879e-04 0.0
-1.490042e-03 -3.006005e-04 0.0
-1.278529e-03 -2.868660e-04 0.0
-1.078419e-03 -2.712915e-04 0.0
-8.910394e-04 -2.538964e-04 0.0
-7.176895e-04 -2.347163e-04 0.0
-5.596210e-04 -2.138074e-04 0.0
-4.180176e-04 -1.912541e-04 0.0
-2.939640e-04 -1.671792e-04 0.0
-1.884042e-04 -1.417613e-04 0.0
-1.020804e-04 -1.152593e-04 0.0
-3.544477e-05 -8.805144e-05 0.0
1.147158e-05 -6.069706e-05 0.0
3.925156e-05 -3.403344e-05 0.0
4.937763e-05 -9.329386e-06 0.0
4.463626e-05 1.148861e-05 0.0
2.963882e-05 2.554245e-05 0.0
1.140419e-05 2.877416e-05 0.0
0.000000e+00 1.622413e-05 0.0
0.000000e+00 -1.620816e-05 0.0
0.000000e+00 3.678867e-05 0.0
2.904689e-05 3.913337e-06 0.0
2.342342e-05 -6.155670e-06 0.0
-2.661149e-06 1.519191e-05 0.0
-5.405221e-05 5.501525e-05 0.0
-1.328539e-04 1.079540e-04 0.0
-2.403860e-04 1.696887e-04 0.0
-3.778269e-04 2.358779e-04 0.0
-5.460855e-04 3.021856e-04 0.0
-7.452902e-04 3.648940e-04 0.0
-9.743479e-04 4.215753e-04 0.0
-1.230885e-03 4.713731e-04 0.0
-1.511623e-03 5.147362e-04 0.0
-1.813011e-03 5.527566e-04 0.0
-2.131819e-03 5.864415e-04 0.0
-2.465464e-03 6.162434e-04 0.0
-2.811961e-03 6.420081e-04 0.0
-3.169623e-03 6.632802e-04 0.0
-3.536706e-03 6.797387e-04 0.0
-3.911191e-03 6.915091e-04 0.0
-4.290816e-03 6.991970e-04 0.0
-4.673285e-03 7.036556e-04 0.0
-5.056546e-03 7.056380e-04 0.0
-5.438963e-03 7.055265e-04 0.0
-5.819308e-03 7.032726e-04 0.0
-6.196609e-03 6.985550e-04 0.0
-6.569921e-03 6.910502e-04 0.0
-6.938165e-03 6.806691e-04 0.0
-7.300084e-03 6.676451e-04 0.0
-7.654328e-03 6.524480e-04 0.0
-7.999602e-03 6.355884e-04 0.0
-8.334796e-03 6.174195e-04 0.0
-8.659029e-03 5.980341e-04 0.0
-8.971605e-03 5.772926e-04 0.0
-9.271904e-03 5.549528e-04 0.0
-9.559266e-03 5.308288e-04 0.0
-9.832925e-03 5.049011e-04 0.0
-1.009202e-02 4.773341e-04 0.0
-1.033563e-02 4.484061e-04 0.0
-1.056289e-02 4.183929e-04 0.0
-1.077303e-02 3.874618e-04 0.0
-1.096543e-02 3.556217e-04 0.0
-1.113955e-02 3.227433e-04 0.0
-1.129493e-02 2.886349e-04 0.0
-1.143111e-02 2.531369e-04 0.0
-1.154757e-02 2.161991e-04 0.0
-1.164376e-02 1.779122e-04 0.0
-1.171912e-02 1.384903e-04 0.0
-1.177306e-02 9.821631e-05 0.0
-1.180512e-02 5.737609e-05 0.0
-1.181490e-02 1.620473e-05 0.0
-1.180214e-02 -2.513570e-05 0.0
-1.176673e-02 -6.654774e-05 0.0
-1.170864e-02 -1.080038e-04 0.0
-1.162794e-02 -1.494955e-04 0.0
-1.152476e-02 -1.909895e-04 0.0
-1.139926e-02 -2.323986e-04 0.0
-1.125168e-02 -2.735744e-04 0.0
-1.108231e-02 -3.143159e-04 0.0
-1.089151e-02 -3.543906e-04 0.0
-1.067974e-02 -3.935572e-04 0.0
-1.044755e-02 -4.315849e-04 0.0
-1.019563e-02 -4.682649e-04 0.0
-9.924731e-03 -5.034129e-04 0.0
-9.635752e-03 -5.368651e-04 0.0
-9.329668e-03 -5.684705e-04 0.0
-9.007556e-03 -5.980826e-04 0.0
-8.670582e-03 -6.255530e-04 0.0
-8.319999e-03 -6.507283e-04 0.0
-7.957145e-03 -6.734492e-04 0.0
-7.583442e-03 -6.935530e-04 0.0
-7.200396e-03 -7.108767e-04 0.0
-6.809589e-03 -7.252608e-04 0.0
-6.412684e-03 -7.365527e-04 0.0
-6.011415e-03 -7.446093e-04 0.0
-5.607584e-03 -7.492990e-04 0.0
-5.203056e-03 -7.505028e-04 0.0
-4.799751e-03 -7.481159e-04 0.0
-4.399640e-03 -7.420464e-04 0.0
-4.004732e-03 -7.322141e-04 0.0
-3.617074e-03 -7.185526e-04 0.0
-3.238739e-03 -7.010094e-04 0.0
-2.871814e-03 -6.795485e-04 0.0
-2.518395e-03 -6.541522e-04 0.0
-2.180567e-03 -6.248239e-04 0.0
-1.860397e-03 -5.915920e-04 0.0
-1.559908e-03 -5.545162e-04 0.0
-1.281063e-03 -5.136949e-04 0.0
-1.025728e-03 -4.692768e-04 0.0
-7.956415e-04 -4.214766e-04 0.0
-5.923597e-04 -3.705982e-04 0.0
-4.171906e-04 -3.170688e-04 0.0
-2.711013e-04 -2.614877e-04 0.0
-1.545933e-04 -2.046996e-04 0.0
-6.752900e-05 -1.479019e-04 0.0
-8.900710e-06 -9.280321e-05 0.0
2.347887e-05 -4.185078e-05 0.0
3.336383e-05 1.461483e-06 0.0
2.654000e-05 3.222315e-05 0.0
1.140253e-05 4.376904e-05 0.0
0.000000e+00 2.748431e-05 0.0
0.000000e+00 -2.744985e-05 0.0
0.000000e+00 2.213116e-05 0.0
1.551626e-05 -1.680451e-06 0.0
-1.148498e-05 2.143824e-06 0.0
-6.375534e-05 5.054424e-05 0.0
-1.464821e-04 1.284871e-04 0.0
-2.636256e-04 2.253578e-04 0.0
-4.186217e-04 3.323949e-04 0.0
-6.140548e-04 4.420786e-04 0.0
-8.510374e-04 5.484997e-04 0.0
-1.128776e-03 6.477768e-04 0.0
-1.444637e-03 7.381275e-04 0.0
-1.794719e-03 8.194302e-04 0.0
-2.174705e-03 8.924279e-04 0.0
-2.580614e-03 9.579086e-04 0.0
-3.009184e-03 1.016189e-03 0.0
-3.457807e-03 1.067055e-03 0.0
-3.924154e-03 1.110072e-03 0.0
-4.405756e-03 1.145021e-03 0.0
-4.899780e-03 1.172202e-03 0.0
-5.403102e-03 1.192419e-03 0.0
-5.912596e-03 1.206715e-03 0.0
-6.425474e-03 1.215991e-03 0.0
-6.939482e-03 1.220734e-03 0.0
-7.452862e-03 1.220983e-03 0.0
-7.964138e-03 1.216520e-03 0.0
-8.471843e-03 1.207163e-03 0.0
-8.974330e-03 1.193005e-03 0.0
-9.469754e-03 1.174470e-03 0.0
-9.956205e-03 1.152194e-03 0.0
-1.043190e-02 1.126800e-03 0.0
-1.089533e-02 1.098696e-03 0.0
-1.134528e-02 1.067990e-03 0.0
-1.178078e-02 1.034556e-03 0.0
-1.220091e-02 9.981873e-04 0.0
-1.260468e-02 9.587737e-04 0.0
-1.299097e-02 9.163957e-04 0.0
-1.335856e-02 8.713190e-04 0.0
-1.370620e-02 8.238962e-04 0.0
-1.403271e-02 7.744354e-04 0.0
-1.433710e-02 7.230983e-04 0.0
-1.461853e-02 6.698689e-04 0.0
-1.487628e-02 6.146004e-04 0.0
-1.510967e-02 5.571115e-04 0.0
-1.531803e-02 4.972900e-04 0.0
-1.550059e-02 4.351631e-04 0.0
-1.565653e-02 3.709120e-04 0.0
-1.578504e-02 3.048353e-04 0.0
-1.588533e-02 2.372807e-04 0.0
-1.595672e-02 1.685738e-04 0.0
-1.599869e-02 9.897180e-05 0.0
-1.601086e-02 2.865279e-05 0.0
-1.599300e-02 -4.225830e-05 0.0
-1.594500e-02 -1.136455e-04 0.0
-1.586682e-02 -1.853966e-04 0.0
-1.575851e-02 -2.573579e-04 0.0
-1.562017e-02 -3.293118e-04 0.0
-1.545198e-02 -4.009765e-04 0.0
-1.525419e-02 -4.720217e-04 0.0
-1.502719e-02 -5.420940e-04 0.0
-1.477147e-02 -6.108399e-04 0.0
-1.448767e-02 -6.779226e-04 0.0
-1.417659e-02 -7.430290e-04 0.0
-1.383914e-02 -8.058679e-04 0.0
-1.347639e-02 -8.661629e-04 0.0
-1.308953e-02 -9.236437e-04 0.0
-1.267985e-02 -9.780380e-04 0.0
-1.224879e-02 -1.029067e-03 0.0
-1.179789e-02 -1.076447e-03 0.0
-1.132880e-02 -1.119885e-03 0.0
-1.084329e-02 -1.159092e-03 0.0
-1.034326e-02 -1.193780e-03 0.0
-9.830698e-03 -1.223671e-03 0.0
-9.307704e-03 -1.248497e-03 0.0
-8.776488e-03 -1.268009e-03 0.0
-8.239352e-03 -1.281972e-03 0.0
-7.698686e-03 -1.290171e-03 0.0
-7.156962e-03 -1.292413e-03 0.0
-6.616721e-03 -1.288523e-03 0.0
-6.080565e-03 -1.278352e-03 0.0
-5.551149e-03 -1.261769e-03 0.0
-5.031166e-03 -1.238665e-03 0.0
-4.523339e-03 -1.208962e-03 0.0
-4.030405e-03 -1.172607e-03 0.0
-3.555099e-03 -1.129583e-03 0.0
-3.100135e-03 -1.079914e-03 0.0
-2.668185e-03 -1.023670e-03 0.0
-2.261852e-03 -9.609787e-04 0.0
-1.883639e-03 -8.920401e-04 0.0
-1.535905e-03 -8.171452e-04 0.0
-1.220814e-03 -7.367023e-04 0.0
-9.402737e-04 -6.512752e-04 0.0
-6.958443e-04 -5.616351e-04 0.0
-4.886339e-04 -4.688357e-04 0.0
-3.191546e-04 -3.743171e-04 0.0
-1.871416e-04 -2.800535e-04 0.0
-9.132591e-05 -1.887582e-04 0.0
-2.915470e-05 -1.041613e-04 0.0
3.536382e-06 -3.136976e-05 0.0
1.291683e-05 2.270224e-05 0.0
7.685103e-06 4.886069e-05 0.0
0.000000e+00 3.502962e-05 0.0
0.000000e+00 -3.497426e-05 0.0
0.000000e+00 2.738140e-06 0.0
-4.386731e-06 -4.010294e-06 0.0
-5.187833e-05 3.080165e-05 0.0
-1.315076e-04 1.198840e-04 0.0
-2.488703e-04 2.460594e-04 0.0
-4.092199e-04 3.940989e-04 0.0
-6.169280e-04 5.518392e-04 0.0
-8.745711e-04 7.098667e-04 0.0
-1.182308e-03 8.617691e-04 0.0
-1.537895e-03 1.003999e-03 0.0
-1.937352e-03 1.135237e-03 0.0
-2.375968e-03 1.255421e-03 0.0
-2.849240e-03 1.364791e-03 0.0
-3.353374e-03 1.463286e-03 0.0
-3.885257e-03 1.550448e-03 0.0
-4.442048e-03 1.625725e-03 0.0
-5.020704e-03 1.688911e-03 0.0
-5.617721e-03 1.740415e-03 0.0
-6.229221e-03 1.781222e-03 0.0
-6.851304e-03 1.812566e-03 0.0
-7.480452e-03 1.835513e-03 0.0
-8.113760e-03 1.850683e-03 0.0
-8.748907e-03 1.858232e-03 0.0
-9.383897e-03 1.858073e-03 0.0
-1.001674e-02 1.850197e-03 0.0
-1.064523e-02 1.834912e-03 0.0
-1.126695e-02 1.812875e-03 0.0
-1.187944e-02 1.784932e-03 0.0
-1.248040e-02 1.751860e-03 0.0
-1.306788e-02 1.714159e-03 0.0
-1.364032e-02 1.671990e-03 0.0
-1.419641e-02 1.625267e-03 0.0
-1.473493e-02 1.573854e-03 0.0
-1.525455e-02 1.517740e-03 0.0
-1.575381e-02 1.457135e-03 0.0
-1.623113e-02 1.392427e-03 0.0
-1.668492e-02 1.324062e-03 0.0
-1.711374e-02 1.252392e-03 0.0
-1.751633e-02 1.177583e-03 0.0
-1.789164e-02 1.099605e-03 0.0
-1.823874e-02 1.018304e-03 0.0
-1.855677e-02 9.335206e-04 0.0
-1.884480e-02 8.452051e-04 0.0
-1.910182e-02 7.534734e-04 0.0
-1.932677e-02 6.586056e-04 0.0
-1.951858e-02 5.609874e-04 0.0
-1.967626e-02 4.610292e-04 0.0
-1.979893e-02 3.590926e-04 0.0
-1.988590e-02 2.554529e-04 0.0
-1.993666e-02 1.503043e-04 0.0
-1.995083e-02 4.380026e-05 0.0
-1.992819e-02 -6.388655e-05 0.0
-1.986856e-02 -1.725135e-04 0.0
-1.977186e-02 -2.817808e-04 0.0
-1.963809e-02 -3.913159e-04 0.0
-1.946730e-02 -5.006822e-04 0.0
-1.925968e-02 -6.094020e-04 0.0
-1.901556e-02 -7.169841e-04 0.0
-1.873543e-02 -8.229469e-04 0.0
-1.841993e-02 -9.268300e-04 0.0
-1.806990e-02 -1.028197e-03 0.0
-1.768634e-02 -1.126627e-03 0.0
-1.727040e-02 -1.221707e-03 0.0
-1.682339e-02 -1.313020e-03 0.0
-1.634676e-02 -1.400141e-03 0.0
-1.584209e-02 -1.482631e-03 0.0
-1.531114e-02 -1.560043e-03 0.0
-1.475577e-02 -1.631926e-03 0.0
-1.417802e-02 -1.697828e-03 0.0
-1.358003e-02 -1.757308e-03 0.0
-1.296413e-02 -1.809937e-03 0.0
-1.233276e-02 -1.855304e-03 0.0
-1.168848e-02 -1.893017e-03 0.0
-1.103400e-02 -1.922710e-03 0.0
-1.037213e-02 -1.944040e-03 0.0
-9.705774e-03 -1.956692e-03 0.0
-9.037955e-03 -1.960380e-03 0.0
-8.371760e-03 -1.954851e-03 0.0
-7.710353e-03 -1.939883e-03 0.0
-7.056953e-03 -1.915287e-03 0.0
-6.414823e-03 -1.880913e-03 0.0
-5.787252e-03 -1.836651e-03 0.0
-5.177538e-03 -1.782441e-03 0.0
-4.588967e-03 -1.718277e-03 0.0
-4.024790e-03 -1.644218e-03 0.0
-3.488190e-03 -1.560399e-03 0.0
-2.982252e-03 -1.467047e-03 0.0
-2.509924e-03 -1.364501e-03 0.0
-2.073959e-03 -1.253244e-03 0.0
-1.676862e-03 -1.133933e-03 0.0
-1.320813e-03 -1.007460e-03 0.0
-1.007568e-03 -8.750148e-04 0.0
-7.383527e-04 -7.381871e-04 0.0
-5.137126e-04 -5.990931e-04 0.0
-3.333486e-04 -4.605536e-04 0.0
-1.959143e-04 -3.263291e-04 0.0
-9.878394e-05 -2.014280e-04 0.0
-3.779596e-05 -9.249529e-05 0.0
-6.948205e-06 -8.282782e-06 0.0
1.980722e-06 3.979477e-05 0.0
0.000000e+00 3.687363e-05 0.0
0.000000e+00 -3.679443e-05 0.0
0.000000e+00 -1.955664e-05 0.0
-2.489528e-05 1.851951e-06 0.0
-9.110511e-05 8.425814e-05 0.0
-1.990636e-04 2.264544e-04 0.0
-3.544069e-04 4.091712e-04 0.0
-5.625296e-04 6.140628e-04 0.0
-8.272431e-04 8.271115e-04 0.0
-1.149818e-03 1.038305e-03 0.0
-1.528779e-03 1.241392e-03 0.0
-1.960494e-03 1.433091e-03 0.0
-2.440245e-03 1.611935e-03 0.0
-2.963284e-03 1.777159e-03 0.0
-3.525469e-03 1.927976e-03 0.0
-4.123310e-03 2.063412e-03 0.0
-4.753574e-03 2.182579e-03 0.0
-5.412782e-03 2.285100e-03 0.0
-6.096907e-03 2.371366e-03 0.0
-6.801465e-03 2.442453e-03 0.0
-7.521893e-03 2.499741e-03 0.0
-8.254003e-03 2.544450e-03 0.0
-8.994260e-03 2.577342e-03 0.0
-9.739762e-03 2.598704e-03 0.0
-1.048797e-02 2.608602e-03 0.0
-1.123635e-02 2.607222e-03 0.0
-1.198217e-02 2.595110e-03 0.0
-1.272245e-02 2.573180e-03 0.0
-1.345418e-02 2.542521e-03 0.0
-1.417457e-02 2.504103e-03 0.0
-1.488122e-02 2.458562e-03 0.0
-1.557218e-02 2.406152e-03 0.0
-1.624578e-02 2.346871e-03 0.0
-1.690044e-02 2.280688e-03 0.0
-1.753451e-02 2.207726e-03 0.0
-1.814615e-02 2.128347e-03 0.0
-1.873345e-02 2.043085e-03 0.0
-1.929450e-02 1.952496e-03 0.0
-1.982757e-02 1.856996e-03 0.0
-2.033116e-02 1.756769e-03 0.0
-2.080399e-02 1.651787e-03 0.0
-2.124494e-02 1.541908e-03 0.0
-2.165289e-02 1.427015e-03 0.0
-2.202668e-02 1.307130e-03 0.0
-2.236507e-02 1.182468e-03 0.0
-2.266673e-02 1.053412e-03 0.0
-2.293037e-02 9.204342e-04 0.0
-2.315477e-02 7.840015e-04 0.0
-2.333888e-02 6.445071e-04 0.0
-2.348184e-02 5.022420e-04 0.0
-2.358297e-02 3.574173e-04 0.0
-2.364175e-02 2.102203e-04 0.0
-2.365778e-02 6.088364e-05 0.0
-2.363074e-02 -9.025708e-05 0.0
-2.356037e-02 -2.427375e-04 0.0
-2.344651e-02 -3.960143e-04 0.0
-2.328908e-02 -5.494822e-04 0.0
-2.308817e-02 -7.025040e-04 0.0
-2.284399e-02 -8.544397e-04 0.0
-2.255697e-02 -1.004667e-03 0.0
-2.222773e-02 -1.152587e-03 0.0
-2.185707e-02 -1.297624e-03 0.0
-2.144599e-02 -1.439209e-03 0.0
-2.099567e-02 -1.576770e-03 0.0
-2.050746e-02 -1.709721e-03 0.0
-1.998288e-02 -1.837460e-03 0.0
-1.942361e-02 -1.959364e-03 0.0
-1.883151e-02 -2.074799e-03 0.0
-1.820858e-02 -2.183126e-03 0.0
-1.755702e-02 -2.283708e-03 0.0
-1.687919e-02 -2.375920e-03 0.0
-1.617762e-02 -2.459155e-03 0.0
-1.545499e-02 -2.532827e-03 0.0
-1.471415e-02 -2.596373e-03 0.0
-1.395811e-02 -2.649263e-03 0.0
-1.319001e-02 -2.690995e-03 0.0
-1.241310e-02 -2.721100e-03 0.0
-1.163077e-02 -2.739149e-03 0.0
-1.084651e-02 -2.744751e-03 0.0
-1.006392e-02 -2.737560e-03 0.0
-9.286631e-03 -2.717277e-03 0.0
-8.518377e-03 -2.683651e-03 0.0
-7.762916e-03 -2.636486e-03 0.0
-7.024034e-03 -2.575650e-03 0.0
-6.305516e-03 -2.501080e-03 0.0
-5.611124e-03 -2.412793e-03 0.0
-4.944566e-03 -2.310904e-03 0.0
-4.309461e-03 -2.195633e-03 0.0
-3.709301e-03 -2.067338e-03 0.0
-3.147402e-03 -1.926533e-03 0.0
-2.626848e-03 -1.773930e-03 0.0
-2.150425e-03 -1.610489e-03 0.0
-1.720542e-03 -1.437476e-03 0.0
-1.339134e-03 -1.256556e-03 0.0
-1.007553e-03 -1.069902e-03 0.0
-7.264339e-04 -8.803450e-04 0.0
-4.955503e-04 -6.915700e-04 0.0
-3.136476e-04 -5.083648e-04 0.0
-1.782654e-04 -3.369425e-04 0.0
-8.555618e-05 -1.853384e-04 0.0
-3.008541e-05 -6.388678e-05 0.0
-4.635480e-06 1.421182e-05 0.0
0.000000e+00 3.210533e-05 0.0
0.000000e+00 -3.199908e-05 0.0
0.000000e+00 -4.466704e-05 0.0
-4.174718e-05 1.962641e-05 0.0
-1.257292e-04 1.643721e-04 0.0
-2.635994e-04 3.704367e-04 0.0
-4.601813e-04 6.168191e-04 0.0
-7.196066e-04 8.839030e-04 0.0
-1.043821e-03 1.157300e-03 0.0
-1.432049e-03 1.427239e-03 0.0
-1.881162e-03 1.687706e-03 0.0
-2.386674e-03 1.935170e-03 0.0
-2.943829e-03 2.167325e-03 0.0
-3.548320e-03 2.382228e-03 0.0
-4.196410e-03 2.578036e-03 0.0
-4.884579e-03 2.753236e-03 0.0
-5.609014e-03 2.907037e-03 0.0
-6.365294e-03 3.039611e-03 0.0
-7.148466e-03 3.151969e-03 0.0
-7.953434e-03 3.245531e-03 0.0
-8.775447e-03 3.321613e-03 0.0
-9.610402e-03 3.381088e-03 0.0
-1.045484e-02 3.424371e-03 0.0
-1.130569e-02 3.451686e-03 0.0
-1.215986e-02 3.463423e-03 0.0
-1.301408e-02 3.460373e-03 0.0
-1.386482e-02 3.443724e-03 0.0
-1.470855e-02 3.414824e-03 0.0
-1.554200e-02 3.374868e-03 0.0
-1.636234e-02 3.324666e-03 0.0
-1.716721e-02 3.264609e-03 0.0
-1.795456e-02 3.194826e-03 0.0
-1.872244e-02 3.115431e-03 0.0
-1.946882e-02 3.026719e-03 0.0
-2.019149e-02 2.929233e-03 0.0
-2.088818e-02 2.823675e-03 0.0
-2.155669e-02 2.710730e-03 0.0
-2.219500e-02 2.590893e-03 0.0
-2.280139e-02 2.464391e-03 0.0
-2.337434e-02 2.331222e-03 0.0
-2.391250e-02 2.191277e-03 0.0
-2.441452e-02 2.044502e-03 0.0
-2.487898e-02 1.891013e-03 0.0
-2.530438e-02 1.731133e-03 0.0
-2.568914e-02 1.565346e-03 0.0
-2.603174e-02 1.394207e-03 0.0
-2.633076e-02 1.218234e-03 0.0
-2.658496e-02 1.037847e-03 0.0
-2.679333e-02 8.533494e-04 0.0
-2.695501e-02 6.649721e-04 0.0
-2.706930e-02 4.729419e-04 0.0
-2.713563e-02 2.775586e-04 0.0
-2.715347e-02 7.925100e-05 0.0
-2.712237e-02 -1.213978e-04 0.0
-2.704200e-02 -3.236653e-04 0.0
-2.691211e-02 -5.267719e-04 0.0
-2.673263e-02 -7.299159e-04 0.0
-2.650366e-02 -9.323023e-04 0.0
-2.622551e-02 -1.133160e-03 0.0
-2.589871e-02 -1.331741e-03 0.0
-2.552400e-02 -1.527315e-03 0.0
-2.510232e-02 -1.719149e-03 0.0
-2.463481e-02 -1.906494e-03 0.0
-2.412280e-02 -2.088579e-03 0.0
-2.356780e-02 -2.264601e-03 0.0
-2.297153e-02 -2.433735e-03 0.0
-2.233586e-02 -2.595141e-03 0.0
-2.166288e-02 -2.747969e-03 0.0
-2.095489e-02 -2.891374e-03 0.0
-2.021435e-02 -3.024526e-03 0.0
-1.944393e-02 -3.146611e-03 0.0
-1.864650e-02 -3.256840e-03 0.0
-1.782510e-02 -3.354452e-03 0.0
-1.698293e-02 -3.438722e-03 0.0
-1.612340e-02 -3.508955e-03 0.0
-1.525002e-02 -3.564502e-03 0.0
-1.436648e-02 -3.604753e-03 0.0
-1.347658e-02 -3.629150e-03 0.0
-1.258425e-02 -3.637186e-03 0.0
-1.169349e-02 -3.628416e-03 0.0
-1.080842e-02 -3.602458e-03 0.0
-9.933179e-03 -3.558999e-03 0.0
-9.071983e-03 -3.497798e-03 0.0
-8.229049e-03 -3.418705e-03 0.0
-7.408589e-03 -3.321664e-03 0.0
-6.614780e-03 -3.206730e-03 0.0
-5.851724e-03 -3.074088e-03 0.0
-5.123416e-03 -2.924071e-03 0.0
-4.433697e-03 -2.757188e-03 0.0
-3.786200e-03 -2.574161e-03 0.0
-3.184293e-03 -2.375968e-03 0.0
-2.631012e-03 -2.163900e-03 0.0
-2.128977e-03 -1.939640e-03 0.0
-1.680306e-03 -1.705356e-03 0.0
-1.286509e-03 -1.463828e-03 0.0
-9.483758e-04 -1.218607e-03 0.0
-6.658554e-04 -9.742184e-04 0.0
-4.379295e-04 -7.364184e-04 0.0
-2.624899e-04 -5.125092e-04 0.0
-1.362306e-04 -3.117268e-04 0.0
-5.455305e-05 -1.456925e-04 0.0
-1.153681e-05 -2.893247e-05 0.0
0.000000e+00 2.044057e-05 0.0
0.000000e+00 -2.030405e-05 0.0
0.000000e+00 -7.412910e-05 0.0
-5.296116e-05 5.101431e-05 0.0
-1.551848e-04 2.707218e-04 0.0
-3.249999e-04 5.500569e-04 0.0
-5.653286e-04 8.669978e-04 0.0
-8.778532e-04 1.202287e-03 0.0
-1.261947e-03 1.542132e-03 0.0
-1.714759e-03 1.877200e-03 0.0
-2.232019e-03 2.201312e-03 0.0
-2.809049e-03 2.510077e-03 0.0
-3.441489e-03 2.799935e-03 0.0
-4.125458e-03 3.067782e-03 0.0
-4.857230e-03 3.311138e-03 0.0
-5.632732e-03 3.528509e-03 0.0
-6.447231e-03 3.719593e-03 0.0
-7.295405e-03 3.885128e-03 0.0
-8.171740e-03 4.026413e-03 0.0
-9.071031e-03 4.144743e-03 0.0
-9.988700e-03 4.241033e-03 0.0
-1.092080e-02 4.315785e-03 0.0
-1.186373e-02 4.369357e-03 0.0
-1.281389e-02 4.402329e-03 0.0
-1.376745e-02 4.415738e-03 0.0
-1.472035e-02 4.411043e-03 0.0
-1.566856e-02 4.389862e-03 0.0
-1.660833e-02 4.353630e-03 0.0
-1.753641e-02 4.303361e-03 0.0
-1.845006e-02 4.239622e-03 0.0
-1.934685e-02 4.162718e-03 0.0
-2.022442e-02 4.072950e-03 0.0
-2.108033e-02 3.970825e-03 0.0
-2.191200e-02 3.857100e-03 0.0
-2.271680e-02 3.732669e-03 0.0
-2.349220e-02 3.598366e-03 0.0
-2.423594e-02 3.454789e-03 0.0
-2.494605e-02 3.302229e-03 0.0
-2.562080e-02 3.140735e-03 0.0
-2.625859e-02 2.970264e-03 0.0
-2.685782e-02 2.790851e-03 0.0
-2.741679e-02 2.602724e-03 0.0
-2.793374e-02 2.406324e-03 0.0
-2.840685e-02 2.202245e-03 0.0
-2.883435e-02 1.991116e-03 0.0
-2.921464e-02 1.773503e-03 0.0
-2.954630e-02 1.549843e-03 0.0
-2.982815e-02 1.320455e-03 0.0
-3.005916e-02 1.085589e-03 0.0
-3.023845e-02 8.455195e-04 0.0
-3.036521e-02 6.006187e-04 0.0
-3.043873e-02 3.514128e-04 0.0
-3.045835e-02 9.859689e-05 0.0
-3.042349e-02 -1.569826e-04 0.0
-3.033375e-02 -4.143728e-04 0.0
-3.018886e-02 -6.726085e-04 0.0
-2.998878e-02 -9.307391e-04 0.0
-2.973369e-02 -1.187841e-03 0.0
-2.942397e-02 -1.443010e-03 0.0
-2.906027e-02 -1.695351e-03 0.0
-2.864340e-02 -1.943952e-03 0.0
-2.817443e-02 -2.187875e-03 0.0
-2.765460e-02 -2.426145e-03 0.0
-2.708535e-02 -2.657747e-03 0.0
-2.646837e-02 -2.881638e-03 0.0
-2.580551e-02 -3.096752e-03 0.0
-2.509887e-02 -3.302016e-03 0.0
-2.435076e-02 -3.496358e-03 0.0
-2.356370e-02 -3.678717e-03 0.0
-2.274043e-02 -3.848054e-03 0.0
-2.188393e-02 -4.003351e-03 0.0
-2.099734e-02 -4.143622e-03 0.0
-2.008404e-02 -4.267917e-03 0.0
-1.914757e-02 -4.375322e-03 0.0
-1.819167e-02 -4.464971e-03 0.0
-1.722022e-02 -4.536046e-03 0.0
-1.623728e-02 -4.587785e-03 0.0
-1.524703e-02 -4.619491e-03 0.0
-1.425378e-02 -4.630534e-03 0.0
-1.326194e-02 -4.620364e-03 0.0