# vtk DataFile Version 3.0
Vector Field
ASCII
DATASET RECTILINEAR_GRID
DIMENSIONS 102 102 1
X_COORDINATES 102 double
0.000000 0.100000 0.200000 0.300000 0.400000 0.500000 0.600000 0.700000 0.800000 0.900000 1.000000 1.100000 1.200000 1.300000 1.400000 1.500000 1.600000 1.700000 1.800000 1.900000 2.000000 2.100000 2.200000 2.300000 2.400000 2.500000 2.600000 2.700000 2.800000 2.900000 3.000000 3.100000 3.200000 3.300000 3.400000 3.500000 3.600000 3.700000 3.800000 3.900000 4.000000 4.100000 4.200000 4.300000 4.400000 4.500000 4.600000 4.700000 4.800000 4.900000 5.000000 5.100000 5.200000 5.300000 5.400000 5.500000 5.600000 5.700000 5.800000 5.900000 6.000000 6.100000 6.200000 6.300000 6.400000 6.500000 6.600000 6.700000 6.800000 6.900000 7.000000 7.100000 7.200000 7.300000 7.400000 7.500000 7.600000 7.700000 7.800000 7.900000 8.000000 8.100000 8.200000 8.300000 8.400000 8.500000 8.600000 8.700000 8.800000 8.900000 9.000000 9.100000 9.200000 9.300000 9.400000 9.500000 9.600000 9.700000 9.800000 9.900000 10.000000 10.100000 
Y_COORDINATES 102 double
0.000000 0.100000 0.200000 0.300000 0.400000 0.500000 0.600000 0.700000 0.800000 0.900000 1.000000 1.100000 1.200000 1.300000 1.400000 1.500000 1.600000 1.700000 1.800000 1.900000 2.000000 2.100000 2.200000 2.300000 2.400000 2.500000 2.600000 2.700000 2.800000 2.900000 3.000000 3.100000 3.200000 3.300000 3.400000 3.500000 3.600000 3.700000 3.800000 3.900000 4.000000 4.100000 4.200000 4.300000 4.400000 4.500000 4.600000 4.700000 4.800000 4.900000 5.000000 5.100000 5.200000 5.300000 5.400000 5.500000 5.600000 5.700000 5.800000 5.900000 6.000000 6.100000 6.200000 6.300000 6.400000 6.500000 6.600000 6.700000 6.800000 6.900000 7.000000 7.100000 7.200000 7.300000 7.400000 7.500000 7.600000 7.700000 7.800000 7.900000 8.000000 8.100000 8.200000 8.300000 8.400000 8.500000 8.600000 8.700000 8.800000 8.900000 9.000000 9.100000 9.200000 9.300000 9.400000 9.500000 9.600000 9.700000 9.800000 9.900000 10.000000 10.100000 
Z_COORDINATES 1 double
0.0
POINT_DATA 10404
VECTORS Velocity double
0.000000e+00 0.000000e+00 0.0
-8.710872e-06 0.000000e+00 0.0
-2.119432e-05 0.000000e+00 0.0
-3.169615e-05 0.000000e+00 0.0
-3.470556e-05 0.000000e+00 0.0
-2.815032e-05 0.000000e+00 0.0
-1.163660e-05 0.000000e+00 0.0
1.484127e-05 0.000000e+00 0.0
5.162916e-05 0.000000e+00 0.0
9.941324e-05 0.000000e+00 0.0
1.586771e-04 0.000000e+00 0.0
2.290604e-04 0.000000e+00 0.0
3.090786e-04 0.000000e+00 0.0
3.964226e-04 0.000000e+00 0.0
4.886971e-04 0.000000e+00 0.0
5.842003e-04 0.000000e+00 0.0
6.823313e-04 0.000000e+00 0.0
7.834263e-04 0.000000e+00 0.0
8.881444e-04 0.000000e+00 0.0
9.967533e-04 0.000000e+00 0.0
1.108692e-03 0.000000e+00 0.0
1.222609e-03 0.000000e+00 0.0
1.336814e-03 0.000000e+00 0.0
1.449870e-03 0.000000e+00 0.0
1.561023e-03 0.000000e+00 0.0
1.670273e-03 0.000000e+00 0.0
1.778092e-03 0.000000e+00 0.0
1.884972e-03 0.000000e+00 0.0
1.991021e-03 0.000000e+00 0.0
2.095803e-03 0.000000e+00 0.0
2.198433e-03 0.000000e+00 0.0
2.297858e-03 0.000000e+00 0.0
2.393165e-03 0.000000e+00 0.0
2.483785e-03 0.000000e+00 0.0
2.569519e-03 0.000000e+00 0.0
2.650424e-03 0.000000e+00 0.0
2.726620e-03 0.000000e+00 0.0
2.798120e-03 0.000000e+00 0.0
2.864732e-03 0.000000e+00 0.0
2.926066e-03 0.000000e+00 0.0
2.981609e-03 0.000000e+00 0.0
3.030829e-03 0.000000e+00 0.0
3.073264e-03 0.000000e+00 0.0
3.108574e-03 0.000000e+00 0.0
3.136540e-03 0.000000e+00 0.0
3.157043e-03 0.000000e+00 0.0
3.170013e-03 0.000000e+00 0.0
3.175401e-03 0.000000e+00 0.0
3.173155e-03 0.000000e+00 0.0
3.163235e-03 0.000000e+00 0.0
3.145608e-03 0.000000e+00 0.0
3.120259e-03 0.000000e+00 0.0
3.087203e-03 0.000000e+00 0.0
3.046502e-03 0.000000e+00 0.0
2.998271e-03 0.000000e+00 0.0
2.942684e-03 0.000000e+00 0.0
2.879969e-03 0.000000e+00 0.0
2.810409e-03 0.000000e+00 0.0
2.734330e-03 0.000000e+00 0.0
2.652097e-03 0.000000e+00 0.0
2.564107e-03 0.000000e+00 0.0
2.470785e-03 0.000000e+00 0.0
2.372580e-03 0.000000e+00 0.0
2.269968e-03 0.000000e+00 0.0
2.163447e-03 0.000000e+00 0.0
2.053542e-03 0.000000e+00 0.0
1.940801e-03 0.000000e+00 0.0
1.825795e-03 0.000000e+00 0.0
1.709116e-03 0.000000e+00 0.0
1.591371e-03 0.000000e+00 0.0
1.473181e-03 0.000000e+00 0.0
1.355170e-03 0.000000e+00 0.0
1.237967e-03 0.000000e+00 0.0
1.122195e-03 0.000000e+00 0.0
1.008471e-03 0.000000e+00 0.0
8.974031e-04 0.000000e+00 0.0
7.895856e-04 0.000000e+00 0.0
6.855964e-04 0.000000e+00 0.0
5.859939e-04 0.000000e+00 0.0
4.913142e-04 0.000000e+00 0.0
4.020670e-04 0.000000e+00 0.0
3.187325e-04 0.000000e+00 0.0
2.417566e-04 0.000000e+00 0.0
1.715471e-04 0.000000e+00 0.0
1.084680e-04 0.000000e+00 0.0
5.283482e-05 0.000000e+00 0.0
4.907446e-06 0.000000e+00 0.0
-3.511677e-05 0.000000e+00 0.0
-6.711261e-05 0.000000e+00 0.0
-9.103941e-05 0.000000e+00 0.0
-1.069566e-04 0.000000e+00 0.0
-1.150457e-04 0.000000e+00 0.0
-1.156403e-04 0.000000e+00 0.0
-1.092705e-04 0.000000e+00 0.0
-9.672569e-05 0.000000e+00 0.0
-7.915057e-05 0.000000e+00 0.0
-5.818668e-05 0.000000e+00 0.0
-3.617530e-05 0.000000e+00 0.0
-1.639075e-05 0.000000e+00 0.0
-3.061371e-06 0.000000e+00 0.0
-0.000000e+00 0.000000e+00 0.0
0.000000e+00 0.000000e+00 0.0
0.000000e+00 8.794829e-06 0.0
1.654340e-06 -1.579074e-05 0.0
1.979031e-05 -1.902697e-05 0.0
3.660820e-05 -1.208191e-05 0.0
4.525502e-05 -1.921487e-07 0.0
4.147266e-05 1.228717e-05 0.0
2.329661e-05 2.294859e-05 0.0
-9.051537e-06 3.140027e-05 0.0
-5.363473e-05 3.875827e-05 0.0
-1.077846e-04 4.665154e-05 0.0
-1.692535e-04 5.612571e-05 0.0
-2.370003e-04 6.698313e-05 0.0
-3.112449e-04 7.787656e-05 0.0
-3.928263e-04 8.705831e-05 0.0
-4.822649e-04 9.333330e-05 0.0
-5.790641e-04 9.667861e-05 0.0
-6.816105e-04 9.820995e-05 0.0
-7.876829e-04 9.955206e-05 0.0
-8.952564e-04 1.019865e-04 0.0
-1.003160e-03 1.058376e-04 0.0
-1.111271e-03 1.103901e-04 0.0
-1.220188e-03 1.143318e-04 0.0
-1.330618e-03 1.164466e-04 0.0
-1.442784e-03 1.161921e-04 0.0
-1.556150e-03 1.138963e-04 0.0
-1.669542e-03 1.105313e-04 0.0
-1.781539e-03 1.072229e-04 0.0
-1.890936e-03 1.047584e-04 0.0
-1.997040e-03 1.033118e-04 0.0
-2.099714e-03 1.024710e-04 0.0
-2.199189e-03 1.015031e-04 0.0
-2.295766e-03 9.970144e-05 0.0
-2.389551e-03 9.665839e-05 0.0
-2.480327e-03 9.236678e-05 0.0
-2.567571e-03 8.714811e-05 0.0
-2.650588e-03 8.147281e-05 0.0
-2.728675e-03 7.576565e-05 0.0
-2.801257e-03 7.027179e-05 0.0
-2.867942e-03 6.501678e-05 0.0
-2.928510e-03 5.985077e-05 0.0
-2.982846e-03 5.453961e-05 0.0
-3.030868e-03 4.885999e-05 0.0
-3.072460e-03 4.266688e-05 0.0
-3.107446e-03 3.592028e-05 0.0
-3.135588e-03 2.867555e-05 0.0
-3.156612e-03 2.105074e-05 0.0
-3.170241e-03 1.318758e-05 0.0
-3.176228e-03 5.218861e-06 0.0
-3.174388e-03 -2.749972e-06 0.0
-3.164622e-03 -1.063967e-05 0.0
-3.146914e-03 -1.841543e-05 0.0
-3.121315e-03 -2.607582e-05 0.0
-3.087930e-03 -3.363280e-05 0.0
-3.046906e-03 -4.109553e-05 0.0
-2.998423e-03 -4.845932e-05 0.0
-2.942689e-03 -5.570040e-05 0.0
-2.879935e-03 -6.277656e-05 0.0
-2.810421e-03 -6.963207e-05 0.0
-2.734437e-03 -7.620493e-05 0.0
-2.652309e-03 -8.243417e-05 0.0
-2.564402e-03 -8.826550e-05 0.0
-2.471120e-03 -9.365440e-05 0.0
-2.372907e-03 -9.856669e-05 0.0
-2.270244e-03 -1.029769e-04 0.0
-2.163644e-03 -1.068659e-04 0.0
-2.053649e-03 -1.102176e-04 0.0
-1.940822e-03 -1.130171e-04 0.0
-1.825746e-03 -1.152496e-04 0.0
-1.709018e-03 -1.168995e-04 0.0
-1.591245e-03 -1.179520e-04 0.0
-1.473042e-03 -1.183939e-04 0.0
-1.355028e-03 -1.182155e-04 0.0
-1.237824e-03 -1.174120e-04 0.0
-1.122048e-03 -1.159829e-04 0.0
-1.008314e-03 -1.139328e-04 0.0
-8.972317e-04 -1.112707e-04 0.0
-7.893953e-04 -1.080105e-04 0.0
-6.853859e-04 -1.041699e-04 0.0
-5.857652e-04 -9.976968e-05 0.0
-4.910716e-04 -9.483396e-05 0.0
-4.018161e-04 -8.938972e-05 0.0
-3.184793e-04 -8.346718e-05 0.0
-2.415065e-04 -7.710021e-05 0.0
-1.713043e-04 -7.032687e-05 0.0
-1.082358e-04 -6.319006e-05 0.0
-5.261537e-05 -5.573829e-05 0.0
-4.702316e-06 -4.802652e-05 0.0
3.530638e-05 -4.011741e-05 0.0
6.728565e-05 -3.208316e-05 0.0
9.119488e-05 -2.400849e-05 0.0
1.070936e-04 -1.599371e-05 0.0
1.151632e-04 -8.160961e-06 0.0
1.157380e-04 -6.628680e-07 0.0
1.093481e-04 6.304387e-06 0.0
9.678381e-05 1.248090e-05 0.0
7.919039e-05 1.751162e-05 0.0
5.821039e-05 2.089937e-05 0.0
3.618564e-05 2.194497e-05 0.0
1.639128e-05 1.971502e-05 0.0
3.057788e-06 1.325443e-05 0.0
0.000000e+00 2.978780e-06 0.0
0.000000e+00 -2.991605e-06 0.0
0.000000e+00 2.679794e-05 0.0
1.162781e-05 -2.858977e-05 0.0
3.544040e-05 -3.634297e-05 0.0
4.862752e-05 -1.927317e-05 0.0
3.996476e-05 1.114833e-05 0.0
3.036692e-06 4.704988e-05 0.0
-6.448471e-05 8.429046e-05 0.0
-1.619702e-04 1.215946e-04 0.0
-2.872628e-04 1.591134e-04 0.0
-4.380245e-04 1.969878e-04 0.0
-6.125603e-04 2.344555e-04 0.0
-8.098959e-04 2.698175e-04 0.0
-1.029248e-03 3.011351e-04 0.0
-1.269308e-03 3.271651e-04 0.0
-1.527813e-03 3.479545e-04 0.0
-1.801645e-03 3.647567e-04 0.0
-2.087401e-03 3.793373e-04 0.0
-2.382096e-03 3.930700e-04 0.0
-2.683643e-03 4.063095e-04 0.0
-2.990873e-03 4.183387e-04 0.0
-3.303148e-03 4.278639e-04 0.0
-3.619805e-03 4.337513e-04 0.0
-3.939714e-03 4.356120e-04 0.0
-4.261160e-03 4.339681e-04 0.0
-4.582039e-03 4.299713e-04 0.0
-4.900241e-03 4.248658e-04 0.0
-5.214004e-03 4.194777e-04 0.0
-5.522082e-03 4.139578e-04 0.0
-5.823690e-03 4.078499e-04 0.0
-6.118284e-03 4.003985e-04 0.0
-6.405303e-03 3.909221e-04 0.0
-6.683977e-03 3.790847e-04 0.0
-6.953279e-03 3.649749e-04 0.0
-7.211991e-03 3.490034e-04 0.0
-7.458830e-03 3.316993e-04 0.0
-7.692588e-03 3.135072e-04 0.0
-7.912208e-03 2.946612e-04 0.0
-8.116799e-03 2.751625e-04 0.0
-8.305606e-03 2.548430e-04 0.0
-8.477943e-03 2.334701e-04 0.0
-8.633138e-03 2.108463e-04 0.0
-8.770501e-03 1.868740e-04 0.0
-8.889318e-03 1.615752e-04 0.0
-8.988866e-03 1.350742e-04 0.0
-9.068448e-03 1.075592e-04 0.0
-9.127424e-03 7.924127e-05 0.0
-9.165240e-03 5.032275e-05 0.0
-9.181456e-03 2.098180e-05 0.0
-9.175764e-03 -8.625012e-06 0.0
-9.148004e-03 -3.834203e-05 0.0
-9.098154e-03 -6.804434e-05 0.0
-9.026319e-03 -9.762746e-05 0.0
-8.932713e-03 -1.269848e-04 0.0
-8.817656e-03 -1.559943e-04 0.0
-8.681568e-03 -1.845134e-04 0.0
-8.524974e-03 -2.123811e-04 0.0
-8.348498e-03 -2.394253e-04 0.0
-8.152874e-03 -2.654709e-04 0.0
-7.938942e-03 -2.903483e-04 0.0
-7.707652e-03 -3.138995e-04 0.0
-7.460058e-03 -3.359806e-04 0.0
-7.197317e-03 -3.564625e-04 0.0
-6.920679e-03 -3.752286e-04 0.0
-6.631481e-03 -3.921731e-04 0.0
-6.331142e-03 -4.071984e-04 0.0
-6.021151e-03 -4.202138e-04 0.0
-5.703057e-03 -4.311356e-04 0.0
-5.378465e-03 -4.398880e-04 0.0
-5.049024e-03 -4.464048e-04 0.0
-4.716420e-03 -4.506315e-04 0.0
-4.382362e-03 -4.525278e-04 0.0
-4.048579e-03 -4.520694e-04 0.0
-3.716802e-03 -4.492492e-04 0.0
-3.388760e-03 -4.440741e-04 0.0
-3.066167e-03 -4.365650e-04 0.0
-2.750714e-03 -4.267570e-04 0.0
-2.444056e-03 -4.146986e-04 0.0
-2.147805e-03 -4.004519e-04 0.0
-1.863517e-03 -3.840919e-04 0.0
-1.592681e-03 -3.657075e-04 0.0
-1.336708e-03 -3.454018e-04 0.0
-1.096922e-03 -3.232928e-04 0.0
-8.745473e-04 -2.995148e-04 0.0
-6.706922e-04 -2.742195e-04 0.0
-4.863389e-04 -2.475783e-04 0.0
-3.223250e-04 -2.197843e-04 0.0
-1.793251e-04 -1.910559e-04 0.0
-5.782835e-05 -1.616416e-04 0.0
4.188930e-05 -1.318267e-04 0.0
1.197984e-04 -1.019424e-04 0.0
1.761616e-04 -7.238102e-05 0.0
2.115894e-04 -4.361239e-05 0.0
2.271149e-04 -1.621159e-05 0.0
2.242926e-04 9.103719e-06 0.0
2.053288e-04 3.142196e-05 0.0
1.732491e-04 4.956866e-05 0.0
1.321012e-04 6.202464e-05 0.0
8.715829e-05 6.686514e-05 0.0
4.501427e-05 6.183623e-05 0.0
1.332943e-05 4.491636e-05 0.0
0.000000e+00 1.628519e-05 0.0
0.000000e+00 -1.629989e-05 0.0
0.000000e+00 4.120080e-05 0.0
1.310895e-05 -3.732767e-05 0.0
2.615883e-05 -4.321416e-05 0.0
1.733712e-05 -7.720822e-06 0.0
-2.541800e-05 5.166829e-05 0.0
-1.085178e-04 1.238996e-04 0.0
-2.340860e-04 2.026650e-04 0.0
-4.016865e-04 2.846119e-04 0.0
-6.099564e-04 3.674855e-04 0.0
-8.576096e-04 4.488999e-04 0.0
-1.143579e-03 5.260702e-04 0.0
-1.466509e-03 5.963698e-04 0.0
-1.824093e-03 6.581766e-04 0.0
-2.212781e-03 7.113897e-04 0.0
-2.628077e-03 7.572585e-04 0.0
-3.065280e-03 7.976014e-04 0.0
-3.520293e-03 8.338404e-04 0.0
-3.990065e-03 8.663558e-04 0.0
-4.472516e-03 8.944597e-04 0.0
-4.966027e-03 9.169348e-04 0.0
-5.468821e-03 9.328008e-04 0.0
-5.978552e-03 9.418929e-04 0.0
-6.492287e-03 9.449847e-04 0.0
-7.006816e-03 9.434488e-04 0.0
-7.519108e-03 9.386750e-04 0.0
-8.026657e-03 9.315532e-04 0.0
-8.527593e-03 9.222443e-04 0.0
-9.020528e-03 9.102937e-04 0.0
-9.504261e-03 8.949798e-04 0.0
-9.977495e-03 8.757049e-04 0.0
-1.043867e-02 8.522556e-04 0.0
-1.088596e-02 8.248529e-04 0.0
-1.131742e-02 7.940176e-04 0.0
-1.173109e-02 7.603461e-04 0.0
-1.212519e-02 7.243067e-04 0.0
-1.249817e-02 6.861270e-04 0.0
-1.284864e-02 6.457948e-04 0.0
-1.317534e-02 6.031403e-04 0.0
-1.347710e-02 5.579534e-04 0.0
-1.375269e-02 5.100849e-04 0.0
-1.400090e-02 4.595062e-04 0.0
-1.422050e-02 4.063200e-04 0.0
-1.441026e-02 3.507356e-04 0.0
-1.456903e-02 2.930267e-04 0.0
-1.469578e-02 2.334896e-04 0.0
-1.478957e-02 1.724138e-04 0.0
-1.484965e-02 1.100708e-04 0.0
-1.487544e-02 4.671957e-05 0.0
-1.486651e-02 -1.737257e-05 0.0
-1.482265e-02 -8.189894e-05 0.0
-1.474382e-02 -1.465567e-04 0.0
-1.463017e-02 -2.110469e-04 0.0
-1.448199e-02 -2.750575e-04 0.0
-1.429976e-02 -3.382581e-04 0.0
-1.408413e-02 -4.003020e-04 0.0
-1.383589e-02 -4.608345e-04 0.0
-1.355605e-02 -5.195027e-04 0.0
-1.324577e-02 -5.759638e-04 0.0
-1.290638e-02 -6.298911e-04 0.0
-1.253939e-02 -6.809764e-04 0.0
-1.214648e-02 -7.289303e-04 0.0
-1.172946e-02 -7.734808e-04 0.0
-1.129031e-02 -8.143717e-04 0.0
-1.083111e-02 -8.513617e-04 0.0
-1.035410e-02 -8.842249e-04 0.0
-9.861601e-03 -9.127521e-04 0.0
-9.356045e-03 -9.367540e-04 0.0
-8.839947e-03 -9.560637e-04 0.0
-8.315893e-03 -9.705406e-04 0.0
-7.786531e-03 -9.800727e-04 0.0
-7.254548e-03 -9.845797e-04 0.0
-6.722660e-03 -9.840146e-04 0.0
-6.193590e-03 -9.783648e-04 0.0
-5.670055e-03 -9.676461e-04 0.0
-5.154751e-03 -9.519033e-04 0.0
-4.650332e-03 -9.312099e-04 0.0
-4.159399e-03 -9.056684e-04 0.0
-3.684480e-03 -8.754111e-04 0.0
-3.228014e-03 -8.406006e-04 0.0
-2.792336e-03 -8.014307e-04 0.0
-2.379654e-03 -7.581281e-04 0.0
-1.992035e-03 -7.109537e-04 0.0
-1.631383e-03 -6.602048e-04 0.0
-1.299420e-03 -6.062180e-04 0.0
-9.976579e-04 -5.493729e-04 0.0
-7.273747e-04 -4.900973e-04 0.0
-4.895839e-04 -4.288745e-04 0.0
-2.849988e-04 -3.662533e-04 0.0
-1.139897e-04 -3.028616e-04 0.0
2.346749e-05 -2.394248e-04 0.0
1.278532e-04 -1.767914e-04 0.0
2.001848e-04 -1.159682e-04 0.0
2.421140e-04 -5.816453e-05 0.0
2.560460e-04 -4.851911e-06 0.0
2.452858e-04 4.215880e-05 0.0
2.142032e-04 8.062803e-05 0.0
1.684042e-04 1.078002e-04 0.0
1.148729e-04 1.203728e-04 0.0
6.203519e-05 1.146502e-04 0.0
1.978457e-05 8.714311e-05 0.0
0.000000e+00 3.604577e-05 0.0
0.000000e+00 -3.605603e-05 0.0
0.000000e+00 4.717985e-05 0.0
9.055719e-06 -3.784293e-05 0.0
-1.118620e-08 -3.091752e-05 0.0
-4.323230e-05 3.348289e-05 0.0
-1.311220e-04 1.332668e-04 0.0
-2.689806e-04 2.544664e-04 0.0
-4.587639e-04 3.879538e-04 0.0
-7.008821e-04 5.272158e-04 0.0
-9.953280e-04 6.667513e-04 0.0
-1.341847e-03 8.015267e-04 0.0
-1.739385e-03 9.273432e-04 0.0
-2.185400e-03 1.041550e-03 0.0
-2.675628e-03 1.143440e-03 0.0
-3.204551e-03 1.233950e-03 0.0
-3.766365e-03 1.314747e-03 0.0
-4.355956e-03 1.387164e-03 0.0
-4.969411e-03 1.451515e-03 0.0
-5.603873e-03 1.507079e-03 0.0
-6.256906e-03 1.552691e-03 0.0
-6.925774e-03 1.587531e-03 0.0
-7.607010e-03 1.611694e-03 0.0
-8.296477e-03 1.626260e-03 0.0
-8.989805e-03 1.632879e-03 0.0
-9.682956e-03 1.633136e-03 0.0
-1.037262e-02 1.628020e-03 0.0
-1.105627e-02 1.617729e-03 0.0
-1.173193e-02 1.601841e-03 0.0
-1.239778e-02 1.579708e-03 0.0
-1.305184e-02 1.550866e-03 0.0
-1.369176e-02 1.515279e-03 0.0
-1.431492e-02 1.473351e-03 0.0
-1.491861e-02 1.425755e-03 0.0
-1.550020e-02 1.373183e-03 0.0
-1.605732e-02 1.316141e-03 0.0
-1.658788e-02 1.254860e-03 0.0
-1.709004e-02 1.189322e-03 0.0
-1.756207e-02 1.119367e-03 0.0
-1.800230e-02 1.044823e-03 0.0
-1.840901e-02 9.656070e-04 0.0
-1.878045e-02 8.817780e-04 0.0
-1.911487e-02 7.935362e-04 0.0
-1.941055e-02 7.011892e-04 0.0
-1.966587e-02 6.051056e-04 0.0
-1.987935e-02 5.056740e-04 0.0
-2.004970e-02 4.032774e-04 0.0
-2.017579e-02 2.982878e-04 0.0
-2.025670e-02 1.910771e-04 0.0
-2.029172e-02 8.204089e-05 0.0
-2.028034e-02 -2.837156e-05 0.0
-2.022227e-02 -1.396252e-04 0.0
-2.011746e-02 -2.511593e-04 0.0
-1.996606e-02 -3.624048e-04 0.0
-1.976845e-02 -4.727786e-04 0.0
-1.952524e-02 -5.816867e-04 0.0
-1.923728e-02 -6.885319e-04 0.0
-1.890564e-02 -7.927239e-04 0.0
-1.853166e-02 -8.936873e-04 0.0
-1.811689e-02 -9.908664e-04 0.0
-1.766311e-02 -1.083727e-03 0.0
-1.717233e-02 -1.171758e-03 0.0
-1.664677e-02 -1.254467e-03 0.0
-1.608885e-02 -1.331385e-03 0.0
-1.550116e-02 -1.402061e-03 0.0
-1.488647e-02 -1.466072e-03 0.0
-1.424773e-02 -1.523021e-03 0.0
-1.358802e-02 -1.572546e-03 0.0
-1.291054e-02 -1.614320e-03 0.0
-1.221863e-02 -1.648062e-03 0.0
-1.151571e-02 -1.673536e-03 0.0
-1.080530e-02 -1.690555e-03 0.0
-1.009094e-02 -1.698988e-03 0.0
-9.376248e-03 -1.698753e-03 0.0
-8.664821e-03 -1.689829e-03 0.0
-7.960263e-03 -1.672240e-03 0.0
-7.266144e-03 -1.646060e-03 0.0
-6.585982e-03 -1.611414e-03 0.0
-5.923220e-03 -1.568476e-03 0.0
-5.281208e-03 -1.517472e-03 0.0
-4.663172e-03 -1.458685e-03 0.0
-4.072200e-03 -1.392449e-03 0.0
-3.511211e-03 -1.319160e-03 0.0
-2.982931e-03 -1.239272e-03 0.0
-2.489868e-03 -1.153303e-03 0.0
-2.034278e-03 -1.061840e-03 0.0
-1.618137e-03 -9.655437e-04 0.0
-1.243104e-03 -8.651588e-04 0.0
-9.104801e-04 -7.615258e-04 0.0
-6.211643e-04 -6.555961e-04 0.0
-3.755985e-04 -5.484537e-04 0.0
-1.737060e-04 -4.413431e-04 0.0
-1.481618e-05 -3.357064e-04 0.0
1.024218e-04 -2.332309e-04 0.0
1.801439e-04 -1.359110e-04 0.0
2.213929e-04 -4.612522e-05 0.0
2.302512e-04 3.327643e-05 0.0
2.119826e-04 9.887237e-05 0.0
1.731704e-04 1.465878e-04 0.0
1.218457e-04 1.716726e-04 0.0
6.763801e-05 1.688329e-04 0.0
2.213268e-05 1.326234e-04 0.0
0.000000e+00 5.815333e-05 0.0
0.000000e+00 -5.815411e-05 0.0
0.000000e+00 4.192128e-05 0.0
6.558541e-07 -2.901038e-05 0.0
-3.735381e-05 5.612291e-06 0.0
-1.220970e-04 1.120670e-04 0.0
-2.613837e-04 2.651018e-04 0.0
-4.593327e-04 4.477592e-04 0.0
-7.181898e-04 6.473984e-04 0.0
-1.039515e-03 8.537883e-04 0.0
-1.424348e-03 1.058267e-03 0.0
-1.872567e-03 1.253912e-03 0.0
-2.382084e-03 1.436117e-03 0.0
-2.948577e-03 1.602853e-03 0.0
-3.566027e-03 1.754218e-03 0.0
-4.227867e-03 1.891358e-03 0.0
-4.928158e-03 2.015257e-03 0.0
-5.662229e-03 2.125976e-03 0.0
-6.426546e-03 2.222622e-03 0.0
-7.217996e-03 2.303973e-03 0.0
-8.033059e-03 2.369298e-03 0.0
-8.867326e-03 2.418925e-03 0.0
-9.715586e-03 2.454243e-03 0.0
-1.057236e-02 2.477211e-03 0.0
-1.143259e-02 2.489654e-03 0.0
-1.229210e-02 2.492710e-03 0.0
-1.314763e-02 2.486649e-03 0.0
-1.399659e-02 2.471113e-03 0.0
-1.483655e-02 2.445560e-03 0.0
-1.566485e-02 2.409696e-03 0.0
-1.647844e-02 2.363710e-03 0.0
-1.727394e-02 2.308236e-03 0.0
-1.804787e-02 2.244145e-03 0.0
-1.879691e-02 2.172262e-03 0.0
-1.951808e-02 2.093163e-03 0.0
-2.020876e-02 2.007103e-03 0.0
-2.086661e-02 1.914076e-03 0.0
-2.148946e-02 1.813944e-03 0.0
-2.207513e-02 1.706588e-03 0.0
-2.262143e-02 1.592004e-03 0.0
-2.312609e-02 1.470354e-03 0.0
-2.358687e-02 1.341949e-03 0.0
-2.400153e-02 1.207204e-03 0.0
-2.436800e-02 1.066589e-03 0.0
-2.468434e-02 9.205879e-04 0.0
-2.494884e-02 7.696786e-04 0.0
-2.515999e-02 6.143333e-04 0.0
-2.531651e-02 4.550382e-04 0.0
-2.541735e-02 2.923215e-04 0.0
-2.546165e-02 1.267855e-04 0.0
-2.544880e-02 -4.086382e-05 0.0
-2.537846e-02 -2.097935e-04 0.0
-2.525052e-02 -3.791217e-04 0.0
-2.506515e-02 -5.479571e-04 0.0
-2.482281e-02 -7.154032e-04 0.0
-2.452424e-02 -8.805669e-04 0.0
-2.417047e-02 -1.042567e-03 0.0
-2.376284e-02 -1.200542e-03 0.0
-2.330297e-02 -1.353652e-03 0.0
-2.279278e-02 -1.501081e-03 0.0
-2.223445e-02 -1.642035e-03 0.0
-2.163042e-02 -1.775743e-03 0.0
-2.098341e-02 -1.901459e-03 0.0
-2.029633e-02 -2.018464e-03 0.0
-1.957237e-02 -2.126069e-03 0.0
-1.881488e-02 -2.223630e-03 0.0
-1.802745e-02 -2.310544e-03 0.0
-1.721383e-02 -2.386266e-03 0.0
-1.637793e-02 -2.450309e-03 0.0
-1.552382e-02 -2.502252e-03 0.0
-1.465568e-02 -2.541746e-03 0.0
-1.377777e-02 -2.568513e-03 0.0
-1.289444e-02 -2.582353e-03 0.0
-1.201009e-02 -2.583144e-03 0.0
-1.112911e-02 -2.570847e-03 0.0
-1.025590e-02 -2.545495e-03 0.0
-9.394808e-03 -2.507197e-03 0.0
-8.550134e-03 -2.456139e-03 0.0
-7.726077e-03 -2.392584e-03 0.0
-6.926723e-03 -2.316877e-03 0.0
-6.156009e-03 -2.229446e-03 0.0
-5.417699e-03 -2.130802e-03 0.0
-4.715350e-03 -2.021548e-03 0.0
-4.052280e-03 -1.902377e-03 0.0
-3.431535e-03 -1.774081e-03 0.0
-2.855853e-03 -1.637553e-03 0.0
-2.327622e-03 -1.493804e-03 0.0
-1.848841e-03 -1.343968e-03 0.0
-1.421072e-03 -1.189323e-03 0.0
-1.045384e-03 -1.031312e-03 0.0
-7.222924e-04 -8.715717e-04 0.0
-4.516954e-04 -7.119665e-04 0.0
-2.327897e-04 -5.546378e-04 0.0
-6.398443e-05 -4.020617e-04 0.0
5.720014e-05 -2.571209e-04 0.0
1.342403e-04 -1.231907e-04 0.0
1.717304e-04 -4.239151e-06 0.0
1.755011e-04 9.507586e-05 0.0
1.527430e-04 1.693196e-04 0.0
1.121508e-04 2.122384e-04 0.0
6.415640e-05 2.168009e-04 0.0
2.143074e-05 1.753227e-04 0.0
0.000000e+00 7.955764e-05 0.0
0.000000e+00 -7.954559e-05 0.0
0.000000e+00 2.373783e-05 0.0
-1.155459e-05 -1.090378e-05 0.0
-8.147921e-05 6.961151e-05 0.0
-2.107511e-04 2.336998e-04 0.0
-4.045133e-04 4.538345e-04 0.0
-6.661851e-04 7.097915e-04 0.0
-9.985615e-04 9.851505e-04 0.0
-1.403922e-03 1.266280e-03 0.0
-1.883271e-03 1.542317e-03 0.0
-2.435368e-03 1.805627e-03 0.0
-3.056328e-03 2.051958e-03 0.0
-3.740129e-03 2.279854e-03 0.0
-4.479853e-03 2.489395e-03 0.0
-5.269019e-03 2.680824e-03 0.0
-6.102370e-03 2.853650e-03 0.0
-6.975807e-03 3.006582e-03 0.0
-7.885651e-03 3.138152e-03 0.0
-8.827746e-03 3.247573e-03 0.0
-9.796916e-03 3.335292e-03 0.0
-1.078705e-02 3.402946e-03 0.0
-1.179170e-02 3.452788e-03 0.0
-1.280484e-02 3.486898e-03 0.0
-1.382143e-02 3.506592e-03 0.0
-1.483747e-02 3.512261e-03 0.0
-1.584968e-02 3.503645e-03 0.0
-1.685500e-02 3.480336e-03 0.0
-1.785011e-02 3.442243e-03 0.0
-1.883127e-02 3.389805e-03 0.0
-1.979439e-02 3.323929e-03 0.0
-2.073526e-02 3.245723e-03 0.0
-2.164991e-02 3.156187e-03 0.0
-2.253472e-02 3.056008e-03 0.0
-2.338654e-02 2.945500e-03 0.0
-2.420250e-02 2.824692e-03 0.0
-2.497995e-02 2.693493e-03 0.0
-2.571625e-02 2.551852e-03 0.0
-2.640871e-02 2.399861e-03 0.0
-2.705457e-02 2.237795e-03 0.0
-2.765108e-02 2.066083e-03 0.0
-2.819554e-02 1.885256e-03 0.0
-2.868537e-02 1.695892e-03 0.0
-2.911822e-02 1.498570e-03 0.0
-2.949192e-02 1.293861e-03 0.0
-2.980456e-02 1.082334e-03 0.0
-3.005447e-02 8.645848e-04 0.0
-3.024021e-02 6.412719e-04 0.0
-3.036055e-02 4.131501e-04 0.0
-3.041452e-02 1.811004e-04 0.0
-3.040141e-02 -5.385057e-05 0.0
-3.032077e-02 -2.905212e-04 0.0
-3.017247e-02 -5.276692e-04 0.0
-2.995671e-02 -7.640514e-04 0.0
-2.967401e-02 -9.984335e-04 0.0
-2.932524e-02 -1.229598e-03 0.0
-2.891163e-02 -1.456349e-03 0.0
-2.843472e-02 -1.677514e-03 0.0
-2.789642e-02 -1.891943e-03 0.0
-2.729895e-02 -2.098508e-03 0.0
-2.664483e-02 -2.296103e-03 0.0
-2.593691e-02 -2.483645e-03 0.0
-2.517829e-02 -2.660086e-03 0.0
-2.437240e-02 -2.824416e-03 0.0
-2.352288e-02 -2.975673e-03 0.0
-2.263366e-02 -3.112956e-03 0.0
-2.170888e-02 -3.235432e-03 0.0
-2.075290e-02 -3.342344e-03 0.0
-1.977026e-02 -3.433023e-03 0.0
-1.876569e-02 -3.506886e-03 0.0
-1.774403e-02 -3.563449e-03 0.0
-1.671026e-02 -3.602325e-03 0.0
-1.566942e-02 -3.623234e-03 0.0
-1.462660e-02 -3.625999e-03 0.0
-1.358694e-02 -3.610559e-03 0.0
-1.255553e-02 -3.576956e-03 0.0
-1.153744e-02 -3.525339e-03 0.0
-1.053767e-02 -3.455965e-03 0.0
-9.561100e-03 -3.369202e-03 0.0
-8.612493e-03 -3.265532e-03 0.0
-7.696429e-03 -3.145553e-03 0.0
-6.817284e-03 -3.009985e-03 0.0
-5.979196e-03 -2.859671e-03 0.0
-5.186020e-03 -2.695585e-03 0.0
-4.441295e-03 -2.518836e-03 0.0
-3.748198e-03 -2.330681e-03 0.0
-3.109499e-03 -2.132533e-03 0.0
-2.527513e-03 -1.925982e-03 0.0
-2.004050e-03 -1.712815e-03 0.0
-1.540351e-03 -1.495039e-03 0.0
-1.137031e-03 -1.274920e-03 0.0
-7.939993e-04 -1.055025e-03 0.0
-5.103897e-04 -8.382743e-04 0.0
-2.844697e-04 -6.280085e-04 0.0
-1.135502e-04 -4.280674e-04 0.0
6.112793e-06 -2.428809e-04 0.0
7.941827e-05 -7.757197e-05 0.0
1.125276e-04 6.193882e-05 0.0
1.129848e-04 1.688343e-04 0.0
8.986913e-05 2.353262e-04 0.0
5.405280e-05 2.525895e-04 0.0
1.867811e-05 2.106696e-04 0.0
0.000000e+00 9.820799e-05 0.0
0.000000e+00 -9.818090e-05 0.0
0.000000e+00 -8.136070e-06 0.0
-2.662627e-05 1.658731e-05 0.0
-1.285034e-04 1.635429e-04 0.0
-3.027354e-04 4.023064e-04 0.0
-5.525539e-04 7.034489e-04 0.0
-8.810701e-04 1.043436e-03 0.0
-1.291229e-03 1.402592e-03 0.0
-1.784880e-03 1.765039e-03 0.0
-2.361613e-03 2.119078e-03 0.0
-3.018160e-03 2.457286e-03 0.0
-3.748804e-03 2.775829e-03 0.0
-4.546611e-03 3.073057e-03 0.0
-5.404856e-03 3.347945e-03 0.0
-6.317911e-03 3.599052e-03 0.0
-7.281258e-03 3.824366e-03 0.0
-8.290765e-03 4.021914e-03 0.0
-9.341750e-03 4.190626e-03 0.0
-1.042841e-02 4.330886e-03 0.0
-1.154390e-02 4.444448e-03 0.0
-1.268095e-02 4.533772e-03 0.0
-1.383271e-02 4.601162e-03 0.0
-1.499335e-02 4.648119e-03 0.0
-1.615811e-02 4.675175e-03 0.0
-1.732304e-02 4.682204e-03 0.0
-1.848440e-02 4.668961e-03 0.0
-1.963822e-02 4.635576e-03 0.0
-2.078006e-02 4.582767e-03 0.0
-2.190514e-02 4.511735e-03 0.0
-2.300860e-02 4.423857e-03 0.0
-2.408582e-02 4.320350e-03 0.0
-2.513259e-02 4.202048e-03 0.0
-2.614520e-02 4.069365e-03 0.0
-2.712028e-02 3.922406e-03 0.0
-2.805466e-02 3.761156e-03 0.0
-2.894521e-02 3.585655e-03 0.0
-2.978874e-02 3.396108e-03 0.0
-3.058202e-02 3.192916e-03 0.0
-3.132180e-02 2.976635e-03 0.0
-3.200489e-02 2.747919e-03 0.0
-3.262828e-02 2.507452e-03 0.0
-3.318913e-02 2.255912e-03 0.0
-3.368486e-02 1.993958e-03 0.0
-3.411314e-02 1.722253e-03 0.0
-3.447186e-02 1.441496e-03 0.0
-3.475919e-02 1.152468e-03 0.0
-3.497348e-02 8.560694e-04 0.0
-3.511337e-02 5.533504e-04 0.0
-3.517773e-02 2.455290e-04 0.0
-3.516574e-02 -6.600590e-05 0.0
-3.507687e-02 -3.796984e-04 0.0
-3.491098e-02 -6.939276e-04 0.0
-3.466829e-02 -1.007084e-03 0.0
-3.434939e-02 -1.317577e-03 0.0
-3.395528e-02 -1.623838e-03 0.0
-3.348734e-02 -1.924319e-03 0.0
-3.294733e-02 -2.217492e-03 0.0
-3.233736e-02 -2.501846e-03 0.0
-3.165993e-02 -2.775891e-03 0.0
-3.091786e-02 -3.038156e-03 0.0
-3.011433e-02 -3.287209e-03 0.0
-2.925284e-02 -3.521656e-03 0.0
-2.833719e-02 -3.740165e-03 0.0
-2.737151e-02 -3.941469e-03 0.0
-2.636019e-02 -4.124385e-03 0.0
-2.530789e-02 -4.287822e-03 0.0
-2.421952e-02 -4.430789e-03 0.0
-2.310020e-02 -4.552405e-03 0.0
-2.195522e-02 -4.651906e-03 0.0
-2.079006e-02 -4.728650e-03 0.0
-1.961030e-02 -4.782125e-03 0.0
-1.842163e-02 -4.811953e-03 0.0
-1.722978e-02 -4.817896e-03 0.0
-1.604053e-02 -4.799863e-03 0.0
-1.485963e-02 -4.757905e-03 0.0
-1.369281e-02 -4.692215e-03 0.0
-1.254570e-02 -4.603129e-03 0.0
-1.142381e-02 -4.491134e-03 0.0
-1.033252e-02 -4.356864e-03 0.0
-9.277003e-03 -4.201112e-03 0.0
-8.262194e-03 -4.024828e-03 0.0
-7.292770e-03 -3.829129e-03 0.0
-6.373087e-03 -3.615301e-03 0.0
-5.507139e-03 -3.384815e-03 0.0
-4.698518e-03 -3.139333e-03 0.0
-3.950357e-03 -2.880725e-03 0.0
-3.265279e-03 -2.611090e-03 0.0
-2.645344e-03 -2.332779e-03 0.0
-2.091984e-03 -2.048428e-03 0.0
-1.605937e-03 -1.760996e-03 0.0
-1.187180e-03 -1.473810e-03 0.0
-8.348513e-04 -1.190632e-03 0.0
-5.471697e-04 -9.157191e-04 0.0
-3.213533e-04 -6.539131e-04 0.0
-1.535317e-04 -4.107319e-04 0.0
-3.865886e-05 -1.924741e-04 0.0
2.958117e-05 -6.330688e-06 0.0
5.888546e-05 1.395005e-04 0.0
5.848168e-05 2.357009e-04 0.0
3.935341e-05 2.716888e-04 0.0
1.460627e-05 2.353879e-04 0.0
0.000000e+00 1.127853e-04 0.0
0.000000e+00 -1.127416e-04 0.0
0.000000e+00 -5.338608e-05 0.0
-4.282321e-05 5.438760e-05 0.0
-1.750495e-04 2.893094e-04 0.0
-3.937706e-04 6.199481e-04 0.0
-7.010386e-04 1.015237e-03 0.0
-1.099440e-03 1.448926e-03 0.0
-1.590974e-03 1.899380e-03 0.0
-2.175638e-03 2.350005e-03 0.0
-2.850607e-03 2.789361e-03 0.0
-3.610475e-03 3.210434e-03 0.0
-4.448426e-03 3.609134e-03 0.0
-5.357675e-03 3.982576e-03 0.0
-6.332413e-03 4.327885e-03 0.0
-7.367860e-03 4.641932e-03 0.0
-8.459548e-03 4.921901e-03 0.0
-9.602372e-03 5.166150e-03 0.0
-1.079000e-02 5.374758e-03 0.0
-1.201497e-02 5.549392e-03 0.0
-1.326934e-02 5.692578e-03 0.0
-1.454557e-02 5.806755e-03 0.0
-1.583712e-02 5.893562e-03 0.0
-1.713859e-02 5.953668e-03 0.0
-1.844536e-02 5.987087e-03 0.0
-1.975302e-02 5.993763e-03 0.0
-2.105691e-02 5.974065e-03 0.0
-2.235192e-02 5.928999e-03 0.0
-2.363259e-02 5.860078e-03 0.0
-2.489342e-02 5.768972e-03 0.0
-2.612919e-02 5.657140e-03 0.0
-2.733514e-02 5.525603e-03 0.0
-2.850703e-02 5.374917e-03 0.0
-2.964096e-02 5.205302e-03 0.0
-3.073327e-02 5.016857e-03 0.0
-3.178030e-02 4.809747e-03 0.0
-3.277837e-02 4.584312e-03 0.0
-3.372374e-02 4.341095e-03 0.0
-3.461269e-02 4.080790e-03 0.0
-3.544157e-02 3.804176e-03 0.0
-3.620689e-02 3.512050e-03 0.0
-3.690539e-02 3.205184e-03 0.0
-3.753404e-02 2.884326e-03 0.0
-3.809009e-02 2.550228e-03 0.0
-3.857100e-02 2.203684e-03 0.0
-3.897449e-02 1.845589e-03 0.0
-3.929851e-02 1.476977e-03 0.0
-3.954125e-02 1.099058e-03 0.0
-3.970113e-02 7.132293e-04 0.0
-3.977691e-02 3.210762e-04 0.0
-3.976765e-02 -7.563401e-05 0.0
-3.967277e-02 -4.749658e-04 0.0
-3.949211e-02 -8.749130e-04 0.0
-3.922592e-02 -1.273486e-03 0.0
-3.887488e-02 -1.668714e-03 0.0
-3.844007e-02 -2.058642e-03 0.0
-3.792300e-02 -2.441325e-03 0.0
-3.732559e-02 -2.814831e-03 0.0
-3.665015e-02 -3.177240e-03 0.0
-3.589940e-02 -3.526651e-03 0.0
-3.507641e-02 -3.861194e-03 0.0
-3.418467e-02 -4.179047e-03 0.0
-3.322800e-02 -4.478444e-03 0.0
-3.221058e-02 -4.757700e-03 0.0
-3.113694e-02 -5.015219e-03 0.0
-3.001191e-02 -5.249508e-03 0.0
-2.884061e-02 -5.459190e-03 0.0
-2.762844e-02 -5.643013e-03 0.0
-2.638102e-02 -5.799862e-03 0.0
-2.510420e-02 -5.928765e-03 0.0
-2.380399e-02 -6.028903e-03 0.0
-2.248654e-02 -6.099619e-03 0.0
-2.115812e-02 -6.140425e-03 0.0
-1.982506e-02 -6.151011e-03 0.0
-1.849373e-02 -6.131249e-03 0.0
-1.717049e-02 -6.081201e-03 0.0
-1.586165e-02 -6.001105e-03 0.0
-1.457344e-02 -5.891384e-03 0.0
-1.331197e-02 -5.752649e-03 0.0
-1.208317e-02 -5.585703e-03 0.0
-1.089276e-02 -5.391549e-03 0.0