# vtk DataFile Version 3.0
Vector Field
ASCII
DATASET RECTILINEAR_GRID
DIMENSIONS 102 102 1
X_COORDINATES 102 double
0.000000 0.100000 0.200000 0.300000 0.400000 0.500000 0.600000 0.700000 0.800000 0.900000 1.000000 1.100000 1.200000 1.300000 1.400000 1.500000 1.600000 1.700000 1.800000 1.900000 2.000000 2.100000 2.200000 2.300000 2.400000 2.500000 2.600000 2.700000 2.800000 2.900000 3.000000 3.100000 3.200000 3.300000 3.400000 3.500000 3.600000 3.700000 3.800000 3.900000 4.000000 4.100000 4.200000 4.300000 4.400000 4.500000 4.600000 4.700000 4.800000 4.900000 5.000000 5.100000 5.200000 5.300000 5.400000 5.500000 5.600000 5.700000 5.800000 5.900000 6.000000 6.100000 6.200000 6.300000 6.400000 6.500000 6.600000 6.700000 6.800000 6.900000 7.000000 7.100000 7.200000 7.300000 7.400000 7.500000 7.600000 7.700000 7.800000 7.900000 8.000000 8.100000 8.200000 8.300000 8.400000 8.500000 8.600000 8.700000 8.800000 8.900000 9.000000 9.100000 9.200000 9.300000 9.400000 9.500000 9.600000 9.700000 9.800000 9.900000 10.000000 10.100000 
Y_COORDINATES 102 double
0.000000 0.100000 0.200000 0.300000 0.400000 0.500000 0.600000 0.700000 0.800000 0.900000 1.000000 1.100000 1.200000 1.300000 1.400000 1.500000 1.600000 1.700000 1.800000 1.900000 2.000000 2.100000 2.200000 2.300000 2.400000 2.500000 2.600000 2.700000 2.800000 2.900000 3.000000 3.100000 3.200000 3.300000 3.400000 3.500000 3.600000 3.700000 3.800000 3.900000 4.000000 4.100000 4.200000 4.300000 4.400000 4.500000 4.600000 4.700000 4.800000 4.900000 5.000000 5.100000 5.200000 5.300000 5.400000 5.500000 5.600000 5.700000 5.800000 5.900000 6.000000 6.100000 6.200000 6.300000 6.400000 6.500000 6.600000 6.700000 6.800000 6.900000 7.000000 7.100000 7.200000 7.300000 7.400000 7.500000 7.600000 7.700000 7.800000 7.900000 8.000000 8.100000 8.200000 8.300000 8.400000 8.500000 8.600000 8.700000 8.800000 8.900000 9.000000 9.100000 9.200000 9.300000 9.400000 9.500000 9.600000 9.700000 9.800000 9.900000 10.000000 10.100000 
Z_COORDINATES 1 double
0.0
POINT_DATA 10404
VECTORS Velocity double
0.000000e+00 0.000000e+00 0.0
-0.000000e+00 0.000000e+00 0.0
-0.000000e+00 0.000000e+00 0.0
-0.000000e+00 0.000000e+00 0.0
-0.000000e+00 0.000000e+00 0.0
-0.000000e+00 0.000000e+00 0.0
-0.000000e+00 0.000000e+00 0.0
-0.000000e+00 0.000000e+00 0.0
-0.000000e+00 0.000000e+00 0.0
-0.000000e+00 0.000000e+00 0.0
-0.000000e+00 0.000000e+00 0.0
-0.000000e+00 0.000000e+00 0.0
-0.000000e+00 0.000000e+00 0.0
-0.000000e+00 0.000000e+00 0.0
-0.000000e+00 0.000000e+00 0.0
-0.000000e+00 0.000000e+00 0.0
-0.000000e+00 0.000000e+00 0.0
-0.000000e+00 0.000000e+00 0.0
-0.000000e+00 0.000000e+00 0.0
-0.000000e+00 0.000000e+00 0.0
-0.000000e+00 0.000000e+00 0.0
-0.000000e+00 0.000000e+00 0.0
-0.000000e+00 0.000000e+00 0.0
-0.000000e+00 0.000000e+00 0.0
-0.000000e+00 0.000000e+00 0.0
-0.000000e+00 0.000000e+00 0.0
-0.000000e+00 0.000000e+00 0.0
-0.000000e+00 0.000000e+00 0.0
-0.000000e+00 0.000000e+00 0.0
-0.000000e+00 0.000000e+00 0.0
-0.000000e+00 0.000000e+00 0.0
-0.000000e+00 0.000000e+00 0.0
-0.000000e+00 0.000000e+00 0.0
-0.000000e+00 0.000000e+00 0.0
-0.000000e+00 0.000000e+00 0.0
-0.000000e+00 0.000000e+00 0.0
-0.000000e+00 0.000000e+00 0.0
-0.000000e+00 0.000000e+00 0.0
-0.000000e+00 0.000000e+00 0.0
-0.000000e+00 0.000000e+00 0.0
-0.000000e+00 0.000000e+00 0.0
-0.000000e+00 0.000000e+00 0.0
-0.000000e+00 0.000000e+00 0.0
-0.000000e+00 0.000000e+00 0.0
-0.000000e+00 0.000000e+00 0.0
-0.000000e+00 0.000000e+00 0.0
-0.000000e+00 0.000000e+00 0.0
-0.000000e+00 0.000000e+00 0.0
-0.000000e+00 0.000000e+00 0.0
-0.000000e+00 0.000000e+00 0.0
-0.000000e+00 0.000000e+00 0.0
-0.000000e+00 0.000000e+00 0.0
-0.000000e+00 0.000000e+00 0.0
-0.000000e+00 0.000000e+00 0.0
-0.000000e+00 0.000000e+00 0.0
-0.000000e+00 0.000000e+00 0.0
-0.000000e+00 0.000000e+00 0.0
-0.000000e+00 0.000000e+00 0.0
-0.000000e+00 0.000000e+00 0.0
-0.000000e+00 0.000000e+00 0.0
-0.000000e+00 0.000000e+00 0.0
-0.000000e+00 0.000000e+00 0.0
-0.000000e+00 0.000000e+00 0.0
-0.000000e+00 0.000000e+00 0.0
-0.000000e+00 0.000000e+00 0.0
-0.000000e+00 0.000000e+00 0.0
-0.000000e+00 0.000000e+00 0.0
-0.000000e+00 0.000000e+00 0.0
-0.000000e+00 0.000000e+00 0.0
-0.000000e+00 0.000000e+00 0.0
-0.000000e+00 0.000000e+00 0.0
-0.000000e+00 0.000000e+00 0.0
-0.000000e+00 0.000000e+00 0.0
-0.000000e+00 0.000000e+00 0.0
-0.000000e+00 0.000000e+00 0.0
-0.000000e+00 0.000000e+00 0.0
-0.000000e+00 0.000000e+00 0.0
-0.000000e+00 0.000000e+00 0.0
-0.000000e+00 0.000000e+00 0.0
-0.000000e+00 0.000000e+00 0.0
-0.000000e+00 0.000000e+00 0.0
-0.000000e+00 0.000000e+00 0.0
-0.000000e+00 0.000000e+00 0.0
-0.000000e+00 0.000000e+00 0.0
-0.000000e+00 0.000000e+00 0.0
-0.000000e+00 0.000000e+00 0.0
-0.000000e+00 0.000000e+00 0.0
-0.000000e+00 0.000000e+00 0.0
-0.000000e+00 0.000000e+00 0.0
-0.000000e+00 0.000000e+00 0.0
-0.000000e+00 0.000000e+00 0.0
-0.000000e+00 0.000000e+00 0.0
-0.000000e+00 0.000000e+00 0.0
-0.000000e+00 0.000000e+00 0.0
-0.000000e+00 0.000000e+00 0.0
-0.000000e+00 0.000000e+00 0.0
-0.000000e+00 0.000000e+00 0.0
-0.000000e+00 0.000000e+00 0.0
-0.000000e+00 0.000000e+00 0.0
-0.000000e+00 0.000000e+00 0.0
-0.000000e+00 0.000000e+00 0.0
0.000000e+00 0.000000e+00 0.0
0.000000e+00 -4.059234e-38 0.0
1.541213e-06 2.311755e-06 0.0
1.517374e-06 2.419726e-06 0.0
1.487236e-06 2.523996e-06 0.0
1.450960e-06 2.624197e-06 0.0
1.408750e-06 2.719985e-06 0.0
1.360847e-06 2.811037e-06 0.0
1.307531e-06 2.897062e-06 0.0
1.249115e-06 2.977791e-06 0.0
1.185947e-06 3.052988e-06 0.0
1.118398e-06 3.122445e-06 0.0
1.046866e-06 3.185982e-06 0.0
9.717701e-07 3.243455e-06 0.0
8.935437e-07 3.294745e-06 0.0
8.126343e-07 3.339767e-06 0.0
7.294979e-07 3.378467e-06 0.0
6.445952e-07 3.410818e-06 0.0
5.583874e-07 3.436825e-06 0.0
4.713328e-07 3.456519e-06 0.0
3.838833e-07 3.469960e-06 0.0
2.964801e-07 3.477233e-06 0.0
2.095513e-07 3.478446e-06 0.0
1.235082e-07 3.473733e-06 0.0
3.874278e-08 3.463246e-06 0.0
-4.437500e-08 3.447157e-06 0.0
-1.254995e-07 3.425657e-06 0.0
-2.043112e-07 3.398950e-06 0.0
-2.805189e-07 3.367255e-06 0.0
-3.538605e-07 3.330801e-06 0.0
-4.241048e-07 3.289828e-06 0.0
-4.910518e-07 3.244580e-06 0.0
-5.545335e-07 3.195309e-06 0.0
-6.144141e-07 3.142268e-06 0.0
-6.705903e-07 3.085712e-06 0.0
-7.229904e-07 3.025895e-06 0.0
-7.715746e-07 2.963066e-06 0.0
-8.163337e-07 2.897471e-06 0.0
-8.572882e-07 2.829350e-06 0.0
-8.944875e-07 2.758934e-06 0.0
-9.280080e-07 2.686444e-06 0.0
-9.579521e-07 2.612090e-06 0.0
-9.844460e-07 2.536071e-06 0.0
-1.007638e-06 2.458573e-06 0.0
-1.027697e-06 2.379766e-06 0.0
-1.044809e-06 2.299808e-06 0.0
-1.059176e-06 2.218839e-06 0.0
-1.071014e-06 2.136986e-06 0.0
-1.080549e-06 2.054357e-06 0.0
-1.088014e-06 1.971048e-06 0.0
-1.093649e-06 1.887136e-06 0.0
-1.097698e-06 1.802685e-06 0.0
-1.100402e-06 1.717744e-06 0.0
-1.102001e-06 1.632347e-06 0.0
-1.102731e-06 1.546516e-06 0.0
-1.102817e-06 1.460260e-06 0.0
-1.102475e-06 1.373578e-06 0.0
-1.101907e-06 1.286461e-06 0.0
-1.101299e-06 1.198890e-06 0.0
-1.100820e-06 1.110841e-06 0.0
-1.100616e-06 1.022285e-06 0.0
-1.100812e-06 9.331894e-07 0.0
-1.101509e-06 8.435232e-07 0.0
-1.102780e-06 7.532545e-07 0.0
-1.104672e-06 6.623550e-07 0.0
-1.107202e-06 5.708011e-07 0.0
-1.110358e-06 4.785762e-07 0.0
-1.114099e-06 3.856722e-07 0.0
-1.118351e-06 2.920915e-07 0.0
-1.123013e-06 1.978486e-07 0.0
-1.127951e-06 1.029719e-07 0.0
-1.133006e-06 7.504961e-09 0.0
-1.137986e-06 -8.849219e-08 0.0
-1.142678e-06 -1.849417e-07 0.0
-1.146840e-06 -2.817470e-07 0.0
-1.150212e-06 -3.787920e-07 0.0
-1.152510e-06 -4.759405e-07 0.0
-1.153437e-06 -5.730357e-07 0.0
-1.152677e-06 -6.699001e-07 0.0
-1.149906e-06 -7.663355e-07 0.0
-1.144793e-06 -8.621233e-07 0.0
-1.137000e-06 -9.570249e-07 0.0
-1.126188e-06 -1.050782e-06 0.0
-1.112025e-06 -1.143120e-06 0.0
-1.094179e-06 -1.233743e-06 0.0
-1.072333e-06 -1.322343e-06 0.0
-1.046180e-06 -1.408595e-06 0.0
-1.015430e-06 -1.492163e-06 0.0
-9.798137e-07 -1.572697e-06 0.0
-9.390828e-07 -1.649841e-06 0.0
-8.930140e-07 -1.723228e-06 0.0
-8.414113e-07 -1.792490e-06 0.0
-7.841077e-07 -1.857251e-06 0.0
-7.209668e-07 -1.917138e-06 0.0
-6.518838e-07 -1.971776e-06 0.0
-5.767868e-07 -2.020795e-06 0.0
-4.956368e-07 -2.063830e-06 0.0
-4.084277e-07 -2.100522e-06 0.0
-3.151861e-07 -2.130524e-06 0.0
-2.159703e-07 -2.153497e-06 0.0
-1.108690e-07 -2.169117e-06 0.0
0.000000e+00 -2.177074e-06 0.0
0.000000e+00 -7.497499e-17 0.0
0.000000e+00 -8.290036e-35 0.0
1.649184e-06 3.148277e-06 0.0
1.621644e-06 3.292305e-06 0.0
1.587437e-06 3.431087e-06 0.0
1.546748e-06 3.564126e-06 0.0
1.499803e-06 3.690959e-06 0.0
1.446871e-06 3.811159e-06 0.0
1.388260e-06 3.924332e-06 0.0
1.324312e-06 4.030128e-06 0.0
1.255403e-06 4.128235e-06 0.0
1.181936e-06 4.218382e-06 0.0
1.104339e-06 4.300341e-06 0.0
1.023060e-06 4.373929e-06 0.0
9.385661e-07 4.439003e-06 0.0
8.513338e-07 4.495464e-06 0.0
7.618492e-07 4.543257e-06 0.0
6.706019e-07 4.582366e-06 0.0
5.780817e-07 4.612815e-06 0.0
4.847739e-07 4.634671e-06 0.0
3.911560e-07 4.648033e-06 0.0
2.976938e-07 4.653038e-06 0.0
2.048380e-07 4.649856e-06 0.0
1.130211e-07 4.638689e-06 0.0
2.265424e-08 4.619764e-06 0.0
-6.587526e-08 4.593336e-06 0.0
-1.522064e-07 4.559683e-06 0.0
-2.360064e-07 4.519102e-06 0.0
-3.169727e-07 4.471909e-06 0.0
-3.948342e-07 4.418432e-06 0.0
-4.693526e-07 4.359012e-06 0.0
-5.403228e-07 4.293998e-06 0.0
-6.075742e-07 4.223742e-06 0.0
-6.709699e-07 4.148603e-06 0.0
-7.304078e-07 4.068936e-06 0.0
-7.858192e-07 3.985094e-06 0.0
-8.371691e-07 3.897425e-06 0.0
-8.844546e-07 3.806269e-06 0.0
-9.277046e-07 3.711955e-06 0.0
-9.669779e-07 3.614800e-06 0.0
-1.002362e-06 3.515106e-06 0.0
-1.033971e-06 3.413159e-06 0.0
-1.061944e-06 3.309226e-06 0.0
-1.086445e-06 3.203558e-06 0.0
-1.107655e-06 3.096383e-06 0.0
-1.125778e-06 2.987907e-06 0.0
-1.141030e-06 2.878317e-06 0.0
-1.153643e-06 2.767775e-06 0.0
-1.163858e-06 2.656423e-06 0.0
-1.171925e-06 2.544379e-06 0.0
-1.178100e-06 2.431738e-06 0.0
-1.182639e-06 2.318577e-06 0.0
-1.185799e-06 2.204950e-06 0.0
-1.187833e-06 2.090890e-06 0.0
-1.188987e-06 1.976417e-06 0.0
-1.189498e-06 1.861528e-06 0.0
-1.189592e-06 1.746210e-06 0.0
-1.189478e-06 1.630435e-06 0.0
-1.189348e-06 1.514165e-06 0.0
-1.189376e-06 1.397352e-06 0.0
-1.189711e-06 1.279942e-06 0.0
-1.190478e-06 1.161880e-06 0.0
-1.191777e-06 1.043107e-06 0.0
-1.193679e-06 9.235660e-07 0.0
-1.196225e-06 8.032054e-07 0.0
-1.199427e-06 6.819796e-07 0.0
-1.203262e-06 5.598529e-07 0.0
-1.207679e-06 4.368015e-07 0.0
-1.212594e-06 3.128166e-07 0.0
-1.217890e-06 1.879062e-07 0.0
-1.223418e-06 6.209763e-08 0.0
-1.229003e-06 -6.456042e-08 0.0
-1.234436e-06 -1.919961e-07 0.0
-1.239483e-06 -3.201126e-07 0.0
-1.243885e-06 -4.487871e-07 0.0
-1.247360e-06 -5.778691e-07 0.0
-1.249606e-06 -7.071801e-07 0.0
-1.250301e-06 -8.365128e-07 0.0
-1.249112e-06 -9.656306e-07 0.0
-1.245694e-06 -1.094268e-06 0.0
-1.239695e-06 -1.222132e-06 0.0
-1.230757e-06 -1.348899e-06 0.0
-1.218526e-06 -1.474221e-06 0.0
-1.202648e-06 -1.597723e-06 0.0
-1.182779e-06 -1.719006e-06 0.0
-1.158585e-06 -1.837648e-06 0.0
-1.129747e-06 -1.953209e-06 0.0
-1.095964e-06 -2.065228e-06 0.0
-1.056957e-06 -2.173230e-06 0.0
-1.012471e-06 -2.276727e-06 0.0
-9.622755e-07 -2.375221e-06 0.0
-9.061728e-07 -2.468206e-06 0.0
-8.439944e-07 -2.555174e-06 0.0
-7.756050e-07 -2.635613e-06 0.0
-7.009029e-07 -2.709015e-06 0.0
-6.198216e-07 -2.774876e-06 0.0
-5.323292e-07 -2.832701e-06 0.0
-4.384291e-07 -2.882005e-06 0.0
-3.381590e-07 -2.922317e-06 0.0
-2.315902e-07 -2.953183e-06 0.0
-1.188259e-07 -2.974167e-06 0.0
0.000000e+00 -2.984854e-06 0.0
0.000000e+00 -4.388079e-16 0.0
0.000000e+00 -5.326289e-32 0.0
1.793212e-06 4.086885e-06 0.0
1.760425e-06 4.269806e-06 0.0
1.720476e-06 4.445727e-06 0.0
1.673581e-06 4.614017e-06 0.0
1.620002e-06 4.774089e-06 0.0
1.560045e-06 4.925402e-06 0.0
1.494056e-06 5.067464e-06 0.0
1.422419e-06 5.199836e-06 0.0
1.345550e-06 5.322131e-06 0.0
1.263895e-06 5.434016e-06 0.0
1.177926e-06 5.535215e-06 0.0
1.088134e-06 5.625508e-06 0.0
9.950276e-07 5.704731e-06 0.0
8.991264e-07 5.772777e-06 0.0
8.009577e-07 5.829591e-06 0.0
7.010517e-07 5.875176e-06 0.0
5.999369e-07 5.909583e-06 0.0
4.981359e-07 5.932916e-06 0.0
3.961613e-07 5.945326e-06 0.0
2.945123e-07 5.947010e-06 0.0
1.936703e-07 5.938206e-06 0.0
9.409604e-08 5.919191e-06 0.0
-3.773527e-09 5.890281e-06 0.0
-9.952819e-08 5.851820e-06 0.0
-1.927868e-07 5.804184e-06 0.0
-2.831995e-07 5.747772e-06 0.0
-3.704495e-07 5.683005e-06 0.0
-4.542543e-07 5.610321e-06 0.0
-5.343673e-07 5.530171e-06 0.0
-6.105782e-07 5.443016e-06 0.0
-6.827136e-07 5.349321e-06 0.0
-7.506372e-07 5.249554e-06 0.0
-8.142496e-07 5.144181e-06 0.0
-8.734879e-07 5.033663e-06 0.0
-9.283250e-07 4.918452e-06 0.0
-9.787686e-07 4.798988e-06 0.0
-1.024860e-06 4.675697e-06 0.0
-1.066672e-06 4.548985e-06 0.0
-1.104309e-06 4.419242e-06 0.0
-1.137903e-06 4.286833e-06 0.0
-1.167612e-06 4.152098e-06 0.0
-1.193620e-06 4.015355e-06 0.0
-1.216131e-06 3.876890e-06 0.0
-1.235368e-06 3.736965e-06 0.0
-1.251572e-06 3.595810e-06 0.0
-1.264995e-06 3.453626e-06 0.0
-1.275902e-06 3.310587e-06 0.0
-1.284566e-06 3.166833e-06 0.0
-1.291261e-06 3.022479e-06 0.0
-1.296267e-06 2.877611e-06 0.0
-1.299858e-06 2.732287e-06 0.0
-1.302307e-06 2.586541e-06 0.0
-1.303875e-06 2.440383e-06 0.0
-1.304816e-06 2.293802e-06 0.0
-1.305367e-06 2.146766e-06 0.0
-1.305748e-06 1.999229e-06 0.0
-1.306161e-06 1.851130e-06 0.0
-1.306785e-06 1.702396e-06 0.0
-1.307773e-06 1.552949e-06 0.0
-1.309252e-06 1.402703e-06 0.0
-1.311318e-06 1.251574e-06 0.0
-1.314040e-06 1.099479e-06 0.0
-1.317451e-06 9.463407e-07 0.0
-1.321553e-06 7.920926e-07 0.0
-1.326313e-06 6.366796e-07 0.0
-1.331664e-06 4.800634e-07 0.0
-1.337504e-06 3.222250e-07 0.0
-1.343698e-06 1.631681e-07 0.0
-1.350076e-06 2.921715e-09 0.0
-1.356438e-06 -1.584569e-07 0.0
-1.362552e-06 -3.208802e-07 0.0
-1.368157e-06 -4.842276e-07 0.0
-1.372967e-06 -6.483444e-07 0.0
-1.376671e-06 -8.130399e-07 0.0
-1.378938e-06 -9.780862e-07 0.0
-1.379419e-06 -1.143218e-06 0.0
-1.377750e-06 -1.308132e-06 0.0
-1.373558e-06 -1.472487e-06 0.0
-1.366462e-06 -1.635903e-06 0.0
-1.356079e-06 -1.797967e-06 0.0
-1.342028e-06 -1.958227e-06 0.0
-1.323931e-06 -2.116199e-06 0.0
-1.301421e-06 -2.271369e-06 0.0
-1.274145e-06 -2.423191e-06 0.0
-1.241766e-06 -2.571096e-06 0.0
-1.203966e-06 -2.714490e-06 0.0
-1.160454e-06 -2.852759e-06 0.0
-1.110964e-06 -2.985273e-06 0.0
-1.055261e-06 -3.111390e-06 0.0
-9.931403e-07 -3.230458e-06 0.0
-9.244335e-07 -3.341821e-06 0.0
-8.490069e-07 -3.444822e-06 0.0
-7.667642e-07 -3.538808e-06 0.0
-6.776466e-07 -3.623131e-06 0.0
-5.816332e-07 -3.697157e-06 0.0
-4.787413e-07 -3.760267e-06 0.0
-3.690248e-07 -3.811857e-06 0.0
-2.525739e-07 -3.851351e-06 0.0
-1.295133e-07 -3.878194e-06 0.0
0.000000e+00 -3.891862e-06 0.0
0.000000e+00 -1.668767e-15 0.0
0.000000e+00 -1.611305e-29 0.0
1.976132e-06 5.148060e-06 0.0
1.936346e-06 5.373168e-06 0.0
1.888766e-06 5.589269e-06 0.0
1.833653e-06 5.795590e-06 0.0
1.771315e-06 5.991414e-06 0.0
1.702108e-06 6.176083e-06 0.0
1.626428e-06 6.349002e-06 0.0
1.544713e-06 6.509641e-06 0.0
1.457435e-06 6.657537e-06 0.0
1.365095e-06 6.792296e-06 0.0
1.268219e-06 6.913595e-06 0.0
1.167358e-06 7.021181e-06 0.0
1.063073e-06 7.114873e-06 0.0
9.559409e-07 7.194558e-06 0.0
8.465421e-07 7.260192e-06 0.0
7.354589e-07 7.311800e-06 0.0
6.232700e-07 7.349470e-06 0.0
5.105461e-07 7.373353e-06 0.0
3.978449e-07 7.383659e-06 0.0
2.857079e-07 7.380654e-06 0.0
1.746559e-07 7.364656e-06 0.0
6.518544e-08 7.336031e-06 0.0
-4.223426e-08 7.295190e-06 0.0
-1.471643e-07 7.242581e-06 0.0
-2.491986e-07 7.178687e-06 0.0
-3.479663e-07 7.104022e-06 0.0
-4.431334e-07 7.019124e-06 0.0
-5.344043e-07 6.924551e-06 0.0
-6.215229e-07 6.820877e-06 0.0
-7.042733e-07 6.708683e-06 0.0
-7.824805e-07 6.588559e-06 0.0
-8.560099e-07 6.461094e-06 0.0
-9.247674e-07 6.326873e-06 0.0
-9.886989e-07 6.186473e-06 0.0
-1.047789e-06 6.040459e-06 0.0
-1.102060e-06 5.889379e-06 0.0
-1.151571e-06 5.733762e-06 0.0
-1.196415e-06 5.574113e-06 0.0
-1.236719e-06 5.410912e-06 0.0
-1.272637e-06 5.244608e-06 0.0
-1.304356e-06 5.075621e-06 0.0
-1.332085e-06 4.904336e-06 0.0
-1.356056e-06 4.731104e-06 0.0
-1.376523e-06 4.556241e-06 0.0
-1.393755e-06 4.380023e-06 0.0
-1.408035e-06 4.202692e-06 0.0
-1.419656e-06 4.024451e-06 0.0
-1.428919e-06 3.845465e-06 0.0
-1.436129e-06 3.665865e-06 0.0
-1.441591e-06 3.485747e-06 0.0
-1.445604e-06 3.305170e-06 0.0
-1.448464e-06 3.124165e-06 0.0
-1.450457e-06 2.942734e-06 0.0
-1.451851e-06 2.760850e-06 0.0
-1.452903e-06 2.578464e-06 0.0
-1.453847e-06 2.395507e-06 0.0
-1.454895e-06 2.211891e-06 0.0
-1.456233e-06 2.027517e-06 0.0
-1.458019e-06 1.842278e-06 0.0
-1.460381e-06 1.656058e-06 0.0
-1.463413e-06 1.468745e-06 0.0
-1.467178e-06 1.280228e-06 0.0
-1.471699e-06 1.090404e-06 0.0
-1.476966e-06 8.991835e-07 0.0
-1.482930e-06 7.064931e-07 0.0
-1.489503e-06 5.122804e-07 0.0
-1.496561e-06 3.165182e-07 0.0
-1.503945e-06 1.192078e-07 0.0
-1.511455e-06 -7.961694e-08 0.0
-1.518862e-06 -2.798864e-07 0.0
-1.525900e-06 -4.814924e-07 0.0
-1.532274e-06 -6.842853e-07 0.0
-1.537663e-06 -8.880720e-07 0.0
-1.541718e-06 -1.092614e-06 0.0
-1.544070e-06 -1.297627e-06 0.0
-1.544333e-06 -1.502777e-06 0.0
-1.542105e-06 -1.707686e-06 0.0
-1.536974e-06 -1.911925e-06 0.0
-1.528525e-06 -2.115020e-06 0.0
-1.516339e-06 -2.316451e-06 0.0
-1.500000e-06 -2.515653e-06 0.0
-1.479100e-06 -2.712022e-06 0.0
-1.453244e-06 -2.904912e-06 0.0
-1.422051e-06 -3.093643e-06 0.0
-1.385160e-06 -3.277502e-06 0.0
-1.342235e-06 -3.455747e-06 0.0
-1.292969e-06 -3.627613e-06 0.0
-1.237081e-06 -3.792313e-06 0.0
-1.174329e-06 -3.949047e-06 0.0
-1.104503e-06 -4.097004e-06 0.0
-1.027435e-06 -4.235368e-06 0.0
-9.429924e-07 -4.363323e-06 0.0
-8.510876e-07 -4.480058e-06 0.0
-7.516729e-07 -4.584772e-06 0.0
-6.447424e-07 -4.676679e-06 0.0
-5.303321e-07 -4.755014e-06 0.0
-4.085184e-07 -4.819035e-06 0.0
-2.794171e-07 -4.868032e-06 0.0
-1.431814e-07 -4.901324e-06 0.0
0.000000e+00 -4.918271e-06 0.0
0.000000e+00 -5.050240e-15 0.0
0.000000e+00 -2.747680e-27 0.0
2.201240e-06 6.354315e-06 0.0
2.152447e-06 6.625375e-06 0.0
2.095087e-06 6.885118e-06 0.0
2.029477e-06 7.132624e-06 0.0
1.955984e-06 7.367036e-06 0.0
1.875027e-06 7.587576e-06 0.0
1.787067e-06 7.793541e-06 0.0
1.692609e-06 7.984308e-06 0.0
1.592194e-06 8.159338e-06 0.0
1.486394e-06 8.318177e-06 0.0
1.375806e-06 8.460459e-06 0.0
1.261049e-06 8.585900e-06 0.0
1.142758e-06 8.694306e-06 0.0
1.021575e-06 8.785567e-06 0.0
8.981500e-07 8.859657e-06 0.0
7.731288e-07 8.916632e-06 0.0
6.471529e-07 8.956626e-06 0.0
5.208520e-07 8.979847e-06 0.0
3.948399e-07 8.986576e-06 0.0
2.697101e-07 8.977162e-06 0.0
1.460313e-07 8.952015e-06 0.0
2.434394e-08 8.911601e-06 0.0
-9.484365e-08 8.856440e-06 0.0
-2.110580e-07 8.787099e-06 0.0
-3.238634e-07 8.704182e-06 0.0
-4.328641e-07 8.608331e-06 0.0
-5.377061e-07 8.500215e-06 0.0
-6.380790e-07 8.380526e-06 0.0
-7.337164e-07 8.249972e-06 0.0
-8.243972e-07 8.109271e-06 0.0
-9.099456e-07 7.959146e-06 0.0
-9.902309e-07 7.800321e-06 0.0
-1.065167e-06 7.633511e-06 0.0
-1.134713e-06 7.459419e-06 0.0
-1.198869e-06 7.278734e-06 0.0
-1.257677e-06 7.092120e-06 0.0
-1.311220e-06 6.900218e-06 0.0
-1.359617e-06 6.703639e-06 0.0
-1.403022e-06 6.502958e-06 0.0
-1.441624e-06 6.298717e-06 0.0
-1.475641e-06 6.091417e-06 0.0
-1.505316e-06 5.881518e-06 0.0
-1.530920e-06 5.669435e-06 0.0
-1.552741e-06 5.455542e-06 0.0
-1.571086e-06 5.240163e-06 0.0
-1.586276e-06 5.023579e-06 0.0
-1.598642e-06 4.806024e-06 0.0
-1.608519e-06 4.587688e-06 0.0
-1.616248e-06 4.368715e-06 0.0
-1.622167e-06 4.149207e-06 0.0
-1.626608e-06 3.929226e-06 0.0
-1.629896e-06 3.708796e-06 0.0
-1.632340e-06 3.487905e-06 0.0
-1.634237e-06 3.266510e-06 0.0
-1.635861e-06 3.044538e-06 0.0
-1.637463e-06 2.821895e-06 0.0
-1.639269e-06 2.598466e-06 0.0
-1.641473e-06 2.374118e-06 0.0
-1.644238e-06 2.148713e-06 0.0
-1.647694e-06 1.922104e-06 0.0
-1.651931e-06 1.694146e-06 0.0
-1.657002e-06 1.464698e-06 0.0
-1.662920e-06 1.233632e-06 0.0
-1.669657e-06 1.000833e-06 0.0
-1.677142e-06 7.662111e-07 0.0
-1.685265e-06 5.296995e-07 0.0
-1.693872e-06 2.912643e-07 0.0
-1.702769e-06 5.090742e-08 0.0
-1.711725e-06 -1.913291e-07 0.0
-1.720468e-06 -4.353589e-07 0.0
-1.728692e-06 -6.810476e-07 0.0
-1.736061e-06 -9.282099e-07 0.0
-1.742205e-06 -1.176607e-06 0.0
-1.746730e-06 -1.425945e-06 0.0
-1.749221e-06 -1.675871e-06 0.0
-1.749241e-06 -1.925975e-06 0.0
-1.746344e-06 -2.175791e-06 0.0
-1.740069e-06 -2.424791e-06 0.0
-1.729956e-06 -2.672393e-06 0.0
-1.715542e-06 -2.917957e-06 0.0
-1.696369e-06 -3.160792e-06 0.0
-1.671991e-06 -3.400155e-06 0.0
-1.641975e-06 -3.635257e-06 0.0
-1.605909e-06 -3.865264e-06 0.0
-1.563405e-06 -4.089306e-06 0.0
-1.514101e-06 -4.306476e-06 0.0
-1.457669e-06 -4.515839e-06 0.0
-1.393815e-06 -4.716439e-06 0.0
-1.322286e-06 -4.907300e-06 0.0
-1.242867e-06 -5.087436e-06 0.0
-1.155390e-06 -5.255855e-06 0.0
-1.059727e-06 -5.411567e-06 0.0
-9.558015e-07 -5.553589e-06 0.0
-8.435800e-07 -5.680953e-06 0.0
-7.230773e-07 -5.792709e-06 0.0
-5.943536e-07 -5.887934e-06 0.0
-4.575147e-07 -5.965736e-06 0.0
-3.127094e-07 -6.025259e-06 0.0
-1.601282e-07 -6.065692e-06 0.0
0.000000e+00 -6.086266e-06 0.0
0.000000e+00 -1.320068e-14 0.0
0.000000e+00 -2.927154e-25 0.0
2.472300e-06 7.730446e-06 0.0
2.412190e-06 8.051703e-06 0.0
2.342592e-06 8.358981e-06 0.0
2.263890e-06 8.651198e-06 0.0
2.176524e-06 8.927357e-06 0.0
2.080991e-06 9.186548e-06 0.0
1.977834e-06 9.427958e-06 0.0
1.867639e-06 9.650872e-06 0.0
1.751034e-06 9.854674e-06 0.0
1.628675e-06 1.003885e-05 0.0
1.501247e-06 1.020299e-05 0.0
1.369455e-06 1.034680e-05 0.0
1.234019e-06 1.047006e-05 0.0
1.095666e-06 1.057268e-05 0.0
9.551248e-07 1.065466e-05 0.0
8.131221e-07 1.071610e-05 0.0
6.703740e-07 1.075720e-05 0.0
5.275816e-07 1.077822e-05 0.0
3.854258e-07 1.077953e-05 0.0
2.445624e-07 1.076159e-05 0.0
1.056176e-07 1.072490e-05 0.0
-3.081657e-08 1.067005e-05 0.0
-1.641853e-07 1.059769e-05 0.0
-2.939746e-07 1.050851e-05 0.0
-4.197143e-07 1.040326e-05 0.0
-5.409800e-07 1.028273e-05 0.0
-6.573954e-07 1.014772e-05 0.0
-7.686334e-07 9.999089e-06 0.0
-8.744174e-07 9.837684e-06 0.0
-9.745214e-07 9.664379e-06 0.0
-1.068771e-06 9.480045e-06 0.0
-1.157041e-06 9.285552e-06 0.0
-1.239259e-06 9.081758e-06 0.0
-1.315399e-06 8.869508e-06 0.0
-1.385483e-06 8.649621e-06 0.0
-1.449579e-06 8.422892e-06 0.0
-1.507800e-06 8.190080e-06 0.0
-1.560297e-06 7.951911e-06 0.0
-1.607263e-06 7.709065e-06 0.0
-1.648925e-06 7.462180e-06 0.0
-1.685540e-06 7.211845e-06 0.0
-1.717399e-06 6.958597e-06 0.0
-1.744813e-06 6.702921e-06 0.0
-1.768120e-06 6.445250e-06 0.0
-1.787670e-06 6.185957e-06 0.0
-1.803831e-06 5.925364e-06 0.0
-1.816978e-06 5.663734e-06 0.0
-1.827492e-06 5.401280e-06 0.0
-1.835756e-06 5.138158e-06 0.0
-1.842148e-06 4.874476e-06 0.0
-1.847038e-06 4.610292e-06 0.0
-1.850787e-06 4.345620e-06 0.0
-1.853736e-06 4.080432e-06 0.0
-1.856209e-06 3.814663e-06 0.0
-1.858504e-06 3.548214e-06 0.0
-1.860893e-06 3.280961e-06 0.0
-1.863616e-06 3.012753e-06 0.0
-1.866878e-06 2.743427e-06 0.0
-1.870847e-06 2.472804e-06 0.0
-1.875652e-06 2.200704e-06 0.0
-1.881378e-06 1.926947e-06 0.0
-1.888068e-06 1.651361e-06 0.0
-1.895718e-06 1.373787e-06 0.0
-1.904279e-06 1.094089e-06 0.0
-1.913654e-06 8.121551e-07 0.0
-1.923700e-06 5.279082e-07 0.0
-1.934229e-06 2.413090e-07 0.0
-1.945006e-06 -4.763738e-08 0.0
-1.955754e-06 -3.388765e-07 0.0
-1.966156e-06 -6.323000e-07 0.0
-1.975855e-06 -9.277413e-07 0.0
-1.984458e-06 -1.224972e-06 0.0
-1.991542e-06 -1.523698e-06 0.0
-1.996656e-06 -1.823560e-06 0.0
-1.999326e-06 -2.124128e-06 0.0
-1.999057e-06 -2.424902e-06 0.0
-1.995344e-06 -2.725314e-06 0.0
-1.987671e-06 -3.024724e-06 0.0
-1.975520e-06 -3.322426e-06 0.0
-1.958376e-06 -3.617645e-06 0.0
-1.935732e-06 -3.909546e-06 0.0
-1.907092e-06 -4.197231e-06 0.0
-1.871983e-06 -4.479749e-06 0.0
-1.829951e-06 -4.756094e-06 0.0
-1.780575e-06 -5.025219e-06 0.0
-1.723465e-06 -5.286035e-06 0.0
-1.658269e-06 -5.537418e-06 0.0
-1.584676e-06 -5.778221e-06 0.0
-1.502422e-06 -6.007275e-06 0.0
-1.411287e-06 -6.223401e-06 0.0
-1.311102e-06 -6.425413e-06 0.0
-1.201750e-06 -6.612130e-06 0.0
-1.083165e-06 -6.782380e-06 0.0
-9.553361e-07 -6.935011e-06 0.0
-8.183021e-07 -7.068895e-06 0.0
-6.721554e-07 -7.182937e-06 0.0
-5.170383e-07 -7.276081e-06 0.0
-3.531416e-07 -7.347317e-06 0.0
-1.807023e-07 -7.395688e-06 0.0
0.000000e+00 -7.420293e-06 0.0
0.000000e+00 -3.105719e-14 0.0
0.000000e+00 -2.081630e-23 0.0
2.793557e-06 9.303785e-06 0.0
2.719468e-06 9.679977e-06 0.0
2.634809e-06 1.003912e-05 0.0
2.540048e-06 1.037995e-05 0.0
2.435716e-06 1.070133e-05 0.0
2.322402e-06 1.100221e-05 0.0
2.200747e-06 1.128166e-05 0.0
2.071441e-06 1.153888e-05 0.0
1.935210e-06 1.177317e-05 0.0
1.792817e-06 1.198397e-05 0.0
1.645050e-06 1.217082e-05 0.0
1.492718e-06 1.233340e-05 0.0
1.336642e-06 1.247152e-05 0.0
1.177649e-06 1.258510e-05 0.0
1.016566e-06 1.267417e-05 0.0
8.542131e-07 1.273889e-05 0.0
6.913950e-07 1.277952e-05 0.0
5.288976e-07 1.279642e-05 0.0
3.674810e-07 1.279007e-05 0.0
2.078741e-07 1.276102e-05 0.0
5.077005e-08 1.270991e-05 0.0
-1.031784e-07 1.263746e-05 0.0
-2.533630e-07 1.254446e-05 0.0
-3.992232e-07 1.243176e-05 0.0
-5.402494e-07 1.230027e-05 0.0
-6.759853e-07 1.215093e-05 0.0
-8.060296e-07 1.198471e-05 0.0
-9.300378e-07 1.180264e-05 0.0
-1.047723e-06 1.160574e-05 0.0
-1.158855e-06 1.139505e-05 0.0
-1.263264e-06 1.117159e-05 0.0
-1.360835e-06 1.093642e-05 0.0
-1.451510e-06 1.069053e-05 0.0
-1.535285e-06 1.043494e-05 0.0
-1.612212e-06 1.017060e-05 0.0
-1.682390e-06 9.898445e-06 0.0
-1.745969e-06 9.619374e-06 0.0
-1.803143e-06 9.334230e-06 0.0
-1.854148e-06 9.043809e-06 0.0
-1.899260e-06 8.748850e-06 0.0
-1.938788e-06 8.450036e-06 0.0
-1.973074e-06 8.147987e-06 0.0
-2.002485e-06 7.843261e-06 0.0
-2.027412e-06 7.536350e-06 0.0
-2.048263e-06 7.227680e-06 0.0
-2.065460e-06 6.917612e-06 0.0
-2.079432e-06 6.606439e-06 0.0
-2.090614e-06 6.294393e-06 0.0
-2.099439e-06 5.981642e-06 0.0
-2.106332e-06 5.668295e-06 0.0
-2.111710e-06 5.354402e-06 0.0
-2.115975e-06 5.039965e-06 0.0
-2.119505e-06 4.724933e-06 0.0
-2.122657e-06 4.409216e-06 0.0
-2.125758e-06 4.092682e-06 0.0
-2.129101e-06 3.775170e-06 0.0
-2.132943e-06 3.456494e-06 0.0
-2.137501e-06 3.136449e-06 0.0
-2.142947e-06 2.814816e-06 0.0
-2.149409e-06 2.491376e-06 0.0
-2.156965e-06 2.165909e-06 0.0
-2.165642e-06 1.838210e-06 0.0
-2.175417e-06 1.508090e-06 0.0
-2.186213e-06 1.175386e-06 0.0
-2.197901e-06 8.399674e-07 0.0
-2.210299e-06 5.017463e-07 0.0
-2.223175e-06 1.606806e-07 0.0
-2.236245e-06 -1.832182e-07 0.0
-2.249178e-06 -5.298786e-07 0.0
-2.261597e-06 -8.791642e-07 0.0
-2.273085e-06 -1.230869e-06 0.0
-2.283184e-06 -1.584712e-06 0.0
-2.291404e-06 -1.940336e-06 0.0
-2.297224e-06 -2.297303e-06 0.0
-2.300100e-06 -2.655093e-06 0.0
-2.299469e-06 -3.013103e-06 0.0
-2.294754e-06 -3.370648e-06 0.0
-2.285373e-06 -3.726959e-06 0.0
-2.270740e-06 -4.081188e-06 0.0
-2.250277e-06 -4.432407e-06 0.0
-2.223417e-06 -4.779618e-06 0.0
-2.189610e-06 -5.121747e-06 0.0
-2.148328e-06 -5.457659e-06 0.0
-2.099076e-06 -5.786159e-06 0.0
-2.041390e-06 -6.105997e-06 0.0
-1.974848e-06 -6.415881e-06 0.0
-1.899072e-06 -6.714479e-06 0.0
-1.813731e-06 -7.000428e-06 0.0
-1.718547e-06 -7.272346e-06 0.0
-1.613299e-06 -7.528838e-06 0.0
-1.497818e-06 -7.768506e-06 0.0
-1.372000e-06 -7.989955e-06 0.0
-1.235796e-06 -8.191808e-06 0.0
-1.089220e-06 -8.372709e-06 0.0
-9.323439e-07 -8.531336e-06 0.0
-7.652994e-07 -8.666405e-06 0.0
-5.882748e-07 -8.776682e-06 0.0
-4.015127e-07 -8.860992e-06 0.0
-2.053071e-07 -8.918217e-06 0.0
0.000000e+00 -8.947315e-06 0.0
0.000000e+00 -6.741127e-14 0.0
0.000000e+00 -1.034619e-21 0.0
3.169750e-06 1.110446e-05 0.0
3.078607e-06 1.154083e-05 0.0
2.975642e-06 1.195660e-05 0.0
2.861426e-06 1.235032e-05 0.0
2.736597e-06 1.272071e-05 0.0
2.601857e-06 1.306656e-05 0.0
2.457966e-06 1.338685e-05 0.0
2.305731e-06 1.368065e-05 0.0
2.146004e-06 1.394720e-05 0.0
1.979668e-06 1.418589e-05 0.0
1.807635e-06 1.439623e-05 0.0
1.630838e-06 1.457789e-05 0.0
1.450218e-06 1.473069e-05 0.0
1.266720e-06 1.485457e-05 0.0
1.081285e-06 1.494964e-05 0.0
8.948416e-07 1.501610e-05 0.0
7.083005e-07 1.505432e-05 0.0
5.225455e-07 1.506476e-05 0.0
3.384286e-07 1.504801e-05 0.0
1.567638e-07 1.500476e-05 0.0
-2.167866e-08 1.493579e-05 0.0
-1.961766e-07 1.484198e-05 0.0
-3.660605e-07 1.472430e-05 0.0
-5.307174e-07 1.458375e-05 0.0
-6.895933e-07 1.442142e-05 0.0
-8.421967e-07 1.423845e-05 0.0
-9.880995e-07 1.403601e-05 0.0
-1.126939e-06 1.381528e-05 0.0
-1.258419e-06 1.357749e-05 0.0
-1.382308e-06 1.332386e-05 0.0
-1.498441e-06 1.305561e-05 0.0
-1.606719e-06 1.277396e-05 0.0
-1.707106e-06 1.248009e-05 0.0
-1.799626e-06 1.217517e-05 0.0
-1.884364e-06 1.186034e-05 0.0
-1.961461e-06 1.153667e-05 0.0
-2.031113e-06 1.120520e-05 0.0
-2.093565e-06 1.086690e-05 0.0
-2.149107e-06 1.052271e-05 0.0
-2.198074e-06 1.017346e-05 0.0
-2.240837e-06 9.819937e-06 0.0
-2.277800e-06 9.462853e-06 0.0
-2.309396e-06 9.102840e-06 0.0
-2.336082e-06 8.740452e-06 0.0
-2.358332e-06 8.376168e-06 0.0
-2.376633e-06 8.010388e-06 0.0
-2.391478e-06 7.643434e-06 0.0
-2.403365e-06 7.275555e-06 0.0
-2.412786e-06 6.906927e-06 0.0
-2.420224e-06 6.537656e-06 0.0
-2.426148e-06 6.167782e-06 0.0
-2.431006e-06 5.797284e-06 0.0
-2.435223e-06 5.426089e-06 0.0
-2.439191e-06 5.054070e-06 0.0
-2.443269e-06 4.681060e-06 0.0
-2.447776e-06 4.306856e-06 0.0
-2.452988e-06 3.931227e-06 0.0
-2.459133e-06 3.553922e-06 0.0
-2.466387e-06 3.174678e-06 0.0
-2.474875e-06 2.793229e-06 0.0
-2.484664e-06 2.409316e-06 0.0
-2.495762e-06 2.022694e-06 0.0
-2.508121e-06 1.633141e-06 0.0
-2.521631e-06 1.240467e-06 0.0
-2.536122e-06 8.445238e-07 0.0
-2.551365e-06 4.452126e-07 0.0
-2.567074e-06 4.249074e-08 0.0
-2.582905e-06 -3.636195e-07 0.0
-2.598464e-06 -7.730246e-07 0.0
-2.613302e-06 -1.185553e-06 0.0
-2.626928e-06 -1.600951e-06 0.0
-2.638808e-06 -2.018876e-06 0.0
-2.648371e-06 -2.438895e-06 0.0
-2.655014e-06 -2.860478e-06 0.0
-2.658110e-06 -3.283001e-06 0.0
-2.657013e-06 -3.705741e-06 0.0
-2.651065e-06 -4.127879e-06 0.0
-2.639601e-06 -4.548499e-06 0.0
-2.621960e-06 -4.966590e-06 0.0
-2.597488e-06 -5.381052e-06 0.0
-2.565547e-06 -5.790697e-06 0.0
-2.525522e-06 -6.194256e-06 0.0