# vtk DataFile Version 3.0
Vector Field
ASCII
DATASET RECTILINEAR_GRID
DIMENSIONS 102 102 1
X_COORDINATES 102 double
0.000000 0.100000 0.200000 0.300000 0.400000 0.500000 0.600000 0.700000 0.800000 0.900000 1.000000 1.100000 1.200000 1.300000 1.400000 1.500000 1.600000 1.700000 1.800000 1.900000 2.000000 2.100000 2.200000 2.300000 2.400000 2.500000 2.600000 2.700000 2.800000 2.900000 3.000000 3.100000 3.200000 3.300000 3.400000 3.500000 3.600000 3.700000 3.800000 3.900000 4.000000 4.100000 4.200000 4.300000 4.400000 4.500000 4.600000 4.700000 4.800000 4.900000 5.000000 5.100000 5.200000 5.300000 5.400000 5.500000 5.600000 5.700000 5.800000 5.900000 6.000000 6.100000 6.200000 6.300000 6.400000 6.500000 6.600000 6.700000 6.800000 6.900000 7.000000 7.100000 7.200000 7.300000 7.400000 7.500000 7.600000 7.700000 7.800000 7.900000 8.000000 8.100000 8.200000 8.300000 8.400000 8.500000 8.600000 8.700000 8.800000 8.900000 9.000000 9.100000 9.200000 9.300000 9.400000 9.500000 9.600000 9.700000 9.800000 9.900000 10.000000 10.100000 
Y_COORDINATES 102 double
0.000000 0.100000 0.200000 0.300000 0.400000 0.500000 0.600000 0.700000 0.800000 0.900000 1.000000 1.100000 1.200000 1.300000 1.400000 1.500000 1.600000 1.700000 1.800000 1.900000 2.000000 2.100000 2.200000 2.300000 2.400000 2.500000 2.600000 2.700000 2.800000 2.900000 3.000000 3.100000 3.200000 3.300000 3.400000 3.500000 3.600000 3.700000 3.800000 3.900000 4.000000 4.100000 4.200000 4.300000 4.400000 4.500000 4.600000 4.700000 4.800000 4.900000 5.000000 5.100000 5.200000 5.300000 5.400000 5.500000 5.600000 5.700000 5.800000 5.900000 6.000000 6.100000 6.200000 6.300000 6.400000 6.500000 6.600000 6.700000 6.800000 6.900000 7.000000 7.100000 7.200000 7.300000 7.400000 7.500000 7.600000 7.700000 7.800000 7.900000 8.000000 8.100000 8.200000 8.300000 8.400000 8.500000 8.600000 8.700000 8.800000 8.900000 9.000000 9.100000 9.200000 9.300000 9.400000 9.500000 9.600000 9.700000 9.800000 9.900000 10.000000 10.100000 
Z_COORDINATES 1 double
0.0
POINT_DATA 10404
VECTORS Velocity double
0.000000e+00 0.000000e+00 0.0
-9.252389e-06 0.000000e+00 0.0
-2.335815e-05 0.000000e+00 0.0
-3.124763e-05 0.000000e+00 0.0
-2.983505e-05 0.000000e+00 0.0
-1.885098e-05 0.000000e+00 0.0
7.956200e-07 0.000000e+00 0.0
2.814680e-05 0.000000e+00 0.0
6.275686e-05 0.000000e+00 0.0
1.047784e-04 0.000000e+00 0.0
1.546899e-04 0.000000e+00 0.0
2.128397e-04 0.000000e+00 0.0
2.790198e-04 0.000000e+00 0.0
3.522593e-04 0.000000e+00 0.0
4.309368e-04 0.000000e+00 0.0
5.131720e-04 0.000000e+00 0.0
5.973350e-04 0.000000e+00 0.0
6.824568e-04 0.000000e+00 0.0
7.683713e-04 0.000000e+00 0.0
8.555371e-04 0.000000e+00 0.0
9.446261e-04 0.000000e+00 0.0
1.036059e-03 0.000000e+00 0.0
1.129680e-03 0.000000e+00 0.0
1.224690e-03 0.000000e+00 0.0
1.319837e-03 0.000000e+00 0.0
1.413786e-03 0.000000e+00 0.0
1.505480e-03 0.000000e+00 0.0
1.594383e-03 0.000000e+00 0.0
1.680511e-03 0.000000e+00 0.0
1.764266e-03 0.000000e+00 0.0
1.846160e-03 0.000000e+00 0.0
1.926541e-03 0.000000e+00 0.0
2.005419e-03 0.000000e+00 0.0
2.082429e-03 0.000000e+00 0.0
2.156936e-03 0.000000e+00 0.0
2.228202e-03 0.000000e+00 0.0
2.295566e-03 0.000000e+00 0.0
2.358568e-03 0.000000e+00 0.0
2.416979e-03 0.000000e+00 0.0
2.470771e-03 0.000000e+00 0.0
2.520018e-03 0.000000e+00 0.0
2.564806e-03 0.000000e+00 0.0
2.605149e-03 0.000000e+00 0.0
2.640950e-03 0.000000e+00 0.0
2.672009e-03 0.000000e+00 0.0
2.698047e-03 0.000000e+00 0.0
2.718760e-03 0.000000e+00 0.0
2.733864e-03 0.000000e+00 0.0
2.743130e-03 0.000000e+00 0.0
2.746406e-03 0.000000e+00 0.0
2.743624e-03 0.000000e+00 0.0
2.734794e-03 0.000000e+00 0.0
2.719980e-03 0.000000e+00 0.0
2.699269e-03 0.000000e+00 0.0
2.672756e-03 0.000000e+00 0.0
2.640535e-03 0.000000e+00 0.0
2.602690e-03 0.000000e+00 0.0
2.559306e-03 0.000000e+00 0.0
2.510480e-03 0.000000e+00 0.0
2.456330e-03 0.000000e+00 0.0
2.397007e-03 0.000000e+00 0.0
2.332703e-03 0.000000e+00 0.0
2.263651e-03 0.000000e+00 0.0
2.190124e-03 0.000000e+00 0.0
2.112433e-03 0.000000e+00 0.0
2.030916e-03 0.000000e+00 0.0
1.945934e-03 0.000000e+00 0.0
1.857868e-03 0.000000e+00 0.0
1.767114e-03 0.000000e+00 0.0
1.674080e-03 0.000000e+00 0.0
1.579188e-03 0.000000e+00 0.0
1.482872e-03 0.000000e+00 0.0
1.385580e-03 0.000000e+00 0.0
1.287773e-03 0.000000e+00 0.0
1.189922e-03 0.000000e+00 0.0
1.092509e-03 0.000000e+00 0.0
9.960230e-04 0.000000e+00 0.0
9.009596e-04 0.000000e+00 0.0
8.078157e-04 0.000000e+00 0.0
7.170883e-04 0.000000e+00 0.0
6.292713e-04 0.000000e+00 0.0
5.448527e-04 0.000000e+00 0.0
4.643121e-04 0.000000e+00 0.0
3.881186e-04 0.000000e+00 0.0
3.167277e-04 0.000000e+00 0.0
2.505785e-04 0.000000e+00 0.0
1.900905e-04 0.000000e+00 0.0
1.356581e-04 0.000000e+00 0.0
8.764569e-05 0.000000e+00 0.0
4.637948e-05 0.000000e+00 0.0
1.213633e-05 0.000000e+00 0.0
-1.487114e-05 0.000000e+00 0.0
-3.451737e-05 0.000000e+00 0.0
-4.679947e-05 0.000000e+00 0.0
-5.189055e-05 0.000000e+00 0.0
-5.022739e-05 0.000000e+00 0.0
-4.265475e-05 0.000000e+00 0.0
-3.066572e-05 0.000000e+00 0.0
-1.675354e-05 0.000000e+00 0.0
-4.822917e-06 0.000000e+00 0.0
-0.000000e+00 0.000000e+00 0.0
0.000000e+00 0.000000e+00 0.0
0.000000e+00 5.074550e-06 0.0
3.080178e-06 -1.120153e-05 0.0
1.552944e-05 -1.433238e-05 0.0
2.631387e-05 -8.834604e-06 0.0
3.019387e-05 7.335877e-07 0.0
2.412816e-05 1.093153e-05 0.0
6.695745e-06 1.995388e-05 0.0
-2.210834e-05 2.733704e-05 0.0
-6.113122e-05 3.361792e-05 0.0
-1.085266e-04 3.981944e-05 0.0
-1.623708e-04 4.685805e-05 0.0
-2.212367e-04 5.506234e-05 0.0
-2.845159e-04 6.398291e-05 0.0
-3.523707e-04 7.256254e-05 0.0
-4.253573e-04 7.958195e-05 0.0
-5.038984e-04 8.417796e-05 0.0
-5.878421e-04 8.620540e-05 0.0
-6.762896e-04 8.629157e-05 0.0
-7.677506e-04 8.557220e-05 0.0
-8.605414e-04 8.523533e-05 0.0
-9.532449e-04 8.607097e-05 0.0
-1.045045e-03 8.820820e-05 0.0
-1.135813e-03 9.112801e-05 0.0
-1.225939e-03 9.392155e-05 0.0
-1.315998e-03 9.566859e-05 0.0
-1.406399e-03 9.577775e-05 0.0
-1.497141e-03 9.416537e-05 0.0
-1.587765e-03 9.122775e-05 0.0
-1.677464e-03 8.764657e-05 0.0
-1.765318e-03 8.412363e-05 0.0
-1.850517e-03 8.114970e-05 0.0
-1.932522e-03 7.888210e-05 0.0
-2.011109e-03 7.715396e-05 0.0
-2.086307e-03 7.558559e-05 0.0
-2.158270e-03 7.374217e-05 0.0
-2.227135e-03 7.127771e-05 0.0
-2.292925e-03 6.802341e-05 0.0
-2.355496e-03 6.400568e-05 0.0
-2.414551e-03 5.940399e-05 0.0
-2.469697e-03 5.447362e-05 0.0
-2.520512e-03 4.946275e-05 0.0
-2.566615e-03 4.454766e-05 0.0
-2.607707e-03 3.979955e-05 0.0
-2.643587e-03 3.518544e-05 0.0
-2.674145e-03 3.059642e-05 0.0
-2.699325e-03 2.589070e-05 0.0
-2.719098e-03 2.093826e-05 0.0
-2.733426e-03 1.565519e-05 0.0
-2.742243e-03 1.002124e-05 0.0
-2.745454e-03 4.079434e-06 0.0
-2.742944e-03 -2.077939e-06 0.0
-2.734608e-03 -8.326811e-06 0.0
-2.720359e-03 -1.455637e-05 0.0
-2.700149e-03 -2.068224e-05 0.0
-2.673972e-03 -2.665353e-05 0.0
-2.641875e-03 -3.245160e-05 0.0
-2.603951e-03 -3.808168e-05 0.0
-2.560336e-03 -4.356074e-05 0.0
-2.511198e-03 -4.890526e-05 0.0
-2.456729e-03 -5.412186e-05 0.0
-2.397139e-03 -5.920232e-05 0.0
-2.332655e-03 -6.412316e-05 0.0
-2.263521e-03 -6.884871e-05 0.0
-2.189998e-03 -7.333617e-05 0.0
-2.112369e-03 -7.754113e-05 0.0
-2.030940e-03 -8.142216e-05 0.0
-1.946043e-03 -8.494388e-05 0.0
-1.858039e-03 -8.807820e-05 0.0
-1.767310e-03 -9.080403e-05 0.0
-1.674264e-03 -9.310590e-05 0.0
-1.579330e-03 -9.497210e-05 0.0
-1.482953e-03 -9.639286e-05 0.0
-1.385591e-03 -9.735912e-05 0.0
-1.287716e-03 -9.786192e-05 0.0
-1.189808e-03 -9.789253e-05 0.0
-1.092351e-03 -9.744321e-05 0.0
-9.958352e-04 -9.650704e-05 0.0
-9.007534e-04 -9.507876e-05 0.0
-8.076001e-04 -9.315539e-05 0.0
-7.168691e-04 -9.073668e-05 0.0
-6.290521e-04 -8.782519e-05 0.0
-5.446356e-04 -8.442631e-05 0.0
-4.640990e-04 -8.054809e-05 0.0
-3.879114e-04 -7.620123e-05 0.0
-3.165288e-04 -7.139918e-05 0.0
-2.503909e-04 -6.615839e-05 0.0
-1.899171e-04 -6.049888e-05 0.0
-1.355021e-04 -5.444523e-05 0.0
-8.750965e-05 -4.802776e-05 0.0
-4.626519e-05 -4.128452e-05 0.0
-1.204502e-05 -3.426453e-05 0.0
1.493897e-05 -2.703234e-05 0.0
3.456237e-05 -1.967521e-05 0.0
4.682281e-05 -1.231496e-05 0.0
5.189380e-05 -5.127952e-06 0.0
5.021226e-05 1.620867e-06 0.0
4.262607e-05 7.522687e-06 0.0
3.062600e-05 1.193486e-05 0.0
1.670317e-05 1.385649e-05 0.0
4.767785e-06 1.186846e-05 0.0
0.000000e+00 4.700798e-06 0.0
0.000000e+00 -4.589074e-06 0.0
0.000000e+00 1.421233e-05 0.0
8.876995e-06 -2.198173e-05 0.0
2.458314e-05 -2.624675e-05 0.0
3.012301e-05 -1.055096e-05 0.0
1.676311e-05 1.586390e-05 0.0
-2.021114e-05 4.646892e-05 0.0
-8.245900e-05 7.783224e-05 0.0
-1.694925e-04 1.086740e-04 0.0
-2.795684e-04 1.389336e-04 0.0
-4.105140e-04 1.688867e-04 0.0
-5.603611e-04 1.984800e-04 0.0
-7.276614e-04 2.270313e-04 0.0
-9.114416e-04 2.533446e-04 0.0
-1.110885e-03 2.761358e-04 0.0
-1.324929e-03 2.945484e-04 0.0
-1.551978e-03 3.085116e-04 0.0
-1.789868e-03 3.187787e-04 0.0
-2.036093e-03 3.266321e-04 0.0
-2.288187e-03 3.333932e-04 0.0
-2.544094e-03 3.399464e-04 0.0
-2.802377e-03 3.464708e-04 0.0
-3.062197e-03 3.524691e-04 0.0
-3.323106e-03 3.570530e-04 0.0
-3.584728e-03 3.593483e-04 0.0
-3.846496e-03 3.588471e-04 0.0
-4.107505e-03 3.555806e-04 0.0
-4.366543e-03 3.500696e-04 0.0
-4.622234e-03 3.431028e-04 0.0
-4.873239e-03 3.354505e-04 0.0
-5.118422e-03 3.276281e-04 0.0
-5.356928e-03 3.197833e-04 0.0
-5.588164e-03 3.117248e-04 0.0
-5.811711e-03 3.030545e-04 0.0
-6.027200e-03 2.933400e-04 0.0
-6.234208e-03 2.822630e-04 0.0
-6.432204e-03 2.697025e-04 0.0
-6.620534e-03 2.557416e-04 0.0
-6.798455e-03 2.406122e-04 0.0
-6.965196e-03 2.246082e-04 0.0
-7.120012e-03 2.079978e-04 0.0
-7.262226e-03 1.909601e-04 0.0
-7.391254e-03 1.735581e-04 0.0
-7.506599e-03 1.557488e-04 0.0
-7.607837e-03 1.374199e-04 0.0
-7.694588e-03 1.184401e-04 0.0
-7.766490e-03 9.870710e-05 0.0
-7.823189e-03 7.818108e-05 0.0
-7.864328e-03 5.689885e-05 0.0
-7.889561e-03 3.496800e-05 0.0
-7.898574e-03 1.254762e-05 0.0
-7.891106e-03 -1.017503e-05 0.0
-7.866986e-03 -3.300124e-05 0.0
-7.826128e-03 -5.577658e-05 0.0
-7.768542e-03 -7.838996e-05 0.0
-7.694328e-03 -1.007649e-04 0.0
-7.603667e-03 -1.228460e-04 0.0
-7.496820e-03 -1.445844e-04 0.0
-7.374120e-03 -1.659246e-04 0.0
-7.235965e-03 -1.867961e-04 0.0
-7.082822e-03 -2.071100e-04 0.0
-6.915222e-03 -2.267614e-04 0.0
-6.733766e-03 -2.456339e-04 0.0
-6.539123e-03 -2.636069e-04 0.0
-6.332037e-03 -2.805612e-04 0.0
-6.113323e-03 -2.963847e-04 0.0
-5.883869e-03 -3.109747e-04 0.0
-5.644629e-03 -3.242393e-04 0.0
-5.396625e-03 -3.360963e-04 0.0
-5.140939e-03 -3.464723e-04 0.0
-4.878707e-03 -3.553006e-04 0.0
-4.611116e-03 -3.625200e-04 0.0
-4.339395e-03 -3.680740e-04 0.0
-4.064814e-03 -3.719114e-04 0.0
-3.788673e-03 -3.739863e-04 0.0
-3.512301e-03 -3.742600e-04 0.0
-3.237044e-03 -3.727026e-04 0.0
-2.964266e-03 -3.692915e-04 0.0
-2.695341e-03 -3.640127e-04 0.0
-2.431644e-03 -3.568609e-04 0.0
-2.174548e-03 -3.478404e-04 0.0
-1.925416e-03 -3.369647e-04 0.0
-1.685594e-03 -3.242572e-04 0.0
-1.456401e-03 -3.097515e-04 0.0
-1.239124e-03 -2.934918e-04 0.0
-1.035005e-03 -2.755346e-04 0.0
-8.452316e-04 -2.559502e-04 0.0
-6.709262e-04 -2.348250e-04 0.0
-5.131277e-04 -2.122661e-04 0.0
-3.727728e-04 -1.884055e-04 0.0
-2.506715e-04 -1.634088e-04 0.0
-1.474725e-04 -1.374862e-04 0.0
-6.361748e-05 -1.109097e-04 0.0
7.235614e-07 -8.403792e-05 0.0
4.574265e-05 -5.735515e-05 0.0
7.212333e-05 -3.152990e-05 0.0
8.122632e-05 -7.504396e-06 0.0
7.534899e-05 1.337868e-05 0.0
5.805655e-05 2.920588e-05 0.0
3.456410e-05 3.732786e-05 0.0
1.206193e-05 3.434980e-05 0.0
0.000000e+00 1.674214e-05 0.0
0.000000e+00 -1.663436e-05 0.0
0.000000e+00 2.329547e-05 0.0
8.110461e-06 -2.821603e-05 0.0
1.341282e-05 -2.774566e-05 0.0
-9.811398e-07 5.422108e-06 0.0
-4.429493e-05 5.750815e-05 0.0
-1.214492e-04 1.191196e-04 0.0
-2.340936e-04 1.848464e-04 0.0
-3.817338e-04 2.518441e-04 0.0
-5.627938e-04 3.185566e-04 0.0
-7.754309e-04 3.837396e-04 0.0
-1.017964e-03 4.459459e-04 0.0
-1.288894e-03 5.035011e-04 0.0
-1.586630e-03 5.548446e-04 0.0
-1.909140e-03 5.989942e-04 0.0
-2.253743e-03 6.358666e-04 0.0
-2.617166e-03 6.662799e-04 0.0
-2.995854e-03 6.916225e-04 0.0
-3.386405e-03 7.133287e-04 0.0
-3.785946e-03 7.323828e-04 0.0
-4.192303e-03 7.490471e-04 0.0
-4.603930e-03 7.629022e-04 0.0
-5.019633e-03 7.731528e-04 0.0
-5.438244e-03 7.790460e-04 0.0
-5.858362e-03 7.802245e-04 0.0
-6.278255e-03 7.768840e-04 0.0
-6.695936e-03 7.697021e-04 0.0
-7.109355e-03 7.595946e-04 0.0
-7.516605e-03 7.474170e-04 0.0
-7.916075e-03 7.337295e-04 0.0
-8.306491e-03 7.186985e-04 0.0
-8.686855e-03 7.021442e-04 0.0
-9.056323e-03 6.836907e-04 0.0
-9.414071e-03 6.629478e-04 0.0
-9.759199e-03 6.396586e-04 0.0
-1.009069e-02 6.137749e-04 0.0
-1.040741e-02 5.854515e-04 0.0
-1.070818e-02 5.549805e-04 0.0
-1.099184e-02 5.226974e-04 0.0
-1.125727e-02 4.888920e-04 0.0
-1.150348e-02 4.537490e-04 0.0
-1.172957e-02 4.173297e-04 0.0
-1.193475e-02 3.795907e-04 0.0
-1.211830e-02 3.404305e-04 0.0
-1.227953e-02 2.997451e-04 0.0
-1.241779e-02 2.574777e-04 0.0
-1.253240e-02 2.136509e-04 0.0
-1.262272e-02 1.683750e-04 0.0
-1.268814e-02 1.218367e-04 0.0
-1.272811e-02 7.427414e-05 0.0
-1.274217e-02 2.595041e-05 0.0
-1.272997e-02 -2.286624e-05 0.0
-1.269131e-02 -7.190709e-05 0.0
-1.262611e-02 -1.209573e-04 0.0
-1.253443e-02 -1.698401e-04 0.0
-1.241645e-02 -2.183971e-04 0.0
-1.227245e-02 -2.664704e-04 0.0
-1.210283e-02 -3.138888e-04 0.0
-1.190808e-02 -3.604608e-04 0.0
-1.168882e-02 -4.059740e-04 0.0
-1.144577e-02 -4.501990e-04 0.0
-1.117975e-02 -4.928966e-04 0.0
-1.089171e-02 -5.338258e-04 0.0
-1.058272e-02 -5.727507e-04 0.0
-1.025395e-02 -6.094456e-04 0.0
-9.906710e-03 -6.436973e-04 0.0
-9.542402e-03 -6.753065e-04 0.0
-9.162538e-03 -7.040866e-04 0.0
-8.768730e-03 -7.298630e-04 0.0
-8.362679e-03 -7.524722e-04 0.0
-7.946171e-03 -7.717611e-04 0.0
-7.521067e-03 -7.875875e-04 0.0
-7.089298e-03 -7.998214e-04 0.0
-6.652856e-03 -8.083468e-04 0.0
-6.213782e-03 -8.130633e-04 0.0
-5.774163e-03 -8.138886e-04 0.0
-5.336118e-03 -8.107600e-04 0.0
-4.901789e-03 -8.036333e-04 0.0
-4.473331e-03 -7.924823e-04 0.0
-4.052902e-03 -7.773001e-04 0.0
-3.642655e-03 -7.580994e-04 0.0
-3.244720e-03 -7.349135e-04 0.0
-2.861196e-03 -7.077976e-04 0.0
-2.494137e-03 -6.768299e-04 0.0
-2.145537e-03 -6.421142e-04 0.0
-1.817313e-03 -6.037825e-04 0.0
-1.511289e-03 -5.619999e-04 0.0
-1.229171e-03 -5.169699e-04 0.0
-9.725211e-04 -4.689426e-04 0.0
-7.427253e-04 -4.182268e-04 0.0
-5.409526e-04 -3.652059e-04 0.0
-3.681009e-04 -3.103614e-04 0.0
-2.247271e-04 -2.543062e-04 0.0
-1.109544e-04 -1.978325e-04 0.0
-2.635020e-05 -1.419807e-04 0.0
3.023535e-05 -8.813760e-05 0.0
6.088251e-05 -3.817413e-05 0.0
6.886382e-05 5.375015e-06 0.0
5.894807e-05 3.909920e-05 0.0
3.773366e-05 5.851979e-05 0.0
1.406588e-05 5.799527e-05 0.0
0.000000e+00 3.078591e-05 0.0
0.000000e+00 -3.066505e-05 0.0
0.000000e+00 2.720516e-05 0.0
3.210198e-06 -2.694013e-05 0.0
-1.048534e-05 -1.228893e-05 0.0
-5.411643e-05 4.739467e-05 0.0
-1.356886e-04 1.345191e-04 0.0
-2.593668e-04 2.371697e-04 0.0
-4.265562e-04 3.477297e-04 0.0
-6.370187e-04 4.612229e-04 0.0
-8.897746e-04 5.739978e-04 0.0
-1.183606e-03 6.829359e-04 0.0
-1.517121e-03 7.852250e-04 0.0
-1.888507e-03 8.785606e-04 0.0
-2.295210e-03 9.615101e-04 0.0
-2.733788e-03 1.033757e-03 0.0
-3.200058e-03 1.096038e-03 0.0
-3.689522e-03 1.149746e-03 0.0
-4.197888e-03 1.196362e-03 0.0
-4.721501e-03 1.236928e-03 0.0
-5.257502e-03 1.271769e-03 0.0
-5.803701e-03 1.300545e-03 0.0
-6.358244e-03 1.322577e-03 0.0
-6.919234e-03 1.337276e-03 0.0
-7.484467e-03 1.344490e-03 0.0
-8.051373e-03 1.344638e-03 0.0
-8.617150e-03 1.338605e-03 0.0
-9.179008e-03 1.327475e-03 0.0
-9.734417e-03 1.312220e-03 0.0
-1.028125e-02 1.293470e-03 0.0
-1.081780e-02 1.271434e-03 0.0
-1.134266e-02 1.245973e-03 0.0
-1.185458e-02 1.216766e-03 0.0
-1.235231e-02 1.183501e-03 0.0
-1.283446e-02 1.146019e-03 0.0
-1.329954e-02 1.104379e-03 0.0
-1.374594e-02 1.058834e-03 0.0
-1.417201e-02 1.009756e-03 0.0
-1.457619e-02 9.575350e-04 0.0
-1.495700e-02 9.024883e-04 0.0
-1.531313e-02 8.448114e-04 0.0
-1.564338e-02 7.845675e-04 0.0
-1.594667e-02 7.217196e-04 0.0
-1.622200e-02 6.561859e-04 0.0
-1.646839e-02 5.879012e-04 0.0
-1.668486e-02 5.168682e-04 0.0
-1.687044e-02 4.431844e-04 0.0
-1.702419e-02 3.670455e-04 0.0
-1.714522e-02 2.887258e-04 0.0
-1.723271e-02 2.085495e-04 0.0
-1.728596e-02 1.268608e-04 0.0
-1.730444e-02 4.400555e-05 0.0
-1.728775e-02 -3.967307e-05 0.0
-1.723568e-02 -1.238214e-04 0.0
-1.714817e-02 -2.081250e-04 0.0
-1.702530e-02 -2.922848e-04 0.0
-1.686730e-02 -3.759958e-04 0.0
-1.667455e-02 -4.589334e-04 0.0
-1.644755e-02 -5.407475e-04 0.0
-1.618695e-02 -6.210645e-04 0.0
-1.589353e-02 -6.994936e-04 0.0
-1.556827e-02 -7.756356e-04 0.0
-1.521225e-02 -8.490919e-04 0.0
-1.482676e-02 -9.194715e-04 0.0
-1.441322e-02 -9.863957e-04 0.0
-1.397320e-02 -1.049501e-03 0.0
-1.350845e-02 -1.108438e-03 0.0
-1.302084e-02 -1.162874e-03 0.0
-1.251238e-02 -1.212490e-03 0.0
-1.198520e-02 -1.256983e-03 0.0
-1.144156e-02 -1.296065e-03 0.0
-1.088382e-02 -1.329467e-03 0.0
-1.031446e-02 -1.356941e-03 0.0
-9.736024e-03 -1.378261e-03 0.0
-9.151156e-03 -1.393229e-03 0.0
-8.562561e-03 -1.401676e-03 0.0
-7.973004e-03 -1.403464e-03 0.0
-7.385291e-03 -1.398490e-03 0.0
-6.802259e-03 -1.386682e-03 0.0
-6.226758e-03 -1.367999e-03 0.0
-5.661641e-03 -1.342433e-03 0.0
-5.109748e-03 -1.310012e-03 0.0
-4.573887e-03 -1.270798e-03 0.0
-4.056816e-03 -1.224894e-03 0.0
-3.561231e-03 -1.172444e-03 0.0
-3.089738e-03 -1.113637e-03 0.0
-2.644835e-03 -1.048717e-03 0.0
-2.228881e-03 -9.779838e-04 0.0
-1.844071e-03 -9.018089e-04 0.0
-1.492395e-03 -8.206462e-04 0.0
-1.175595e-03 -7.350520e-04 0.0
-8.951139e-04 -6.457114e-04 0.0
-6.520237e-04 -5.534747e-04 0.0
-4.469441e-04 -4.594080e-04 0.0
-2.799359e-04 -3.648626e-04 0.0
-1.503668e-04 -2.715715e-04 0.0
-5.674932e-05 -1.817784e-04 0.0
3.463452e-06 -9.841038e-05 0.0
3.410440e-05 -2.528997e-05 0.0
4.055690e-05 3.262259e-05 0.0
3.006472e-05 6.898769e-05 0.0
1.221638e-05 7.581942e-05 0.0
0.000000e+00 4.297831e-05 0.0
0.000000e+00 -4.283484e-05 0.0
0.000000e+00 2.250961e-05 0.0
-4.762874e-06 -1.744592e-05 0.0
-4.236187e-05 2.390537e-05 0.0
-1.204170e-04 1.209779e-04 0.0
-2.448675e-04 2.533482e-04 0.0
-4.187913e-04 4.068315e-04 0.0
-6.433862e-04 5.714216e-04 0.0
-9.188329e-04 7.396956e-04 0.0
-1.244789e-03 9.057427e-04 0.0
-1.620445e-03 1.064716e-03 0.0
-2.044265e-03 1.212866e-03 0.0
-2.513649e-03 1.347777e-03 0.0
-3.024810e-03 1.468507e-03 0.0
-3.572978e-03 1.575426e-03 0.0
-4.152923e-03 1.669737e-03 0.0
-4.759590e-03 1.752828e-03 0.0
-5.388597e-03 1.825703e-03 0.0
-6.036439e-03 1.888679e-03 0.0
-6.700336e-03 1.941452e-03 0.0
-7.377841e-03 1.983439e-03 0.0
-8.066417e-03 2.014211e-03 0.0
-8.763142e-03 2.033841e-03 0.0
-9.464666e-03 2.043007e-03 0.0
-1.016739e-02 2.042849e-03 0.0
-1.086777e-02 2.034664e-03 0.0
-1.156261e-02 2.019580e-03 0.0
-1.224921e-02 1.998334e-03 0.0
-1.292539e-02 1.971209e-03 0.0
-1.358930e-02 1.938134e-03 0.0
-1.423930e-02 1.898873e-03 0.0
-1.487369e-02 1.853225e-03 0.0
-1.549064e-02 1.801166e-03 0.0
-1.608819e-02 1.742892e-03 0.0
-1.666425e-02 1.678788e-03 0.0
-1.721673e-02 1.609332e-03 0.0
-1.774363e-02 1.534988e-03 0.0
-1.824313e-02 1.456116e-03 0.0
-1.871356e-02 1.372933e-03 0.0
-1.915344e-02 1.285512e-03 0.0
-1.956140e-02 1.193829e-03 0.0
-1.993614e-02 1.097832e-03 0.0
-2.027639e-02 9.975030e-04 0.0
-2.058088e-02 8.929130e-04 0.0
-2.084833e-02 7.842437e-04 0.0
-2.107750e-02 6.717822e-04 0.0
-2.126719e-02 5.558950e-04 0.0
-2.141631e-02 4.369938e-04 0.0
-2.152393e-02 3.155050e-04 0.0
-2.158927e-02 1.918536e-04 0.0
-2.161172e-02 6.646287e-05 0.0
-2.159088e-02 -6.022867e-05 0.0
-2.152651e-02 -1.877412e-04 0.0
-2.141855e-02 -3.156037e-04 0.0
-2.126711e-02 -4.433325e-04 0.0
-2.107244e-02 -5.704174e-04 0.0
-2.083498e-02 -6.963186e-04 0.0
-2.055534e-02 -8.204701e-04 0.0
-2.023429e-02 -9.422884e-04 0.0
-1.987281e-02 -1.061183e-03 0.0
-1.947208e-02 -1.176565e-03 0.0
-1.903346e-02 -1.287855e-03 0.0
-1.855852e-02 -1.394486e-03 0.0
-1.804902e-02 -1.495906e-03 0.0
-1.750690e-02 -1.591579e-03 0.0
-1.693429e-02 -1.680984e-03 0.0
-1.633347e-02 -1.763617e-03 0.0
-1.570691e-02 -1.838992e-03 0.0
-1.505720e-02 -1.906647e-03 0.0
-1.438711e-02 -1.966140e-03 0.0
-1.369952e-02 -2.017064e-03 0.0
-1.299743e-02 -2.059044e-03 0.0
-1.228398e-02 -2.091741e-03 0.0
-1.156237e-02 -2.114861e-03 0.0
-1.083591e-02 -2.128154e-03 0.0
-1.010798e-02 -2.131417e-03 0.0
-9.381998e-03 -2.124496e-03 0.0
-8.661413e-03 -2.107288e-03 0.0
-7.949699e-03 -2.079735e-03 0.0
-7.250326e-03 -2.041832e-03 0.0
-6.566742e-03 -1.993627e-03 0.0
-5.902350e-03 -1.935223e-03 0.0
-5.260494e-03 -1.866786e-03 0.0
-4.644425e-03 -1.788548e-03 0.0
-4.057284e-03 -1.700813e-03 0.0
-3.502067e-03 -1.603967e-03 0.0
-2.981593e-03 -1.498489e-03 0.0
-2.498467e-03 -1.384963e-03 0.0
-2.055035e-03 -1.264104e-03 0.0
-1.653331e-03 -1.136780e-03 0.0
-1.295018e-03 -1.004048e-03 0.0
-9.813058e-04 -8.672092e-04 0.0
-7.128685e-04 -7.278678e-04 0.0
-4.897307e-04 -5.880233e-04 0.0
-3.111399e-04 -4.501855e-04 0.0
-1.754167e-04 -3.175271e-04 0.0
-7.977606e-05 -1.940765e-04 0.0
-2.013980e-05 -8.495265e-05 0.0
9.086313e-06 3.369914e-06 0.0
1.528484e-05 6.276253e-05 0.0
8.055531e-06 8.302218e-05 0.0
0.000000e+00 5.100753e-05 0.0
0.000000e+00 -5.083671e-05 0.0
0.000000e+00 7.081740e-06 0.0
-1.513799e-05 1.358380e-07 0.0
-7.862858e-05 8.309145e-05 0.0
-1.932261e-04 2.299677e-04 0.0
-3.626203e-04 4.184189e-04 0.0
-5.888583e-04 6.321473e-04 0.0
-8.730239e-04 8.587274e-04 0.0
-1.215633e-03 1.088352e-03 0.0
-1.616616e-03 1.313170e-03 0.0
-2.074985e-03 1.527158e-03 0.0
-2.588451e-03 1.726232e-03 0.0
-3.153249e-03 1.908275e-03 0.0
-3.764371e-03 2.072868e-03 0.0
-4.416136e-03 2.220709e-03 0.0
-5.102915e-03 2.352865e-03 0.0
-5.819727e-03 2.470134e-03 0.0
-6.562486e-03 2.572708e-03 0.0
-7.327870e-03 2.660225e-03 0.0
-8.112901e-03 2.732125e-03 0.0
-8.914476e-03 2.788097e-03 0.0
-9.729047e-03 2.828415e-03 0.0
-1.055257e-02 2.854013e-03 0.0
-1.138072e-02 2.866304e-03 0.0
-1.220923e-02 2.866835e-03 0.0
-1.303423e-02 2.856933e-03 0.0
-1.385242e-02 2.837479e-03 0.0
-1.466110e-02 2.808867e-03 0.0
-1.545796e-02 2.771128e-03 0.0
-1.624091e-02 2.724144e-03 0.0
-1.700783e-02 2.667854e-03 0.0
-1.775645e-02 2.602397e-03 0.0
-1.848434e-02 2.528141e-03 0.0
-1.918896e-02 2.445631e-03 0.0
-1.986779e-02 2.355481e-03 0.0
-2.051841e-02 2.258253e-03 0.0
-2.113862e-02 2.154376e-03 0.0
-2.172640e-02 2.044101e-03 0.0
-2.227997e-02 1.927529e-03 0.0
-2.279766e-02 1.804662e-03 0.0
-2.327787e-02 1.675484e-03 0.0
-2.371906e-02 1.540035e-03 0.0
-2.411963e-02 1.398463e-03 0.0
-2.447802e-02 1.251037e-03 0.0
-2.479266e-02 1.098140e-03 0.0
-2.506207e-02 9.402311e-04 0.0
-2.528489e-02 7.778068e-04 0.0
-2.545990e-02 6.113735e-04 0.0
-2.558608e-02 4.414329e-04 0.0
-2.566259e-02 2.684888e-04 0.0
-2.568880e-02 9.306890e-05 0.0
-2.566426e-02 -8.424609e-05 0.0
-2.558871e-02 -2.627924e-04 0.0
-2.546205e-02 -4.418835e-04 0.0
-2.528440e-02 -6.207992e-04 0.0
-2.505603e-02 -7.987849e-04 0.0
-2.477743e-02 -9.750576e-04 0.0
-2.444931e-02 -1.148817e-03 0.0
-2.407258e-02 -1.319254e-03 0.0
-2.364840e-02 -1.485565e-03 0.0
-2.317814e-02 -1.646950e-03 0.0
-2.266342e-02 -1.802625e-03 0.0
-2.210607e-02 -1.951817e-03 0.0
-2.150815e-02 -2.093765e-03 0.0
-2.087192e-02 -2.227724e-03 0.0
-2.019986e-02 -2.352968e-03 0.0
-1.949464e-02 -2.468787e-03 0.0
-1.875910e-02 -2.574500e-03 0.0
-1.799629e-02 -2.669457e-03 0.0
-1.720940e-02 -2.753046e-03 0.0
-1.640179e-02 -2.824698e-03 0.0
-1.557698e-02 -2.883896e-03 0.0
-1.473857e-02 -2.930176e-03 0.0
-1.389033e-02 -2.963132e-03 0.0
-1.303609e-02 -2.982422e-03 0.0
-1.217977e-02 -2.987766e-03 0.0
-1.132534e-02 -2.978956e-03 0.0
-1.047680e-02 -2.955851e-03 0.0
-9.638196e-03 -2.918377e-03 0.0
-8.813532e-03 -2.866534e-03 0.0
-8.006801e-03 -2.800398e-03 0.0
-7.221938e-03 -2.720127e-03 0.0
-6.462797e-03 -2.625966e-03 0.0
-5.733125e-03 -2.518258e-03 0.0
-5.036526e-03 -2.397446e-03 0.0
-4.376432e-03 -2.264092e-03 0.0
-3.756058e-03 -2.118890e-03 0.0
-3.178365e-03 -1.962683e-03 0.0
-2.646001e-03 -1.796492e-03 0.0
-2.161254e-03 -1.621551e-03 0.0
-1.725974e-03 -1.439351e-03 0.0
-1.341506e-03 -1.251701e-03 0.0
-1.008590e-03 -1.060808e-03 0.0
-7.272643e-04 -8.693739e-04 0.0
-4.967462e-04 -6.807299e-04 0.0
-3.153006e-04 -4.990013e-04 0.0
-1.800935e-04 -3.293125e-04 0.0
-8.704299e-05 -1.780327e-04 0.0
-3.064523e-05 -5.305749e-05 0.0
-3.768436e-06 3.585620e-05 0.0
2.641419e-06 7.658295e-05 0.0
0.000000e+00 5.361983e-05 0.0
0.000000e+00 -5.341953e-05 0.0
0.000000e+00 -1.995476e-05 0.0
-2.709719e-05 2.576972e-05 0.0
-1.163840e-04 1.667256e-04 0.0
-2.676420e-04 3.767260e-04 0.0
-4.825788e-04 6.322170e-04 0.0
-7.623959e-04 9.149634e-04 0.0
-1.107992e-03 1.210378e-03 0.0
-1.519805e-03 1.506755e-03 0.0
-1.997365e-03 1.794997e-03 0.0
-2.538796e-03 2.068626e-03 0.0
-3.140577e-03 2.323716e-03 0.0
-3.797715e-03 2.558535e-03 0.0
-4.504341e-03 2.772854e-03 0.0
-5.254478e-03 2.967099e-03 0.0
-6.042703e-03 3.141622e-03 0.0
-6.864461e-03 3.296303e-03 0.0
-7.715957e-03 3.430582e-03 0.0
-8.593736e-03 3.543807e-03 0.0
-9.494191e-03 3.635695e-03 0.0
-1.041322e-02 3.706650e-03 0.0
-1.134619e-02 3.757822e-03 0.0
-1.228811e-02 3.790883e-03 0.0
-1.323408e-02 3.807634e-03 0.0
-1.417957e-02 3.809628e-03 0.0
-1.512072e-02 3.797926e-03 0.0
-1.605426e-02 3.773072e-03 0.0
-1.697741e-02 3.735235e-03 0.0
-1.788760e-02 3.684446e-03 0.0
-1.878225e-02 3.620815e-03 0.0
-1.965866e-02 3.544671e-03 0.0
-2.051394e-02 3.456581e-03 0.0
-2.134513e-02 3.357280e-03 0.0
-2.214925e-02 3.247545e-03 0.0
-2.292352e-02 3.128067e-03 0.0
-2.366533e-02 2.999365e-03 0.0
-2.437234e-02 2.861756e-03 0.0
-2.504243e-02 2.715384e-03 0.0
-2.567363e-02 2.560296e-03 0.0
-2.626405e-02 2.396528e-03 0.0
-2.681182e-02 2.224188e-03 0.0
-2.731505e-02 2.043508e-03 0.0
-2.777188e-02 1.854852e-03 0.0
-2.818043e-02 1.658695e-03 0.0
-2.853892e-02 1.455589e-03 0.0
-2.884570e-02 1.246111e-03 0.0
-2.909930e-02 1.030841e-03 0.0
-2.929843e-02 8.103547e-04 0.0
-2.944199e-02 5.852318e-04 0.0
-2.952911e-02 3.560886e-04 0.0
-2.955909e-02 1.236096e-04 0.0
-2.953142e-02 -1.114221e-04 0.0
-2.944578e-02 -3.481040e-04 0.0
-2.930205e-02 -5.854896e-04 0.0
-2.910033e-02 -8.225925e-04 0.0
-2.884092e-02 -1.058395e-03 0.0
-2.852438e-02 -1.291861e-03 0.0
-2.815149e-02 -1.521946e-03 0.0
-2.772333e-02 -1.747605e-03 0.0
-2.724119e-02 -1.967799e-03 0.0
-2.670666e-02 -2.181497e-03 0.0
-2.612157e-02 -2.387676e-03 0.0
-2.548798e-02 -2.585322e-03 0.0
-2.480823e-02 -2.773432e-03 0.0
-2.408486e-02 -2.951019e-03 0.0
-2.332067e-02 -3.117115e-03 0.0
-2.251867e-02 -3.270783e-03 0.0
-2.168206e-02 -3.411121e-03 0.0
-2.081427e-02 -3.537273e-03 0.0
-1.991892e-02 -3.648437e-03 0.0
-1.899979e-02 -3.743868e-03 0.0
-1.806084e-02 -3.822891e-03 0.0
-1.710615e-02 -3.884901e-03 0.0
-1.613994e-02 -3.929369e-03 0.0
-1.516655e-02 -3.955847e-03 0.0
-1.419038e-02 -3.963973e-03 0.0
-1.321590e-02 -3.953475e-03 0.0
-1.224762e-02 -3.924173e-03 0.0
-1.129006e-02 -3.875978e-03 0.0
-1.034774e-02 -3.808901e-03 0.0
-9.425127e-03 -3.723053e-03 0.0
-8.526637e-03 -3.618660e-03 0.0
-7.656579e-03 -3.496063e-03 0.0
-6.819137e-03 -3.355734e-03 0.0
-6.018330e-03 -3.198283e-03 0.0
-5.257974e-03 -3.024477e-03 0.0
-4.541634e-03 -2.835255e-03 0.0
-3.872584e-03 -2.631758e-03 0.0
-3.253746e-03 -2.415354e-03 0.0
-2.687632e-03 -2.187689e-03 0.0
-2.176279e-03 -1.950729e-03 0.0
-1.721167e-03 -1.706840e-03 0.0
-1.323139e-03 -1.458865e-03 0.0
-9.823007e-04 -1.210241e-03 0.0
-6.979256e-04 -9.651356e-04 0.0
-4.683429e-04 -7.286168e-04 0.0
-2.908231e-04 -5.068652e-04 0.0
-1.614689e-04 -3.074200e-04 0.0
-7.509615e-05 -1.394632e-04 0.0
-2.511029e-05 -1.416241e-05 0.0
-3.363341e-06 5.480351e-05 0.0
0.000000e+00 5.022423e-05 0.0
0.000000e+00 -4.999388e-05 0.0
0.000000e+00 -5.832482e-05 0.0
-3.947423e-05 5.987572e-05 0.0
-1.532631e-04 2.757198e-04 0.0
-3.403545e-04 5.622957e-04 0.0
-6.008920e-04 8.953890e-04 0.0
-9.352933e-04 1.255176e-03 0.0
-1.343915e-03 1.625507e-03 0.0
-1.826440e-03 1.993591e-03 0.0
-2.381241e-03 2.349916e-03 0.0
-3.005016e-03 2.688142e-03 0.0
-3.692884e-03 3.004667e-03 0.0
-4.438939e-03 3.297861e-03 0.0
-5.237029e-03 3.567119e-03 0.0
-6.081449e-03 3.812034e-03 0.0
-6.967301e-03 4.031931e-03 0.0
-7.890405e-03 4.225858e-03 0.0
-8.846893e-03 4.392914e-03 0.0
-9.832711e-03 4.532708e-03 0.0
-1.084327e-02 4.645670e-03 0.0
-1.187339e-02 4.733083e-03 0.0
-1.291753e-02 4.796820e-03 0.0
-1.397021e-02 4.838913e-03 0.0
-1.502633e-02 4.861138e-03 0.0
-1.608147e-02 4.864759e-03 0.0
-1.713184e-02 4.850496e-03 0.0
-1.817416e-02 4.818692e-03 0.0
-1.920536e-02 4.769557e-03 0.0
-2.022241e-02 4.703403e-03 0.0
-2.122212e-02 4.620774e-03 0.0
-2.220118e-02 4.522463e-03 0.0
-2.315617e-02 4.409418e-03 0.0
-2.408372e-02 4.282606e-03 0.0
-2.498065e-02 4.142876e-03 0.0
-2.584400e-02 3.990866e-03 0.0
-2.667108e-02 3.826986e-03 0.0
-2.745944e-02 3.651451e-03 0.0
-2.820681e-02 3.464374e-03 0.0
-2.891097e-02 3.265864e-03 0.0
-2.956975e-02 3.056114e-03 0.0
-3.018094e-02 2.835446e-03 0.0
-3.074236e-02 2.604325e-03 0.0
-3.125184e-02 2.363321e-03 0.0
-3.170730e-02 2.113073e-03 0.0
-3.210681e-02 1.854234e-03 0.0
-3.244862e-02 1.587454e-03 0.0
-3.273117e-02 1.313372e-03 0.0
-3.295312e-02 1.032640e-03 0.0
-3.311329e-02 7.459593e-04 0.0
-3.321074e-02 4.541152e-04 0.0
-3.324468e-02 1.580097e-04 0.0
-3.321453e-02 -1.413205e-04 0.0
-3.311990e-02 -4.426982e-04 0.0
-3.296064e-02 -7.448962e-04 0.0
-3.273683e-02 -1.046653e-03 0.0
-3.244882e-02 -1.346683e-03 0.0
-3.209722e-02 -1.643694e-03 0.0
-3.168294e-02 -1.936386e-03 0.0
-3.120714e-02 -2.223460e-03 0.0
-3.067131e-02 -2.503619e-03 0.0
-3.007717e-02 -2.775565e-03 0.0
-2.942676e-02 -3.038003e-03 0.0
-2.872236e-02 -3.289644e-03 0.0
-2.796653e-02 -3.529209e-03 0.0
-2.716208e-02 -3.755439e-03 0.0
-2.631210e-02 -3.967106e-03 0.0
-2.541990e-02 -4.163019e-03 0.0
-2.448903e-02 -4.342039e-03 0.0
-2.352326e-02 -4.503087e-03 0.0
-2.252659e-02 -4.645152e-03 0.0
-2.150320e-02 -4.767301e-03 0.0
-2.045745e-02 -4.868683e-03 0.0
-1.939385e-02 -4.948538e-03 0.0
-1.831705e-02 -5.006200e-03 0.0
-1.723184e-02 -5.041107e-03 0.0
-1.614305e-02 -5.052805e-03 0.0
-1.505562e-02 -5.040954e-03 0.0
-1.397451e-02 -5.005334e-03 0.0
-1.290470e-02 -4.945842e-03 0.0