# vtk DataFile Version 3.0
Vector Field
ASCII
DATASET RECTILINEAR_GRID
DIMENSIONS 102 102 1
X_COORDINATES 102 double
0.000000 0.100000 0.200000 0.300000 0.400000 0.500000 0.600000 0.700000 0.800000 0.900000 1.000000 1.100000 1.200000 1.300000 1.400000 1.500000 1.600000 1.700000 1.800000 1.900000 2.000000 2.100000 2.200000 2.300000 2.400000 2.500000 2.600000 2.700000 2.800000 2.900000 3.000000 3.100000 3.200000 3.300000 3.400000 3.500000 3.600000 3.700000 3.800000 3.900000 4.000000 4.100000 4.200000 4.300000 4.400000 4.500000 4.600000 4.700000 4.800000 4.900000 5.000000 5.100000 5.200000 5.300000 5.400000 5.500000 5.600000 5.700000 5.800000 5.900000 6.000000 6.100000 6.200000 6.300000 6.400000 6.500000 6.600000 6.700000 6.800000 6.900000 7.000000 7.100000 7.200000 7.300000 7.400000 7.500000 7.600000 7.700000 7.800000 7.900000 8.000000 8.100000 8.200000 8.300000 8.400000 8.500000 8.600000 8.700000 8.800000 8.900000 9.000000 9.100000 9.200000 9.300000 9.400000 9.500000 9.600000 9.700000 9.800000 9.900000 10.000000 10.100000 
Y_COORDINATES 102 double
0.000000 0.100000 0.200000 0.300000 0.400000 0.500000 0.600000 0.700000 0.800000 0.900000 1.000000 1.100000 1.200000 1.300000 1.400000 1.500000 1.600000 1.700000 1.800000 1.900000 2.000000 2.100000 2.200000 2.300000 2.400000 2.500000 2.600000 2.700000 2.800000 2.900000 3.000000 3.100000 3.200000 3.300000 3.400000 3.500000 3.600000 3.700000 3.800000 3.900000 4.000000 4.100000 4.200000 4.300000 4.400000 4.500000 4.600000 4.700000 4.800000 4.900000 5.000000 5.100000 5.200000 5.300000 5.400000 5.500000 5.600000 5.700000 5.800000 5.900000 6.000000 6.100000 6.200000 6.300000 6.400000 6.500000 6.600000 6.700000 6.800000 6.900000 7.000000 7.100000 7.200000 7.300000 7.400000 7.500000 7.600000 7.700000 7.800000 7.900000 8.000000 8.100000 8.200000 8.300000 8.400000 8.500000 8.600000 8.700000 8.800000 8.900000 9.000000 9.100000 9.200000 9.300000 9.400000 9.500000 9.600000 9.700000 9.800000 9.900000 10.000000 10.100000 
Z_COORDINATES 1 double
0.0
POINT_DATA 10404
VECTORS Velocity double
0.000000e+00 0.000000e+00 0.0
-2.357528e-05 0.000000e+00 0.0
-4.253292e-05 0.000000e+00 0.0
-5.506335e-05 0.000000e+00 0.0
-5.891058e-05 0.000000e+00 0.0
-5.365603e-05 0.000000e+00 0.0
-3.858206e-05 0.000000e+00 0.0
-1.191831e-05 0.000000e+00 0.0
2.854501e-05 0.000000e+00 0.0
8.438085e-05 0.000000e+00 0.0
1.557120e-04 0.000000e+00 0.0
2.410378e-04 0.000000e+00 0.0
3.377053e-04 0.000000e+00 0.0
4.427530e-04 0.000000e+00 0.0
5.537474e-04 0.000000e+00 0.0
6.692864e-04 0.000000e+00 0.0
7.890154e-04 0.000000e+00 0.0
9.132192e-04 0.000000e+00 0.0
1.042217e-03 0.000000e+00 0.0
1.175847e-03 0.000000e+00 0.0
1.313245e-03 0.000000e+00 0.0
1.452982e-03 0.000000e+00 0.0
1.593439e-03 0.000000e+00 0.0
1.733221e-03 0.000000e+00 0.0
1.871427e-03 0.000000e+00 0.0
2.007673e-03 0.000000e+00 0.0
2.141907e-03 0.000000e+00 0.0
2.274135e-03 0.000000e+00 0.0
2.404190e-03 0.000000e+00 0.0
2.531638e-03 0.000000e+00 0.0
2.655819e-03 0.000000e+00 0.0
2.775988e-03 0.000000e+00 0.0
2.891448e-03 0.000000e+00 0.0
3.001637e-03 0.000000e+00 0.0
3.106134e-03 0.000000e+00 0.0
3.204608e-03 0.000000e+00 0.0
3.296752e-03 0.000000e+00 0.0
3.382220e-03 0.000000e+00 0.0
3.460618e-03 0.000000e+00 0.0
3.531511e-03 0.000000e+00 0.0
3.594457e-03 0.000000e+00 0.0
3.649035e-03 0.000000e+00 0.0
3.694867e-03 0.000000e+00 0.0
3.731623e-03 0.000000e+00 0.0
3.759016e-03 0.000000e+00 0.0
3.776797e-03 0.000000e+00 0.0
3.784754e-03 0.000000e+00 0.0
3.782719e-03 0.000000e+00 0.0
3.770599e-03 0.000000e+00 0.0
3.748370e-03 0.000000e+00 0.0
3.716070e-03 0.000000e+00 0.0
3.673799e-03 0.000000e+00 0.0
3.621717e-03 0.000000e+00 0.0
3.560043e-03 0.000000e+00 0.0
3.489050e-03 0.000000e+00 0.0
3.409062e-03 0.000000e+00 0.0
3.320451e-03 0.000000e+00 0.0
3.223640e-03 0.000000e+00 0.0
3.119094e-03 0.000000e+00 0.0
3.007330e-03 0.000000e+00 0.0
2.888907e-03 0.000000e+00 0.0
2.764431e-03 0.000000e+00 0.0
2.634548e-03 0.000000e+00 0.0
2.499945e-03 0.000000e+00 0.0
2.361340e-03 0.000000e+00 0.0
2.219479e-03 0.000000e+00 0.0
2.075131e-03 0.000000e+00 0.0
1.929086e-03 0.000000e+00 0.0
1.782144e-03 0.000000e+00 0.0
1.635114e-03 0.000000e+00 0.0
1.488806e-03 0.000000e+00 0.0
1.344026e-03 0.000000e+00 0.0
1.201576e-03 0.000000e+00 0.0
1.062243e-03 0.000000e+00 0.0
9.267995e-04 0.000000e+00 0.0
7.959976e-04 0.000000e+00 0.0
6.705628e-04 0.000000e+00 0.0
5.511905e-04 0.000000e+00 0.0
4.385400e-04 0.000000e+00 0.0
3.332302e-04 0.000000e+00 0.0
2.358335e-04 0.000000e+00 0.0
1.468710e-04 0.000000e+00 0.0
6.680652e-05 0.000000e+00 0.0
-3.959075e-06 0.000000e+00 0.0
-6.509444e-05 0.000000e+00 0.0
-1.163456e-04 0.000000e+00 0.0
-1.575455e-04 0.000000e+00 0.0
-1.886250e-04 0.000000e+00 0.0
-2.096259e-04 0.000000e+00 0.0
-2.207198e-04 0.000000e+00 0.0
-2.222309e-04 0.000000e+00 0.0
-2.146667e-04 0.000000e+00 0.0
-1.987601e-04 0.000000e+00 0.0
-1.755267e-04 0.000000e+00 0.0
-1.463463e-04 0.000000e+00 0.0
-1.130772e-04 0.000000e+00 0.0
-7.821526e-05 0.000000e+00 0.0
-4.509148e-05 0.000000e+00 0.0
-1.802090e-05 0.000000e+00 0.0
-1.970846e-06 0.000000e+00 0.0
-0.000000e+00 0.000000e+00 0.0
0.000000e+00 0.000000e+00 0.0
0.000000e+00 -1.728172e-06 0.0
1.613515e-06 -2.035609e-05 0.0
2.279228e-05 -2.822693e-05 0.0
4.771948e-05 -2.128181e-05 0.0
6.531221e-05 -6.066757e-06 0.0
6.808822e-05 1.034461e-05 0.0
5.237572e-05 2.416400e-05 0.0
1.805547e-05 3.472730e-05 0.0
-3.246534e-05 4.353335e-05 0.0
-9.574813e-05 5.279035e-05 0.0
-1.687745e-04 6.407017e-05 0.0
-2.498630e-04 7.753478e-05 0.0
-3.388071e-04 9.194078e-05 0.0
-4.363188e-04 1.052986e-04 0.0
-5.431304e-04 1.158091e-04 0.0
-6.592046e-04 1.226260e-04 0.0
-7.833960e-04 1.261204e-04 0.0
-9.136614e-04 1.275821e-04 0.0
-1.047655e-03 1.285609e-04 0.0
-1.183391e-03 1.301878e-04 0.0
-1.319664e-03 1.327847e-04 0.0
-1.456084e-03 1.358922e-04 0.0
-1.592772e-03 1.386336e-04 0.0
-1.729915e-03 1.401894e-04 0.0
-1.867401e-03 1.401491e-04 0.0
-2.004687e-03 1.386073e-04 0.0
-2.140886e-03 1.360167e-04 0.0
-2.275003e-03 1.329172e-04 0.0
-2.406159e-03 1.296942e-04 0.0
-2.533715e-03 1.264650e-04 0.0
-2.657267e-03 1.231122e-04 0.0
-2.776548e-03 1.194077e-04 0.0
-2.891299e-03 1.151490e-04 0.0
-3.001187e-03 1.102425e-04 0.0
-3.105781e-03 1.047135e-04 0.0
-3.204578e-03 9.866012e-05 0.0
-3.297061e-03 9.218970e-05 0.0
-3.382739e-03 8.537124e-05 0.0
-3.461175e-03 7.822008e-05 0.0
-3.531979e-03 7.071195e-05 0.0
-3.594796e-03 6.281141e-05 0.0
-3.649278e-03 5.449806e-05 0.0
-3.695085e-03 4.578038e-05 0.0
-3.731879e-03 3.669501e-05 0.0
-3.759340e-03 2.729646e-05 0.0
-3.777179e-03 1.764448e-05 0.0
-3.785158e-03 7.796021e-06 0.0
-3.783105e-03 -2.193265e-06 0.0
-3.770937e-03 -1.225331e-05 0.0
-3.748655e-03 -2.232659e-05 0.0
-3.716316e-03 -3.236577e-05 0.0
-3.674032e-03 -4.232096e-05 0.0
-3.621962e-03 -5.213575e-05 0.0
-3.560313e-03 -6.174826e-05 0.0
-3.489345e-03 -7.109482e-05 0.0
-3.409370e-03 -8.011391e-05 0.0
-3.320753e-03 -8.874897e-05 0.0
-3.223916e-03 -9.694929e-05 0.0
-3.119333e-03 -1.046693e-04 0.0
-3.007528e-03 -1.118672e-04 0.0
-2.889068e-03 -1.185030e-04 0.0
-2.764564e-03 -1.245377e-04 0.0
-2.634667e-03 -1.299330e-04 0.0
-2.500058e-03 -1.346520e-04 0.0
-2.361452e-03 -1.386600e-04 0.0
-2.219593e-03 -1.419260e-04 0.0
-2.075246e-03 -1.444233e-04 0.0
-1.929196e-03 -1.461306e-04 0.0
-1.782245e-03 -1.470329e-04 0.0
-1.635200e-03 -1.471215e-04 0.0
-1.488872e-03 -1.463952e-04 0.0
-1.344070e-03 -1.448581e-04 0.0
-1.201597e-03 -1.425188e-04 0.0
-1.062243e-03 -1.393909e-04 0.0
-9.267821e-04 -1.354919e-04 0.0
-7.959670e-04 -1.308438e-04 0.0
-6.705237e-04 -1.254726e-04 0.0
-5.511465e-04 -1.194086e-04 0.0
-4.384937e-04 -1.126867e-04 0.0
-3.331826e-04 -1.053467e-04 0.0
-2.357846e-04 -9.743377e-05 0.0
-1.468200e-04 -8.899887e-05 0.0
-6.675264e-05 -8.009881e-05 0.0
4.016183e-06 -7.079675e-05 0.0
6.515453e-05 -6.116247e-05 0.0
1.164078e-04 -5.127376e-05 0.0
1.576085e-04 -4.121795e-05 0.0
1.886872e-04 -3.109313e-05 0.0
2.096858e-04 -2.101067e-05 0.0
2.207759e-04 -1.110009e-05 0.0
2.222819e-04 -1.514202e-06 0.0
2.147119e-04 7.563605e-06 0.0
1.987989e-04 1.590814e-05 0.0
1.755588e-04 2.323660e-05 0.0
1.463715e-04 2.918493e-05 0.0
1.130956e-04 3.327427e-05 0.0
7.822737e-05 3.486714e-05 0.0
4.509824e-05 3.312844e-05 0.0
1.802399e-05 2.707360e-05 0.0
1.972377e-06 1.605100e-05 0.0
0.000000e+00 1.971766e-06 0.0
0.000000e+00 -1.974276e-06 0.0
0.000000e+00 2.154574e-05 0.0
1.443153e-05 -4.219151e-05 0.0
5.132468e-05 -5.552602e-05 0.0
7.884143e-05 -3.782221e-05 0.0
8.110044e-05 -2.180379e-06 0.0
4.878161e-05 4.110503e-05 0.0
-2.181561e-05 8.669894e-05 0.0
-1.304515e-04 1.329023e-04 0.0
-2.748124e-04 1.798075e-04 0.0
-4.520946e-04 2.275974e-04 0.0
-6.599694e-04 2.755351e-04 0.0
-8.968192e-04 3.218192e-04 0.0
-1.161383e-03 3.641497e-04 0.0
-1.452145e-03 4.006041e-04 0.0
-1.766830e-03 4.303493e-04 0.0
-2.102282e-03 4.538560e-04 0.0
-2.454753e-03 4.725507e-04 0.0
-2.820451e-03 4.881146e-04 0.0
-3.196061e-03 5.017843e-04 0.0
-3.579027e-03 5.139655e-04 0.0
-3.967501e-03 5.242834e-04 0.0
-4.360044e-03 5.319703e-04 0.0
-4.755261e-03 5.363507e-04 0.0
-5.151554e-03 5.371814e-04 0.0
-5.547057e-03 5.347204e-04 0.0
-5.939760e-03 5.295530e-04 0.0
-6.327696e-03 5.223073e-04 0.0
-6.709093e-03 5.134148e-04 0.0
-7.082432e-03 5.030143e-04 0.0
-7.446389e-03 4.910079e-04 0.0
-7.799740e-03 4.772007e-04 0.0
-8.141261e-03 4.614398e-04 0.0
-8.469677e-03 4.436895e-04 0.0
-8.783661e-03 4.240284e-04 0.0
-9.081874e-03 4.025939e-04 0.0
-9.363006e-03 3.795162e-04 0.0
-9.625804e-03 3.548756e-04 0.0
-9.869079e-03 3.286973e-04 0.0
-1.009170e-02 3.009746e-04 0.0
-1.029256e-02 2.717027e-04 0.0
-1.047061e-02 2.409071e-04 0.0
-1.062482e-02 2.086547e-04 0.0
-1.075421e-02 1.750509e-04 0.0
-1.085787e-02 1.402262e-04 0.0
-1.093500e-02 1.043251e-04 0.0
-1.098490e-02 6.749932e-05 0.0
-1.100700e-02 2.991316e-05 0.0
-1.100090e-02 -8.241030e-06 0.0
-1.096639e-02 -4.671518e-05 0.0
-1.090342e-02 -8.526628e-05 0.0
-1.081213e-02 -1.236684e-04 0.0
-1.069280e-02 -1.616994e-04 0.0
-1.054587e-02 -1.991384e-04 0.0
-1.037193e-02 -2.357671e-04 0.0
-1.017171e-02 -2.713730e-04 0.0
-9.946103e-03 -3.057521e-04 0.0
-9.696152e-03 -3.387090e-04 0.0
-9.423037e-03 -3.700569e-04 0.0
-9.128076e-03 -3.996158e-04 0.0
-8.812721e-03 -4.272122e-04 0.0
-8.478546e-03 -4.526788e-04 0.0
-8.127242e-03 -4.758560e-04 0.0
-7.760608e-03 -4.965934e-04 0.0
-7.380543e-03 -5.147520e-04 0.0
-6.989035e-03 -5.302069e-04 0.0
-6.588150e-03 -5.428488e-04 0.0
-6.180019e-03 -5.525859e-04 0.0
-5.766828e-03 -5.593457e-04 0.0
-5.350800e-03 -5.630757e-04 0.0
-4.934184e-03 -5.637453e-04 0.0
-4.519235e-03 -5.613466e-04 0.0
-4.108204e-03 -5.558903e-04 0.0
-3.703320e-03 -5.474044e-04 0.0
-3.306782e-03 -5.359337e-04 0.0
-2.920743e-03 -5.215410e-04 0.0
-2.547295e-03 -5.043066e-04 0.0
-2.188455e-03 -4.843293e-04 0.0
-1.846154e-03 -4.617264e-04 0.0
-1.522222e-03 -4.366350e-04 0.0
-1.218370e-03 -4.092117e-04 0.0
-9.361793e-04 -3.796339e-04 0.0
-6.770843e-04 -3.481005e-04 0.0
-4.423546e-04 -3.148326e-04 0.0
-2.330782e-04 -2.800758e-04 0.0
-5.014018e-05 -2.441021e-04 0.0
1.057987e-04 -2.072139e-04 0.0
2.343285e-04 -1.697487e-04 0.0
3.353257e-04 -1.320911e-04 0.0
4.089885e-04 -9.467400e-05 0.0
4.558848e-04 -5.799652e-05 0.0
4.770116e-04 -2.264072e-05 0.0
4.738698e-04 1.070592e-05 0.0
4.485597e-04 4.121914e-05 0.0
4.039002e-04 6.789692e-05 0.0
3.435800e-04 8.950595e-05 0.0
2.723342e-04 1.045206e-04 0.0
1.961274e-04 1.110744e-04 0.0
1.222670e-04 1.069891e-04 0.0
5.925805e-05 9.008262e-05 0.0
1.601141e-05 5.929771e-05 0.0
0.000000e+00 1.798323e-05 0.0
0.000000e+00 -1.798395e-05 0.0
0.000000e+00 4.844355e-05 0.0
1.831412e-05 -5.709717e-05 0.0
4.682192e-05 -7.275779e-05 0.0
5.113714e-05 -3.633076e-05 0.0
1.479182e-05 3.187243e-05 0.0
-7.115262e-05 1.182630e-04 0.0
-2.101081e-04 2.148344e-04 0.0
-4.021909e-04 3.170501e-04 0.0
-6.461128e-04 4.218040e-04 0.0
-9.403296e-04 5.260486e-04 0.0
-1.283347e-03 6.263797e-04 0.0
-1.673394e-03 7.194265e-04 0.0
-2.107872e-03 8.026085e-04 0.0
-2.582992e-03 8.747547e-04 0.0
-3.093844e-03 9.362265e-04 0.0
-3.634904e-03 9.884792e-04 0.0
-4.200727e-03 1.033283e-03 0.0
-4.786534e-03 1.071974e-03 0.0
-5.388446e-03 1.105059e-03 0.0
-6.003344e-03 1.132278e-03 0.0
-6.628478e-03 1.153019e-03 0.0
-7.261072e-03 1.166813e-03 0.0
-7.898099e-03 1.173659e-03 0.0
-8.536298e-03 1.174063e-03 0.0
-9.172360e-03 1.168824e-03 0.0
-9.803163e-03 1.158731e-03 0.0
-1.042591e-02 1.144327e-03 0.0
-1.103814e-02 1.125835e-03 0.0
-1.163764e-02 1.103229e-03 0.0
-1.222228e-02 1.076394e-03 0.0
-1.278993e-02 1.045269e-03 0.0
-1.333840e-02 1.009913e-03 0.0
-1.386550e-02 9.704895e-04 0.0
-1.436903e-02 9.272001e-04 0.0
-1.484690e-02 8.802207e-04 0.0
-1.529709e-02 8.296640e-04 0.0
-1.571768e-02 7.755849e-04 0.0
-1.610683e-02 7.180142e-04 0.0
-1.646274e-02 6.569980e-04 0.0
-1.678366e-02 5.926272e-04 0.0
-1.706790e-02 5.250469e-04 0.0
-1.731385e-02 4.544505e-04 0.0
-1.752001e-02 3.810662e-04 0.0
-1.768501e-02 3.051458e-04 0.0
-1.780766e-02 2.269626e-04 0.0
-1.788693e-02 1.468193e-04 0.0
-1.792201e-02 6.506528e-05 0.0
-1.791232e-02 -1.787978e-05 0.0
-1.785752e-02 -1.014971e-04 0.0
-1.775756e-02 -1.852621e-04 0.0
-1.761262e-02 -2.686760e-04 0.0
-1.742315e-02 -3.512562e-04 0.0
-1.718983e-02 -4.325334e-04 0.0
-1.691360e-02 -5.120517e-04 0.0
-1.659563e-02 -5.893685e-04 0.0
-1.623733e-02 -6.640540e-04 0.0
-1.584033e-02 -7.356904e-04 0.0
-1.540650e-02 -8.038710e-04 0.0
-1.493791e-02 -8.682009e-04 0.0
-1.443683e-02 -9.282977e-04 0.0
-1.390574e-02 -9.837955e-04 0.0
-1.334728e-02 -1.034348e-03 0.0
-1.276428e-02 -1.079632e-03 0.0
-1.215973e-02 -1.119351e-03 0.0
-1.153673e-02 -1.153243e-03 0.0
-1.089853e-02 -1.181076e-03 0.0
-1.024848e-02 -1.202658e-03 0.0
-9.590001e-03 -1.217834e-03 0.0
-8.926589e-03 -1.226494e-03 0.0
-8.261769e-03 -1.228567e-03 0.0
-7.599086e-03 -1.224033e-03 0.0
-6.942072e-03 -1.212910e-03 0.0
-6.294233e-03 -1.195253e-03 0.0
-5.659025e-03 -1.171157e-03 0.0
-5.039830e-03 -1.140754e-03 0.0
-4.439936e-03 -1.104219e-03 0.0
-3.862517e-03 -1.061766e-03 0.0
-3.310606e-03 -1.013652e-03 0.0
-2.787077e-03 -9.601753e-04 0.0
-2.294617e-03 -9.016799e-04 0.0
-1.835702e-03 -8.385534e-04 0.0
-1.412575e-03 -7.712307e-04 0.0
-1.027213e-03 -7.001962e-04 0.0
-6.813027e-04 -6.259878e-04 0.0
-3.762033e-04 -5.492028e-04 0.0
-1.129133e-04 -4.705049e-04 0.0
1.079726e-04 -3.906353e-04 0.0
2.863064e-04 -3.104252e-04 0.0
4.224557e-04 -2.308232e-04 0.0
5.173649e-04 -1.529052e-04 0.0
5.726376e-04 -7.791261e-05 0.0
5.906358e-04 -7.291407e-06 0.0
5.745973e-04 5.725835e-05 0.0
5.287723e-04 1.137225e-04 0.0
4.585746e-04 1.597039e-04 0.0
3.707362e-04 1.923591e-04 0.0
2.734253e-04 2.083853e-04 0.0
1.762643e-04 2.041499e-04 0.0
9.016841e-05 1.761784e-04 0.0
2.703871e-05 1.224273e-04 0.0
0.000000e+00 4.502185e-05 0.0
0.000000e+00 -4.501982e-05 0.0
0.000000e+00 6.692496e-05 0.0
1.609090e-05 -6.118412e-05 0.0
1.889138e-05 -6.881311e-05 0.0
-1.787425e-05 -1.712479e-06 0.0
-1.085987e-04 1.134527e-04 0.0
-2.608861e-04 2.593420e-04 0.0
-4.781044e-04 4.240953e-04 0.0
-7.614691e-04 5.989700e-04 0.0
-1.111285e-03 7.766781e-04 0.0
-1.527274e-03 9.506814e-04 0.0
-2.008225e-03 1.115348e-03 0.0
-2.551435e-03 1.266535e-03 0.0
-3.152408e-03 1.402069e-03 0.0
-3.805078e-03 1.521732e-03 0.0
-4.502517e-03 1.626685e-03 0.0
-5.237840e-03 1.718578e-03 0.0
-6.004914e-03 1.798711e-03 0.0
-6.798631e-03 1.867603e-03 0.0
-7.614704e-03 1.925065e-03 0.0
-8.449193e-03 1.970628e-03 0.0
-9.298050e-03 2.004049e-03 0.0
-1.015689e-02 2.025616e-03 0.0
-1.102107e-02 2.036148e-03 0.0
-1.188597e-02 2.036733e-03 0.0
-1.274722e-02 2.028396e-03 0.0
-1.360097e-02 2.011859e-03 0.0
-1.444376e-02 1.987487e-03 0.0
-1.527245e-02 1.955390e-03 0.0
-1.608403e-02 1.915591e-03 0.0
-1.687545e-02 1.868176e-03 0.0
-1.764364e-02 1.813349e-03 0.0
-1.838551e-02 1.751399e-03 0.0
-1.909805e-02 1.682630e-03 0.0
-1.977835e-02 1.607294e-03 0.0
-2.042367e-02 1.525560e-03 0.0
-2.103137e-02 1.437537e-03 0.0
-2.159891e-02 1.343313e-03 0.0
-2.212380e-02 1.243005e-03 0.0
-2.260364e-02 1.136789e-03 0.0
-2.303606e-02 1.024900e-03 0.0
-2.341884e-02 9.076352e-04 0.0
-2.374987e-02 7.853289e-04 0.0
-2.402722e-02 6.583507e-04 0.0
-2.424915e-02 5.271056e-04 0.0
-2.441416e-02 3.920469e-04 0.0
-2.452094e-02 2.536962e-04 0.0
-2.456849e-02 1.126668e-04 0.0
-2.455605e-02 -3.031391e-05 0.0
-2.448322e-02 -1.743824e-04 0.0
-2.434992e-02 -3.186589e-04 0.0
-2.415640e-02 -4.623008e-04 0.0
-2.390324e-02 -6.044949e-04 0.0
-2.359137e-02 -7.444530e-04 0.0
-2.322202e-02 -8.814078e-04 0.0
-2.279677e-02 -1.014610e-03 0.0
-2.231747e-02 -1.143328e-03 0.0
-2.178630e-02 -1.266842e-03 0.0
-2.120572e-02 -1.384452e-03 0.0
-2.057846e-02 -1.495475e-03 0.0
-1.990753e-02 -1.599255e-03 0.0
-1.919621e-02 -1.695165e-03 0.0
-1.844798e-02 -1.782615e-03 0.0
-1.766660e-02 -1.861055e-03 0.0
-1.685601e-02 -1.929987e-03 0.0
-1.602031e-02 -1.988963e-03 0.0
-1.516381e-02 -2.037593e-03 0.0
-1.429093e-02 -2.075549e-03 0.0
-1.340620e-02 -2.102569e-03 0.0
-1.251424e-02 -2.118459e-03 0.0
-1.161971e-02 -2.123099e-03 0.0
-1.072731e-02 -2.116442e-03 0.0
-9.841720e-03 -2.098514e-03 0.0
-8.967583e-03 -2.069408e-03 0.0
-8.109480e-03 -2.029280e-03 0.0
-7.271896e-03 -1.978358e-03 0.0
-6.459194e-03 -1.916938e-03 0.0
-5.675583e-03 -1.845391e-03 0.0
-4.925087e-03 -1.764156e-03 0.0
-4.211518e-03 -1.673751e-03 0.0
-3.538436e-03 -1.574765e-03 0.0
-2.909124e-03 -1.467868e-03 0.0
-2.326545e-03 -1.353811e-03 0.0
-1.793312e-03 -1.233431e-03 0.0
-1.311643e-03 -1.107657e-03 0.0
-8.833236e-04 -9.775238e-04 0.0
-5.096518e-04 -8.441774e-04 0.0
-1.913908e-04 -7.088965e-04 0.0
7.129564e-05 -5.731115e-04 0.0
2.789049e-04 -4.384320e-04 0.0
4.326882e-04 -3.066880e-04 0.0
5.347382e-04 -1.799624e-04 0.0
5.880942e-04 -6.064729e-05 0.0
5.968603e-04 4.849214e-05 0.0
5.663345e-04 1.442479e-04 0.0
5.031363e-04 2.229015e-04 0.0
4.153238e-04 2.801711e-04 0.0
3.124753e-04 3.112334e-04 0.0
2.057220e-04 3.109026e-04 0.0
1.077821e-04 2.741180e-04 0.0
3.325770e-05 1.969514e-04 0.0
0.000000e+00 7.827928e-05 0.0
0.000000e+00 -7.827361e-05 0.0
0.000000e+00 6.952259e-05 0.0
7.569615e-06 -5.424209e-05 0.0
-2.584680e-05 -3.647131e-05 0.0
-1.141564e-04 7.768663e-05 0.0
-2.686918e-04 2.565403e-04 0.0
-4.958542e-04 4.783413e-04 0.0
-7.994351e-04 7.264356e-04 0.0
-1.181960e-03 9.872432e-04 0.0
-1.644983e-03 1.249298e-03 0.0
-2.188635e-03 1.503194e-03 0.0
-2.810962e-03 1.741995e-03 0.0
-3.507584e-03 1.961546e-03 0.0
-4.271970e-03 2.160301e-03 0.0
-5.096313e-03 2.338578e-03 0.0
-5.972626e-03 2.497503e-03 0.0
-6.893636e-03 2.638053e-03 0.0
-7.853144e-03 2.760554e-03 0.0
-8.845821e-03 2.864737e-03 0.0
-9.866683e-03 2.950173e-03 0.0
-1.091056e-02 3.016791e-03 0.0
-1.197185e-02 3.065154e-03 0.0
-1.304461e-02 3.096415e-03 0.0
-1.412293e-02 3.112005e-03 0.0
-1.520124e-02 3.113246e-03 0.0
-1.627453e-02 3.101107e-03 0.0
-1.733834e-02 3.076157e-03 0.0
-1.838857e-02 3.038697e-03 0.0
-1.942129e-02 2.988951e-03 0.0
-2.043257e-02 2.927209e-03 0.0
-2.141844e-02 2.853874e-03 0.0
-2.237495e-02 2.769416e-03 0.0
-2.329825e-02 2.674287e-03 0.0
-2.418465e-02 2.568854e-03 0.0
-2.503067e-02 2.453379e-03 0.0
-2.583295e-02 2.328051e-03 0.0
-2.658826e-02 2.193045e-03 0.0
-2.729345e-02 2.048570e-03 0.0
-2.794543e-02 1.894899e-03 0.0
-2.854122e-02 1.732379e-03 0.0
-2.907795e-02 1.561413e-03 0.0
-2.955291e-02 1.382451e-03 0.0
-2.996361e-02 1.195983e-03 0.0
-3.030774e-02 1.002547e-03 0.0
-3.058328e-02 8.027485e-04 0.0
-3.078841e-02 5.972840e-04 0.0
-3.092163e-02 3.869657e-04 0.0
-3.098172e-02 1.727408e-04 0.0
-3.096782e-02 -4.429252e-05 0.0
-3.087945e-02 -2.628722e-04 0.0
-3.071651e-02 -4.817097e-04 0.0
-3.047933e-02 -6.995634e-04 0.0
-3.016864e-02 -9.152305e-04 0.0
-2.978555e-02 -1.127539e-03 0.0
-2.933159e-02 -1.335342e-03 0.0
-2.880866e-02 -1.537511e-03 0.0
-2.821903e-02 -1.732941e-03 0.0
-2.756533e-02 -1.920542e-03 0.0
-2.685055e-02 -2.099253e-03 0.0
-2.607802e-02 -2.268045e-03 0.0
-2.525140e-02 -2.425928e-03 0.0
-2.437466e-02 -2.571961e-03 0.0
-2.345206e-02 -2.705259e-03 0.0
-2.248815e-02 -2.825002e-03 0.0
-2.148772e-02 -2.930443e-03 0.0
-2.045578e-02 -3.020909e-03 0.0
-1.939756e-02 -3.095817e-03 0.0
-1.831844e-02 -3.154672e-03 0.0
-1.722394e-02 -3.197076e-03 0.0
-1.611967e-02 -3.222733e-03 0.0
-1.501133e-02 -3.231454e-03 0.0
-1.390463e-02 -3.223159e-03 0.0
-1.280528e-02 -3.197883e-03 0.0
-1.171895e-02 -3.155756e-03 0.0
-1.065124e-02 -3.097013e-03 0.0
-9.607620e-03 -3.021994e-03 0.0
-8.593425e-03 -2.931145e-03 0.0
-7.613800e-03 -2.825023e-03 0.0
-6.673669e-03 -2.704293e-03 0.0
-5.777688e-03 -2.569733e-03 0.0
-4.930216e-03 -2.422239e-03 0.0
-4.135263e-03 -2.262822e-03 0.0
-3.396456e-03 -2.092620e-03 0.0
-2.716987e-03 -1.912902e-03 0.0
-2.099566e-03 -1.725079e-03 0.0
-1.546373e-03 -1.530718e-03 0.0
-1.058998e-03 -1.331553e-03 0.0
-6.383779e-04 -1.129517e-03 0.0
-2.847294e-04 -9.267604e-04 0.0
2.528795e-06 -7.256907e-04 0.0
2.248557e-04 -5.290157e-04 0.0
3.846891e-04 -3.397969e-04 0.0
4.855520e-04 -1.615115e-04 0.0
5.321572e-04 1.885576e-06 0.0
5.305214e-04 1.458823e-04 0.0
4.880716e-04 2.653500e-04 0.0
4.137406e-04 3.545012e-04 0.0
3.180541e-04 4.069191e-04 0.0
2.132372e-04 4.157188e-04 0.0
1.134479e-04 3.739069e-04 0.0
3.541285e-05 2.749861e-04 0.0
0.000000e+00 1.136918e-04 0.0
0.000000e+00 -1.136817e-04 0.0
0.000000e+00 5.289892e-05 0.0
-7.165092e-06 -3.676944e-05 0.0
-8.151684e-05 2.964418e-05 0.0
-2.263471e-04 2.109991e-04 0.0
-4.500818e-04 4.717343e-04 0.0
-7.583962e-04 7.852178e-04 0.0
-1.155651e-03 1.129710e-03 0.0
-1.645178e-03 1.487085e-03 0.0
-2.228701e-03 1.842569e-03 0.0
-2.905499e-03 2.185016e-03 0.0
-3.671912e-03 2.507088e-03 0.0
-4.521580e-03 2.804928e-03 0.0
-5.446367e-03 3.077239e-03 0.0
-6.437616e-03 3.324032e-03 0.0
-7.487209e-03 3.545513e-03 0.0
-8.588054e-03 3.741475e-03 0.0
-9.733936e-03 3.911301e-03 0.0
-1.091897e-02 4.054403e-03 0.0
-1.213701e-02 4.170727e-03 0.0
-1.338140e-02 4.261020e-03 0.0
-1.464506e-02 4.326726e-03 0.0
-1.592088e-02 4.369615e-03 0.0
-1.720211e-02 4.391344e-03 0.0
-1.848263e-02 4.393182e-03 0.0
-1.975693e-02 4.375957e-03 0.0
-2.101994e-02 4.340219e-03 0.0
-2.226680e-02 4.286442e-03 0.0
-2.349268e-02 4.215174e-03 0.0
-2.469274e-02 4.127075e-03 0.0
-2.586217e-02 4.022850e-03 0.0
-2.699631e-02 3.903152e-03 0.0
-2.809069e-02 3.768511e-03 0.0
-2.914106e-02 3.619328e-03 0.0
-3.014336e-02 3.455911e-03 0.0
-3.109368e-02 3.278552e-03 0.0
-3.198817e-02 3.087575e-03 0.0
-3.282312e-02 2.883379e-03 0.0
-3.359488e-02 2.666428e-03 0.0
-3.429997e-02 2.437246e-03 0.0
-3.493510e-02 2.196402e-03 0.0
-3.549716e-02 1.944506e-03 0.0
-3.598331e-02 1.682228e-03 0.0
-3.639095e-02 1.410322e-03 0.0
-3.671775e-02 1.129655e-03 0.0
-3.696166e-02 8.412316e-04 0.0
-3.712095e-02 5.462167e-04 0.0
-3.719426e-02 2.459436e-04 0.0
-3.718061e-02 -5.807621e-05 0.0
-3.707946e-02 -3.641457e-04 0.0
-3.689072e-02 -6.705253e-04 0.0
-3.661479e-02 -9.755260e-04 0.0
-3.625251e-02 -1.277500e-03 0.0
-3.580518e-02 -1.574829e-03 0.0
-3.527457e-02 -1.865922e-03 0.0
-3.466285e-02 -2.149208e-03 0.0
-3.397266e-02 -2.423141e-03 0.0
-3.320702e-02 -2.686205e-03 0.0
-3.236940e-02 -2.936922e-03 0.0
-3.146364e-02 -3.173862e-03 0.0
-3.049397e-02 -3.395653e-03 0.0
-2.946498e-02 -3.600992e-03 0.0
-2.838162e-02 -3.788655e-03 0.0
-2.724914e-02 -3.957505e-03 0.0
-2.607309e-02 -4.106505e-03 0.0
-2.485928e-02 -4.234724e-03 0.0
-2.361375e-02 -4.341348e-03 0.0
-2.234274e-02 -4.425686e-03 0.0
-2.105264e-02 -4.487179e-03 0.0
-1.974998e-02 -4.525407e-03 0.0
-1.844136e-02 -4.540096e-03 0.0
-1.713341e-02 -4.531127e-03 0.0
-1.583278e-02 -4.498534e-03 0.0
-1.454607e-02 -4.442494e-03 0.0
-1.327977e-02 -4.363328e-03 0.0
-1.204027e-02 -4.261502e-03 0.0
-1.083379e-02 -4.137634e-03 0.0
-9.666319e-03 -3.992493e-03 0.0
-8.543611e-03 -3.827003e-03 0.0
-7.471100e-03 -3.642246e-03 0.0
-6.453874e-03 -3.439467e-03 0.0
-5.496623e-03 -3.220075e-03 0.0
-4.603588e-03 -2.985658e-03 0.0
-3.778506e-03 -2.737986e-03 0.0
-3.024561e-03 -2.479026e-03 0.0
-2.344319e-03 -2.210962e-03 0.0
-1.739665e-03 -1.936209e-03 0.0
-1.211739e-03 -1.657445e-03 0.0
-7.608584e-04 -1.377643e-03 0.0
-3.864403e-04 -1.100111e-03 0.0
-8.691406e-05 -8.285447e-04 0.0
1.403681e-04 -5.670819e-04 0.0
2.992238e-04 -3.203698e-04 0.0
3.947536e-04 -9.364648e-05 0.0
4.334297e-04 1.072043e-04 0.0
4.231968e-04 2.755816e-04 0.0
3.735585e-04 4.041386e-04 0.0
2.956895e-04 4.847874e-04 0.0
2.026097e-04 5.087981e-04 0.0
1.095274e-04 4.669890e-04 0.0
3.454674e-05 3.499665e-04 0.0
0.000000e+00 1.482382e-04 0.0
0.000000e+00 -1.482230e-04 0.0
0.000000e+00 1.715490e-05 0.0
-2.676587e-05 -8.207001e-06 0.0
-1.426442e-04 1.339557e-04 0.0
-3.456708e-04 4.049157e-04 0.0
-6.420189e-04 7.660174e-04 0.0
-1.036880e-03 1.185818e-03 0.0
-1.534694e-03 1.638056e-03 0.0
-2.138442e-03 2.101163e-03 0.0
-2.848609e-03 2.558408e-03 0.0
-3.662484e-03 2.998002e-03 0.0
-4.574252e-03 3.412663e-03 0.0
-5.575883e-03 3.798538e-03 0.0
-6.658456e-03 4.153771e-03 0.0
-7.813336e-03 4.477200e-03 0.0
-9.032783e-03 4.767610e-03 0.0
-1.030987e-02 5.023662e-03 0.0
-1.163796e-02 5.244298e-03 0.0
-1.301007e-02 5.429241e-03 0.0
-1.441865e-02 5.579233e-03 0.0
-1.585562e-02 5.695887e-03 0.0
-1.731280e-02 5.781245e-03 0.0
-1.878239e-02 5.837279e-03 0.0
-2.025720e-02 5.865573e-03 0.0
-2.173070e-02 5.867262e-03 0.0
-2.319686e-02 5.843183e-03 0.0
-2.464986e-02 5.794107e-03 0.0
-2.608397e-02 5.720890e-03 0.0
-2.749348e-02 5.624495e-03 0.0
-2.887275e-02 5.505913e-03 0.0
-3.021631e-02 5.366052e-03 0.0
-3.151892e-02 5.205661e-03 0.0
-3.277559e-02 5.025327e-03 0.0
-3.398156e-02 4.825527e-03 0.0
-3.513220e-02 4.606706e-03 0.0
-3.622301e-02 4.369343e-03 0.0
-3.724960e-02 4.113979e-03 0.0
-3.820770e-02 3.841219e-03 0.0
-3.909321e-02 3.551717e-03 0.0
-3.990224e-02 3.246166e-03 0.0
-4.063110e-02 2.925300e-03 0.0
-4.127639e-02 2.589918e-03 0.0
-4.183492e-02 2.240917e-03 0.0
-4.230382e-02 1.879324e-03 0.0
-4.268048e-02 1.506329e-03 0.0
-4.296262e-02 1.123301e-03 0.0
-4.314833e-02 7.317965e-04 0.0
-4.323611e-02 3.335678e-04 0.0
-4.322487e-02 -6.943342e-05 0.0
-4.311404e-02 -4.750471e-04 0.0
-4.290353e-02 -8.810424e-04 0.0
-4.259380e-02 -1.285235e-03 0.0
-4.218578e-02 -1.685476e-03 0.0
-4.168092e-02 -2.079646e-03 0.0
-4.108118e-02 -2.465648e-03 0.0
-4.038899e-02 -2.841412e-03 0.0
-3.960727e-02 -3.204900e-03 0.0
-3.873941e-02 -3.554119e-03 0.0
-3.778927e-02 -3.887126e-03 0.0
-3.676114e-02 -4.202044e-03 0.0
-3.565977e-02 -4.497074e-03 0.0
-3.449029e-02 -4.770506e-03 0.0
-3.325822e-02 -5.020734e-03 0.0
-3.196947e-02 -5.246266e-03 0.0
-3.063024e-02 -5.445735e-03 0.0
-2.924705e-02 -5.617914e-03 0.0
-2.782668e-02 -5.761727e-03 0.0
-2.637612e-02 -5.876257e-03 0.0
-2.490255e-02 -5.960758e-03 0.0
-2.341332e-02 -6.014666e-03 0.0
-2.191583e-02 -6.037608e-03 0.0
-2.041757e-02 -6.029410e-03 0.0
-1.892601e-02 -5.990106e-03 0.0
-1.744860e-02 -5.919916e-03 0.0
-1.599269e-02 -5.819251e-03 0.0
-1.456548e-02 -5.688718e-03 0.0
-1.317400e-02 -5.529119e-03 0.0
-1.182504e-02 -5.341459e-03 0.0
-1.052510e-02 -5.126947e-03 0.0
-9.280341e-03 -4.887003e-03 0.0
-8.096550e-03 -4.623261e-03 0.0
-6.979052e-03 -4.337577e-03 0.0
-5.932675e-03 -4.032038e-03 0.0
-4.961687e-03 -3.708977e-03 0.0
-4.069736e-03 -3.370981e-03 0.0
-3.259781e-03 -3.020921e-03 0.0
-2.534029e-03 -2.661965e-03 0.0
-1.893859e-03 -2.297618e-03 0.0
-1.339751e-03 -1.931756e-03 0.0
-8.711980e-04 -1.568669e-03 0.0
-4.866298e-04 -1.213117e-03 0.0
-1.833217e-04 -8.703937e-04 0.0
4.269544e-05 -5.463899e-04 0.0
1.967174e-04 -2.476707e-04 0.0
2.854673e-04 1.845288e-05 0.0
3.171861e-04 2.438620e-04 0.0
3.017262e-04 4.195982e-04 0.0
2.506777e-04 5.358358e-04 0.0
1.775768e-04 5.818990e-04 0.0
9.826643e-05 5.462995e-04 0.0
3.151825e-05 4.167147e-04 0.0
0.000000e+00 1.797564e-04 0.0
0.000000e+00 -1.797355e-04 0.0
0.000000e+00 -3.553109e-05 0.0
-4.859340e-05 3.338891e-05 0.0
-2.044753e-04 2.799670e-04 0.0
-4.661396e-04 6.635368e-04 0.0
-8.380360e-04 1.142867e-03 0.0
-1.324536e-03 1.682511e-03 0.0
-1.929046e-03 2.253000e-03 0.0
-2.652744e-03 2.830872e-03 0.0
-3.493646e-03 3.398731e-03 0.0
-4.446493e-03 3.944767e-03 0.0
-5.503536e-03 4.461582e-03 0.0
-6.655837e-03 4.944597e-03 0.0
-7.894511e-03 5.390572e-03 0.0
-9.211400e-03 5.796701e-03 0.0
-1.059905e-02 6.160441e-03 0.0
-1.205022e-02 6.479863e-03 0.0
-1.355723e-02 6.754132e-03 0.0
-1.511173e-02 6.983719e-03 0.0
-1.670478e-02 7.170202e-03 0.0
-1.832730e-02 7.315750e-03 0.0
-1.997052e-02 7.422567e-03 0.0
-2.162629e-02 7.492516e-03 0.0
-2.328715e-02 7.527035e-03 0.0
-2.494611e-02 7.527280e-03 0.0
-2.659643e-02 7.494350e-03 0.0
-2.823146e-02 7.429443e-03 0.0
-2.984464e-02 7.333867e-03 0.0
-3.142949e-02 7.208946e-03 0.0
-3.297975e-02 7.055890e-03 0.0
-3.448944e-02 6.875719e-03 0.0
-3.595286e-02 6.669261e-03 0.0
-3.736450e-02 6.437211e-03 0.0
-3.871908e-02 6.180216e-03 0.0
-4.001139e-02 5.898946e-03 0.0
-4.123641e-02 5.594119e-03 0.0
-4.238922e-02 5.266502e-03 0.0
-4.346511e-02 4.916897e-03 0.0
-4.445959e-02 4.546129e-03 0.0
-4.536840e-02 4.155061e-03 0.0
-4.618755e-02 3.744620e-03 0.0
-4.691331e-02 3.315841e-03 0.0
-4.754220e-02 2.869904e-03 0.0
-4.807106e-02 2.408171e-03 0.0
-4.849704e-02 1.932197e-03 0.0
-4.881764e-02 1.443745e-03 0.0
-4.903079e-02 9.447893e-04 0.0
-4.913486e-02 4.375178e-04 0.0
-4.912869e-02 -7.565593e-05 0.0
-4.901165e-02 -5.920808e-04 0.0
-4.878366e-02 -1.108991e-03 0.0
-4.844518e-02 -1.623658e-03 0.0
-4.799724e-02 -2.133382e-03 0.0
-4.744139e-02 -2.635486e-03 0.0
-4.677974e-02 -3.127321e-03 0.0
-4.601493e-02 -3.606272e-03 0.0
-4.515012e-02 -4.069766e-03 0.0
-4.418902e-02 -4.515287e-03 0.0
-4.313582e-02 -4.940386e-03 0.0
-4.199520e-02 -5.342698e-03 0.0
-4.077235e-02 -5.719952e-03 0.0
-3.947288e-02 -6.069993e-03 0.0
-3.810283e-02 -6.390790e-03 0.0
-3.666864e-02 -6.680454e-03 0.0
-3.517712e-02 -6.937254e-03 0.0
-3.363541e-02 -7.159632e-03 0.0
-3.205094e-02 -7.346215e-03 0.0
-3.043138e-02 -7.495832e-03 0.0
-2.878463e-02 -7.607527e-03 0.0
-2.711875e-02 -7.680570e-03 0.0
-2.544191e-02 -7.714472e-03 0.0
-2.376235e-02 -7.708990e-03 0.0
-2.208832e-02 -7.664147e-03 0.0
-2.042804e-02 -7.580206e-03 0.0
-1.878963e-02 -7.457669e-03 0.0
-1.718106e-02 -7.297285e-03 0.0
-1.561013e-02 -7.100056e-03 0.0
-1.408435e-02 -6.867238e-03 0.0
-1.261096e-02 -6.600348e-03 0.0
-1.119680e-02 -6.301169e-03 0.0
-9.848306e-03 -5.971758e-03 0.0