# vtk DataFile Version 3.0
Vector Field
ASCII
DATASET RECTILINEAR_GRID
DIMENSIONS 102 102 1
X_COORDINATES 102 double
0.000000 0.100000 0.200000 0.300000 0.400000 0.500000 0.600000 0.700000 0.800000 0.900000 1.000000 1.100000 1.200000 1.300000 1.400000 1.500000 1.600000 1.700000 1.800000 1.900000 2.000000 2.100000 2.200000 2.300000 2.400000 2.500000 2.600000 2.700000 2.800000 2.900000 3.000000 3.100000 3.200000 3.300000 3.400000 3.500000 3.600000 3.700000 3.800000 3.900000 4.000000 4.100000 4.200000 4.300000 4.400000 4.500000 4.600000 4.700000 4.800000 4.900000 5.000000 5.100000 5.200000 5.300000 5.400000 5.500000 5.600000 5.700000 5.800000 5.900000 6.000000 6.100000 6.200000 6.300000 6.400000 6.500000 6.600000 6.700000 6.800000 6.900000 7.000000 7.100000 7.200000 7.300000 7.400000 7.500000 7.600000 7.700000 7.800000 7.900000 8.000000 8.100000 8.200000 8.300000 8.400000 8.500000 8.600000 8.700000 8.800000 8.900000 9.000000 9.100000 9.200000 9.300000 9.400000 9.500000 9.600000 9.700000 9.800000 9.900000 10.000000 10.100000 
Y_COORDINATES 102 double
0.000000 0.100000 0.200000 0.300000 0.400000 0.500000 0.600000 0.700000 0.800000 0.900000 1.000000 1.100000 1.200000 1.300000 1.400000 1.500000 1.600000 1.700000 1.800000 1.900000 2.000000 2.100000 2.200000 2.300000 2.400000 2.500000 2.600000 2.700000 2.800000 2.900000 3.000000 3.100000 3.200000 3.300000 3.400000 3.500000 3.600000 3.700000 3.800000 3.900000 4.000000 4.100000 4.200000 4.300000 4.400000 4.500000 4.600000 4.700000 4.800000 4.900000 5.000000 5.100000 5.200000 5.300000 5.400000 5.500000 5.600000 5.700000 5.800000 5.900000 6.000000 6.100000 6.200000 6.300000 6.400000 6.500000 6.600000 6.700000 6.800000 6.900000 7.000000 7.100000 7.200000 7.300000 7.400000 7.500000 7.600000 7.700000 7.800000 7.900000 8.000000 8.100000 8.200000 8.300000 8.400000 8.500000 8.600000 8.700000 8.800000 8.900000 9.000000 9.100000 9.200000 9.300000 9.400000 9.500000 9.600000 9.700000 9.800000 9.900000 10.000000 10.100000 
Z_COORDINATES 1 double
0.0
POINT_DATA 10404
VECTORS Velocity double
0.000000e+00 0.000000e+00 0.0
-1.751696e-05 0.000000e+00 0.0
-4.565186e-05 0.000000e+00 0.0
-6.623849e-05 0.000000e+00 0.0
-7.199306e-05 0.000000e+00 0.0
-6.150420e-05 0.000000e+00 0.0
-3.685013e-05 0.000000e+00 0.0
-9.979453e-07 0.000000e+00 0.0
4.410744e-05 0.000000e+00 0.0
9.831285e-05 0.000000e+00 0.0
1.628858e-04 0.000000e+00 0.0
2.394433e-04 0.000000e+00 0.0
3.288253e-04 0.000000e+00 0.0
4.304504e-04 0.000000e+00 0.0
5.423708e-04 0.000000e+00 0.0
6.618874e-04 0.000000e+00 0.0
7.863638e-04 0.000000e+00 0.0
9.138627e-04 0.000000e+00 0.0
1.043381e-03 0.000000e+00 0.0
1.174683e-03 0.000000e+00 0.0
1.307892e-03 0.000000e+00 0.0
1.443066e-03 0.000000e+00 0.0
1.579930e-03 0.000000e+00 0.0
1.717816e-03 0.000000e+00 0.0
1.855781e-03 0.000000e+00 0.0
1.992798e-03 0.000000e+00 0.0
2.127933e-03 0.000000e+00 0.0
2.260449e-03 0.000000e+00 0.0
2.389827e-03 0.000000e+00 0.0
2.515715e-03 0.000000e+00 0.0
2.637853e-03 0.000000e+00 0.0
2.755993e-03 0.000000e+00 0.0
2.869831e-03 0.000000e+00 0.0
2.978979e-03 0.000000e+00 0.0
3.082959e-03 0.000000e+00 0.0
3.181231e-03 0.000000e+00 0.0
3.273234e-03 0.000000e+00 0.0
3.358432e-03 0.000000e+00 0.0
3.436351e-03 0.000000e+00 0.0
3.506590e-03 0.000000e+00 0.0
3.568817e-03 0.000000e+00 0.0
3.622742e-03 0.000000e+00 0.0
3.668091e-03 0.000000e+00 0.0
3.704581e-03 0.000000e+00 0.0
3.731919e-03 0.000000e+00 0.0
3.749811e-03 0.000000e+00 0.0
3.757988e-03 0.000000e+00 0.0
3.756236e-03 0.000000e+00 0.0
3.744435e-03 0.000000e+00 0.0
3.722562e-03 0.000000e+00 0.0
3.690670e-03 0.000000e+00 0.0
3.648883e-03 0.000000e+00 0.0
3.597377e-03 0.000000e+00 0.0
3.536377e-03 0.000000e+00 0.0
3.466155e-03 0.000000e+00 0.0
3.387025e-03 0.000000e+00 0.0
3.299346e-03 0.000000e+00 0.0
3.203529e-03 0.000000e+00 0.0
3.100031e-03 0.000000e+00 0.0
2.989359e-03 0.000000e+00 0.0
2.872069e-03 0.000000e+00 0.0
2.748761e-03 0.000000e+00 0.0
2.620077e-03 0.000000e+00 0.0
2.486696e-03 0.000000e+00 0.0
2.349330e-03 0.000000e+00 0.0
2.208718e-03 0.000000e+00 0.0
2.065622e-03 0.000000e+00 0.0
1.920821e-03 0.000000e+00 0.0
1.775107e-03 0.000000e+00 0.0
1.629279e-03 0.000000e+00 0.0
1.484141e-03 0.000000e+00 0.0
1.340489e-03 0.000000e+00 0.0
1.199119e-03 0.000000e+00 0.0
1.060813e-03 0.000000e+00 0.0
9.263364e-04 0.000000e+00 0.0
7.964370e-04 0.000000e+00 0.0
6.718351e-04 0.000000e+00 0.0
5.532207e-04 0.000000e+00 0.0
4.412483e-04 0.000000e+00 0.0
3.365319e-04 0.000000e+00 0.0
2.396401e-04 0.000000e+00 0.0
1.510909e-04 0.000000e+00 0.0
7.134603e-05 0.000000e+00 0.0
8.052120e-07 0.000000e+00 0.0
-6.020041e-05 0.000000e+00 0.0
-1.114161e-04 0.000000e+00 0.0
-1.526731e-04 0.000000e+00 0.0
-1.838993e-04 0.000000e+00 0.0
-2.051324e-04 0.000000e+00 0.0
-2.165381e-04 0.000000e+00 0.0
-2.184328e-04 0.000000e+00 0.0
-2.113141e-04 0.000000e+00 0.0
-1.959021e-04 0.000000e+00 0.0
-1.731966e-04 0.000000e+00 0.0
-1.445572e-04 0.000000e+00 0.0
-1.118173e-04 0.000000e+00 0.0
-7.744203e-05 0.000000e+00 0.0
-4.472539e-05 0.000000e+00 0.0
-1.794092e-05 0.000000e+00 0.0
-2.016207e-06 0.000000e+00 0.0
-0.000000e+00 0.000000e+00 0.0
0.000000e+00 0.000000e+00 0.0
0.000000e+00 4.536144e-06 0.0
4.682150e-06 -1.674408e-05 0.0
1.888471e-05 -3.159440e-05 0.0
3.707210e-05 -2.979222e-05 0.0
5.185579e-05 -1.579458e-05 0.0
5.712311e-05 4.044360e-06 0.0
4.790005e-05 2.430337e-05 0.0
2.107965e-05 4.137735e-05 0.0
-2.402604e-05 5.401070e-05 0.0
-8.583488e-05 6.302488e-05 0.0
-1.613492e-04 7.038102e-05 0.0
-2.473215e-04 7.802653e-05 0.0
-3.412286e-04 8.702530e-05 0.0
-4.417101e-04 9.726795e-05 0.0
-5.484239e-04 1.077522e-04 0.0
-6.615245e-04 1.171820e-04 0.0
-7.810790e-04 1.245571e-04 0.0
-9.066815e-04 1.295086e-04 0.0
-1.037370e-03 1.323092e-04 0.0
-1.171798e-03 1.336371e-04 0.0
-1.308522e-03 1.342531e-04 0.0
-1.446264e-03 1.347320e-04 0.0
-1.584061e-03 1.353295e-04 0.0
-1.721285e-03 1.359864e-04 0.0
-1.857561e-03 1.364293e-04 0.0
-1.992641e-03 1.363122e-04 0.0
-2.126282e-03 1.353452e-04 0.0
-2.258153e-03 1.333822e-04 0.0
-2.387789e-03 1.304500e-04 0.0
-2.514603e-03 1.267218e-04 0.0
-2.637933e-03 1.224475e-04 0.0
-2.757115e-03 1.178671e-04 0.0
-2.871545e-03 1.131351e-04 0.0
-2.980724e-03 1.082831e-04 0.0
-3.084259e-03 1.032278e-04 0.0
-3.181834e-03 9.781930e-05 0.0
-3.273154e-03 9.190591e-05 0.0
-3.357903e-03 8.539001e-05 0.0
-3.435712e-03 7.825581e-05 0.0
-3.506156e-03 7.056319e-05 0.0
-3.568782e-03 6.241632e-05 0.0
-3.623139e-03 5.392395e-05 0.0
-3.668812e-03 4.516793e-05 0.0
-3.705445e-03 3.619006e-05 0.0
-3.732741e-03 2.699794e-05 0.0
-3.750464e-03 1.758336e-05 0.0
-3.758425e-03 7.944395e-06 0.0
-3.756484e-03 -1.895075e-06 0.0
-3.744570e-03 -1.186702e-05 0.0
-3.722668e-03 -2.189347e-05 0.0
-3.690816e-03 -3.189923e-05 0.0
-3.649104e-03 -4.181150e-05 0.0
-3.597676e-03 -5.156258e-05 0.0
-3.536732e-03 -6.109137e-05 0.0
-3.466532e-03 -7.034310e-05 0.0
-3.387392e-03 -7.926789e-05 0.0
-3.299679e-03 -8.781888e-05 0.0
-3.203815e-03 -9.595086e-05 0.0
-3.100270e-03 -1.036192e-04 0.0
-2.989559e-03 -1.107793e-04 0.0
-2.872242e-03 -1.173871e-04 0.0
-2.748921e-03 -1.233992e-04 0.0
-2.620233e-03 -1.287742e-04 0.0
-2.486852e-03 -1.334736e-04 0.0
-2.349486e-03 -1.374631e-04 0.0
-2.208869e-03 -1.407132e-04 0.0
-2.065762e-03 -1.432001e-04 0.0
-1.920942e-03 -1.449053e-04 0.0
-1.775205e-03 -1.458161e-04 0.0
-1.629353e-03 -1.459254e-04 0.0
-1.484190e-03 -1.452322e-04 0.0
-1.340518e-03 -1.437395e-04 0.0
-1.199130e-03 -1.414545e-04 0.0
-1.060810e-03 -1.383884e-04 0.0
-9.263240e-04 -1.345571e-04 0.0
-7.964174e-04 -1.299810e-04 0.0
-6.718101e-04 -1.246851e-04 0.0
-5.531912e-04 -1.186996e-04 0.0
-4.412146e-04 -1.120591e-04 0.0
-3.364938e-04 -1.048035e-04 0.0
-2.395971e-04 -9.697786e-05 0.0
-1.510423e-04 -8.863266e-05 0.0
-7.129153e-05 -7.982430e-05 0.0
-7.448514e-07 -7.061534e-05 0.0
6.026600e-05 -6.107493e-05 0.0
1.114856e-04 -5.127999e-05 0.0
1.527446e-04 -4.131712e-05 0.0
1.839705e-04 -3.128307e-05 0.0
2.052011e-04 -2.128786e-05 0.0
2.166020e-04 -1.145918e-05 0.0
2.184902e-04 -1.947712e-06 0.0
2.113638e-04 7.065596e-06 0.0
1.959436e-04 1.535849e-05 0.0
1.732297e-04 2.265155e-05 0.0
1.445821e-04 2.858486e-05 0.0
1.118346e-04 3.268457e-05 0.0
7.745283e-05 3.431897e-05 0.0
4.473105e-05 3.265887e-05 0.0
1.794333e-05 2.672484e-05 0.0
2.016904e-06 1.586354e-05 0.0
0.000000e+00 1.954022e-06 0.0
0.000000e+00 -1.954223e-06 0.0
0.000000e+00 1.829696e-05 0.0
1.024477e-05 -4.487779e-05 0.0
4.147457e-05 -6.356172e-05 0.0
6.735651e-05 -4.717582e-05 0.0
7.217397e-05 -7.893375e-06 0.0
4.514736e-05 4.191193e-05 0.0
-1.984375e-05 9.386407e-05 0.0
-1.247458e-04 1.435220e-04 0.0
-2.682968e-04 1.896743e-04 0.0
-4.473415e-04 2.330143e-04 0.0
-6.581417e-04 2.746998e-04 0.0
-8.973132e-04 3.152931e-04 0.0
-1.162198e-03 3.543638e-04 0.0
-1.450729e-03 3.907222e-04 0.0
-1.761029e-03 4.230004e-04 0.0
-2.091013e-03 4.502287e-04 0.0
-2.438191e-03 4.721499e-04 0.0
-2.799717e-03 4.891972e-04 0.0
-3.172593e-03 5.022253e-04 0.0
-3.553927e-03 5.121616e-04 0.0
-3.941115e-03 5.197262e-04 0.0
-4.331928e-03 5.252958e-04 0.0
-4.724477e-03 5.289136e-04 0.0
-5.117130e-03 5.303971e-04 0.0
-5.508394e-03 5.294837e-04 0.0
-5.896815e-03 5.259691e-04 0.0
-6.280908e-03 5.197972e-04 0.0
-6.659127e-03 5.110880e-04 0.0
-7.029882e-03 5.001042e-04 0.0
-7.391582e-03 4.871730e-04 0.0
-7.742691e-03 4.725910e-04 0.0
-8.081772e-03 4.565462e-04 0.0
-8.407511e-03 4.390830e-04 0.0
-8.718694e-03 4.201209e-04 0.0
-9.014177e-03 3.995140e-04 0.0
-9.292829e-03 3.771257e-04 0.0
-9.553504e-03 3.528881e-04 0.0
-9.795024e-03 3.268273e-04 0.0
-1.001620e-02 2.990512e-04 0.0
-1.021584e-02 2.697122e-04 0.0
-1.039283e-02 2.389643e-04 0.0
-1.054610e-02 2.069338e-04 0.0
-1.067471e-02 1.737113e-04 0.0
-1.077778e-02 1.393640e-04 0.0
-1.085457e-02 1.039597e-04 0.0
-1.090441e-02 6.759153e-05 0.0
-1.092675e-02 3.039831e-05 0.0
-1.092119e-02 -7.422134e-06 0.0
-1.088750e-02 -4.559848e-05 0.0
-1.082562e-02 -8.385918e-05 0.0
-1.073565e-02 -1.219585e-04 0.0
-1.061788e-02 -1.596684e-04 0.0
-1.047273e-02 -1.967743e-04 0.0
-1.030079e-02 -2.330708e-04 0.0
-1.010279e-02 -2.683595e-04 0.0
-9.879609e-03 -3.024463e-04 0.0
-9.632286e-03 -3.351413e-04 0.0
-9.361981e-03 -3.662579e-04 0.0
-9.069996e-03 -3.956136e-04 0.0
-8.757763e-03 -4.230314e-04 0.0
-8.426835e-03 -4.483411e-04 0.0
-8.078883e-03 -4.713814e-04 0.0
-7.715685e-03 -4.920021e-04 0.0
-7.339119e-03 -5.100659e-04 0.0
-6.951152e-03 -5.254508e-04 0.0
-6.553831e-03 -5.380508e-04 0.0
-6.149266e-03 -5.477773e-04 0.0
-5.739623e-03 -5.545598e-04 0.0
-5.327103e-03 -5.583471e-04 0.0
-4.913934e-03 -5.591078e-04 0.0
-4.502350e-03 -5.568323e-04 0.0
-4.094579e-03 -5.515291e-04 0.0
-3.692831e-03 -5.432233e-04 0.0
-3.299286e-03 -5.319575e-04 0.0
-2.916075e-03 -5.177924e-04 0.0
-2.545275e-03 -5.008065e-04 0.0
-2.188888e-03 -4.810974e-04 0.0
-1.848829e-03 -4.587810e-04 0.0
-1.526915e-03 -4.339928e-04 0.0
-1.224847e-03 -4.068877e-04 0.0
-9.441968e-04 -3.776409e-04 0.0
-6.863908e-04 -3.464488e-04 0.0
-4.526936e-04 -3.135301e-04 0.0
-2.441901e-04 -2.791273e-04 0.0
-6.176505e-05 -2.435094e-04 0.0
9.391875e-05 -2.069753e-04 0.0
2.224458e-04 -1.698581e-04 0.0
3.236842e-04 -1.325376e-04 0.0
3.978197e-04 -9.544108e-05 0.0
4.454034e-04 -5.906148e-05 0.0
4.674106e-04 -2.397368e-05 0.0
4.653147e-04 9.143019e-06 0.0
4.411817e-04 3.947378e-05 0.0
3.977886e-04 6.602753e-05 0.0
3.387732e-04 8.758383e-05 0.0
2.688099e-04 1.026319e-04 0.0
1.937926e-04 1.093204e-04 0.0
1.209505e-04 1.054852e-04 0.0
5.870824e-05 8.895125e-05 0.0
1.590794e-05 5.864799e-05 0.0
0.000000e+00 1.784609e-05 0.0
0.000000e+00 -1.784296e-05 0.0
0.000000e+00 3.595680e-05 0.0
8.725205e-06 -6.624222e-05 0.0
3.542110e-05 -8.173797e-05 0.0
4.272055e-05 -4.208606e-05 0.0
1.215358e-05 3.268341e-05 0.0
-6.801483e-05 1.254237e-04 0.0
-2.034861e-04 2.252733e-04 0.0
-3.952502e-04 3.263848e-04 0.0
-6.413188e-04 4.262085e-04 0.0
-9.383891e-04 5.236715e-04 0.0
-1.283000e-03 6.178148e-04 0.0
-1.672003e-03 7.071860e-04 0.0
-2.102463e-03 7.899373e-04 0.0
-2.571290e-03 8.643205e-04 0.0
-3.074915e-03 9.291996e-04 0.0
-3.609201e-03 9.843080e-04 0.0
-4.169603e-03 1.030172e-03 0.0
-4.751478e-03 1.067797e-03 0.0
-5.350385e-03 1.098283e-03 0.0
-5.962285e-03 1.122529e-03 0.0
-6.583603e-03 1.141088e-03 0.0
-7.211173e-03 1.154176e-03 0.0
-7.842124e-03 1.161781e-03 0.0
-8.473753e-03 1.163811e-03 0.0
-9.103419e-03 1.160226e-03 0.0
-9.728482e-03 1.151135e-03 0.0
-1.034628e-02 1.136818e-03 0.0
-1.095418e-02 1.117688e-03 0.0
-1.154958e-02 1.094196e-03 0.0
-1.213003e-02 1.066738e-03 0.0
-1.269323e-02 1.035569e-03 0.0
-1.323704e-02 1.000778e-03 0.0
-1.375947e-02 9.623188e-04 0.0
-1.425856e-02 9.200810e-04 0.0
-1.473242e-02 8.739742e-04 0.0
-1.517910e-02 8.239884e-04 0.0
-1.559666e-02 7.702152e-04 0.0
-1.598315e-02 7.128286e-04 0.0
-1.633668e-02 6.520430e-04 0.0
-1.665546e-02 5.880704e-04 0.0
-1.693779e-02 5.210952e-04 0.0
-1.718211e-02 4.512747e-04 0.0
-1.738699e-02 3.787583e-04 0.0
-1.755113e-02 3.037167e-04 0.0
-1.767337e-02 2.263691e-04 0.0
-1.775269e-02 1.470016e-04 0.0
-1.778827e-02 6.597695e-05 0.0
-1.777950e-02 -1.625833e-05 0.0
-1.772603e-02 -9.916275e-05 0.0
-1.762779e-02 -1.821987e-04 0.0
-1.748496e-02 -2.648694e-04 0.0
-1.729798e-02 -3.467057e-04 0.0
-1.706752e-02 -4.272557e-04 0.0
-1.679452e-02 -5.060794e-04 0.0
-1.648014e-02 -5.827448e-04 0.0
-1.612575e-02 -6.568273e-04 0.0
-1.573299e-02 -7.279097e-04 0.0
-1.530367e-02 -7.955841e-04 0.0
-1.483985e-02 -8.594536e-04 0.0
-1.434377e-02 -9.191358e-04 0.0
-1.381788e-02 -9.742656e-04 0.0
-1.326479e-02 -1.024499e-03 0.0
-1.268729e-02 -1.069518e-03 0.0
-1.208835e-02 -1.109030e-03 0.0
-1.147104e-02 -1.142776e-03 0.0
-1.083857e-02 -1.170529e-03 0.0
-1.019426e-02 -1.192098e-03 0.0
-9.541505e-03 -1.207332e-03 0.0
-8.883752e-03 -1.216115e-03 0.0
-8.224498e-03 -1.218379e-03 0.0
-7.567252e-03 -1.214098e-03 0.0
-6.915516e-03 -1.203288e-03 0.0
-6.272762e-03 -1.186000e-03 0.0
-5.642417e-03 -1.162328e-03 0.0
-5.027833e-03 -1.132401e-03 0.0
-4.432272e-03 -1.096389e-03 0.0
-3.858884e-03 -1.054505e-03 0.0
-3.310679e-03 -1.007002e-03 0.0
-2.790510e-03 -9.541745e-04 0.0
-2.301046e-03 -8.963613e-04 0.0
-1.844750e-03 -8.339452e-04 0.0
-1.423851e-03 -7.673558e-04 0.0
-1.040318e-03 -6.970713e-04 0.0
-6.958337e-04 -6.236231e-04 0.0
-3.917561e-04 -5.476009e-04 0.0
-1.290875e-04 -4.696604e-04 0.0
9.156923e-05 -3.905333e-04 0.0
2.700530e-04 -3.110408e-04 0.0
4.067115e-04 -2.321191e-04 0.0
5.024629e-04 -1.548318e-04 0.0
5.588771e-04 -8.040577e-05 0.0
5.782739e-04 -1.027068e-05 0.0
5.638399e-04 5.389191e-05 0.0
5.197632e-04 1.100890e-04 0.0
4.513848e-04 1.559472e-04 0.0
3.653522e-04 1.886496e-04 0.0
2.697384e-04 2.049191e-04 0.0
1.740640e-04 2.011443e-04 0.0
8.914036e-05 1.738596e-04 0.0
2.677133e-05 1.210016e-04 0.0
0.000000e+00 4.460200e-05 0.0
0.000000e+00 -4.459321e-05 0.0
0.000000e+00 5.083131e-05 0.0
5.079830e-06 -7.336633e-05 0.0
1.136097e-05 -7.483178e-05 0.0
-1.906019e-05 -1.327624e-06 0.0
-1.036580e-04 1.202873e-04 0.0
-2.525540e-04 2.693877e-04 0.0
-4.699350e-04 4.327293e-04 0.0
-7.560209e-04 6.021784e-04 0.0
-1.108981e-03 7.725158e-04 0.0
-1.526283e-03 9.397400e-04 0.0
-2.005255e-03 1.100195e-03 0.0
-2.542986e-03 1.250481e-03 0.0
-3.135950e-03 1.387809e-03 0.0
-3.779711e-03 1.510409e-03 0.0
-4.468922e-03 1.617684e-03 0.0
-5.197627e-03 1.710048e-03 0.0
-5.959701e-03 1.788525e-03 0.0
-6.749255e-03 1.854314e-03 0.0
-7.560886e-03 1.908457e-03 0.0
-8.389736e-03 1.951674e-03 0.0
-9.231414e-03 1.984370e-03 0.0
-1.008185e-02 2.006741e-03 0.0
-1.093716e-02 2.018922e-03 0.0
-1.179351e-02 2.021113e-03 0.0
-1.264710e-02 2.013660e-03 0.0
-1.349412e-02 1.997078e-03 0.0
-1.433083e-02 1.971999e-03 0.0
-1.515361e-02 1.939064e-03 0.0
-1.595907e-02 1.898821e-03 0.0
-1.674403e-02 1.851638e-03 0.0
-1.750552e-02 1.797691e-03 0.0
-1.824077e-02 1.737005e-03 0.0
-1.894706e-02 1.669541e-03 0.0
-1.962172e-02 1.595292e-03 0.0
-2.026203e-02 1.514339e-03 0.0
-2.086529e-02 1.426867e-03 0.0
-2.142882e-02 1.333140e-03 0.0
-2.195004e-02 1.233450e-03 0.0
-2.242648e-02 1.128080e-03 0.0
-2.285582e-02 1.017282e-03 0.0
-2.323591e-02 9.012879e-04 0.0
-2.356474e-02 7.803406e-04 0.0
-2.384046e-02 6.547261e-04 0.0
-2.406138e-02 5.248034e-04 0.0
-2.422596e-02 3.910205e-04 0.0
-2.433291e-02 2.539218e-04 0.0
-2.438118e-02 1.141501e-04 0.0
-2.437000e-02 -2.754803e-05 0.0
-2.429896e-02 -1.703089e-04 0.0
-2.416797e-02 -3.132656e-04 0.0
-2.397728e-02 -4.555969e-04 0.0
-2.372749e-02 -5.965126e-04 0.0
-2.341951e-02 -7.352425e-04 0.0
-2.305455e-02 -8.710312e-04 0.0
-2.263416e-02 -1.003135e-03 0.0
-2.216017e-02 -1.130822e-03 0.0
-2.163471e-02 -1.253377e-03 0.0
-2.106021e-02 -1.370098e-03 0.0
-2.043939e-02 -1.480307e-03 0.0
-1.977520e-02 -1.583351e-03 0.0
-1.907088e-02 -1.678611e-03 0.0
-1.832990e-02 -1.765501e-03 0.0
-1.755595e-02 -1.843482e-03 0.0
-1.675294e-02 -1.912057e-03 0.0
-1.592494e-02 -1.970786e-03 0.0
-1.507620e-02 -2.019280e-03 0.0
-1.421110e-02 -2.057214e-03 0.0
-1.333412e-02 -2.084324e-03 0.0
-1.244984e-02 -2.100415e-03 0.0
-1.156288e-02 -2.105364e-03 0.0
-1.067788e-02 -2.099120e-03 0.0
-9.799482e-03 -2.081707e-03 0.0
-8.932293e-03 -2.053213e-03 0.0
-8.080850e-03 -2.013793e-03 0.0
-7.249603e-03 -1.963668e-03 0.0
-6.442878e-03 -1.903131e-03 0.0
-5.664850e-03 -1.832546e-03 0.0
-4.919515e-03 -1.752346e-03 0.0
-4.210656e-03 -1.663041e-03 0.0
-3.541810e-03 -1.565214e-03 0.0
-2.916239e-03 -1.459525e-03 0.0
-2.336891e-03 -1.346714e-03 0.0
-1.806367e-03 -1.227609e-03 0.0
-1.326880e-03 -1.103127e-03 0.0
-9.002109e-04 -9.742886e-04 0.0
-5.276651e-04 -8.422265e-04 0.0
-2.100152e-04 -7.082036e-04 0.0
5.255721e-05 -5.736328e-04 0.0
2.605249e-04 -4.401050e-04 0.0
4.151047e-04 -3.094282e-04 0.0
5.183462e-04 -1.836626e-04 0.0
5.732355e-04 -6.517430e-05 0.0
5.838126e-04 4.330105e-05 0.0
5.552996e-04 1.385882e-04 0.0
4.942282e-04 2.170047e-04 0.0
4.085564e-04 2.743071e-04 0.0
3.077518e-04 3.057091e-04 0.0
2.028267e-04 3.060545e-04 0.0
1.063739e-04 2.702974e-04 0.0
3.286406e-05 1.944964e-04 0.0
0.000000e+00 7.745108e-05 0.0
0.000000e+00 -7.743513e-05 0.0
0.000000e+00 5.732504e-05 0.0
2.635977e-08 -6.429663e-05 0.0
-2.606996e-05 -3.688411e-05 0.0
-1.075195e-04 8.400293e-05 0.0
-2.582893e-04 2.662055e-04 0.0
-4.857497e-04 4.864178e-04 0.0
-7.925754e-04 7.286037e-04 0.0
-1.178818e-03 9.813715e-04 0.0
-1.643397e-03 1.235929e-03 0.0
-2.184725e-03 1.484942e-03 0.0
-2.800606e-03 1.722241e-03 0.0
-3.487798e-03 1.943023e-03 0.0
-4.241679e-03 2.144125e-03 0.0
-5.056286e-03 2.324054e-03 0.0
-5.924700e-03 2.482700e-03 0.0
-6.839627e-03 2.620823e-03 0.0
-7.793929e-03 2.739525e-03 0.0
-8.780959e-03 2.839856e-03 0.0
-9.794662e-03 2.922623e-03 0.0
-1.082949e-02 2.988372e-03 0.0
-1.188026e-02 3.037494e-03 0.0
-1.294194e-02 3.070360e-03 0.0
-1.400959e-02 3.087447e-03 0.0
-1.507823e-02 3.089401e-03 0.0
-1.614295e-02 3.077033e-03 0.0
-1.719889e-02 3.051260e-03 0.0
-1.824141e-02 3.012981e-03 0.0
-1.926611e-02 2.962956e-03 0.0
-2.026893e-02 2.901726e-03 0.0
-2.124608e-02 2.829600e-03 0.0
-2.219398e-02 2.746722e-03 0.0
-2.310916e-02 2.653173e-03 0.0
-2.398816e-02 2.549064e-03 0.0
-2.482754e-02 2.434609e-03 0.0
-2.562385e-02 2.310119e-03 0.0
-2.637368e-02 2.175973e-03 0.0
-2.707375e-02 2.032564e-03 0.0
-2.772094e-02 1.880259e-03 0.0
-2.831232e-02 1.719387e-03 0.0
-2.884513e-02 1.550266e-03 0.0
-2.931678e-02 1.373235e-03 0.0
-2.972486e-02 1.188700e-03 0.0
-3.006712e-02 9.971642e-04 0.0
-3.034151e-02 7.992402e-04 0.0
-3.054620e-02 5.956570e-04 0.0
-3.067965e-02 3.872589e-04 0.0
-3.074064e-02 1.750078e-04 0.0
-3.072829e-02 -4.000680e-05 0.0
-3.064213e-02 -2.565508e-04 0.0
-3.048207e-02 -4.733671e-04 0.0
-3.024843e-02 -6.892430e-04 0.0
-2.994194e-02 -9.029969e-04 0.0
-2.956370e-02 -1.113470e-03 0.0
-2.911520e-02 -1.319521e-03 0.0
-2.859831e-02 -1.520028e-03 0.0
-2.801525e-02 -1.713887e-03 0.0
-2.736863e-02 -1.900015e-03 0.0
-2.666140e-02 -2.077358e-03 0.0
-2.589684e-02 -2.244895e-03 0.0
-2.507857e-02 -2.401648e-03 0.0
-2.421052e-02 -2.546685e-03 0.0
-2.329690e-02 -2.679131e-03 0.0
-2.234223e-02 -2.798174e-03 0.0
-2.135122e-02 -2.903071e-03 0.0
-2.032886e-02 -2.993158e-03 0.0
-1.928031e-02 -3.067851e-03 0.0
-1.821088e-02 -3.126657e-03 0.0
-1.712605e-02 -3.169177e-03 0.0
-1.603137e-02 -3.195113e-03 0.0
-1.493248e-02 -3.204273e-03 0.0
-1.383505e-02 -3.196575e-03 0.0
-1.274473e-02 -3.172049e-03 0.0
-1.166714e-02 -3.130821e-03 0.0
-1.060783e-02 -3.073122e-03 0.0
-9.572229e-03 -2.999284e-03 0.0
-8.565623e-03 -2.909746e-03 0.0
-7.593121e-03 -2.805056e-03 0.0
-6.659604e-03 -2.685869e-03 0.0
-5.769701e-03 -2.552952e-03 0.0
-4.927736e-03 -2.407188e-03 0.0
-4.137698e-03 -2.249575e-03 0.0
-3.403191e-03 -2.081237e-03 0.0
-2.727394e-03 -1.903425e-03 0.0
-2.113009e-03 -1.717533e-03 0.0
-1.562213e-03 -1.525106e-03 0.0
-1.076600e-03 -1.327860e-03 0.0
-6.571183e-04 -1.127703e-03 0.0
-3.040068e-04 -9.267609e-04 0.0
-1.671314e-05 -7.274133e-04 0.0
2.061831e-04 -5.323377e-04 0.0
3.670693e-04 -3.445613e-04 0.0
4.694076e-04 -1.675250e-04 0.0
5.178379e-04 -5.141903e-06 0.0
5.182918e-04 1.381212e-04 0.0
4.780983e-04 2.571846e-04 0.0
4.060797e-04 3.463117e-04 0.0
3.126395e-04 3.991348e-04 0.0
2.098694e-04 4.088100e-04 0.0
1.117812e-04 3.683710e-04 0.0
3.493614e-05 2.713269e-04 0.0
0.000000e+00 1.123727e-04 0.0
0.000000e+00 -1.123488e-04 0.0
0.000000e+00 5.017214e-05 0.0
-7.740497e-06 -4.032254e-05 0.0
-7.403362e-05 3.513937e-05 0.0
-2.143324e-04 2.205324e-04 0.0
-4.380516e-04 4.797551e-04 0.0
-7.498079e-04 7.869575e-04 0.0
-1.151305e-03 1.122705e-03 0.0
-1.642891e-03 1.471721e-03 0.0
-2.224225e-03 1.821462e-03 0.0
-2.894146e-03 2.161627e-03 0.0
-3.650151e-03 2.484219e-03 0.0
-4.487977e-03 2.783698e-03 0.0
-5.401590e-03 3.056880e-03 0.0
-6.383604e-03 3.302511e-03 0.0
-7.425954e-03 3.520622e-03 0.0
-8.520541e-03 3.711877e-03 0.0
-9.659673e-03 3.877092e-03 0.0
-1.083623e-02 4.016977e-03 0.0
-1.204364e-02 4.132099e-03 0.0
-1.327564e-02 4.222958e-03 0.0
-1.452620e-02 4.290120e-03 0.0
-1.578929e-02 4.334323e-03 0.0
-1.705887e-02 4.356529e-03 0.0
-1.832892e-02 4.357895e-03 0.0
-1.959351e-02 4.339671e-03 0.0
-2.084696e-02 4.303070e-03 0.0
-2.208390e-02 4.249127e-03 0.0
-2.329936e-02 4.178612e-03 0.0
-2.448870e-02 4.092029e-03 0.0
-2.564754e-02 3.989695e-03 0.0
-2.677163e-02 3.871854e-03 0.0
-2.785677e-02 3.738791e-03 0.0
-2.889877e-02 3.590888e-03 0.0
-2.989343e-02 3.428621e-03 0.0
-3.083664e-02 3.252519e-03 0.0
-3.172445e-02 3.063097e-03 0.0
-3.255307e-02 2.860826e-03 0.0
-3.331896e-02 2.646131e-03 0.0
-3.401876e-02 2.419420e-03 0.0
-3.464929e-02 2.181138e-03 0.0
-3.520756e-02 1.931812e-03 0.0
-3.569077e-02 1.672086e-03 0.0
-3.609631e-02 1.402735e-03 0.0
-3.642182e-02 1.124667e-03 0.0
-3.666522e-02 8.389219e-04 0.0
-3.682478e-02 5.466726e-04 0.0
-3.689912e-02 2.492357e-04 0.0
-3.688729e-02 -5.191405e-05 0.0
-3.678876e-02 -3.551245e-04 0.0
-3.660344e-02 -6.586918e-04 0.0
-3.633172e-02 -9.609524e-04 0.0
-3.597442e-02 -1.260274e-03 0.0
-3.553283e-02 -1.555048e-03 0.0
-3.500865e-02 -1.843689e-03 0.0
-3.440405e-02 -2.124636e-03 0.0
-3.372160e-02 -2.396352e-03 0.0
-3.296431e-02 -2.657335e-03 0.0
-3.213558e-02 -2.906119e-03 0.0
-3.123921e-02 -3.141290e-03 0.0
-3.027939e-02 -3.361489e-03 0.0
-2.926067e-02 -3.565427e-03 0.0
-2.818793e-02 -3.751890e-03 0.0
-2.706636e-02 -3.919751e-03 0.0
-2.590146e-02 -4.067980e-03 0.0
-2.469898e-02 -4.195650e-03 0.0
-2.346490e-02 -4.301951e-03 0.0
-2.220538e-02 -4.386191e-03 0.0
-2.092677e-02 -4.447811e-03 0.0
-1.963551e-02 -4.486393e-03 0.0
-1.833815e-02 -4.501658e-03 0.0
-1.704126e-02 -4.493484e-03 0.0
-1.575142e-02 -4.461902e-03 0.0
-1.447518e-02 -4.407082e-03 0.0
-1.321897e-02 -4.329336e-03 0.0
-1.198914e-02 -4.229124e-03 0.0
-1.079184e-02 -4.107051e-03 0.0
-9.633028e-03 -3.963875e-03 0.0
-8.518400e-03 -3.800506e-03 0.0
-7.453355e-03 -3.618009e-03 0.0
-6.442948e-03 -3.417611e-03 0.0
-5.491837e-03 -3.200705e-03 0.0
-4.604239e-03 -2.968855e-03 0.0
-3.783877e-03 -2.723809e-03 0.0
-3.033919e-03 -2.467511e-03 0.0
-2.356928e-03 -2.202115e-03 0.0
-1.754796e-03 -1.930009e-03 0.0
-1.228674e-03 -1.653840e-03 0.0
-7.789013e-04 -1.376546e-03 0.0
-4.049274e-04 -1.101398e-03 0.0
-1.052245e-04 -8.320516e-04 0.0
1.228020e-04 -5.725990e-04 0.0
2.829035e-04 -3.276383e-04 0.0
3.801022e-04 -1.023531e-04 0.0
4.207791e-04 9.743117e-05 0.0
4.127742e-04 2.651759e-04 0.0
3.654732e-04 3.935987e-04 0.0
2.899194e-04 4.746744e-04 0.0
1.989866e-04 4.997286e-04 0.0
1.077179e-04 4.596255e-04 0.0
3.402463e-05 3.450062e-04 0.0
0.000000e+00 1.463833e-04 0.0
0.000000e+00 -1.463512e-04 0.0
0.000000e+00 2.502460e-05 0.0
-1.976732e-05 -3.618903e-06 0.0
-1.300190e-04 1.432660e-04 0.0
-3.323981e-04 4.136048e-04 0.0
-6.320278e-04 7.683256e-04 0.0
-1.031412e-03 1.178746e-03 0.0
-1.531777e-03 1.621676e-03 0.0
-2.133713e-03 2.077991e-03 0.0
-2.836988e-03 2.531952e-03 0.0
-3.639931e-03 2.971157e-03 0.0
-4.538891e-03 3.386590e-03 0.0
-5.528126e-03 3.772432e-03 0.0
-6.600192e-03 4.125498e-03 0.0
-7.746635e-03 4.444462e-03 0.0
-8.958720e-03 4.729061e-03 0.0
-1.022796e-02 4.979499e-03 0.0
-1.154636e-02 5.196111e-03 0.0
-1.290641e-02 5.379267e-03 0.0
-1.430097e-02 5.529420e-03 0.0
-1.572303e-02 5.647216e-03 0.0
-1.716559e-02 5.733588e-03 0.0
-1.862161e-02 5.789776e-03 0.0
-2.008405e-02 5.817281e-03 0.0
-2.154596e-02 5.817720e-03 0.0
-2.300065e-02 5.792656e-03 0.0
-2.444179e-02 5.743446e-03 0.0
-2.586350e-02 5.671147e-03 0.0
-2.726031e-02 5.576514e-03 0.0
-2.862702e-02 5.460091e-03 0.0
-2.995862e-02 5.322345e-03 0.0
-3.125013e-02 5.163781e-03 0.0
-3.249661e-02 4.984998e-03 0.0
-3.369315e-02 4.786678e-03 0.0
-3.483493e-02 4.569532e-03 0.0
-3.591734e-02 4.334231e-03 0.0
-3.693595e-02 4.081376e-03 0.0
-3.788658e-02 3.811502e-03 0.0
-3.876529e-02 3.525125e-03 0.0
-3.956830e-02 3.222805e-03 0.0
-4.029204e-02 2.905192e-03 0.0
-4.093314e-02 2.573072e-03 0.0
-4.148841e-02 2.227371e-03 0.0
-4.195495e-02 1.869168e-03 0.0
-4.233012e-02 1.499686e-03 0.0
-4.261165e-02 1.120296e-03 0.0
-4.279763e-02 7.325313e-04 0.0
-4.288657e-02 3.380993e-04 0.0
-4.287742e-02 -6.109844e-05 0.0
-4.276959e-02 -4.629481e-04 0.0
-4.256302e-02 -8.652488e-04 0.0
-4.225811e-02 -1.265836e-03 0.0
-4.185579e-02 -1.662574e-03 0.0
-4.135747e-02 -2.053355e-03 0.0
-4.076507e-02 -2.436096e-03 0.0
-4.008098e-02 -2.808743e-03 0.0
-3.930808e-02 -3.169277e-03 0.0
-3.844973e-02 -3.515722e-03 0.0
-3.750972e-02 -3.846155e-03 0.0
-3.649232e-02 -4.158719e-03 0.0
-3.540219e-02 -4.451631e-03 0.0
-3.424443e-02 -4.723198e-03 0.0
-3.302451e-02 -4.971824e-03 0.0
-3.174824e-02 -5.196027e-03 0.0
-3.042178e-02 -5.394450e-03 0.0
-2.905158e-02 -5.565871e-03 0.0
-2.764433e-02 -5.709217e-03 0.0
-2.620697e-02 -5.823573e-03 0.0
-2.474660e-02 -5.908196e-03 0.0
-2.327049e-02 -5.962523e-03 0.0
-2.178599e-02 -5.986177e-03 0.0
-2.030051e-02 -5.978981e-03 0.0
-1.882146e-02 -5.940963e-03 0.0
-1.735621e-02 -5.872336e-03 0.0
-1.591206e-02 -5.773501e-03 0.0
-1.449614e-02 -5.645050e-03 0.0
-1.311542e-02 -5.487774e-03 0.0
-1.177664e-02 -5.302661e-03 0.0
-1.048626e-02 -5.090902e-03 0.0
-9.250393e-03 -4.853895e-03 0.0
-8.074772e-03 -4.593252e-03 0.0
-6.964695e-03 -4.310803e-03 0.0
-5.924962e-03 -4.008608e-03 0.0
-4.959820e-03 -3.688970e-03 0.0
-4.072902e-03 -3.354445e-03 0.0
-3.267161e-03 -3.007869e-03 0.0
-2.544809e-03 -2.652373e-03 0.0
-1.907236e-03 -2.291422e-03 0.0
-1.354944e-03 -1.928848e-03 0.0
-8.874599e-04 -1.568892e-03 0.0
-5.032574e-04 -1.216265e-03 0.0
-1.996673e-04 -8.762005e-04 0.0
2.721100e-05 -5.545288e-04 0.0
1.825926e-04 -2.577476e-04 0.0
2.731054e-04 6.905144e-06 0.0
3.068813e-04 2.313866e-04 0.0
2.936491e-04 4.068172e-04 0.0
2.448606e-04 5.234492e-04 0.0
1.738951e-04 5.706805e-04 0.0
9.641577e-05 5.370913e-04 0.0
3.098168e-05 4.104268e-04 0.0
0.000000e+00 1.773516e-04 0.0
0.000000e+00 -1.773113e-04 0.0
0.000000e+00 -2.058604e-05 0.0
-3.642880e-05 4.444885e-05 0.0
-1.909851e-04 2.894882e-04 0.0
-4.555883e-04 6.674711e-04 0.0
-8.320592e-04 1.137064e-03 0.0
-1.321461e-03 1.666495e-03 0.0
-1.924572e-03 2.229029e-03 0.0
-2.641587e-03 2.802415e-03 0.0
-3.471378e-03 3.368755e-03 0.0
-4.410820e-03 3.914507e-03 0.0
-5.454547e-03 4.430231e-03 0.0
-6.595254e-03 4.909945e-03 0.0
-7.824366e-03 5.350217e-03 0.0
-9.132783e-03 5.749248e-03 0.0
-1.051147e-02 6.106140e-03 0.0
-1.195174e-02 6.420462e-03 0.0
-1.344536e-02 6.692080e-03 0.0
-1.498434e-02 6.921161e-03 0.0
-1.656086e-02 7.108251e-03 0.0
-1.816703e-02 7.254338e-03 0.0
-1.979491e-02 7.360855e-03 0.0
-2.143650e-02 7.429589e-03 0.0
-2.308388e-02 7.462510e-03 0.0
-2.472943e-02 7.461553e-03 0.0
-2.636589e-02 7.428421e-03 0.0
-2.798652e-02 7.364498e-03 0.0
-2.958499e-02 7.270838e-03 0.0
-3.115532e-02 7.148268e-03 0.0
-3.269171e-02 6.997531e-03 0.0
-3.418843e-02 6.819405e-03 0.0
-3.563978e-02 6.614757e-03 0.0
-3.704014e-02 6.384519e-03 0.0
-3.838400e-02 6.129622e-03 0.0
-3.966608e-02 5.850929e-03 0.0
-4.088132e-02 5.549199e-03 0.0
-4.202494e-02 5.225103e-03 0.0
-4.309239e-02 4.879287e-03 0.0
-4.407930e-02 4.512434e-03 0.0
-4.498152e-02 4.125329e-03 0.0
-4.579508e-02 3.718895e-03 0.0
-4.651624e-02 3.294210e-03 0.0
-4.714150e-02 2.852509e-03 0.0
-4.766768e-02 2.395181e-03 0.0
-4.809194e-02 1.923783e-03 0.0
-4.841181e-02 1.440043e-03 0.0
-4.862523e-02 9.458833e-04 0.0
-4.873060e-02 4.434400e-04 0.0
-4.872677e-02 -6.492143e-05 0.0
-4.861310e-02 -5.765888e-04 0.0
-4.838950e-02 -1.088821e-03 0.0
-4.805640e-02 -1.598909e-03 0.0
-4.761479e-02 -2.104169e-03 0.0
-4.706621e-02 -2.601946e-03 0.0
-4.641271e-02 -3.089614e-03 0.0
-4.565690e-02 -3.564581e-03 0.0
-4.480192e-02 -4.024300e-03 0.0
-4.385139e-02 -4.466279e-03 0.0
-4.280948e-02 -4.888093e-03 0.0
-4.168082e-02 -5.287398e-03 0.0
-4.047051e-02 -5.661945e-03 0.0
-3.918413e-02 -6.009593e-03 0.0
-3.782763e-02 -6.328326e-03 0.0
-3.640740e-02 -6.616268e-03 0.0
-3.493017e-02 -6.871696e-03 0.0
-3.340299e-02 -7.093061e-03 0.0
-3.183323e-02 -7.278996e-03 0.0
-3.022849e-02 -7.428335e-03 0.0
-2.859658e-02 -7.540124e-03 0.0
-2.694548e-02 -7.613637e-03 0.0
-2.528330e-02 -7.648379e-03 0.0
-2.361818e-02 -7.644106e-03 0.0
-2.195832e-02 -7.600832e-03 0.0
-2.031185e-02 -7.518809e-03 0.0
-1.868683e-02 -7.398527e-03 0.0
-1.709117e-02 -7.240722e-03 0.0
-1.553258e-02 -7.046375e-03 0.0
-1.401853e-02 -6.816723e-03 0.0
-1.255620e-02 -6.553259e-03 0.0
-1.115237e-02 -6.257741e-03 0.0
-9.813445e-03 -5.932197e-03 0.0