# vtk DataFile Version 3.0
Vector Field
ASCII
DATASET RECTILINEAR_GRID
DIMENSIONS 102 102 1
X_COORDINATES 102 double
0.000000 0.100000 0.200000 0.300000 0.400000 0.500000 0.600000 0.700000 0.800000 0.900000 1.000000 1.100000 1.200000 1.300000 1.400000 1.500000 1.600000 1.700000 1.800000 1.900000 2.000000 2.100000 2.200000 2.300000 2.400000 2.500000 2.600000 2.700000 2.800000 2.900000 3.000000 3.100000 3.200000 3.300000 3.400000 3.500000 3.600000 3.700000 3.800000 3.900000 4.000000 4.100000 4.200000 4.300000 4.400000 4.500000 4.600000 4.700000 4.800000 4.900000 5.000000 5.100000 5.200000 5.300000 5.400000 5.500000 5.600000 5.700000 5.800000 5.900000 6.000000 6.100000 6.200000 6.300000 6.400000 6.500000 6.600000 6.700000 6.800000 6.900000 7.000000 7.100000 7.200000 7.300000 7.400000 7.500000 7.600000 7.700000 7.800000 7.900000 8.000000 8.100000 8.200000 8.300000 8.400000 8.500000 8.600000 8.700000 8.800000 8.900000 9.000000 9.100000 9.200000 9.300000 9.400000 9.500000 9.600000 9.700000 9.800000 9.900000 10.000000 10.100000 
Y_COORDINATES 102 double
0.000000 0.100000 0.200000 0.300000 0.400000 0.500000 0.600000 0.700000 0.800000 0.900000 1.000000 1.100000 1.200000 1.300000 1.400000 1.500000 1.600000 1.700000 1.800000 1.900000 2.000000 2.100000 2.200000 2.300000 2.400000 2.500000 2.600000 2.700000 2.800000 2.900000 3.000000 3.100000 3.200000 3.300000 3.400000 3.500000 3.600000 3.700000 3.800000 3.900000 4.000000 4.100000 4.200000 4.300000 4.400000 4.500000 4.600000 4.700000 4.800000 4.900000 5.000000 5.100000 5.200000 5.300000 5.400000 5.500000 5.600000 5.700000 5.800000 5.900000 6.000000 6.100000 6.200000 6.300000 6.400000 6.500000 6.600000 6.700000 6.800000 6.900000 7.000000 7.100000 7.200000 7.300000 7.400000 7.500000 7.600000 7.700000 7.800000 7.900000 8.000000 8.100000 8.200000 8.300000 8.400000 8.500000 8.600000 8.700000 8.800000 8.900000 9.000000 9.100000 9.200000 9.300000 9.400000 9.500000 9.600000 9.700000 9.800000 9.900000 10.000000 10.100000 
Z_COORDINATES 1 double
0.0
POINT_DATA 10404
VECTORS Velocity double
0.000000e+00 0.000000e+00 0.0
-1.335258e-05 0.000000e+00 0.0
-3.385825e-05 0.000000e+00 0.0
-4.555419e-05 0.000000e+00 0.0
-4.324498e-05 0.000000e+00 0.0
-2.688112e-05 0.000000e+00 0.0
3.267398e-07 0.000000e+00 0.0
3.436963e-05 0.000000e+00 0.0
7.252949e-05 0.000000e+00 0.0
1.143864e-04 0.000000e+00 0.0
1.615129e-04 0.000000e+00 0.0
2.162341e-04 0.000000e+00 0.0
2.802041e-04 0.000000e+00 0.0
3.535119e-04 0.000000e+00 0.0
4.346508e-04 0.000000e+00 0.0
5.212098e-04 0.000000e+00 0.0
6.108280e-04 0.000000e+00 0.0
7.019182e-04 0.000000e+00 0.0
7.938820e-04 0.000000e+00 0.0
8.868360e-04 0.000000e+00 0.0
9.811003e-04 0.000000e+00 0.0
1.076749e-03 0.000000e+00 0.0
1.173423e-03 0.000000e+00 0.0
1.270424e-03 0.000000e+00 0.0
1.366984e-03 0.000000e+00 0.0
1.462511e-03 0.000000e+00 0.0
1.556712e-03 0.000000e+00 0.0
1.649531e-03 0.000000e+00 0.0
1.740986e-03 0.000000e+00 0.0
1.830985e-03 0.000000e+00 0.0
1.919228e-03 0.000000e+00 0.0
2.005220e-03 0.000000e+00 0.0
2.088384e-03 0.000000e+00 0.0
2.168192e-03 0.000000e+00 0.0
2.244273e-03 0.000000e+00 0.0
2.316440e-03 0.000000e+00 0.0
2.384643e-03 0.000000e+00 0.0
2.448876e-03 0.000000e+00 0.0
2.509088e-03 0.000000e+00 0.0
2.565127e-03 0.000000e+00 0.0
2.616732e-03 0.000000e+00 0.0
2.663571e-03 0.000000e+00 0.0
2.705299e-03 0.000000e+00 0.0
2.741610e-03 0.000000e+00 0.0
2.772261e-03 0.000000e+00 0.0
2.797083e-03 0.000000e+00 0.0
2.815958e-03 0.000000e+00 0.0
2.828801e-03 0.000000e+00 0.0
2.835536e-03 0.000000e+00 0.0
2.836092e-03 0.000000e+00 0.0
2.830405e-03 0.000000e+00 0.0
2.818432e-03 0.000000e+00 0.0
2.800154e-03 0.000000e+00 0.0
2.775576e-03 0.000000e+00 0.0
2.744737e-03 0.000000e+00 0.0
2.707713e-03 0.000000e+00 0.0
2.664612e-03 0.000000e+00 0.0
2.615575e-03 0.000000e+00 0.0
2.560774e-03 0.000000e+00 0.0
2.500412e-03 0.000000e+00 0.0
2.434722e-03 0.000000e+00 0.0
2.363968e-03 0.000000e+00 0.0
2.288442e-03 0.000000e+00 0.0
2.208468e-03 0.000000e+00 0.0
2.124394e-03 0.000000e+00 0.0
2.036593e-03 0.000000e+00 0.0
1.945460e-03 0.000000e+00 0.0
1.851410e-03 0.000000e+00 0.0
1.754874e-03 0.000000e+00 0.0
1.656302e-03 0.000000e+00 0.0
1.556160e-03 0.000000e+00 0.0
1.454927e-03 0.000000e+00 0.0
1.353099e-03 0.000000e+00 0.0
1.251181e-03 0.000000e+00 0.0
1.149685e-03 0.000000e+00 0.0
1.049129e-03 0.000000e+00 0.0
9.500318e-04 0.000000e+00 0.0
8.529104e-04 0.000000e+00 0.0
7.582776e-04 0.000000e+00 0.0
6.666390e-04 0.000000e+00 0.0
5.784907e-04 0.000000e+00 0.0
4.943166e-04 0.000000e+00 0.0
4.145866e-04 0.000000e+00 0.0
3.397533e-04 0.000000e+00 0.0
2.702497e-04 0.000000e+00 0.0
2.064852e-04 0.000000e+00 0.0
1.488414e-04 0.000000e+00 0.0
9.766703e-05 0.000000e+00 0.0
5.327089e-05 0.000000e+00 0.0
1.591314e-05 0.000000e+00 0.0
-1.420673e-05 0.000000e+00 0.0
-3.696664e-05 0.000000e+00 0.0
-5.234632e-05 0.000000e+00 0.0
-6.046338e-05 0.000000e+00 0.0
-6.162939e-05 0.000000e+00 0.0
-5.643797e-05 0.000000e+00 0.0
-4.590795e-05 0.000000e+00 0.0
-3.171084e-05 0.000000e+00 0.0
-1.650678e-05 0.000000e+00 0.0
-4.297947e-06 0.000000e+00 0.0
-0.000000e+00 0.000000e+00 0.0
0.000000e+00 0.000000e+00 0.0
0.000000e+00 1.773545e-06 0.0
1.236663e-05 -2.302779e-06 0.0
1.220448e-05 -1.904962e-05 0.0
1.274529e-05 -2.389716e-05 0.0
1.295315e-05 -1.683650e-05 0.0
1.084936e-05 -1.029605e-06 0.0
2.725055e-06 1.868306e-05 0.0
-1.569630e-05 3.711578e-05 0.0
-4.747972e-05 5.059376e-05 0.0
-9.325464e-05 5.807869e-05 0.0
-1.511730e-04 6.103297e-05 0.0
-2.179348e-04 6.222981e-05 0.0
-2.902349e-04 6.422906e-05 0.0
-3.658859e-04 6.828963e-05 0.0
-4.441690e-04 7.413699e-05 0.0
-5.254284e-04 8.050732e-05 0.0
-6.102859e-04 8.602866e-05 0.0
-6.989505e-04 8.993015e-05 0.0
-7.909390e-04 9.226931e-05 0.0
-8.852448e-04 9.367686e-05 0.0
-9.807602e-04 9.486128e-05 0.0
-1.076673e-03 9.618381e-05 0.0
-1.172631e-03 9.751236e-05 0.0
-1.268642e-03 9.837817e-05 0.0
-1.364791e-03 9.829830e-05 0.0
-1.460975e-03 9.706874e-05 0.0
-1.556766e-03 9.487941e-05 0.0
-1.651467e-03 9.221618e-05 0.0
-1.744296e-03 8.962483e-05 0.0
-1.834605e-03 8.746753e-05 0.0
-1.922013e-03 8.578617e-05 0.0
-2.006420e-03 8.432059e-05 0.0
-2.087901e-03 8.265239e-05 0.0
-2.166548e-03 8.039394e-05 0.0
-2.242335e-03 7.733602e-05 0.0
-2.315054e-03 7.350026e-05 0.0
-2.384335e-03 6.909241e-05 0.0
-2.449725e-03 6.439425e-05 0.0
-2.510781e-03 5.964905e-05 0.0
-2.567145e-03 5.498615e-05 0.0
-2.618566e-03 5.040445e-05 0.0
-2.664886e-03 4.580639e-05 0.0
-2.706001e-03 4.105726e-05 0.0
-2.741812e-03 3.604145e-05 0.0
-2.772197e-03 3.069679e-05 0.0
-2.797001e-03 2.502183e-05 0.0
-2.816048e-03 1.906223e-05 0.0
-2.829154e-03 1.288795e-05 0.0
-2.836151e-03 6.572306e-06 0.0
-2.836901e-03 1.797285e-07 0.0
-2.831315e-03 -6.234544e-06 0.0
-2.819352e-03 -1.262740e-05 0.0
-2.801011e-03 -1.897353e-05 0.0
-2.776325e-03 -2.525479e-05 0.0
-2.745356e-03 -3.145453e-05 0.0
-2.708195e-03 -3.755538e-05 0.0
-2.664963e-03 -4.353880e-05 0.0
-2.615809e-03 -4.938533e-05 0.0
-2.560912e-03 -5.507440e-05 0.0
-2.500480e-03 -6.058337e-05 0.0
-2.434750e-03 -6.588625e-05 0.0
-2.363983e-03 -7.095264e-05 0.0
-2.288466e-03 -7.574780e-05 0.0
-2.208510e-03 -8.023419e-05 0.0
-2.124451e-03 -8.437406e-05 0.0
-2.036650e-03 -8.813254e-05 0.0
-1.945495e-03 -9.148014e-05 0.0
-1.851401e-03 -9.439405e-05 0.0
-1.754803e-03 -9.685793e-05 0.0
-1.656161e-03 -9.886052e-05 0.0
-1.555950e-03 -1.003936e-04 0.0
-1.454661e-03 -1.014499e-04 0.0
-1.352794e-03 -1.020220e-04 0.0
-1.250855e-03 -1.021019e-04 0.0
-1.149354e-03 -1.016812e-04 0.0
-1.048803e-03 -1.007522e-04 0.0
-9.497167e-04 -9.930802e-05 0.0
-8.526050e-04 -9.734483e-05 0.0
-7.579772e-04 -9.486254e-05 0.0
-6.663371e-04 -9.186553e-05 0.0
-5.781814e-04 -8.836286e-05 0.0
-4.939965e-04 -8.436799e-05 0.0
-4.142555e-04 -7.989824e-05 0.0
-3.394148e-04 -7.497421e-05 0.0
-2.699101e-04 -6.961929e-05 0.0
-2.061526e-04 -6.385953e-05 0.0
-1.485245e-04 -5.772405e-05 0.0
-9.737361e-05 -5.124603e-05 0.0
-5.300697e-05 -4.446440e-05 0.0
-1.568250e-05 -3.742638e-05 0.0
1.440261e-05 -3.019102e-05 0.0
3.712814e-05 -2.283433e-05 0.0
5.247509e-05 -1.545725e-05 0.0
6.056200e-05 -8.197321e-06 0.0
6.170091e-05 -1.248442e-06 0.0
5.648581e-05 5.106533e-06 0.0
4.593596e-05 1.044234e-05 0.0
3.172344e-05 1.410652e-05 0.0
1.650972e-05 1.510800e-05 0.0
4.299738e-06 1.210427e-05 0.0
0.000000e+00 4.193940e-06 0.0
0.000000e+00 -4.228507e-06 0.0
0.000000e+00 5.873341e-06 0.0
5.369815e-06 -2.704960e-05 0.0
1.368581e-05 -4.086361e-05 0.0
1.772370e-05 -2.815797e-05 0.0
8.827994e-06 3.902438e-06 0.0
-2.016281e-05 4.558411e-05 0.0
-7.469141e-05 8.867952e-05 0.0
-1.576826e-04 1.276177e-04 0.0
-2.691485e-04 1.601917e-04 0.0
-4.066484e-04 1.871464e-04 0.0
-5.664513e-04 2.108103e-04 0.0
-7.448506e-04 2.334624e-04 0.0
-9.390594e-04 2.561885e-04 0.0
-1.147405e-03 2.786316e-04 0.0
-1.368930e-03 2.995338e-04 0.0
-1.602753e-03 3.176102e-04 0.0
-1.847592e-03 3.322333e-04 0.0
-2.101654e-03 3.436200e-04 0.0
-2.362863e-03 3.525359e-04 0.0
-2.629240e-03 3.597766e-04 0.0
-2.899189e-03 3.657457e-04 0.0
-3.171570e-03 3.703345e-04 0.0
-3.445539e-03 3.731105e-04 0.0
-3.720301e-03 3.736618e-04 0.0
-3.994892e-03 3.718904e-04 0.0
-4.268112e-03 3.681071e-04 0.0
-4.538613e-03 3.629052e-04 0.0
-4.805072e-03 3.568998e-04 0.0
-5.066358e-03 3.504779e-04 0.0
-5.321610e-03 3.436745e-04 0.0
-5.570204e-03 3.362149e-04 0.0
-5.811642e-03 3.276820e-04 0.0
-6.045412e-03 3.177171e-04 0.0
-6.270899e-03 3.061642e-04 0.0
-6.487347e-03 2.931066e-04 0.0
-6.693908e-03 2.788025e-04 0.0
-6.889706e-03 2.635644e-04 0.0
-7.073918e-03 2.476426e-04 0.0
-7.245814e-03 2.311582e-04 0.0
-7.404761e-03 2.140986e-04 0.0
-7.550201e-03 1.963637e-04 0.0
-7.681615e-03 1.778315e-04 0.0
-7.798491e-03 1.584141e-04 0.0
-7.900314e-03 1.380882e-04 0.0
-7.986567e-03 1.168966e-04 0.0
-8.056745e-03 9.493071e-05 0.0
-8.110378e-03 7.230614e-05 0.0
-8.147046e-03 4.914311e-05 0.0
-8.166396e-03 2.555660e-05 0.0
-8.168155e-03 1.657525e-06 0.0
-8.152141e-03 -2.243619e-05 0.0
-8.118264e-03 -4.660553e-05 0.0
-8.066523e-03 -7.074774e-05 0.0
-7.996996e-03 -9.476522e-05 0.0
-7.909846e-03 -1.185605e-04 0.0
-7.805312e-03 -1.420347e-04 0.0
-7.683719e-03 -1.650867e-04 0.0
-7.545472e-03 -1.876136e-04 0.0
-7.391059e-03 -2.095089e-04 0.0
-7.221049e-03 -2.306625e-04 0.0
-7.036089e-03 -2.509597e-04 0.0
-6.836904e-03 -2.702827e-04 0.0
-6.624296e-03 -2.885130e-04 0.0
-6.399144e-03 -3.055347e-04 0.0
-6.162400e-03 -3.212388e-04 0.0
-5.915090e-03 -3.355256e-04 0.0
-5.658310e-03 -3.483064e-04 0.0
-5.393218e-03 -3.595034e-04 0.0
-5.121031e-03 -3.690477e-04 0.0
-4.843018e-03 -3.768783e-04 0.0
-4.560492e-03 -3.829401e-04 0.0
-4.274803e-03 -3.871829e-04 0.0
-3.987330e-03 -3.895627e-04 0.0
-3.699478e-03 -3.900419e-04 0.0
-3.412664e-03 -3.885922e-04 0.0
-3.128318e-03 -3.851941e-04 0.0
-2.847873e-03 -3.798381e-04 0.0
-2.572758e-03 -3.725258e-04 0.0
-2.304394e-03 -3.632711e-04 0.0
-2.044184e-03 -3.521001e-04 0.0
-1.793504e-03 -3.390510e-04 0.0
-1.553696e-03 -3.241738e-04 0.0
-1.326062e-03 -3.075299e-04 0.0
-1.111845e-03 -2.891922e-04 0.0
-9.122284e-04 -2.692461e-04 0.0
-7.283173e-04 -2.477913e-04 0.0
-5.611274e-04 -2.249443e-04 0.0
-4.115675e-04 -2.008434e-04 0.0
-2.804192e-04 -1.756541e-04 0.0
-1.683092e-04 -1.495782e-04 0.0
-7.567474e-05 -1.228654e-04 0.0
-2.715143e-06 -9.583070e-05 0.0
5.067399e-05 -6.887980e-05 0.0
8.499315e-05 -4.254685e-05 0.0
1.012676e-04 -1.755138e-05 0.0
1.012273e-04 5.119051e-06 0.0
8.755205e-05 2.409049e-05 0.0
6.417738e-05 3.745380e-05 0.0
3.662287e-05 4.263414e-05 0.0
1.220283e-05 3.649558e-05 0.0
0.000000e+00 1.636790e-05 0.0
0.000000e+00 -1.640400e-05 0.0
0.000000e+00 1.236153e-05 0.0
-5.730139e-06 -4.535883e-05 0.0
-4.641184e-07 -4.654756e-05 0.0
-8.786174e-06 -8.209480e-06 0.0
-4.319899e-05 5.524809e-05 0.0
-1.128699e-04 1.293780e-04 0.0
-2.228746e-04 2.043832e-04 0.0
-3.741204e-04 2.751789e-04 0.0
-5.642729e-04 3.405859e-04 0.0
-7.893552e-04 4.016479e-04 0.0
-1.045335e-03 4.597796e-04 0.0
-1.329083e-03 5.154905e-04 0.0
-1.638490e-03 5.680673e-04 0.0
-1.971943e-03 6.160831e-04 0.0
-2.327643e-03 6.582415e-04 0.0
-2.703177e-03 6.940163e-04 0.0
-3.095541e-03 7.237782e-04 0.0
-3.501512e-03 7.484435e-04 0.0
-3.918110e-03 7.689209e-04 0.0
-4.342888e-03 7.856888e-04 0.0
-4.773935e-03 7.987004e-04 0.0
-5.209646e-03 8.076061e-04 0.0
-5.648413e-03 8.121193e-04 0.0
-6.088425e-03 8.123044e-04 0.0
-6.527640e-03 8.086450e-04 0.0
-6.963937e-03 8.018836e-04 0.0
-7.395329e-03 7.927386e-04 0.0
-7.820127e-03 7.816502e-04 0.0
-8.236982e-03 7.686748e-04 0.0
-8.644803e-03 7.535556e-04 0.0
-9.042593e-03 7.359134e-04 0.0
-9.429306e-03 7.154567e-04 0.0
-9.803761e-03 6.921166e-04 0.0
-1.016464e-02 6.660642e-04 0.0
-1.051058e-02 6.376257e-04 0.0
-1.084024e-02 6.071522e-04 0.0
-1.115238e-02 5.749053e-04 0.0
-1.144589e-02 5.410027e-04 0.0
-1.171978e-02 5.054295e-04 0.0
-1.197313e-02 4.680964e-04 0.0
-1.220504e-02 4.289100e-04 0.0
-1.241463e-02 3.878271e-04 0.0
-1.260099e-02 3.448787e-04 0.0
-1.276324e-02 3.001652e-04 0.0
-1.290055e-02 2.538354e-04 0.0
-1.301212e-02 2.060622e-04 0.0
-1.309725e-02 1.570251e-04 0.0
-1.315535e-02 1.069044e-04 0.0
-1.318592e-02 5.588383e-05 0.0
-1.318855e-02 4.161753e-06 0.0
-1.316301e-02 -4.803424e-05 0.0
-1.310915e-02 -1.004602e-04 0.0
-1.302697e-02 -1.528853e-04 0.0
-1.291660e-02 -2.050832e-04 0.0
-1.277828e-02 -2.568271e-04 0.0
-1.261239e-02 -3.078879e-04 0.0
-1.241946e-02 -3.580331e-04 0.0
-1.220010e-02 -4.070253e-04 0.0
-1.195509e-02 -4.546220e-04 0.0
-1.168532e-02 -5.005764e-04 0.0
-1.139180e-02 -5.446389e-04 0.0
-1.107568e-02 -5.865616e-04 0.0
-1.073823e-02 -6.261025e-04 0.0
-1.038084e-02 -6.630300e-04 0.0
-1.000501e-02 -6.971269e-04 0.0
-9.612369e-03 -7.281914e-04 0.0
-9.204642e-03 -7.560374e-04 0.0
-8.783651e-03 -7.804936e-04 0.0
-8.351309e-03 -8.014025e-04 0.0
-7.909604e-03 -8.186194e-04 0.0
-7.460595e-03 -8.320135e-04 0.0
-7.006396e-03 -8.414686e-04 0.0
-6.549174e-03 -8.468862e-04 0.0
-6.091132e-03 -8.481877e-04 0.0
-5.634501e-03 -8.453173e-04 0.0
-5.181528e-03 -8.382420e-04 0.0
-4.734466e-03 -8.269509e-04 0.0
-4.295561e-03 -8.114564e-04 0.0
-3.867045e-03 -7.917949e-04 0.0
-3.451114e-03 -7.680265e-04 0.0
-3.049922e-03 -7.402354e-04 0.0
-2.665563e-03 -7.085296e-04 0.0
-2.300058e-03 -6.730424e-04 0.0
-1.955337e-03 -6.339340e-04 0.0
-1.633221e-03 -5.913948e-04 0.0
-1.335403e-03 -5.456503e-04 0.0
-1.063426e-03 -4.969675e-04 0.0
-8.186522e-04 -4.456643e-04 0.0
-6.022292e-04 -3.921213e-04 0.0
-4.150481e-04 -3.367988e-04 0.0
-2.576876e-04 -2.802604e-04 0.0
-1.303430e-04 -2.232057e-04 0.0
-3.273270e-05 -1.665176e-04 0.0
3.602265e-05 -1.113281e-04 0.0
7.755691e-05 -5.911159e-05 0.0
9.445971e-05 -1.181040e-05 0.0
9.051733e-05 2.800579e-05 0.0
7.098155e-05 5.696100e-05 0.0
4.285182e-05 7.073449e-05 0.0
1.520479e-05 6.411297e-05 0.0
0.000000e+00 3.154307e-05 0.0
0.000000e+00 -3.157398e-05 0.0
0.000000e+00 1.797150e-05 0.0
-1.366092e-05 -4.952700e-05 0.0
-2.000316e-05 -2.842075e-05 0.0
-5.343315e-05 4.230788e-05 0.0
-1.269106e-04 1.424797e-04 0.0
-2.484244e-04 2.554954e-04 0.0
-4.207168e-04 3.713841e-04 0.0
-6.423894e-04 4.854716e-04 0.0
-9.098487e-04 5.963228e-04 0.0
-1.219219e-03 7.035823e-04 0.0
-1.567473e-03 8.064878e-04 0.0
-1.952526e-03 9.034336e-04 0.0
-2.372602e-03 9.924209e-04 0.0
-2.825433e-03 1.071858e-03 0.0
-3.307825e-03 1.141139e-03 0.0
-3.815775e-03 1.200693e-03 0.0
-4.345005e-03 1.251543e-03 0.0
-4.891555e-03 1.294702e-03 0.0
-5.452127e-03 1.330725e-03 0.0
-6.024068e-03 1.359637e-03 0.0
-6.605055e-03 1.381191e-03 0.0
-7.192728e-03 1.395255e-03 0.0
-7.784460e-03 1.402097e-03 0.0
-8.377372e-03 1.402420e-03 0.0
-8.968538e-03 1.397163e-03 0.0
-9.555261e-03 1.387186e-03 0.0
-1.013525e-02 1.373016e-03 0.0
-1.070664e-02 1.354760e-03 0.0
-1.126787e-02 1.332212e-03 0.0
-1.181744e-02 1.305066e-03 0.0
-1.235380e-02 1.273138e-03 0.0
-1.287520e-02 1.236486e-03 0.0
-1.337978e-02 1.195405e-03 0.0
-1.386562e-02 1.150314e-03 0.0
-1.433093e-02 1.101620e-03 0.0
-1.477403e-02 1.049608e-03 0.0
-1.519346e-02 9.943994e-04 0.0
-1.558786e-02 9.359857e-04 0.0
-1.595596e-02 8.742998e-04 0.0
-1.629650e-02 8.092902e-04 0.0
-1.660822e-02 7.409722e-04 0.0
-1.688985e-02 6.694431e-04 0.0
-1.714014e-02 5.948713e-04 0.0
-1.735791e-02 5.174709e-04 0.0
-1.754204e-02 4.374784e-04 0.0
-1.769154e-02 3.551393e-04 0.0
-1.780553e-02 2.707054e-04 0.0
-1.788325e-02 1.844423e-04 0.0
-1.792409e-02 9.663993e-05 0.0
-1.792756e-02 7.626270e-06 0.0
-1.789333e-02 -8.221978e-05 0.0
-1.782124e-02 -1.724890e-04 0.0
-1.771128e-02 -2.627819e-04 0.0
-1.756361e-02 -3.527017e-04 0.0
-1.737858e-02 -4.418496e-04 0.0
-1.715668e-02 -5.298223e-04 0.0
-1.689859e-02 -6.162097e-04 0.0
-1.660515e-02 -7.005951e-04 0.0
-1.627738e-02 -7.825560e-04 0.0
-1.591646e-02 -8.616677e-04 0.0
-1.552375e-02 -9.375086e-04 0.0
-1.510078e-02 -1.009665e-03 0.0
-1.464922e-02 -1.077738e-03 0.0
-1.417094e-02 -1.141346e-03 0.0
-1.366795e-02 -1.200128e-03 0.0
-1.314239e-02 -1.253742e-03 0.0
-1.259656e-02 -1.301867e-03 0.0
-1.203288e-02 -1.344202e-03 0.0
-1.145386e-02 -1.380469e-03 0.0
-1.086216e-02 -1.410410e-03 0.0
-1.026048e-02 -1.433796e-03 0.0
-9.651636e-03 -1.450427e-03 0.0
-9.038489e-03 -1.460138e-03 0.0
-8.423962e-03 -1.462801e-03 0.0
-7.811012e-03 -1.458327e-03 0.0
-7.202619e-03 -1.446667e-03 0.0
-6.601766e-03 -1.427811e-03 0.0
-6.011429e-03 -1.401785e-03 0.0
-5.434555e-03 -1.368655e-03 0.0
-4.874045e-03 -1.328527e-03 0.0
-4.332737e-03 -1.281546e-03 0.0
-3.813385e-03 -1.227900e-03 0.0
-3.318638e-03 -1.167822e-03 0.0
-2.851021e-03 -1.101597e-03 0.0
-2.412905e-03 -1.029563e-03 0.0
-2.006484e-03 -9.521244e-04 0.0
-1.633740e-03 -8.697605e-04 0.0
-1.296409e-03 -7.830397e-04 0.0
-9.959271e-04 -6.926395e-04 0.0
-7.333842e-04 -5.993722e-04 0.0
-5.094499e-04 -5.042210e-04 0.0
-3.242906e-04 -4.083892e-04 0.0
-1.774645e-04 -3.133675e-04 0.0
-6.779284e-05 -2.210247e-04 0.0
6.797450e-06 -1.337285e-04 0.0
4.945815e-05 -5.449943e-05 0.0
6.463102e-05 1.280373e-05 0.0
5.827855e-05 6.328250e-05 0.0
3.816541e-05 9.081645e-05 0.0
1.430750e-05 8.793972e-05 0.0
0.000000e+00 4.581958e-05 0.0
0.000000e+00 -4.583985e-05 0.0
0.000000e+00 1.911826e-05 0.0
-1.670395e-05 -3.717591e-05 0.0
-4.277589e-05 1.572377e-05 0.0
-1.115381e-04 1.256927e-04 0.0
-2.333132e-04 2.690685e-04 0.0
-4.128558e-04 4.291368e-04 0.0
-6.501026e-04 5.960940e-04 0.0
-9.422205e-04 7.646749e-04 0.0
-1.285769e-03 9.316598e-04 0.0
-1.678052e-03 1.094128e-03 0.0
-2.117286e-03 1.248854e-03 0.0
-2.601897e-03 1.392677e-03 0.0
-3.129593e-03 1.523242e-03 0.0
-3.696842e-03 1.639519e-03 0.0
-4.299012e-03 1.741756e-03 0.0
-4.931008e-03 1.830941e-03 0.0
-5.588007e-03 1.908102e-03 0.0
-6.265907e-03 1.973826e-03 0.0
-6.961324e-03 2.028180e-03 0.0
-7.671250e-03 2.071004e-03 0.0
-8.392625e-03 2.102319e-03 0.0
-9.122071e-03 2.122610e-03 0.0
-9.855919e-03 2.132832e-03 0.0
-1.059046e-02 2.134158e-03 0.0
-1.132228e-02 2.127629e-03 0.0
-1.204845e-02 2.113895e-03 0.0
-1.276655e-02 2.093149e-03 0.0
-1.347452e-02 2.065263e-03 0.0
-1.417037e-02 2.030043e-03 0.0
-1.485204e-02 1.987446e-03 0.0
-1.551724e-02 1.937698e-03 0.0
-1.616355e-02 1.881251e-03 0.0
-1.678855e-02 1.818653e-03 0.0
-1.738995e-02 1.750392e-03 0.0
-1.796566e-02 1.676794e-03 0.0
-1.851381e-02 1.598002e-03 0.0
-1.903269e-02 1.514029e-03 0.0
-1.952069e-02 1.424843e-03 0.0
-1.997617e-02 1.330445e-03 0.0
-2.039753e-02 1.230922e-03 0.0
-2.078312e-02 1.126445e-03 0.0
-2.113133e-02 1.017258e-03 0.0
-2.144064e-02 9.036464e-04 0.0
-2.170961e-02 7.859132e-04 0.0
-2.193693e-02 6.643725e-04 0.0
-2.212143e-02 5.393510e-04 0.0
-2.226207e-02 4.111985e-04 0.0
-2.235797e-02 2.803012e-04 0.0
-2.240839e-02 1.470942e-04 0.0
-2.241276e-02 1.207216e-05 0.0
-2.237069e-02 -1.242006e-04 0.0
-2.228199e-02 -2.611170e-04 0.0
-2.214665e-02 -3.980746e-04 0.0
-2.196489e-02 -5.344699e-04 0.0
-2.173710e-02 -6.696930e-04 0.0
-2.146391e-02 -8.031255e-04 0.0
-2.114614e-02 -9.341394e-04 0.0
-2.078482e-02 -1.062100e-03 0.0
-2.038119e-02 -1.186368e-03 0.0
-1.993671e-02 -1.306309e-03 0.0
-1.945303e-02 -1.421298e-03 0.0
-1.893203e-02 -1.530725e-03 0.0
-1.837578e-02 -1.634002e-03 0.0
-1.778655e-02 -1.730561e-03 0.0
-1.716681e-02 -1.819861e-03 0.0
-1.651917e-02 -1.901384e-03 0.0
-1.584644e-02 -1.974639e-03 0.0
-1.515155e-02 -2.039163e-03 0.0
-1.443759e-02 -2.094527e-03 0.0
-1.370778e-02 -2.140343e-03 0.0
-1.296543e-02 -2.176265e-03 0.0
-1.221396e-02 -2.201997e-03 0.0
-1.145688e-02 -2.217297e-03 0.0
-1.069774e-02 -2.221978e-03 0.0
-9.940164e-03 -2.215917e-03 0.0
-9.187778e-03 -2.199044e-03 0.0
-8.444223e-03 -2.171347e-03 0.0
-7.713120e-03 -2.132870e-03 0.0
-6.998055e-03 -2.083714e-03 0.0
-6.302553e-03 -2.024041e-03 0.0
-5.630056e-03 -1.954074e-03 0.0
-4.983899e-03 -1.874104e-03 0.0
-4.367284e-03 -1.784494e-03 0.0
-3.783255e-03 -1.685686e-03 0.0
-3.234662e-03 -1.578213e-03 0.0
-2.724130e-03 -1.462706e-03 0.0
-2.254016e-03 -1.339915e-03 0.0
-1.826367e-03 -1.210721e-03 0.0
-1.442863e-03 -1.076170e-03 0.0
-1.104753e-03 -9.375041e-04 0.0
-8.127839e-04 -7.962124e-04 0.0
-5.671053e-04 -6.540912e-04 0.0
-3.671680e-04 -5.133303e-04 0.0
-2.115991e-04 -3.766217e-04 0.0
-9.805938e-05 -2.472986e-04 0.0
-2.308302e-05 -1.295076e-04 0.0
1.809949e-05 -2.841118e-05 0.0
3.176224e-05 4.958612e-05 0.0
2.595455e-05 9.659094e-05 0.0
1.093559e-05 1.029258e-04 0.0
0.000000e+00 5.672248e-05 0.0
0.000000e+00 -5.672835e-05 0.0
0.000000e+00 1.146125e-05 0.0
-1.689339e-05 -1.020634e-05 0.0
-6.956908e-05 8.488411e-05 0.0
-1.802965e-04 2.427802e-04 0.0
-3.548503e-04 4.384683e-04 0.0
-5.942482e-04 6.558843e-04 0.0
-8.964117e-04 8.846999e-04 0.0
-1.258382e-03 1.117747e-03 0.0
-1.677828e-03 1.349008e-03 0.0
-2.153334e-03 1.572827e-03 0.0
-2.683684e-03 1.784167e-03 0.0
-3.266832e-03 1.979306e-03 0.0
-3.899268e-03 2.156293e-03 0.0
-4.576105e-03 2.314822e-03 0.0
-5.291753e-03 2.455574e-03 0.0
-6.040749e-03 2.579420e-03 0.0
-6.818307e-03 2.686856e-03 0.0
-7.620376e-03 2.777915e-03 0.0
-8.443303e-03 2.852463e-03 0.0
-9.283371e-03 2.910634e-03 0.0
-1.013652e-02 2.953108e-03 0.0
-1.099835e-02 2.981087e-03 0.0
-1.186443e-02 2.995994e-03 0.0
-1.273065e-02 2.999086e-03 0.0
-1.359345e-02 2.991169e-03 0.0
-1.444985e-02 2.972553e-03 0.0
-1.529724e-02 2.943230e-03 0.0
-1.613313e-02 2.903142e-03 0.0
-1.695494e-02 2.852427e-03 0.0
-1.775984e-02 2.791505e-03 0.0
-1.854490e-02 2.721023e-03 0.0
-1.930720e-02 2.641687e-03 0.0
-2.004395e-02 2.554099e-03 0.0
-2.075266e-02 2.458656e-03 0.0
-2.143104e-02 2.355547e-03 0.0
-2.207702e-02 2.244828e-03 0.0
-2.268860e-02 2.126519e-03 0.0
-2.326381e-02 2.000691e-03 0.0
-2.380066e-02 1.867509e-03 0.0
-2.429717e-02 1.727228e-03 0.0
-2.475137e-02 1.580171e-03 0.0
-2.516139e-02 1.426697e-03 0.0
-2.552548e-02 1.267179e-03 0.0
-2.584199e-02 1.102003e-03 0.0
-2.610945e-02 9.315690e-04 0.0
-2.632653e-02 7.563115e-04 0.0
-2.649204e-02 5.767123e-04 0.0
-2.660498e-02 3.933137e-04 0.0
-2.666452e-02 2.067284e-04 0.0
-2.666999e-02 1.764742e-05 0.0
-2.662096e-02 -1.731525e-04 0.0
-2.651720e-02 -3.648380e-04 0.0
-2.635872e-02 -5.565728e-04 0.0
-2.614576e-02 -7.475122e-04 0.0
-2.587879e-02 -9.367993e-04 0.0
-2.555853e-02 -1.123565e-03 0.0
-2.518594e-02 -1.306929e-03 0.0
-2.476222e-02 -1.486007e-03 0.0
-2.428881e-02 -1.659917e-03 0.0
-2.376743e-02 -1.827786e-03 0.0
-2.320000e-02 -1.988758e-03 0.0
-2.258873e-02 -2.141995e-03 0.0
-2.193602e-02 -2.286685e-03 0.0
-2.124453e-02 -2.422041e-03 0.0
-2.051711e-02 -2.547301e-03 0.0
-1.975681e-02 -2.661739e-03 0.0
-1.896688e-02 -2.764660e-03 0.0
-1.815075e-02 -2.855418e-03 0.0
-1.731199e-02 -2.933414e-03 0.0
-1.645434e-02 -2.998109e-03 0.0
-1.558167e-02 -3.049031e-03 0.0
-1.469794e-02 -3.085775e-03 0.0
-1.380725e-02 -3.108014e-03 0.0
-1.291372e-02 -3.115496e-03 0.0
-1.202156e-02 -3.108051e-03 0.0
-1.113500e-02 -3.085587e-03 0.0
-1.025824e-02 -3.048088e-03 0.0
-9.395497e-03 -2.995616e-03 0.0
-8.550924e-03 -2.928314e-03 0.0
-7.728599e-03 -2.846412e-03 0.0
-6.932505e-03 -2.750229e-03 0.0
-6.166494e-03 -2.640181e-03 0.0
-5.434259e-03 -2.516792e-03 0.0
-4.739303e-03 -2.380699e-03 0.0
-4.084897e-03 -2.232664e-03 0.0
-3.474043e-03 -2.073595e-03 0.0
-2.909429e-03 -1.904555e-03 0.0
-2.393374e-03 -1.726798e-03 0.0
-1.927770e-03 -1.541795e-03 0.0
-1.514015e-03 -1.351281e-03 0.0
-1.152937e-03 -1.157315e-03 0.0
-8.447062e-04 -9.623506e-04 0.0
-5.887314e-04 -7.693363e-04 0.0
-3.835527e-04 -5.818338e-04 0.0
-2.267158e-04 -4.041702e-04 0.0
-1.146395e-04 -2.416191e-04 0.0
-4.247062e-05 -1.006153e-04 0.0
-3.917187e-06 1.099712e-05 0.0
8.972661e-06 8.366628e-05 0.0
6.136874e-06 1.057271e-04 0.0
0.000000e+00 6.282509e-05 0.0
0.000000e+00 -6.281334e-05 0.0
0.000000e+00 -9.062764e-06 0.0
-1.802394e-05 2.729757e-05 0.0
-1.016679e-04 1.772288e-04 0.0
-2.568201e-04 3.946079e-04 0.0
-4.844439e-04 6.544209e-04 0.0
-7.826817e-04 9.407596e-04 0.0
-1.148771e-03 1.241658e-03 0.0
-1.580561e-03 1.547186e-03 0.0
-2.076866e-03 1.848487e-03 0.0
-2.636764e-03 2.137938e-03 0.0
-3.258507e-03 2.409787e-03 0.0
-3.938781e-03 2.660583e-03 0.0
-4.672706e-03 2.888975e-03 0.0
-5.454488e-03 3.094962e-03 0.0
-6.278287e-03 3.278974e-03 0.0
-7.138825e-03 3.441221e-03 0.0
-8.031505e-03 3.581560e-03 0.0
-8.952094e-03 3.699777e-03 0.0
-9.896274e-03 3.796034e-03 0.0
-1.085935e-02 3.871144e-03 0.0
-1.183626e-02 3.926513e-03 0.0
-1.282193e-02 3.963799e-03 0.0
-1.381161e-02 3.984477e-03 0.0
-1.480112e-02 3.989533e-03 0.0
-1.578693e-02 3.979430e-03 0.0
-1.676590e-02 3.954305e-03 0.0
-1.773501e-02 3.914275e-03 0.0
-1.869111e-02 3.859682e-03 0.0
-1.963088e-02 3.791175e-03 0.0
-2.055087e-02 3.709619e-03 0.0
-2.144766e-02 3.615909e-03 0.0
-2.231802e-02 3.510791e-03 0.0
-2.315903e-02 3.394765e-03 0.0
-2.396800e-02 3.268100e-03 0.0
-2.474247e-02 3.130922e-03 0.0
-2.548007e-02 2.983331e-03 0.0
-2.617845e-02 2.825484e-03 0.0
-2.683526e-02 2.657636e-03 0.0
-2.744816e-02 2.480134e-03 0.0
-2.801484e-02 2.293384e-03 0.0
-2.853311e-02 2.097823e-03 0.0
-2.900086e-02 1.893895e-03 0.0
-2.941614e-02 1.682057e-03 0.0
-2.977716e-02 1.462784e-03 0.0
-3.008228e-02 1.236594e-03 0.0
-3.033000e-02 1.004060e-03 0.0
-3.051902e-02 7.658280e-04 0.0
-3.064820e-02 5.226240e-04 0.0
-3.071662e-02 2.752629e-04 0.0
-3.072355e-02 2.465588e-05 0.0
-3.066849e-02 -2.281836e-04 0.0
-3.055119e-02 -4.821685e-04 0.0
-3.037168e-02 -7.361983e-04 0.0
-3.013020e-02 -9.891554e-04 0.0
-2.982729e-02 -1.239905e-03 0.0
-2.946376e-02 -1.487297e-03 0.0
-2.904070e-02 -1.730176e-03 0.0
-2.855945e-02 -1.967383e-03 0.0
-2.802167e-02 -2.197768e-03 0.0
-2.742927e-02 -2.420195e-03 0.0
-2.678446e-02 -2.633544e-03 0.0
-2.608971e-02 -2.836718e-03 0.0
-2.534775e-02 -3.028645e-03 0.0
-2.456154e-02 -3.208278e-03 0.0
-2.373432e-02 -3.374607e-03 0.0
-2.286951e-02 -3.526664e-03 0.0
-2.197077e-02 -3.663533e-03 0.0
-2.104195e-02 -3.784361e-03 0.0
-2.008711e-02 -3.888366e-03 0.0
-1.911044e-02 -3.974848e-03 0.0
-1.811632e-02 -4.043192e-03 0.0
-1.710921e-02 -4.092877e-03 0.0
-1.609373e-02 -4.123476e-03 0.0
-1.507453e-02 -4.134662e-03 0.0
-1.405635e-02 -4.126211e-03 0.0
-1.304393e-02 -4.098001e-03 0.0
-1.204202e-02 -4.050011e-03 0.0
-1.105536e-02 -3.982324e-03 0.0
-1.008860e-02 -3.895133e-03 0.0
-9.146334e-03 -3.788751e-03 0.0
-8.233024e-03 -3.663610e-03 0.0
-7.352991e-03 -3.520279e-03 0.0
-6.510370e-03 -3.359466e-03 0.0
-5.709075e-03 -3.182033e-03 0.0
-4.952756e-03 -2.989012e-03 0.0
-4.244756e-03 -2.781617e-03 0.0
-3.588057e-03 -2.561274e-03 0.0
-2.985228e-03 -2.329648e-03 0.0
-2.438363e-03 -2.088685e-03 0.0
-1.949011e-03 -1.840661e-03 0.0
-1.518106e-03 -1.588253e-03 0.0
-1.145878e-03 -1.334614e-03 0.0
-8.317655e-04 -1.083486e-03 0.0
-5.743194e-04 -8.393177e-04 0.0
-3.710981e-04 -6.074290e-04 0.0
-2.185624e-04 -3.941915e-04 0.0
-1.119647e-04 -2.072497e-04 0.0
-4.522423e-05 -5.577969e-05 0.0
-1.078085e-05 4.918723e-05 0.0
5.925972e-07 9.431827e-05 0.0
0.000000e+00 6.338236e-05 0.0
0.000000e+00 -6.334948e-05 0.0
0.000000e+00 -4.484636e-05 0.0
-2.331083e-05 7.137845e-05 0.0
-1.389751e-04 2.917364e-04 0.0
-3.373523e-04 5.828803e-04 0.0
-6.157274e-04 9.202556e-04 0.0
-9.708492e-04 1.286997e-03 0.0
-1.400293e-03 1.668739e-03 0.0
-1.902770e-03 2.052845e-03 0.0
-2.477407e-03 2.428500e-03 0.0
-3.122600e-03 2.787322e-03 0.0
-3.835190e-03 3.123773e-03 0.0
-4.610380e-03 3.434933e-03 0.0
-5.442339e-03 3.719663e-03 0.0
-6.325055e-03 3.977592e-03 0.0
-7.252961e-03 4.208369e-03 0.0
-8.221070e-03 4.411461e-03 0.0
-9.224683e-03 4.586415e-03 0.0
-1.025895e-02 4.733293e-03 0.0
-1.131858e-02 4.852939e-03 0.0
-1.239794e-02 4.946887e-03 0.0
-1.349133e-02 5.016976e-03 0.0
-1.459343e-02 5.064871e-03 0.0
-1.569954e-02 5.091737e-03 0.0
-1.680557e-02 5.098202e-03 0.0
-1.790788e-02 5.084576e-03 0.0
-1.900289e-02 5.051176e-03 0.0
-2.008693e-02 4.998578e-03 0.0
-2.115613e-02 4.927682e-03 0.0
-2.220653e-02 4.839599e-03 0.0
-2.323424e-02 4.735436e-03 0.0
-2.423560e-02 4.616110e-03 0.0
-2.520728e-02 4.482255e-03 0.0
-2.614621e-02 4.334254e-03 0.0
-2.704952e-02 4.172341e-03 0.0
-2.791445e-02 3.996721e-03 0.0
-2.873828e-02 3.807664e-03 0.0
-2.951828e-02 3.605532e-03 0.0
-3.025176e-02 3.390772e-03 0.0
-3.093607e-02 3.163881e-03 0.0
-3.156868e-02 2.925374e-03 0.0
-3.214716e-02 2.675772e-03 0.0
-3.266925e-02 2.415601e-03 0.0
-3.313282e-02 2.145415e-03 0.0
-3.353591e-02 1.865811e-03 0.0
-3.387672e-02 1.577451e-03 0.0
-3.415362e-02 1.281075e-03 0.0
-3.436516e-02 9.775142e-04 0.0
-3.451011e-02 6.676999e-04 0.0
-3.458744e-02 3.526699e-04 0.0
-3.459634e-02 3.357751e-05 0.0
-3.453628e-02 -2.883021e-04 0.0
-3.440699e-02 -6.116007e-04 0.0
-3.420845e-02 -9.349253e-04 0.0
-3.394096e-02 -1.256859e-03 0.0
-3.360511e-02 -1.575966e-03 0.0
-3.320178e-02 -1.890796e-03 0.0
-3.273217e-02 -2.199895e-03 0.0
-3.219778e-02 -2.501812e-03 0.0
-3.160043e-02 -2.795103e-03 0.0
-3.094226e-02 -3.078337e-03 0.0
-3.022567e-02 -3.350099e-03 0.0
-2.945341e-02 -3.608993e-03 0.0
-2.862846e-02 -3.853651e-03 0.0
-2.775410e-02 -4.082738e-03 0.0
-2.683387e-02 -4.294968e-03 0.0
-2.587156e-02 -4.489111e-03 0.0
-2.487121e-02 -4.664013e-03 0.0
-2.383706e-02 -4.818601e-03 0.0
-2.277358e-02 -4.951896e-03 0.0
-2.168541e-02 -5.063021e-03 0.0
-2.057738e-02 -5.151207e-03 0.0
-1.945442e-02 -5.215799e-03 0.0
-1.832161e-02 -5.256257e-03 0.0
-1.718408e-02 -5.272168e-03 0.0
-1.604706e-02 -5.263243e-03 0.0
-1.491577e-02 -5.229328e-03 0.0
-1.379545e-02 -5.170395e-03 0.0
-1.269129e-02 -5.086556e-03 0.0