# vtk DataFile Version 3.0
Vector Field
ASCII
DATASET RECTILINEAR_GRID
DIMENSIONS 102 102 1
X_COORDINATES 102 double
0.000000 0.100000 0.200000 0.300000 0.400000 0.500000 0.600000 0.700000 0.800000 0.900000 1.000000 1.100000 1.200000 1.300000 1.400000 1.500000 1.600000 1.700000 1.800000 1.900000 2.000000 2.100000 2.200000 2.300000 2.400000 2.500000 2.600000 2.700000 2.800000 2.900000 3.000000 3.100000 3.200000 3.300000 3.400000 3.500000 3.600000 3.700000 3.800000 3.900000 4.000000 4.100000 4.200000 4.300000 4.400000 4.500000 4.600000 4.700000 4.800000 4.900000 5.000000 5.100000 5.200000 5.300000 5.400000 5.500000 5.600000 5.700000 5.800000 5.900000 6.000000 6.100000 6.200000 6.300000 6.400000 6.500000 6.600000 6.700000 6.800000 6.900000 7.000000 7.100000 7.200000 7.300000 7.400000 7.500000 7.600000 7.700000 7.800000 7.900000 8.000000 8.100000 8.200000 8.300000 8.400000 8.500000 8.600000 8.700000 8.800000 8.900000 9.000000 9.100000 9.200000 9.300000 9.400000 9.500000 9.600000 9.700000 9.800000 9.900000 10.000000 10.100000 
Y_COORDINATES 102 double
0.000000 0.100000 0.200000 0.300000 0.400000 0.500000 0.600000 0.700000 0.800000 0.900000 1.000000 1.100000 1.200000 1.300000 1.400000 1.500000 1.600000 1.700000 1.800000 1.900000 2.000000 2.100000 2.200000 2.300000 2.400000 2.500000 2.600000 2.700000 2.800000 2.900000 3.000000 3.100000 3.200000 3.300000 3.400000 3.500000 3.600000 3.700000 3.800000 3.900000 4.000000 4.100000 4.200000 4.300000 4.400000 4.500000 4.600000 4.700000 4.800000 4.900000 5.000000 5.100000 5.200000 5.300000 5.400000 5.500000 5.600000 5.700000 5.800000 5.900000 6.000000 6.100000 6.200000 6.300000 6.400000 6.500000 6.600000 6.700000 6.800000 6.900000 7.000000 7.100000 7.200000 7.300000 7.400000 7.500000 7.600000 7.700000 7.800000 7.900000 8.000000 8.100000 8.200000 8.300000 8.400000 8.500000 8.600000 8.700000 8.800000 8.900000 9.000000 9.100000 9.200000 9.300000 9.400000 9.500000 9.600000 9.700000 9.800000 9.900000 10.000000 10.100000 
Z_COORDINATES 1 double
0.0
POINT_DATA 10404
VECTORS Velocity double
0.000000e+00 0.000000e+00 0.0
9.639765e-06 0.000000e+00 0.0
-1.160516e-05 0.000000e+00 0.0
-3.822623e-05 0.000000e+00 0.0
-5.840195e-05 0.000000e+00 0.0
-6.380145e-05 0.000000e+00 0.0
-5.004638e-05 0.000000e+00 0.0
-1.674804e-05 0.000000e+00 0.0
3.350226e-05 0.000000e+00 0.0
9.683431e-05 0.000000e+00 0.0
1.697578e-04 0.000000e+00 0.0
2.501460e-04 0.000000e+00 0.0
3.373305e-04 0.000000e+00 0.0
4.315321e-04 0.000000e+00 0.0
5.330908e-04 0.000000e+00 0.0
6.419071e-04 0.000000e+00 0.0
7.572780e-04 0.000000e+00 0.0
8.780642e-04 0.000000e+00 0.0
1.002988e-03 0.000000e+00 0.0
1.130877e-03 0.000000e+00 0.0
1.260764e-03 0.000000e+00 0.0
1.391865e-03 0.000000e+00 0.0
1.523515e-03 0.000000e+00 0.0
1.655109e-03 0.000000e+00 0.0
1.786082e-03 0.000000e+00 0.0
1.915908e-03 0.000000e+00 0.0
2.044101e-03 0.000000e+00 0.0
2.170204e-03 0.000000e+00 0.0
2.293769e-03 0.000000e+00 0.0
2.414352e-03 0.000000e+00 0.0
2.531511e-03 0.000000e+00 0.0
2.644821e-03 0.000000e+00 0.0
2.753873e-03 0.000000e+00 0.0
2.858275e-03 0.000000e+00 0.0
2.957630e-03 0.000000e+00 0.0
3.051527e-03 0.000000e+00 0.0
3.139533e-03 0.000000e+00 0.0
3.221202e-03 0.000000e+00 0.0
3.296093e-03 0.000000e+00 0.0
3.363795e-03 0.000000e+00 0.0
3.423937e-03 0.000000e+00 0.0
3.476189e-03 0.000000e+00 0.0
3.520253e-03 0.000000e+00 0.0
3.555856e-03 0.000000e+00 0.0
3.582738e-03 0.000000e+00 0.0
3.600656e-03 0.000000e+00 0.0
3.609388e-03 0.000000e+00 0.0
3.608757e-03 0.000000e+00 0.0
3.598653e-03 0.000000e+00 0.0
3.579042e-03 0.000000e+00 0.0
3.549954e-03 0.000000e+00 0.0
3.511475e-03 0.000000e+00 0.0
3.463747e-03 0.000000e+00 0.0
3.406963e-03 0.000000e+00 0.0
3.341363e-03 0.000000e+00 0.0
3.267236e-03 0.000000e+00 0.0
3.184919e-03 0.000000e+00 0.0
3.094795e-03 0.000000e+00 0.0
2.997297e-03 0.000000e+00 0.0
2.892902e-03 0.000000e+00 0.0
2.782134e-03 0.000000e+00 0.0
2.665559e-03 0.000000e+00 0.0
2.543777e-03 0.000000e+00 0.0
2.417426e-03 0.000000e+00 0.0
2.287169e-03 0.000000e+00 0.0
2.153695e-03 0.000000e+00 0.0
2.017713e-03 0.000000e+00 0.0
1.879951e-03 0.000000e+00 0.0
1.741153e-03 0.000000e+00 0.0
1.602073e-03 0.000000e+00 0.0
1.463473e-03 0.000000e+00 0.0
1.326113e-03 0.000000e+00 0.0
1.190754e-03 0.000000e+00 0.0
1.058143e-03 0.000000e+00 0.0
9.290154e-04 0.000000e+00 0.0
8.040836e-04 0.000000e+00 0.0
6.840360e-04 0.000000e+00 0.0
5.695316e-04 0.000000e+00 0.0
4.611961e-04 0.000000e+00 0.0
3.596186e-04 0.000000e+00 0.0
2.653470e-04 0.000000e+00 0.0
1.788838e-04 0.000000e+00 0.0
1.006807e-04 0.000000e+00 0.0
3.113296e-05 0.000000e+00 0.0
-2.942719e-05 0.000000e+00 0.0
-8.073777e-05 0.000000e+00 0.0
-1.226166e-04 0.000000e+00 0.0
-1.549713e-04 0.000000e+00 0.0
-1.778116e-04 0.000000e+00 0.0
-1.912664e-04 0.000000e+00 0.0
-1.956046e-04 0.000000e+00 0.0
-1.912638e-04 0.000000e+00 0.0
-1.788882e-04 0.000000e+00 0.0
-1.593833e-04 0.000000e+00 0.0
-1.339912e-04 0.000000e+00 0.0
-1.043997e-04 0.000000e+00 0.0
-7.289488e-05 0.000000e+00 0.0
-4.255481e-05 0.000000e+00 0.0
-1.741208e-05 0.000000e+00 0.0
-2.190562e-06 0.000000e+00 0.0
-0.000000e+00 0.000000e+00 0.0
0.000000e+00 0.000000e+00 0.0
0.000000e+00 3.059803e-05 0.0
1.484722e-05 -6.548052e-06 0.0
4.841001e-05 -4.263676e-06 0.0
7.025948e-05 1.817277e-06 0.0
7.395349e-05 4.469786e-06 0.0
5.989796e-05 5.068247e-06 0.0
3.198535e-05 7.346740e-06 0.0
-5.801934e-06 1.455016e-05 0.0
-5.139518e-05 2.753968e-05 0.0
-1.049633e-04 4.467054e-05 0.0
-1.679917e-04 6.293682e-05 0.0
-2.419570e-04 7.947007e-05 0.0
-3.273586e-04 9.258325e-05 0.0
-4.234618e-04 1.020107e-04 0.0
-5.286470e-04 1.084890e-04 0.0
-6.410036e-04 1.130932e-04 0.0
-7.588143e-04 1.167131e-04 0.0
-8.807612e-04 1.198461e-04 0.0
-1.005886e-03 1.226534e-04 0.0
-1.133444e-03 1.251224e-04 0.0
-1.262779e-03 1.271970e-04 0.0
-1.393271e-03 1.288274e-04 0.0
-1.524330e-03 1.299663e-04 0.0
-1.655408e-03 1.305600e-04 0.0
-1.785985e-03 1.305584e-04 0.0
-1.915558e-03 1.299349e-04 0.0
-2.043626e-03 1.286940e-04 0.0
-2.169696e-03 1.268585e-04 0.0
-2.293301e-03 1.244468e-04 0.0
-2.414002e-03 1.214612e-04 0.0
-2.531378e-03 1.178970e-04 0.0
-2.645006e-03 1.137669e-04 0.0
-2.754435e-03 1.091208e-04 0.0
-2.859185e-03 1.040455e-04 0.0
-2.958760e-03 9.864103e-05 0.0
-3.052682e-03 9.298490e-05 0.0
-3.140515e-03 8.710406e-05 0.0
-3.221878e-03 8.096853e-05 0.0
-3.296436e-03 7.450920e-05 0.0
-3.363877e-03 6.764999e-05 0.0
-3.423893e-03 6.033910e-05 0.0
-3.476161e-03 5.256679e-05 0.0
-3.520346e-03 4.436542e-05 0.0
-3.556112e-03 3.579567e-05 0.0
-3.583142e-03 2.692782e-05 0.0
-3.601158e-03 1.782691e-05 0.0
-3.609929e-03 8.546955e-06 0.0
-3.609289e-03 -8.638211e-07 0.0
-3.599150e-03 -1.034610e-05 0.0
-3.579499e-03 -1.984257e-05 0.0
-3.550376e-03 -2.930481e-05 0.0
-3.511871e-03 -3.868256e-05 0.0
-3.464123e-03 -4.792189e-05 0.0
-3.407316e-03 -5.696733e-05 0.0
-3.341687e-03 -6.576531e-05 0.0
-3.267526e-03 -7.426683e-05 0.0
-3.185172e-03 -8.242831e-05 0.0
-3.095019e-03 -9.021022e-05 0.0
-2.997506e-03 -9.757442e-05 0.0
-2.893114e-03 -1.044810e-04 0.0
-2.782364e-03 -1.108861e-04 0.0
-2.665814e-03 -1.167421e-04 0.0
-2.544055e-03 -1.219998e-04 0.0
-2.417709e-03 -1.266120e-04 0.0
-2.287434e-03 -1.305382e-04 0.0
-2.153917e-03 -1.337476e-04 0.0
-2.017873e-03 -1.362204e-04 0.0
-1.880041e-03 -1.379470e-04 0.0
-1.741178e-03 -1.389256e-04 0.0
-1.602050e-03 -1.391586e-04 0.0
-1.463423e-03 -1.386505e-04 0.0
-1.326061e-03 -1.374051e-04 0.0
-1.190716e-03 -1.354248e-04 0.0
-1.058129e-03 -1.327122e-04 0.0
-9.290243e-04 -1.292726e-04 0.0
-8.041078e-04 -1.251167e-04 0.0
-6.840637e-04 -1.202620e-04 0.0
-5.695505e-04 -1.147339e-04 0.0
-4.611966e-04 -1.085652e-04 0.0
-3.595953e-04 -1.017955e-04 0.0
-2.652989e-04 -9.447011e-05 0.0
-1.788137e-04 -8.663926e-05 0.0
-1.005938e-04 -7.835759e-05 0.0
-3.103546e-05 -6.968424e-05 0.0
2.952930e-05 -6.068345e-05 0.0
8.083944e-05 -5.142551e-05 0.0
1.227141e-04 -4.198952e-05 0.0
1.550619e-04 -3.246408e-05 0.0
1.778940e-04 -2.295057e-05 0.0
1.913396e-04 -1.356687e-05 0.0
1.956682e-04 -4.452589e-06 0.0
1.913174e-04 4.224127e-06 0.0
1.789320e-04 1.225644e-05 0.0
1.594174e-04 1.938360e-05 0.0
1.340161e-04 2.526869e-05 0.0
1.044164e-04 2.946596e-05 0.0
7.290433e-05 3.137739e-05 0.0
4.255877e-05 3.021039e-05 0.0
1.741254e-05 2.501055e-05 0.0
2.189435e-06 1.508742e-05 0.0
0.000000e+00 2.053815e-06 0.0
0.000000e+00 -2.049658e-06 0.0
0.000000e+00 4.935825e-05 0.0
3.565287e-05 -1.174745e-05 0.0
6.725925e-05 -2.915419e-05 0.0
8.141089e-05 -2.255911e-05 0.0
6.879380e-05 -2.661698e-06 0.0
2.632682e-05 2.805916e-05 0.0
-4.641449e-05 6.838118e-05 0.0
-1.495023e-04 1.162848e-04 0.0
-2.834458e-04 1.683211e-04 0.0
-4.488382e-04 2.203670e-04 0.0
-6.456015e-04 2.688581e-04 0.0
-8.724736e-04 3.116663e-04 0.0
-1.127015e-03 3.482436e-04 0.0
-1.406028e-03 3.791543e-04 0.0
-1.706102e-03 4.053909e-04 0.0
-2.024008e-03 4.278441e-04 0.0
-2.356862e-03 4.470863e-04 0.0
-2.702098e-03 4.634100e-04 0.0
-3.057370e-03 4.769638e-04 0.0
-3.420487e-03 4.878539e-04 0.0
-3.789385e-03 4.961747e-04 0.0
-4.162136e-03 5.019993e-04 0.0
-4.536932e-03 5.053760e-04 0.0
-4.912067e-03 5.063471e-04 0.0
-5.285904e-03 5.049736e-04 0.0
-5.656868e-03 5.013469e-04 0.0
-6.023442e-03 4.955727e-04 0.0
-6.384186e-03 4.877446e-04 0.0
-6.737728e-03 4.779311e-04 0.0
-7.082748e-03 4.661849e-04 0.0
-7.417952e-03 4.525684e-04 0.0
-7.742047e-03 4.371735e-04 0.0
-8.053741e-03 4.201197e-04 0.0
-8.351755e-03 4.015300e-04 0.0
-8.634848e-03 3.814971e-04 0.0
-8.901834e-03 3.600593e-04 0.0
-9.151593e-03 3.372009e-04 0.0
-9.383055e-03 3.128749e-04 0.0
-9.595187e-03 2.870371e-04 0.0
-9.786978e-03 2.596775e-04 0.0
-9.957433e-03 2.308351e-04 0.0
-1.010558e-02 2.005957e-04 0.0
-1.023051e-02 1.690773e-04 0.0
-1.033136e-02 1.364129e-04 0.0
-1.040735e-02 1.027385e-04 0.0
-1.045784e-02 6.819158e-05 0.0
-1.048228e-02 3.291903e-05 0.0
-1.048026e-02 -2.906095e-06 0.0
-1.045157e-02 -3.906066e-05 0.0
-1.039613e-02 -7.531027e-05 0.0
-1.031404e-02 -1.114388e-04 0.0
-1.020552e-02 -1.472379e-04 0.0
-1.007096e-02 -1.825045e-04 0.0
-9.910895e-03 -2.170425e-04 0.0
-9.725984e-03 -2.506634e-04 0.0
-9.517043e-03 -2.831865e-04 0.0
-9.285023e-03 -3.144368e-04 0.0
-9.031008e-03 -3.442424e-04 0.0
-8.756205e-03 -3.724316e-04 0.0
-8.461946e-03 -3.988323e-04 0.0
-8.149675e-03 -4.232736e-04 0.0
-7.820945e-03 -4.455900e-04 0.0
-7.477412e-03 -4.656268e-04 0.0
-7.120833e-03 -4.832455e-04 0.0
-6.753051e-03 -4.983278e-04 0.0
-6.375990e-03 -5.107767e-04 0.0
-5.991641e-03 -5.205159e-04 0.0
-5.602049e-03 -5.274873e-04 0.0
-5.209299e-03 -5.316483e-04 0.0
-4.815497e-03 -5.329703e-04 0.0
-4.422760e-03 -5.314391e-04 0.0
-4.033197e-03 -5.270538e-04 0.0
-3.648902e-03 -5.198260e-04 0.0
-3.271941e-03 -5.097828e-04 0.0
-2.904343e-03 -4.969703e-04 0.0
-2.548083e-03 -4.814543e-04 0.0
-2.205077e-03 -4.633220e-04 0.0
-1.877160e-03 -4.426809e-04 0.0
-1.566081e-03 -4.196581e-04 0.0
-1.273479e-03 -3.943996e-04 0.0
-1.000879e-03 -3.670697e-04 0.0
-7.496696e-04 -3.378513e-04 0.0
-5.210888e-04 -3.069468e-04 0.0
-3.162089e-04 -2.745799e-04 0.0
-1.359167e-04 -2.409988e-04 0.0
1.910746e-05 -2.064790e-04 0.0
1.484129e-04 -1.713289e-04 0.0
2.518101e-04 -1.358983e-04 0.0
3.294061e-04 -1.005854e-04 0.0
3.816473e-04 -6.584798e-05 0.0
4.093751e-04 -3.222082e-05 0.0
4.138961e-04 -3.370729e-07 0.0
3.970704e-04 2.904220e-05 0.0
3.614262e-04 5.498862e-05 0.0
3.103020e-04 7.635450e-05 0.0
2.480187e-04 9.171158e-05 0.0
1.800623e-04 9.929700e-05 0.0
1.132109e-04 9.702541e-05 0.0
5.543747e-05 8.274789e-05 0.0
1.523348e-05 5.525566e-05 0.0
0.000000e+00 1.725161e-05 0.0
0.000000e+00 -1.724489e-05 0.0
0.000000e+00 5.866793e-05 0.0
3.828401e-05 -2.392999e-05 0.0
5.019230e-05 -5.129762e-05 0.0
3.790899e-05 -2.970800e-05 0.0
-8.502487e-06 2.535291e-05 0.0
-9.503173e-05 1.047107e-04 0.0
-2.261463e-04 2.003078e-04 0.0
-4.054135e-04 3.043385e-04 0.0
-6.350972e-04 4.096378e-04 0.0
-9.155380e-04 5.105788e-04 0.0
-1.244949e-03 6.036721e-04 0.0
-1.619803e-03 6.874895e-04 0.0
-2.035583e-03 7.620362e-04 0.0
-2.487523e-03 8.279626e-04 0.0
-2.971072e-03 8.859767e-04 0.0
-3.482027e-03 9.365953e-04 0.0
-4.016469e-03 9.801589e-04 0.0
-4.570656e-03 1.016939e-03 0.0
-5.140982e-03 1.047206e-03 0.0
-5.723995e-03 1.071237e-03 0.0
-6.316424e-03 1.089286e-03 0.0
-6.915187e-03 1.101576e-03 0.0
-7.517361e-03 1.108318e-03 0.0
-8.120145e-03 1.109739e-03 0.0
-8.720849e-03 1.106085e-03 0.0
-9.316894e-03 1.097609e-03 0.0
-9.905827e-03 1.084537e-03 0.0
-1.048531e-02 1.067059e-03 0.0
-1.105311e-02 1.045335e-03 0.0
-1.160705e-02 1.019522e-03 0.0
-1.214497e-02 9.897926e-04 0.0
-1.266477e-02 9.563328e-04 0.0
-1.316438e-02 9.193144e-04 0.0
-1.364182e-02 8.788674e-04 0.0
-1.409518e-02 8.350620e-04 0.0
-1.452263e-02 7.879169e-04 0.0
-1.492241e-02 7.374277e-04 0.0
-1.529281e-02 6.836036e-04 0.0
-1.563213e-02 6.264966e-04 0.0
-1.593872e-02 5.662134e-04 0.0
-1.621099e-02 5.029111e-04 0.0
-1.644742e-02 4.367824e-04 0.0
-1.664661e-02 3.680415e-04 0.0
-1.680727e-02 2.969168e-04 0.0
-1.692827e-02 2.236541e-04 0.0
-1.700865e-02 1.485275e-04 0.0
-1.704760e-02 7.185690e-05 0.0
-1.704456e-02 -5.973269e-06 0.0
-1.699917e-02 -8.449201e-05 0.0
-1.691132e-02 -1.632048e-04 0.0
-1.678116e-02 -2.416467e-04 0.0
-1.660904e-02 -3.193730e-04 0.0
-1.639558e-02 -3.959559e-04 0.0
-1.614162e-02 -4.709813e-04 0.0
-1.584820e-02 -5.440465e-04 0.0
-1.551662e-02 -6.147563e-04 0.0
-1.514837e-02 -6.827203e-04 0.0
-1.474513e-02 -7.475509e-04 0.0
-1.430880e-02 -8.088645e-04 0.0
-1.384147e-02 -8.662851e-04 0.0
-1.334541e-02 -9.194516e-04 0.0
-1.282306e-02 -9.680246e-04 0.0
-1.227702e-02 -1.011693e-03 0.0
-1.171007e-02 -1.050180e-03 0.0
-1.112511e-02 -1.083243e-03 0.0
-1.052516e-02 -1.110674e-03 0.0
-9.913334e-03 -1.132297e-03 0.0
-9.292845e-03 -1.147969e-03 0.0
-8.666949e-03 -1.157578e-03 0.0
-8.038947e-03 -1.161047e-03 0.0
-7.412155e-03 -1.158333e-03 0.0
-6.789886e-03 -1.149435e-03 0.0
-6.175433e-03 -1.134385e-03 0.0
-5.572046e-03 -1.113255e-03 0.0
-4.982920e-03 -1.086155e-03 0.0
-4.411168e-03 -1.053239e-03 0.0
-3.859800e-03 -1.014702e-03 0.0
-3.331705e-03 -9.707753e-04 0.0
-2.829624e-03 -9.217336e-04 0.0
-2.356132e-03 -8.678890e-04 0.0
-1.913612e-03 -8.095945e-04 0.0
-1.504232e-03 -7.472455e-04 0.0
-1.129919e-03 -6.812825e-04 0.0
-7.923343e-04 -6.121954e-04 0.0
-4.928404e-04 -5.405291e-04 0.0
-2.324685e-04 -4.668910e-04 0.0
-1.187969e-05 -3.919599e-04 0.0
1.686785e-04 -3.164996e-04 0.0
3.094270e-04 -2.413770e-04 0.0
4.111214e-04 -1.675850e-04 0.0
4.751264e-04 -9.626748e-05 0.0
5.035078e-04 -2.875912e-05 0.0
4.991449e-04 3.336581e-05 0.0
4.658606e-04 8.823506e-05 0.0
4.085681e-04 1.336103e-04 0.0
3.334239e-04 1.668200e-04 0.0
2.479534e-04 1.847325e-04 0.0
1.610908e-04 1.838530e-04 0.0
8.306402e-05 1.607399e-04 0.0
2.515622e-05 1.131286e-04 0.0
0.000000e+00 4.237299e-05 0.0
0.000000e+00 -4.236003e-05 0.0
0.000000e+00 5.617529e-05 0.0
2.386666e-05 -3.707623e-05 0.0
7.924134e-06 -5.608387e-05 0.0
-3.983960e-05 -1.061607e-06 0.0
-1.305184e-04 1.065391e-04 0.0
-2.731035e-04 2.495276e-04 0.0
-4.751189e-04 4.130244e-04 0.0
-7.418746e-04 5.844697e-04 0.0
-1.075632e-03 7.542773e-04 0.0
-1.475418e-03 9.161520e-04 0.0
-1.937642e-03 1.066732e-03 0.0
-2.457173e-03 1.204711e-03 0.0
-3.028364e-03 1.329856e-03 0.0
-3.645685e-03 1.442292e-03 0.0
-4.303915e-03 1.542181e-03 0.0
-4.998063e-03 1.629690e-03 0.0
-5.723240e-03 1.705059e-03 0.0
-6.474624e-03 1.768632e-03 0.0
-7.247505e-03 1.820828e-03 0.0
-8.037349e-03 1.862078e-03 0.0
-8.839828e-03 1.892812e-03 0.0
-9.650807e-03 1.913460e-03 0.0
-1.046631e-02 1.924477e-03 0.0
-1.128253e-02 1.926335e-03 0.0
-1.209579e-02 1.919495e-03 0.0
-1.290261e-02 1.904380e-03 0.0
-1.369969e-02 1.881356e-03 0.0
-1.448384e-02 1.850747e-03 0.0
-1.525199e-02 1.812857e-03 0.0
-1.600113e-02 1.767987e-03 0.0
-1.672834e-02 1.716430e-03 0.0
-1.743077e-02 1.658448e-03 0.0
-1.810567e-02 1.594239e-03 0.0
-1.875043e-02 1.523936e-03 0.0
-1.936253e-02 1.447619e-03 0.0
-1.993952e-02 1.365348e-03 0.0
-2.047901e-02 1.277207e-03 0.0
-2.097868e-02 1.183329e-03 0.0
-2.143622e-02 1.083902e-03 0.0
-2.184942e-02 9.791673e-04 0.0
-2.221618e-02 8.694032e-04 0.0
-2.253452e-02 7.549147e-04 0.0
-2.280264e-02 6.360332e-04 0.0
-2.301891e-02 5.131239e-04 0.0
-2.318187e-02 3.866020e-04 0.0
-2.329031e-02 2.569493e-04 0.0
-2.334322e-02 1.247321e-04 0.0
-2.333986e-02 -9.383731e-06 0.0
-2.327978e-02 -1.446174e-04 0.0
-2.316287e-02 -2.801536e-04 0.0
-2.298931e-02 -4.152171e-04 0.0
-2.275960e-02 -5.490632e-04 0.0
-2.247454e-02 -6.809708e-04 0.0
-2.213525e-02 -8.102346e-04 0.0
-2.174312e-02 -9.361599e-04 0.0
-2.129986e-02 -1.058058e-03 0.0
-2.080743e-02 -1.175245e-03 0.0
-2.026806e-02 -1.287046e-03 0.0
-1.968426e-02 -1.392802e-03 0.0
-1.905879e-02 -1.491875e-03 0.0
-1.839464e-02 -1.583663e-03 0.0
-1.769507e-02 -1.667607e-03 0.0
-1.696353e-02 -1.743193e-03 0.0
-1.620369e-02 -1.809957e-03 0.0
-1.541939e-02 -1.867484e-03 0.0
-1.461462e-02 -1.915411e-03 0.0
-1.379350e-02 -1.953423e-03 0.0
-1.296027e-02 -1.981260e-03 0.0
-1.211923e-02 -1.998717e-03 0.0
-1.127474e-02 -2.005653e-03 0.0
-1.043119e-02 -2.001995e-03 0.0
-9.592980e-03 -1.987745e-03 0.0
-8.764470e-03 -1.962965e-03 0.0
-7.949979e-03 -1.927785e-03 0.0
-7.153744e-03 -1.882403e-03 0.0
-6.379896e-03 -1.827084e-03 0.0
-5.632428e-03 -1.762159e-03 0.0
-4.915170e-03 -1.688025e-03 0.0
-4.231754e-03 -1.605148e-03 0.0
-3.585591e-03 -1.514063e-03 0.0
-2.979832e-03 -1.415375e-03 0.0
-2.417345e-03 -1.309766e-03 0.0
-1.900670e-03 -1.197996e-03 0.0
-1.431995e-03 -1.080915e-03 0.0
-1.013103e-03 -9.594671e-04 0.0
-6.453371e-04 -8.347035e-04 0.0
-3.295457e-04 -7.077977e-04 0.0
-6.602592e-05 -5.800645e-04 0.0
1.455394e-04 -4.529859e-04 0.0
3.061553e-04 -3.282427e-04 0.0
4.176108e-04 -2.077629e-04 0.0
4.825724e-04 -9.375871e-05 0.0
5.046983e-04 1.120378e-05 0.0
4.887628e-04 1.041360e-04 0.0
4.407820e-04 1.815574e-04 0.0
3.681332e-04 2.394359e-04 0.0
2.796444e-04 2.731887e-04 0.0
1.856438e-04 2.778204e-04 0.0
9.801578e-05 2.483346e-04 0.0
3.050242e-05 1.806084e-04 0.0
0.000000e+00 7.284172e-05 0.0
0.000000e+00 -7.281958e-05 0.0
0.000000e+00 4.319060e-05 0.0
-3.425841e-07 -4.484520e-05 0.0
-4.628247e-05 -3.183411e-05 0.0
-1.349427e-04 7.647384e-05 0.0
-2.787028e-04 2.522907e-04 0.0
-4.885346e-04 4.709782e-04 0.0
-7.730289e-04 7.123107e-04 0.0
-1.137131e-03 9.606760e-04 0.0
-1.581677e-03 1.205222e-03 0.0
-2.103978e-03 1.439250e-03 0.0
-2.699066e-03 1.659059e-03 0.0
-3.360978e-03 1.862708e-03 0.0
-4.083617e-03 2.049113e-03 0.0
-4.861070e-03 2.217590e-03 0.0
-5.687569e-03 2.367746e-03 0.0
-6.557362e-03 2.499496e-03 0.0
-7.464669e-03 2.613045e-03 0.0
-8.403729e-03 2.708808e-03 0.0
-9.368900e-03 2.787316e-03 0.0
-1.035471e-02 2.849169e-03 0.0
-1.135588e-02 2.895018e-03 0.0
-1.236730e-02 2.925568e-03 0.0
-1.338403e-02 2.941563e-03 0.0
-1.440135e-02 2.943730e-03 0.0
-1.541472e-02 2.932741e-03 0.0
-1.641986e-02 2.909198e-03 0.0
-1.741265e-02 2.873642e-03 0.0
-1.838910e-02 2.826575e-03 0.0
-1.934537e-02 2.768480e-03 0.0
-2.027769e-02 2.699809e-03 0.0
-2.118242e-02 2.620954e-03 0.0
-2.205608e-02 2.532231e-03 0.0
-2.289532e-02 2.433871e-03 0.0
-2.369693e-02 2.326049e-03 0.0
-2.445781e-02 2.208922e-03 0.0
-2.517489e-02 2.082670e-03 0.0
-2.584520e-02 1.947524e-03 0.0
-2.646583e-02 1.803771e-03 0.0
-2.703394e-02 1.651744e-03 0.0
-2.754686e-02 1.491815e-03 0.0
-2.800204e-02 1.324387e-03 0.0
-2.839712e-02 1.149898e-03 0.0
-2.872997e-02 9.688391e-04 0.0
-2.899862e-02 7.817684e-04 0.0
-2.920137e-02 5.893345e-04 0.0
-2.933676e-02 3.922907e-04 0.0
-2.940359e-02 1.915072e-04 0.0
-2.940101e-02 -1.201930e-05 0.0
-2.932850e-02 -2.171550e-04 0.0
-2.918592e-02 -4.227181e-04 0.0
-2.897352e-02 -6.275713e-04 0.0
-2.869191e-02 -8.306110e-04 0.0
-2.834208e-02 -1.030756e-03 0.0
-2.792538e-02 -1.226936e-03 0.0
-2.744351e-02 -1.418093e-03 0.0
-2.689852e-02 -1.603170e-03 0.0
-2.629278e-02 -1.781129e-03 0.0
-2.562903e-02 -1.950947e-03 0.0
-2.491030e-02 -2.111641e-03 0.0
-2.413996e-02 -2.262268e-03 0.0
-2.332167e-02 -2.401940e-03 0.0
-2.245938e-02 -2.529832e-03 0.0
-2.155732e-02 -2.645178e-03 0.0
-2.061994e-02 -2.747278e-03 0.0
-1.965190e-02 -2.835499e-03 0.0
-1.865806e-02 -2.909278e-03 0.0
-1.764343e-02 -2.968129e-03 0.0
-1.661316e-02 -3.011646e-03 0.0
-1.557248e-02 -3.039518e-03 0.0
-1.452672e-02 -3.051531e-03 0.0
-1.348122e-02 -3.047579e-03 0.0
-1.244136e-02 -3.027663e-03 0.0
-1.141246e-02 -2.991885e-03 0.0
-1.039980e-02 -2.940443e-03 0.0
-9.408557e-03 -2.873632e-03 0.0
-8.443776e-03 -2.791849e-03 0.0
-7.510338e-03 -2.695589e-03 0.0
-6.612920e-03 -2.585447e-03 0.0
-5.755963e-03 -2.462124e-03 0.0
-4.943633e-03 -2.326426e-03 0.0
-4.179782e-03 -2.179268e-03 0.0
-3.467910e-03 -2.021685e-03 0.0
-2.811124e-03 -1.854833e-03 0.0
-2.212088e-03 -1.680002e-03 0.0
-1.672981e-03 -1.498624e-03 0.0
-1.195439e-03 -1.312294e-03 0.0
-7.804957e-04 -1.122786e-03 0.0
-4.285232e-04 -9.320799e-04 0.0
-1.391553e-04 -7.423941e-04 0.0
8.879200e-05 -5.562276e-04 0.0
2.574030e-04 -3.764090e-04 0.0
3.697735e-04 -2.061622e-04 0.0
4.301102e-04 -4.916428e-05 0.0
4.438397e-04 9.037599e-05 0.0
4.177171e-04 2.076497e-04 0.0
3.599218e-04 2.972008e-04 0.0
2.801495e-04 3.529302e-04 0.0
1.897221e-04 3.682158e-04 0.0
1.018175e-04 3.362067e-04 0.0
3.206499e-05 2.503282e-04 0.0
0.000000e+00 1.048741e-04 0.0
0.000000e+00 -1.048412e-04 0.0
0.000000e+00 2.161112e-05 0.0
-2.690609e-05 -4.060692e-05 0.0
-1.027725e-04 2.964520e-05 0.0
-2.368603e-04 2.105325e-04 0.0
-4.419509e-04 4.684596e-04 0.0
-7.290210e-04 7.733600e-04 0.0
-1.105491e-03 1.101752e-03 0.0
-1.574301e-03 1.436481e-03 0.0
-2.134222e-03 1.765971e-03 0.0
-2.781061e-03 2.082844e-03 0.0
-3.509074e-03 2.382416e-03 0.0
-4.312015e-03 2.661556e-03 0.0
-5.183607e-03 2.918065e-03 0.0
-6.117595e-03 3.150450e-03 0.0
-7.107639e-03 3.357860e-03 0.0
-8.147257e-03 3.540012e-03 0.0
-9.229885e-03 3.697063e-03 0.0
-1.034897e-02 3.829462e-03 0.0
-1.149806e-02 3.937860e-03 0.0
-1.267084e-02 4.023062e-03 0.0
-1.386113e-02 4.086000e-03 0.0
-1.506295e-02 4.127684e-03 0.0
-1.627052e-02 4.149135e-03 0.0
-1.747831e-02 4.151319e-03 0.0
-1.868107e-02 4.135114e-03 0.0
-1.987372e-02 4.101325e-03 0.0
-2.105140e-02 4.050708e-03 0.0
-2.220939e-02 3.983975e-03 0.0
-2.334311e-02 3.901786e-03 0.0
-2.444813e-02 3.804720e-03 0.0
-2.552023e-02 3.693255e-03 0.0
-2.655533e-02 3.567769e-03 0.0
-2.754952e-02 3.428573e-03 0.0
-2.849901e-02 3.275955e-03 0.0
-2.940011e-02 3.110222e-03 0.0
-3.024920e-02 2.931724e-03 0.0
-3.104273e-02 2.740860e-03 0.0
-3.177730e-02 2.538070e-03 0.0
-3.244963e-02 2.323826e-03 0.0
-3.305662e-02 2.098633e-03 0.0
-3.359536e-02 1.863043e-03 0.0
-3.406316e-02 1.617669e-03 0.0
-3.445755e-02 1.363215e-03 0.0
-3.477630e-02 1.100491e-03 0.0
-3.501746e-02 8.304336e-04 0.0
-3.517934e-02 5.541134e-04 0.0
-3.526063e-02 2.727425e-04 0.0
-3.526033e-02 -1.231836e-05 0.0
-3.517790e-02 -2.995506e-04 0.0
-3.501318e-02 -5.873635e-04 0.0
-3.476647e-02 -8.742067e-04 0.0
-3.443848e-02 -1.158557e-03 0.0
-3.403035e-02 -1.438905e-03 0.0
-3.354363e-02 -1.713751e-03 0.0
-3.298027e-02 -1.981603e-03 0.0
-3.234262e-02 -2.240987e-03 0.0
-3.163345e-02 -2.490455e-03 0.0
-3.085590e-02 -2.728601e-03 0.0
-3.001349e-02 -2.954072e-03 0.0
-2.911014e-02 -3.165581e-03 0.0
-2.815009e-02 -3.361909e-03 0.0
-2.713792e-02 -3.541912e-03 0.0
-2.607852e-02 -3.704524e-03 0.0
-2.497702e-02 -3.848761e-03 0.0
-2.383884e-02 -3.973726e-03 0.0
-2.266960e-02 -4.078624e-03 0.0
-2.147508e-02 -4.162767e-03 0.0
-2.026126e-02 -4.225591e-03 0.0
-1.903423e-02 -4.266662e-03 0.0
-1.780015e-02 -4.285683e-03 0.0
-1.656526e-02 -4.282507e-03 0.0
-1.533580e-02 -4.257136e-03 0.0
-1.411796e-02 -4.209705e-03 0.0
-1.291790e-02 -4.140485e-03 0.0
-1.174164e-02 -4.049880e-03 0.0
-1.059505e-02 -3.938433e-03 0.0
-9.483828e-03 -3.806826e-03 0.0
-8.413421e-03 -3.655884e-03 0.0
-7.389011e-03 -3.486576e-03 0.0
-6.415460e-03 -3.300027e-03 0.0
-5.497269e-03 -3.097514e-03 0.0
-4.638527e-03 -2.880482e-03 0.0
-3.842868e-03 -2.650546e-03 0.0
-3.113413e-03 -2.409507e-03 0.0
-2.452719e-03 -2.159366e-03 0.0
-1.862717e-03 -1.902341e-03 0.0
-1.344649e-03 -1.640895e-03 0.0
-8.989967e-04 -1.377769e-03 0.0
-5.254104e-04 -1.116014e-03 0.0
-2.226238e-04 -8.590452e-04 0.0
1.163181e-05 -6.106936e-04 0.0
1.807158e-04 -3.752740e-04 0.0
2.891800e-04 -1.576557e-04 0.0
3.428653e-04 3.666299e-05 0.0
3.489960e-04 2.014905e-04 0.0
3.162702e-04 3.298972e-04 0.0
2.549676e-04 4.142023e-04 0.0
1.771153e-04 4.460363e-04 0.0
9.680886e-05 4.164810e-04 0.0
3.085838e-05 3.162466e-04 0.0
0.000000e+00 1.357005e-04 0.0
0.000000e+00 -1.356569e-04 0.0
0.000000e+00 -8.173272e-06 0.0
-4.990338e-05 -1.889953e-05 0.0
-1.561826e-04 1.328293e-04 0.0
-3.405503e-04 4.042293e-04 0.0
-6.144579e-04 7.572184e-04 0.0
-9.866794e-04 1.158850e-03 0.0
-1.461755e-03 1.584229e-03 0.0
-2.039872e-03 2.015488e-03 0.0
-2.717836e-03 2.440274e-03 0.0
-3.490441e-03 2.850028e-03 0.0
-4.351608e-03 3.238624e-03 0.0
-5.294972e-03 3.601542e-03 0.0
-6.314027e-03 3.935510e-03 0.0
-7.402064e-03 4.238350e-03 0.0
-8.552135e-03 4.508829e-03 0.0
-9.757090e-03 4.746471e-03 0.0
-1.100968e-02 4.951355e-03 0.0
-1.230266e-02 5.123976e-03 0.0
-1.362882e-02 5.265143e-03 0.0
-1.498104e-02 5.375920e-03 0.0
-1.635238e-02 5.457531e-03 0.0
-1.773606e-02 5.511268e-03 0.0
-1.912563e-02 5.538394e-03 0.0
-2.051485e-02 5.540098e-03 0.0
-2.189777e-02 5.517480e-03 0.0
-2.326863e-02 5.471586e-03 0.0
-2.462186e-02 5.403405e-03 0.0
-2.595208e-02 5.313854e-03 0.0
-2.725408e-02 5.203749e-03 0.0
-2.852287e-02 5.073780e-03 0.0
-2.975369e-02 4.924525e-03 0.0
-3.094190e-02 4.756476e-03 0.0
-3.208305e-02 4.570095e-03 0.0
-3.317278e-02 4.365847e-03 0.0
-3.420684e-02 4.144231e-03 0.0
-3.518109e-02 3.905776e-03 0.0
-3.609151e-02 3.651042e-03 0.0
-3.693426e-02 3.380613e-03 0.0
-3.770568e-02 3.095105e-03 0.0
-3.840229e-02 2.795183e-03 0.0
-3.902087e-02 2.481589e-03 0.0
-3.955840e-02 2.155164e-03 0.0
-4.001212e-02 1.816877e-03 0.0
-4.037954e-02 1.467837e-03 0.0
-4.065847e-02 1.109302e-03 0.0
-4.084708e-02 7.426870e-04 0.0
-4.094388e-02 3.695715e-04 0.0
-4.094783e-02 -8.294972e-06 0.0
-4.085831e-02 -3.889768e-04 0.0
-4.067516e-02 -7.704278e-04 0.0
-4.039870e-02 -1.150629e-03 0.0
-4.002973e-02 -1.527574e-03 0.0
-3.956950e-02 -1.899267e-03 0.0
-3.901971e-02 -2.263721e-03 0.0
-3.838254e-02 -2.618965e-03 0.0
-3.766061e-02 -2.963066e-03 0.0
-3.685702e-02 -3.294133e-03 0.0
-3.597528e-02 -3.610338e-03 0.0
-3.501936e-02 -3.909924e-03 0.0
-3.399363e-02 -4.191209e-03 0.0
-3.290285e-02 -4.452593e-03 0.0
-3.175215e-02 -4.692563e-03 0.0
-3.054698e-02 -4.909702e-03 0.0
-2.929311e-02 -5.102697e-03 0.0
-2.799660e-02 -5.270358e-03 0.0
-2.666373e-02 -5.411626e-03 0.0
-2.530102e-02 -5.525597e-03 0.0
-2.391519e-02 -5.611526e-03 0.0
-2.251307e-02 -5.668842e-03 0.0
-2.110162e-02 -5.697157e-03 0.0
-1.968785e-02 -5.696265e-03 0.0
-1.827881e-02 -5.666159e-03 0.0
-1.688149e-02 -5.607007e-03 0.0
-1.550282e-02 -5.519149e-03 0.0
-1.414960e-02 -5.403107e-03 0.0
-1.282847e-02 -5.259582e-03 0.0
-1.154587e-02 -5.089464e-03 0.0
-1.030798e-02 -4.893832e-03 0.0
-9.120648e-03 -4.673961e-03 0.0
-7.989404e-03 -4.431329e-03 0.0
-6.919354e-03 -4.167621e-03 0.0
-5.915152e-03 -3.884738e-03 0.0
-4.980936e-03 -3.584812e-03 0.0
-4.120275e-03 -3.270213e-03 0.0
-3.336107e-03 -2.943574e-03 0.0
-2.630675e-03 -2.607809e-03 0.0
-2.005458e-03 -2.266145e-03 0.0
-1.461101e-03 -1.922155e-03 0.0
-9.973395e-04 -1.579802e-03 0.0
-6.129172e-04 -1.243492e-03 0.0
-3.055049e-04 -9.181303e-04 0.0
-7.161445e-05 -6.091893e-04 0.0
9.348758e-05 -3.227837e-04 0.0
1.958639e-04 -6.574085e-05 0.0
2.430033e-04 1.543221e-04 0.0
2.439134e-04 3.289567e-04 0.0
2.092369e-04 4.488478e-04 0.0
1.514417e-04 5.037993e-04 0.0
8.515108e-05 4.827395e-04 0.0
2.770015e-05 3.736657e-04 0.0
0.000000e+00 1.633690e-04 0.0
0.000000e+00 -1.633156e-04 0.0
0.000000e+00 -4.778699e-05 0.0
-6.636032e-05 2.324166e-05 0.0
-2.051398e-04 2.788421e-04 0.0
-4.447358e-04 6.576869e-04 0.0
-7.933396e-04 1.118961e-03 0.0
-1.255872e-03 1.629007e-03 0.0
-1.833237e-03 2.162596e-03 0.0
-2.522949e-03 2.701298e-03 0.0
-3.320314e-03 3.231626e-03 0.0
-4.219514e-03 3.743490e-03 0.0
-5.214236e-03 4.229197e-03 0.0
-6.297865e-03 4.682949e-03 0.0
-7.463469e-03 5.100590e-03 0.0
-8.703779e-03 5.479379e-03 0.0
-1.001123e-02 5.817741e-03 0.0
-1.137806e-02 6.115007e-03 0.0
-1.279639e-02 6.371210e-03 0.0
-1.425829e-02 6.586937e-03 0.0
-1.575584e-02 6.763209e-03 0.0
-1.728121e-02 6.901351e-03 0.0
-1.882677e-02 7.002848e-03 0.0
-2.038513e-02 7.069221e-03 0.0
-2.194921e-02 7.101955e-03 0.0
-2.351216e-02 7.102468e-03 0.0
-2.506739e-02 7.072115e-03 0.0
-2.660849e-02 7.012195e-03 0.0
-2.812929e-02 6.923923e-03 0.0
-2.962382e-02 6.808397e-03 0.0
-3.108635e-02 6.666572e-03 0.0
-3.251139e-02 6.499272e-03 0.0
-3.389364e-02 6.307223e-03 0.0
-3.522795e-02 6.091102e-03 0.0
-3.650931e-02 5.851573e-03 0.0
-3.773284e-02 5.589314e-03 0.0
-3.889380e-02 5.305010e-03 0.0
-3.998758e-02 4.999361e-03 0.0
-4.100977e-02 4.673077e-03 0.0
-4.195615e-02 4.326893e-03 0.0
-4.282270e-02 3.961598e-03 0.0
-4.360562e-02 3.578060e-03 0.0
-4.430135e-02 3.177261e-03 0.0
-4.490659e-02 2.760317e-03 0.0
-4.541830e-02 2.328496e-03 0.0
-4.583376e-02 1.883230e-03 0.0
-4.615058e-02 1.426119e-03 0.0
-4.636678e-02 9.589409e-04 0.0
-4.648076e-02 4.836590e-04 0.0
-4.649137e-02 2.442073e-06 0.0
-4.639794e-02 -4.823184e-04 0.0
-4.620029e-02 -9.680673e-04 0.0
-4.589874e-02 -1.452259e-03 0.0
-4.549413e-02 -1.932354e-03 0.0
-4.498779e-02 -2.405820e-03 0.0
-4.438157e-02 -2.870145e-03 0.0
-4.367783e-02 -3.322853e-03 0.0
-4.287943e-02 -3.761519e-03 0.0
-4.198974e-02 -4.183781e-03 0.0
-4.101263e-02 -4.587349e-03 0.0
-3.995242e-02 -4.970013e-03 0.0
-3.881389e-02 -5.329647e-03 0.0
-3.760223e-02 -5.664214e-03 0.0
-3.632304e-02 -5.971786e-03 0.0
-3.498228e-02 -6.250552e-03 0.0
-3.358627e-02 -6.498840e-03 0.0
-3.214163e-02 -6.715134e-03 0.0
-3.065528e-02 -6.898098e-03 0.0
-2.913438e-02 -7.046584e-03 0.0
-2.758630e-02 -7.159651e-03 0.0
-2.601858e-02 -7.236571e-03 0.0
-2.443888e-02 -7.276842e-03 0.0
-2.285493e-02 -7.280188e-03 0.0
-2.127450e-02 -7.246574e-03 0.0
-1.970532e-02 -7.176192e-03 0.0
-1.815503e-02 -7.069456e-03 0.0
-1.663117e-02 -6.927006e-03 0.0
-1.514108e-02 -6.749717e-03 0.0
-1.369190e-02 -6.538699e-03 0.0
-1.229049e-02 -6.295309e-03 0.0
-1.094335e-02 -6.021154e-03 0.0