# vtk DataFile Version 3.0
Vector Field
ASCII
DATASET RECTILINEAR_GRID
DIMENSIONS 102 102 1
X_COORDINATES 102 double
0.000000 0.100000 0.200000 0.300000 0.400000 0.500000 0.600000 0.700000 0.800000 0.900000 1.000000 1.100000 1.200000 1.300000 1.400000 1.500000 1.600000 1.700000 1.800000 1.900000 2.000000 2.100000 2.200000 2.300000 2.400000 2.500000 2.600000 2.700000 2.800000 2.900000 3.000000 3.100000 3.200000 3.300000 3.400000 3.500000 3.600000 3.700000 3.800000 3.900000 4.000000 4.100000 4.200000 4.300000 4.400000 4.500000 4.600000 4.700000 4.800000 4.900000 5.000000 5.100000 5.200000 5.300000 5.400000 5.500000 5.600000 5.700000 5.800000 5.900000 6.000000 6.100000 6.200000 6.300000 6.400000 6.500000 6.600000 6.700000 6.800000 6.900000 7.000000 7.100000 7.200000 7.300000 7.400000 7.500000 7.600000 7.700000 7.800000 7.900000 8.000000 8.100000 8.200000 8.300000 8.400000 8.500000 8.600000 8.700000 8.800000 8.900000 9.000000 9.100000 9.200000 9.300000 9.400000 9.500000 9.600000 9.700000 9.800000 9.900000 10.000000 10.100000 
Y_COORDINATES 102 double
0.000000 0.100000 0.200000 0.300000 0.400000 0.500000 0.600000 0.700000 0.800000 0.900000 1.000000 1.100000 1.200000 1.300000 1.400000 1.500000 1.600000 1.700000 1.800000 1.900000 2.000000 2.100000 2.200000 2.300000 2.400000 2.500000 2.600000 2.700000 2.800000 2.900000 3.000000 3.100000 3.200000 3.300000 3.400000 3.500000 3.600000 3.700000 3.800000 3.900000 4.000000 4.100000 4.200000 4.300000 4.400000 4.500000 4.600000 4.700000 4.800000 4.900000 5.000000 5.100000 5.200000 5.300000 5.400000 5.500000 5.600000 5.700000 5.800000 5.900000 6.000000 6.100000 6.200000 6.300000 6.400000 6.500000 6.600000 6.700000 6.800000 6.900000 7.000000 7.100000 7.200000 7.300000 7.400000 7.500000 7.600000 7.700000 7.800000 7.900000 8.000000 8.100000 8.200000 8.300000 8.400000 8.500000 8.600000 8.700000 8.800000 8.900000 9.000000 9.100000 9.200000 9.300000 9.400000 9.500000 9.600000 9.700000 9.800000 9.900000 10.000000 10.100000 
Z_COORDINATES 1 double
0.0
POINT_DATA 10404
VECTORS Velocity double
0.000000e+00 0.000000e+00 0.0
-3.095820e-05 0.000000e+00 0.0
-3.796100e-05 0.000000e+00 0.0
-3.195349e-05 0.000000e+00 0.0
-1.574351e-05 0.000000e+00 0.0
6.645610e-06 0.000000e+00 0.0
3.235709e-05 0.000000e+00 0.0
6.077536e-05 0.000000e+00 0.0
9.314649e-05 0.000000e+00 0.0
1.314109e-04 0.000000e+00 0.0
1.770045e-04 0.000000e+00 0.0
2.301616e-04 0.000000e+00 0.0
2.898901e-04 0.000000e+00 0.0
3.544543e-04 0.000000e+00 0.0
4.220330e-04 0.000000e+00 0.0
4.912375e-04 0.000000e+00 0.0
5.613212e-04 0.000000e+00 0.0
6.320861e-04 0.000000e+00 0.0
7.036146e-04 0.000000e+00 0.0
7.759859e-04 0.000000e+00 0.0
8.490912e-04 0.000000e+00 0.0
9.225875e-04 0.000000e+00 0.0
9.959631e-04 0.000000e+00 0.0
1.068653e-03 0.000000e+00 0.0
1.140146e-03 0.000000e+00 0.0
1.210059e-03 0.000000e+00 0.0
1.278150e-03 0.000000e+00 0.0
1.344314e-03 0.000000e+00 0.0
1.408542e-03 0.000000e+00 0.0
1.470884e-03 0.000000e+00 0.0
1.531404e-03 0.000000e+00 0.0
1.590148e-03 0.000000e+00 0.0
1.647113e-03 0.000000e+00 0.0
1.702231e-03 0.000000e+00 0.0
1.755371e-03 0.000000e+00 0.0
1.806352e-03 0.000000e+00 0.0
1.854967e-03 0.000000e+00 0.0
1.901012e-03 0.000000e+00 0.0
1.944303e-03 0.000000e+00 0.0
1.984697e-03 0.000000e+00 0.0
2.022089e-03 0.000000e+00 0.0
2.056414e-03 0.000000e+00 0.0
2.087639e-03 0.000000e+00 0.0
2.115753e-03 0.000000e+00 0.0
2.140758e-03 0.000000e+00 0.0
2.162660e-03 0.000000e+00 0.0
2.181454e-03 0.000000e+00 0.0
2.197121e-03 0.000000e+00 0.0
2.209611e-03 0.000000e+00 0.0
2.218847e-03 0.000000e+00 0.0
2.224728e-03 0.000000e+00 0.0
2.227139e-03 0.000000e+00 0.0
2.225972e-03 0.000000e+00 0.0
2.221145e-03 0.000000e+00 0.0
2.212608e-03 0.000000e+00 0.0
2.200355e-03 0.000000e+00 0.0
2.184411e-03 0.000000e+00 0.0
2.164831e-03 0.000000e+00 0.0
2.141683e-03 0.000000e+00 0.0
2.115032e-03 0.000000e+00 0.0
2.084934e-03 0.000000e+00 0.0
2.051428e-03 0.000000e+00 0.0
2.014537e-03 0.000000e+00 0.0
1.974277e-03 0.000000e+00 0.0
1.930663e-03 0.000000e+00 0.0
1.883724e-03 0.000000e+00 0.0
1.833507e-03 0.000000e+00 0.0
1.780085e-03 0.000000e+00 0.0
1.723559e-03 0.000000e+00 0.0
1.664059e-03 0.000000e+00 0.0
1.601738e-03 0.000000e+00 0.0
1.536768e-03 0.000000e+00 0.0
1.469340e-03 0.000000e+00 0.0
1.399655e-03 0.000000e+00 0.0
1.327928e-03 0.000000e+00 0.0
1.254386e-03 0.000000e+00 0.0
1.179272e-03 0.000000e+00 0.0
1.102849e-03 0.000000e+00 0.0
1.025401e-03 0.000000e+00 0.0
9.472423e-04 0.000000e+00 0.0
8.687178e-04 0.000000e+00 0.0
7.902071e-04 0.000000e+00 0.0
7.121265e-04 0.000000e+00 0.0
6.349295e-04 0.000000e+00 0.0
5.591083e-04 0.000000e+00 0.0
4.851926e-04 0.000000e+00 0.0
4.137499e-04 0.000000e+00 0.0
3.453843e-04 0.000000e+00 0.0
2.807355e-04 0.000000e+00 0.0
2.204762e-04 0.000000e+00 0.0
1.653083e-04 0.000000e+00 0.0
1.159565e-04 0.000000e+00 0.0
7.315499e-05 0.000000e+00 0.0
3.762575e-05 0.000000e+00 0.0
1.003696e-05 0.000000e+00 0.0
-9.069293e-06 0.000000e+00 0.0
-1.941935e-05 0.000000e+00 0.0
-2.127607e-05 0.000000e+00 0.0
-1.595079e-05 0.000000e+00 0.0
-6.715988e-06 0.000000e+00 0.0
-0.000000e+00 0.000000e+00 0.0
0.000000e+00 0.000000e+00 0.0
0.000000e+00 -1.822281e-05 0.0
3.697188e-06 -9.149135e-06 0.0
-1.368239e-06 -2.133816e-05 0.0
-1.622624e-06 -2.122774e-05 0.0
-1.346231e-06 -9.375647e-06 0.0
-5.332278e-06 7.918161e-06 0.0
-1.801812e-05 2.505114e-05 0.0
-4.210329e-05 3.829350e-05 0.0
-7.791464e-05 4.645236e-05 0.0
-1.237400e-04 5.048161e-05 0.0
-1.768296e-04 5.242053e-05 0.0
-2.345162e-04 5.423174e-05 0.0
-2.949812e-04 5.702267e-05 0.0
-3.574637e-04 6.085236e-05 0.0
-4.219933e-04 6.502934e-05 0.0
-4.888978e-04 6.863249e-05 0.0
-5.583538e-04 7.097565e-05 0.0
-6.301459e-04 7.184545e-05 0.0
-7.036648e-04 7.148752e-05 0.0
-7.780689e-04 7.042428e-05 0.0
-8.524952e-04 6.922558e-05 0.0
-9.262280e-04 6.832825e-05 0.0
-9.987832e-04 6.794722e-05 0.0
-1.069912e-03 6.807186e-05 0.0
-1.139556e-03 6.851654e-05 0.0
-1.207774e-03 6.899416e-05 0.0
-1.274676e-03 6.919184e-05 0.0
-1.340359e-03 6.883848e-05 0.0
-1.404860e-03 6.775814e-05 0.0
-1.468125e-03 6.590210e-05 0.0
-1.530000e-03 6.335347e-05 0.0
-1.590243e-03 6.030222e-05 0.0
-1.648564e-03 5.699691e-05 0.0
-1.704670e-03 5.368689e-05 0.0
-1.758300e-03 5.057133e-05 0.0
-1.809258e-03 4.776755e-05 0.0
-1.857418e-03 4.530280e-05 0.0
-1.902719e-03 4.312581e-05 0.0
-1.945150e-03 4.112935e-05 0.0
-1.984729e-03 3.917577e-05 0.0
-2.021488e-03 3.712075e-05 0.0
-2.055456e-03 3.483426e-05 0.0
-2.086645e-03 3.221941e-05 0.0
-2.115037e-03 2.922874e-05 0.0
-2.140574e-03 2.587503e-05 0.0
-2.163153e-03 2.223251e-05 0.0
-2.182631e-03 1.842493e-05 0.0
-2.198844e-03 1.460066e-05 0.0
-2.211626e-03 1.089933e-05 0.0
-2.220838e-03 7.418750e-06 0.0
-2.226390e-03 4.191407e-06 0.0
-2.228249e-03 1.178046e-06 0.0
-2.226438e-03 -1.719455e-06 0.0
-2.221021e-03 -4.627543e-06 0.0
-2.212080e-03 -7.675595e-06 0.0
-2.199685e-03 -1.096034e-05 0.0
-2.183878e-03 -1.452282e-05 0.0
-2.164663e-03 -1.834129e-05 0.0
-2.142011e-03 -2.233979e-05 0.0
-2.115872e-03 -2.640868e-05 0.0
-2.086192e-03 -3.043062e-05 0.0
-2.052932e-03 -3.430539e-05 0.0
-2.016083e-03 -3.796762e-05 0.0
-1.975672e-03 -4.139452e-05 0.0
-1.931764e-03 -4.460322e-05 0.0
-1.884459e-03 -4.763984e-05 0.0
-1.833878e-03 -5.056384e-05 0.0
-1.780160e-03 -5.343180e-05 0.0
-1.723448e-03 -5.628388e-05 0.0
-1.663884e-03 -5.913551e-05 0.0
-1.601611e-03 -6.197493e-05 0.0
-1.536772e-03 -6.476618e-05 0.0
-1.469514e-03 -6.745616e-05 0.0
-1.399998e-03 -6.998366e-05 0.0
-1.328401e-03 -7.228815e-05 0.0
-1.254930e-03 -7.431677e-05 0.0
-1.179817e-03 -7.602840e-05 0.0
-1.103330e-03 -7.739474e-05 0.0
-1.025770e-03 -7.839861e-05 0.0
-9.474720e-04 -7.903036e-05 0.0
-8.688045e-04 -7.928316e-05 0.0
-7.901669e-04 -7.914844e-05 0.0
-7.119889e-04 -7.861230e-05 0.0
-6.347311e-04 -7.765281e-05 0.0
-5.588852e-04 -7.623954e-05 0.0
-4.849760e-04 -7.433466e-05 0.0
-4.135624e-04 -7.189483e-05 0.0
-3.452388e-04 -6.887361e-05 0.0
-2.806358e-04 -6.522449e-05 0.0
-2.204193e-04 -6.090399e-05 0.0
-1.652871e-04 -5.587479e-05 0.0
-1.159618e-04 -5.010951e-05 0.0
-7.317746e-05 -4.359612e-05 0.0
-3.765768e-05 -3.634811e-05 0.0
-1.007264e-05 -2.842073e-05 0.0
9.034268e-06 -1.994481e-05 0.0
1.938785e-05 -1.119186e-05 0.0
2.125011e-05 -2.701190e-06 0.0
1.593209e-05 4.476033e-06 0.0
6.701787e-06 8.386694e-06 0.0
0.000000e+00 5.857477e-06 0.0
0.000000e+00 -5.761885e-06 0.0
0.000000e+00 -8.337285e-06 0.0
-4.417483e-06 -3.109417e-05 0.0
-7.870950e-07 -3.048287e-05 0.0
-4.167346e-06 -9.719659e-06 0.0
-2.278442e-05 2.404796e-05 0.0
-6.228216e-05 6.122050e-05 0.0
-1.253687e-04 9.580363e-05 0.0
-2.120150e-04 1.252364e-04 0.0
-3.201597e-04 1.496063e-04 0.0
-4.467242e-04 1.703759e-04 0.0
-5.885748e-04 1.891364e-04 0.0
-7.431387e-04 2.068001e-04 0.0
-9.085733e-04 2.233869e-04 0.0
-1.083587e-03 2.382898e-04 0.0
-1.267107e-03 2.507497e-04 0.0
-1.457999e-03 2.602711e-04 0.0
-1.654925e-03 2.668211e-04 0.0
-1.856369e-03 2.707952e-04 0.0
-2.060758e-03 2.728333e-04 0.0
-2.266606e-03 2.736016e-04 0.0
-2.472617e-03 2.736258e-04 0.0
-2.677734e-03 2.732116e-04 0.0
-2.881135e-03 2.724420e-04 0.0
-3.082204e-03 2.712234e-04 0.0
-3.280478e-03 2.693525e-04 0.0
-3.475595e-03 2.665877e-04 0.0
-3.667240e-03 2.627177e-04 0.0
-3.855094e-03 2.576185e-04 0.0
-4.038798e-03 2.512906e-04 0.0
-4.217939e-03 2.438650e-04 0.0
-4.392059e-03 2.355770e-04 0.0
-4.560679e-03 2.267147e-04 0.0
-4.723332e-03 2.175575e-04 0.0
-4.879602e-03 2.083240e-04 0.0
-5.029131e-03 1.991415e-04 0.0
-5.171630e-03 1.900412e-04 0.0
-5.306869e-03 1.809726e-04 0.0
-5.434663e-03 1.718287e-04 0.0
-5.554856e-03 1.624730e-04 0.0
-5.667312e-03 1.527645e-04 0.0
-5.771896e-03 1.425793e-04 0.0
-5.868467e-03 1.318319e-04 0.0
-5.956862e-03 1.204915e-04 0.0
-6.036887e-03 1.085928e-04 0.0
-6.108315e-03 9.623454e-05 0.0
-6.170894e-03 8.356320e-05 0.0
-6.224362e-03 7.074308e-05 0.0
-6.268469e-03 5.791966e-05 0.0
-6.303003e-03 4.518604e-05 0.0
-6.327798e-03 3.256259e-05 0.0
-6.342748e-03 1.999637e-05 0.0
-6.347795e-03 7.381115e-06 0.0
-6.342919e-03 -5.407544e-06 0.0
-6.328124e-03 -1.847007e-05 0.0
-6.303409e-03 -3.186812e-05 0.0
-6.268765e-03 -4.560167e-05 0.0
-6.224164e-03 -5.960589e-05 0.0
-6.169568e-03 -7.376506e-05 0.0
-6.104943e-03 -8.793737e-05 0.0
-6.030273e-03 -1.019831e-04 0.0
-5.945574e-03 -1.157890e-04 0.0
-5.850906e-03 -1.292829e-04 0.0
-5.746376e-03 -1.424375e-04 0.0
-5.632138e-03 -1.552627e-04 0.0
-5.508390e-03 -1.677910e-04 0.0
-5.375363e-03 -1.800586e-04 0.0
-5.233321e-03 -1.920892e-04 0.0
-5.082549e-03 -2.038809e-04 0.0
-4.923360e-03 -2.154005e-04 0.0
-4.756092e-03 -2.265835e-04 0.0
-4.581114e-03 -2.373404e-04 0.0
-4.398834e-03 -2.475653e-04 0.0
-4.209704e-03 -2.571464e-04 0.0
-4.014231e-03 -2.659741e-04 0.0
-3.812981e-03 -2.739476e-04 0.0
-3.606587e-03 -2.809765e-04 0.0
-3.395749e-03 -2.869804e-04 0.0
-3.181242e-03 -2.918850e-04 0.0
-2.963915e-03 -2.956174e-04 0.0
-2.744693e-03 -2.981007e-04 0.0
-2.524580e-03 -2.992493e-04 0.0
-2.304659e-03 -2.989664e-04 0.0
-2.086096e-03 -2.971426e-04 0.0
-1.870142e-03 -2.936559e-04 0.0
-1.658136e-03 -2.883745e-04 0.0
-1.451507e-03 -2.811607e-04 0.0
-1.251771e-03 -2.718757e-04 0.0
-1.060533e-03 -2.603848e-04 0.0
-8.794756e-04 -2.465635e-04 0.0
-7.103487e-04 -2.303052e-04 0.0
-5.549496e-04 -2.115312e-04 0.0
-4.150894e-04 -1.902053e-04 0.0
-2.925425e-04 -1.663572e-04 0.0
-1.889658e-04 -1.401210e-04 0.0
-1.057721e-04 -1.117975e-04 0.0
-4.393030e-05 -8.196330e-05 0.0
-3.643962e-06 -5.165306e-05 0.0
1.614389e-05 -2.266710e-05 0.0
1.850124e-05 1.937374e-06 0.0
9.550826e-06 1.715360e-05 0.0
0.000000e+00 1.522472e-05 0.0
0.000000e+00 -1.507879e-05 0.0
0.000000e+00 5.482324e-06 0.0
-1.339406e-05 -3.900294e-05 0.0
-1.418777e-05 -2.149852e-05 0.0
-3.411426e-05 2.421829e-05 0.0
-8.248403e-05 8.458340e-05 0.0
-1.640885e-04 1.483768e-04 0.0
-2.797120e-04 2.096641e-04 0.0
-4.273738e-04 2.663500e-04 0.0
-6.037619e-04 3.184640e-04 0.0
-8.054184e-04 3.666465e-04 0.0
-1.029394e-03 4.111990e-04 0.0
-1.273352e-03 4.517958e-04 0.0
-1.535319e-03 4.877005e-04 0.0
-1.813336e-03 5.181906e-04 0.0
-2.105229e-03 5.429178e-04 0.0
-2.408565e-03 5.620515e-04 0.0
-2.720782e-03 5.761995e-04 0.0
-3.039369e-03 5.861995e-04 0.0
-3.362037e-03 5.928929e-04 0.0
-3.686806e-03 5.969634e-04 0.0
-4.012020e-03 5.988662e-04 0.0
-4.336311e-03 5.988300e-04 0.0
-4.658548e-03 5.969039e-04 0.0
-4.977775e-03 5.930222e-04 0.0
-5.293156e-03 5.870733e-04 0.0
-5.603924e-03 5.789671e-04 0.0
-5.909335e-03 5.686931e-04 0.0
-6.208637e-03 5.563571e-04 0.0
-6.501058e-03 5.421864e-04 0.0
-6.785824e-03 5.265002e-04 0.0
-7.062190e-03 5.096540e-04 0.0
-7.329468e-03 4.919771e-04 0.0
-7.587055e-03 4.737212e-04 0.0
-7.834437e-03 4.550353e-04 0.0
-8.071181e-03 4.359648e-04 0.0
-8.296919e-03 4.164712e-04 0.0
-8.511322e-03 3.964600e-04 0.0
-8.714090e-03 3.758087e-04 0.0
-8.904935e-03 3.543925e-04 0.0
-9.083571e-03 3.321073e-04 0.0
-9.249700e-03 3.088912e-04 0.0
-9.403004e-03 2.847417e-04 0.0
-9.543139e-03 2.597248e-04 0.0
-9.669737e-03 2.339694e-04 0.0
-9.782418e-03 2.076465e-04 0.0
-9.880811e-03 1.809339e-04 0.0
-9.964580e-03 1.539784e-04 0.0
-1.003344e-02 1.268634e-04 0.0
-1.008717e-02 9.959465e-05 0.0
-1.012562e-02 7.210770e-05 0.0
-1.014865e-02 4.429551e-05 0.0
-1.015619e-02 1.604847e-05 0.0
-1.014815e-02 -1.270387e-05 0.0
-1.012444e-02 -4.196065e-05 0.0
-1.008499e-02 -7.165932e-05 0.0
-1.002968e-02 -1.016773e-04 0.0
-9.958441e-03 -1.318508e-04 0.0
-9.871209e-03 -1.620023e-04 0.0
-9.767971e-03 -1.919691e-04 0.0
-9.648769e-03 -2.216237e-04 0.0
-9.513706e-03 -2.508846e-04 0.0
-9.362944e-03 -2.797128e-04 0.0
-9.196702e-03 -3.080991e-04 0.0
-9.015246e-03 -3.360460e-04 0.0
-8.818884e-03 -3.635472e-04 0.0
-8.607959e-03 -3.905717e-04 0.0
-8.382851e-03 -4.170544e-04 0.0
-8.143978e-03 -4.428927e-04 0.0
-7.891805e-03 -4.679513e-04 0.0
-7.626854e-03 -4.920706e-04 0.0
-7.349708e-03 -5.150774e-04 0.0
-7.061028e-03 -5.367947e-04 0.0
-6.761554e-03 -5.570489e-04 0.0
-6.452118e-03 -5.756738e-04 0.0
-6.133645e-03 -5.925099e-04 0.0
-5.807156e-03 -6.074008e-04 0.0
-5.473776e-03 -6.201882e-04 0.0
-5.134732e-03 -6.307052e-04 0.0
-4.791361e-03 -6.387714e-04 0.0
-4.445110e-03 -6.441888e-04 0.0
-4.097543e-03 -6.467402e-04 0.0
-3.750344e-03 -6.461900e-04 0.0
-3.405321e-03 -6.422868e-04 0.0
-3.064414e-03 -6.347666e-04 0.0
-2.729690e-03 -6.233590e-04 0.0
-2.403348e-03 -6.077938e-04 0.0
-2.087711e-03 -5.878095e-04 0.0
-1.785217e-03 -5.631617e-04 0.0
-1.498401e-03 -5.336358e-04 0.0
-1.229868e-03 -4.990618e-04 0.0
-9.822562e-04 -4.593367e-04 0.0
-7.581714e-04 -4.144574e-04 0.0
-5.601070e-04 -3.645715e-04 0.0
-3.903140e-04 -3.100543e-04 0.0
-2.506203e-04 -2.516297e-04 0.0
-1.421661e-04 -1.905604e-04 0.0
-6.502749e-05 -1.289411e-04 0.0
-1.770605e-05 -7.014765e-05 0.0
3.558753e-06 -1.949244e-05 0.0
5.667675e-06 1.487738e-05 0.0
0.000000e+00 2.072566e-05 0.0
0.000000e+00 -2.051982e-05 0.0
0.000000e+00 1.425670e-05 0.0
-1.669076e-05 -3.106420e-05 0.0
-3.209444e-05 8.771464e-06 0.0
-7.951449e-05 8.378526e-05 0.0
-1.662516e-04 1.759659e-04 0.0
-2.947058e-04 2.736451e-04 0.0
-4.637297e-04 3.707155e-04 0.0
-6.703651e-04 4.644428e-04 0.0
-9.112721e-04 5.535435e-04 0.0
-1.183505e-03 6.369902e-04 0.0
-1.484618e-03 7.135787e-04 0.0
-1.812360e-03 7.820506e-04 0.0
-2.164272e-03 8.414435e-04 0.0
-2.537462e-03 8.913774e-04 0.0
-2.928628e-03 9.321256e-04 0.0
-3.334267e-03 9.644732e-04 0.0
-3.750951e-03 9.894624e-04 0.0
-4.175552e-03 1.008143e-03 0.0
-4.605345e-03 1.021400e-03 0.0
-5.038018e-03 1.029889e-03 0.0
-5.471616e-03 1.034036e-03 0.0
-5.904462e-03 1.034085e-03 0.0
-6.335085e-03 1.030162e-03 0.0
-6.762154e-03 1.022342e-03 0.0
-7.184426e-03 1.010718e-03 0.0
-7.600700e-03 9.954534e-04 0.0
-8.009790e-03 9.768187e-04 0.0
-8.410524e-03 9.551932e-04 0.0
-8.801768e-03 9.310279e-04 0.0
-9.182462e-03 9.047856e-04 0.0
-9.551656e-03 8.768770e-04 0.0
-9.908530e-03 8.476127e-04 0.0
-1.025239e-02 8.171831e-04 0.0
-1.058264e-02 7.856661e-04 0.0
-1.089877e-02 7.530518e-04 0.0
-1.120031e-02 7.192739e-04 0.0
-1.148681e-02 6.842394e-04 0.0
-1.175784e-02 6.478551e-04 0.0
-1.201296e-02 6.100513e-04 0.0
-1.225172e-02 5.708040e-04 0.0
-1.247365e-02 5.301521e-04 0.0
-1.267825e-02 4.882035e-04 0.0
-1.286501e-02 4.451249e-04 0.0
-1.303343e-02 4.011144e-04 0.0
-1.318303e-02 3.563631e-04 0.0
-1.331338e-02 3.110149e-04 0.0
-1.342413e-02 2.651396e-04 0.0
-1.351500e-02 2.187260e-04 0.0
-1.358579e-02 1.716997e-04 0.0
-1.363631e-02 1.239588e-04 0.0
-1.366639e-02 7.541878e-05 0.0
-1.367589e-02 2.605198e-05 0.0
-1.366461e-02 -2.408584e-05 0.0
-1.363238e-02 -7.485082e-05 0.0
-1.357901e-02 -1.260496e-04 0.0
-1.350436e-02 -1.774630e-04 0.0
-1.340832e-02 -2.288751e-04 0.0
-1.329086e-02 -2.800994e-04 0.0
-1.315203e-02 -3.309942e-04 0.0
-1.299194e-02 -3.814653e-04 0.0
-1.281079e-02 -4.314558e-04 0.0
-1.260883e-02 -4.809278e-04 0.0
-1.238636e-02 -5.298401e-04 0.0
-1.214373e-02 -5.781285e-04 0.0
-1.188132e-02 -6.256915e-04 0.0
-1.159957e-02 -6.723850e-04 0.0
-1.129895e-02 -7.180239e-04 0.0
-1.098000e-02 -7.623907e-04 0.0
-1.064334e-02 -8.052467e-04 0.0
-1.028968e-02 -8.463434e-04 0.0
-9.919801e-03 -8.854310e-04 0.0
-9.534623e-03 -9.222634e-04 0.0
-9.135157e-03 -9.565986e-04 0.0
-8.722534e-03 -9.881949e-04 0.0
-8.298004e-03 -1.016804e-03 0.0
-7.862936e-03 -1.042166e-03 0.0
-7.418826e-03 -1.063998e-03 0.0
-6.967299e-03 -1.081993e-03 0.0
-6.510117e-03 -1.095818e-03 0.0
-6.049184e-03 -1.105110e-03 0.0
-5.586551e-03 -1.109481e-03 0.0
-5.124427e-03 -1.108523e-03 0.0
-4.665179e-03 -1.101814e-03 0.0
-4.211337e-03 -1.088923e-03 0.0
-3.765593e-03 -1.069420e-03 0.0
-3.330795e-03 -1.042887e-03 0.0
-2.909934e-03 -1.008927e-03 0.0
-2.506128e-03 -9.671782e-04 0.0
-2.122592e-03 -9.173380e-04 0.0
-1.762599e-03 -8.591861e-04 0.0
-1.429419e-03 -7.926242e-04 0.0
-1.126239e-03 -7.177315e-04 0.0
-8.560585e-04 -6.348463e-04 0.0
-6.215294e-04 -5.446843e-04 0.0
-4.247581e-04 -4.485146e-04 0.0
-2.670294e-04 -3.484172e-04 0.0
-1.484545e-04 -2.476565e-04 0.0
-6.753912e-05 -1.512158e-04 0.0
-2.065491e-05 -6.653452e-05 0.0
-1.438142e-06 -4.497176e-06 0.0
0.000000e+00 1.913161e-05 0.0
0.000000e+00 -1.887275e-05 0.0
0.000000e+00 1.176782e-05 0.0
-1.667778e-05 -1.002417e-05 0.0
-5.398446e-05 5.983309e-05 0.0
-1.352533e-04 1.704804e-04 0.0
-2.641942e-04 3.016321e-04 0.0
-4.405978e-04 4.414509e-04 0.0
-6.620748e-04 5.829437e-04 0.0
-9.256330e-04 7.217378e-04 0.0
-1.228564e-03 8.545454e-04 0.0
-1.568585e-03 9.785375e-04 0.0
-1.943484e-03 1.091342e-03 0.0
-2.350660e-03 1.191303e-03 0.0
-2.786856e-03 1.277672e-03 0.0
-3.248191e-03 1.350600e-03 0.0
-3.730435e-03 1.410907e-03 0.0
-4.229364e-03 1.459762e-03 0.0
-4.741055e-03 1.498393e-03 0.0
-5.262040e-03 1.527886e-03 0.0
-5.789332e-03 1.549109e-03 0.0
-6.320362e-03 1.562714e-03 0.0
-6.852892e-03 1.569176e-03 0.0
-7.384918e-03 1.568858e-03 0.0
-7.914604e-03 1.562073e-03 0.0
-8.440212e-03 1.549150e-03 0.0
-8.960063e-03 1.530485e-03 0.0
-9.472511e-03 1.506575e-03 0.0
-9.975950e-03 1.478008e-03 0.0
-1.046885e-02 1.445422e-03 0.0
-1.094980e-02 1.409435e-03 0.0
-1.141755e-02 1.370580e-03 0.0
-1.187102e-02 1.329263e-03 0.0
-1.230931e-02 1.285747e-03 0.0
-1.273165e-02 1.240169e-03 0.0
-1.313735e-02 1.192570e-03 0.0
-1.352580e-02 1.142934e-03 0.0
-1.389641e-02 1.091216e-03 0.0
-1.424858e-02 1.037372e-03 0.0
-1.458173e-02 9.813842e-04 0.0
-1.489526e-02 9.232835e-04 0.0
-1.518854e-02 8.631647e-04 0.0
-1.546094e-02 8.011898e-04 0.0
-1.571178e-02 7.375716e-04 0.0
-1.594045e-02 6.725401e-04 0.0
-1.614636e-02 6.062998e-04 0.0
-1.632899e-02 5.389903e-04 0.0
-1.648792e-02 4.706658e-04 0.0
-1.662282e-02 4.012982e-04 0.0
-1.673342e-02 3.308057e-04 0.0
-1.681947e-02 2.590980e-04 0.0
-1.688073e-02 1.861238e-04 0.0
-1.691697e-02 1.119078e-04 0.0
-1.692790e-02 3.656866e-05 0.0
-1.691323e-02 -3.968514e-05 0.0
-1.687272e-02 -1.165809e-04 0.0
-1.680612e-02 -1.938389e-04 0.0
-1.671329e-02 -2.712027e-04 0.0
-1.659415e-02 -3.484607e-04 0.0
-1.644873e-02 -4.254547e-04 0.0
-1.627716e-02 -5.020738e-04 0.0
-1.607961e-02 -5.782367e-04 0.0
-1.585635e-02 -6.538669e-04 0.0
-1.560769e-02 -7.288688e-04 0.0
-1.533399e-02 -8.031082e-04 0.0
-1.503563e-02 -8.764020e-04 0.0
-1.471307e-02 -9.485176e-04 0.0
-1.436680e-02 -1.019180e-03 0.0
-1.399741e-02 -1.088085e-03 0.0
-1.360557e-02 -1.154910e-03 0.0
-1.319204e-02 -1.219330e-03 0.0
-1.275772e-02 -1.281018e-03 0.0
-1.230361e-02 -1.339652e-03 0.0
-1.183086e-02 -1.394907e-03 0.0
-1.134072e-02 -1.446452e-03 0.0
-1.083460e-02 -1.493936e-03 0.0
-1.031404e-02 -1.536983e-03 0.0
-9.780692e-03 -1.575184e-03 0.0
-9.236387e-03 -1.608091e-03 0.0
-8.683094e-03 -1.635220e-03 0.0
-8.122945e-03 -1.656048e-03 0.0
-7.558240e-03 -1.670019e-03 0.0
-6.991461e-03 -1.676553e-03 0.0
-6.425271e-03 -1.675051e-03 0.0
-5.862521e-03 -1.664905e-03 0.0
-5.306247e-03 -1.645507e-03 0.0
-4.759671e-03 -1.616257e-03 0.0
-4.226180e-03 -1.576577e-03 0.0
-3.709317e-03 -1.525929e-03 0.0
-3.212748e-03 -1.463838e-03 0.0
-2.740227e-03 -1.389917e-03 0.0
-2.295542e-03 -1.303912e-03 0.0
-1.882448e-03 -1.205760e-03 0.0
-1.504571e-03 -1.095663e-03 0.0
-1.165286e-03 -9.742049e-04 0.0
-8.675635e-04 -8.425030e-04 0.0
-6.137668e-04 -7.024296e-04 0.0
-4.054062e-04 -5.569140e-04 0.0
-2.428491e-04 -4.103614e-04 0.0
-1.250020e-04 -2.692200e-04 0.0
-4.896677e-05 -1.427274e-04 0.0
-9.745253e-06 -4.387301e-05 0.0
0.000000e+00 9.235058e-06 0.0
0.000000e+00 -8.939370e-06 0.0
0.000000e+00 -4.995747e-06 0.0
-1.703213e-05 1.969942e-05 0.0
-8.001105e-05 1.302337e-04 0.0
-1.970665e-04 2.855061e-04 0.0
-3.682165e-04 4.646382e-04 0.0
-5.913135e-04 6.552481e-04 0.0
-8.635652e-04 8.487562e-04 0.0
-1.182457e-03 1.038679e-03 0.0
-1.545910e-03 1.219749e-03 0.0
-1.951892e-03 1.387780e-03 0.0
-2.397885e-03 1.539826e-03 0.0
-2.880550e-03 1.674298e-03 0.0
-3.395722e-03 1.790854e-03 0.0
-3.938699e-03 1.890089e-03 0.0
-4.504650e-03 1.973125e-03 0.0
-5.088977e-03 2.041258e-03 0.0
-5.687529e-03 2.095714e-03 0.0
-6.296661e-03 2.137544e-03 0.0
-6.913195e-03 2.167616e-03 0.0
-7.534326e-03 2.186644e-03 0.0
-8.157517e-03 2.195250e-03 0.0
-8.780420e-03 2.194016e-03 0.0
-9.400800e-03 2.183552e-03 0.0
-1.001649e-02 2.164537e-03 0.0
-1.062537e-02 2.137748e-03 0.0
-1.122537e-02 2.104039e-03 0.0
-1.181455e-02 2.064290e-03 0.0
-1.239111e-02 2.019326e-03 0.0
-1.295347e-02 1.969856e-03 0.0
-1.350028e-02 1.916423e-03 0.0
-1.403037e-02 1.859403e-03 0.0
-1.454278e-02 1.799028e-03 0.0
-1.503662e-02 1.735421e-03 0.0
-1.551112e-02 1.668642e-03 0.0
-1.596553e-02 1.598719e-03 0.0
-1.639909e-02 1.525679e-03 0.0
-1.681109e-02 1.449577e-03 0.0
-1.720074e-02 1.370517e-03 0.0
-1.756728e-02 1.288667e-03 0.0
-1.790990e-02 1.204258e-03 0.0
-1.822782e-02 1.117559e-03 0.0
-1.852028e-02 1.028837e-03 0.0
-1.878659e-02 9.383125e-04 0.0
-1.902615e-02 8.461208e-04 0.0
-1.923846e-02 7.523017e-04 0.0
-1.942313e-02 6.568126e-04 0.0
-1.957983e-02 5.595700e-04 0.0
-1.970823e-02 4.605022e-04 0.0
-1.980801e-02 3.595989e-04 0.0
-1.987885e-02 2.569439e-04 0.0
-1.992035e-02 1.527235e-04 0.0
-1.993216e-02 4.721087e-05 0.0
-1.991390e-02 -5.926561e-05 0.0
-1.986529e-02 -1.663650e-04 0.0
-1.978611e-02 -2.737892e-04 0.0
-1.967624e-02 -3.812998e-04 0.0
-1.953568e-02 -4.887186e-04 0.0
-1.936451e-02 -5.959122e-04 0.0
-1.916291e-02 -7.027664e-04 0.0
-1.893112e-02 -8.091570e-04 0.0
-1.866943e-02 -9.149240e-04 0.0
-1.837817e-02 -1.019854e-03 0.0
-1.805771e-02 -1.123677e-03 0.0
-1.770850e-02 -1.226066e-03 0.0
-1.733102e-02 -1.326654e-03 0.0
-1.692587e-02 -1.425050e-03 0.0
-1.649374e-02 -1.520850e-03 0.0
-1.603544e-02 -1.613650e-03 0.0
-1.555190e-02 -1.703049e-03 0.0
-1.504419e-02 -1.788644e-03 0.0
-1.451352e-02 -1.870026e-03 0.0
-1.396123e-02 -1.946767e-03 0.0
-1.338881e-02 -2.018408e-03 0.0
-1.279788e-02 -2.084450e-03 0.0
-1.219021e-02 -2.144348e-03 0.0
-1.156776e-02 -2.197508e-03 0.0
-1.093260e-02 -2.243286e-03 0.0
-1.028701e-02 -2.280992e-03 0.0
-9.633454e-03 -2.309899e-03 0.0
-8.974583e-03 -2.329246e-03 0.0
-8.313250e-03 -2.338250e-03 0.0
-7.652518e-03 -2.336113e-03 0.0
-6.995653e-03 -2.322037e-03 0.0
-6.346125e-03 -2.295224e-03 0.0
-5.707597e-03 -2.254897e-03 0.0
-5.083906e-03 -2.200316e-03 0.0
-4.479042e-03 -2.130798e-03 0.0
-3.897114e-03 -2.045750e-03 0.0
-3.342303e-03 -1.944713e-03 0.0
-2.818807e-03 -1.827412e-03 0.0
-2.330760e-03 -1.693840e-03 0.0
-1.882138e-03 -1.544351e-03 0.0
-1.476638e-03 -1.379803e-03 0.0
-1.117526e-03 -1.201739e-03 0.0
-8.074645e-04 -1.012636e-03 0.0
-5.483074e-04 -8.162274e-04 0.0
-3.408885e-04 -6.179410e-04 0.0
-1.848214e-04 -4.254506e-04 0.0
-7.832956e-05 -2.493767e-04 0.0
-1.821410e-05 -1.041407e-04 0.0
0.000000e+00 -9.128088e-06 0.0
0.000000e+00 9.446137e-06 0.0
0.000000e+00 -3.578667e-05 0.0
-2.058295e-05 5.449193e-05 0.0
-1.094726e-04 2.189739e-04 0.0
-2.608513e-04 4.299838e-04 0.0
-4.719222e-04 6.670034e-04 0.0
-7.395238e-04 9.165921e-04 0.0
-1.060964e-03 1.168310e-03 0.0
-1.434131e-03 1.413751e-03 0.0
-1.857065e-03 1.646249e-03 0.0
-2.327350e-03 1.860954e-03 0.0
-2.841688e-03 2.054881e-03 0.0
-3.395830e-03 2.226738e-03 0.0
-3.984827e-03 2.376522e-03 0.0
-4.603450e-03 2.505034e-03 0.0
-5.246588e-03 2.613441e-03 0.0
-5.909512e-03 2.702975e-03 0.0
-6.587984e-03 2.774788e-03 0.0
-7.278245e-03 2.829907e-03 0.0
-7.976934e-03 2.869259e-03 0.0
-8.680992e-03 2.893714e-03 0.0
-9.387563e-03 2.904135e-03 0.0
-1.009392e-02 2.901430e-03 0.0
-1.079741e-02 2.886599e-03 0.0
-1.149542e-02 2.860741e-03 0.0
-1.218545e-02 2.825024e-03 0.0
-1.286509e-02 2.780621e-03 0.0
-1.353215e-02 2.728624e-03 0.0
-1.418470e-02 2.669963e-03 0.0
-1.482107e-02 2.605376e-03 0.0
-1.543983e-02 2.535397e-03 0.0
-1.603975e-02 2.460395e-03 0.0
-1.661978e-02 2.380617e-03 0.0
-1.717892e-02 2.296229e-03 0.0
-1.771625e-02 2.207363e-03 0.0
-1.823086e-02 2.114144e-03 0.0
-1.872186e-02 2.016723e-03 0.0
-1.918832e-02 1.915300e-03 0.0
-1.962929e-02 1.810139e-03 0.0
-2.004385e-02 1.701554e-03 0.0
-2.043104e-02 1.589881e-03 0.0
-2.079000e-02 1.475434e-03 0.0
-2.111993e-02 1.358451e-03 0.0
-2.142015e-02 1.239068e-03 0.0
-2.169010e-02 1.117315e-03 0.0
-2.192930e-02 9.931398e-04 0.0
-2.213735e-02 8.664654e-04 0.0
-2.231386e-02 7.372473e-04 0.0
-2.245840e-02 6.055240e-04 0.0
-2.257053e-02 4.714436e-04 0.0
-2.264979e-02 3.352615e-04 0.0
-2.269571e-02 1.973142e-04 0.0
-2.270784e-02 5.797820e-05 0.0
-2.268581e-02 -8.237082e-05 0.0
-2.262935e-02 -2.233949e-04 0.0
-2.253830e-02 -3.648278e-04 0.0
-2.241260e-02 -5.064667e-04 0.0
-2.225230e-02 -6.481483e-04 0.0
-2.205753e-02 -7.897164e-04 0.0
-2.182849e-02 -9.309894e-04 0.0
-2.156542e-02 -1.071734e-03 0.0
-2.126861e-02 -1.211653e-03 0.0
-2.093840e-02 -1.350381e-03 0.0
-2.057517e-02 -1.487501e-03 0.0
-2.017942e-02 -1.622556e-03 0.0
-1.975170e-02 -1.755070e-03 0.0
-1.929272e-02 -1.884561e-03 0.0
-1.880328e-02 -2.010551e-03 0.0
-1.828434e-02 -2.132564e-03 0.0
-1.773699e-02 -2.250119e-03 0.0
-1.716246e-02 -2.362716e-03 0.0
-1.656212e-02 -2.469829e-03 0.0
-1.593750e-02 -2.570885e-03 0.0
-1.529027e-02 -2.665258e-03 0.0
-1.462224e-02 -2.752266e-03 0.0
-1.393540e-02 -2.831163e-03 0.0
-1.323192e-02 -2.901147e-03 0.0
-1.251413e-02 -2.961363e-03 0.0
-1.178458e-02 -3.010909e-03 0.0
-1.104601e-02 -3.048847e-03 0.0
-1.030140e-02 -3.074206e-03 0.0
-9.553926e-03 -3.086000e-03 0.0
-8.806993e-03 -3.083228e-03 0.0
-8.064227e-03 -3.064889e-03 0.0
-7.329464e-03 -3.029994e-03 0.0
-6.606735e-03 -2.977579e-03 0.0
-5.900247e-03 -2.906730e-03 0.0
-5.214356e-03 -2.816616e-03 0.0
-4.553529e-03 -2.706529e-03 0.0
-3.922295e-03 -2.575938e-03 0.0
-3.325184e-03 -2.424561e-03 0.0
-2.766649e-03 -2.252456e-03 0.0
-2.250974e-03 -2.060146e-03 0.0
-1.782157e-03 -1.848767e-03 0.0
-1.363784e-03 -1.620277e-03 0.0
-9.988785e-04 -1.377712e-03 0.0
-6.897567e-04 -1.125520e-03 0.0
-4.378849e-04 -8.699768e-04 0.0
-2.437902e-04 -6.197061e-04 0.0
-1.070275e-04 -3.862899e-04 0.0
-2.633664e-05 -1.849774e-04 0.0
0.000000e+00 -3.560835e-05 0.0
0.000000e+00 3.594541e-05 0.0
0.000000e+00 -7.801570e-05 0.0
-2.809673e-05 9.274716e-05 0.0
-1.405048e-04 3.258405e-04 0.0
-3.229339e-04 6.045805e-04 0.0
-5.709279e-04 9.091532e-04 0.0
-8.809466e-04 1.224858e-03 0.0
-1.250365e-03 1.539693e-03 0.0
-1.676948e-03 1.844023e-03 0.0
-2.158168e-03 2.130581e-03 0.0
-2.690689e-03 2.394475e-03 0.0
-3.270210e-03 2.632976e-03 0.0
-3.891652e-03 2.845065e-03 0.0
-4.549543e-03 3.030869e-03 0.0
-5.238411e-03 3.191153e-03 0.0
-5.953079e-03 3.326952e-03 0.0
-6.688806e-03 3.439364e-03 0.0
-7.441308e-03 3.529479e-03 0.0
-8.206702e-03 3.598363e-03 0.0
-8.981421e-03 3.647089e-03 0.0
-9.762116e-03 3.676779e-03 0.0
-1.054558e-02 3.688640e-03 0.0
-1.132867e-02 3.684002e-03 0.0
-1.210831e-02 3.664310e-03 0.0
-1.288153e-02 3.631085e-03 0.0
-1.364549e-02 3.585836e-03 0.0
-1.439758e-02 3.529966e-03 0.0
-1.513550e-02 3.464688e-03 0.0
-1.585725e-02 3.390980e-03 0.0
-1.656109e-02 3.309591e-03 0.0
-1.724555e-02 3.221078e-03 0.0
-1.790932e-02 3.125851e-03 0.0
-1.855121e-02 3.024228e-03 0.0
-1.917010e-02 2.916478e-03 0.0
-1.976489e-02 2.802855e-03 0.0
-2.033452e-02 2.683638e-03 0.0
-2.087788e-02 2.559149e-03 0.0
-2.139388e-02 2.429769e-03 0.0
-2.188141e-02 2.295916e-03 0.0
-2.233940e-02 2.158007e-03 0.0
-2.276685e-02 2.016411e-03 0.0
-2.316287e-02 1.871394e-03 0.0
-2.352671e-02 1.723098e-03 0.0
-2.385772e-02 1.571547e-03 0.0
-2.415537e-02 1.416693e-03 0.0
-2.441915e-02 1.258474e-03 0.0
-2.464858e-02 1.096884e-03 0.0
-2.484314e-02 9.320179e-04 0.0
-2.500229e-02 7.640922e-04 0.0
-2.512544e-02 5.934311e-04 0.0
-2.521204e-02 4.204297e-04 0.0
-2.526156e-02 2.455071e-04 0.0
-2.527356e-02 6.906260e-05 0.0
-2.524771e-02 -1.085506e-04 0.0
-2.518379e-02 -2.870385e-04 0.0
-2.508171e-02 -4.661694e-04 0.0
-2.494146e-02 -6.457426e-04 0.0
-2.476310e-02 -8.255505e-04 0.0
-2.454678e-02 -1.005344e-03 0.0
-2.429266e-02 -1.184811e-03 0.0
-2.400096e-02 -1.363562e-03 0.0
-2.367197e-02 -1.541141e-03 0.0
-2.330602e-02 -1.717039e-03 0.0
-2.290356e-02 -1.890714e-03 0.0
-2.246511e-02 -2.061613e-03 0.0
-2.199136e-02 -2.229182e-03 0.0
-2.148310e-02 -2.392872e-03 0.0
-2.094127e-02 -2.552135e-03 0.0
-2.036696e-02 -2.706408e-03 0.0
-1.976139e-02 -2.855105e-03 0.0
-1.912594e-02 -2.997594e-03 0.0
-1.846210e-02 -3.133186e-03 0.0
-1.777156e-02 -3.261130e-03 0.0
-1.705613e-02 -3.380601e-03 0.0
-1.631780e-02 -3.490708e-03 0.0
-1.555875e-02 -3.590493e-03 0.0
-1.478133e-02 -3.678939e-03 0.0
-1.398811e-02 -3.754978e-03 0.0