# vtk DataFile Version 3.0
Vector Field
ASCII
DATASET RECTILINEAR_GRID
DIMENSIONS 102 102 1
X_COORDINATES 102 double
0.000000 0.100000 0.200000 0.300000 0.400000 0.500000 0.600000 0.700000 0.800000 0.900000 1.000000 1.100000 1.200000 1.300000 1.400000 1.500000 1.600000 1.700000 1.800000 1.900000 2.000000 2.100000 2.200000 2.300000 2.400000 2.500000 2.600000 2.700000 2.800000 2.900000 3.000000 3.100000 3.200000 3.300000 3.400000 3.500000 3.600000 3.700000 3.800000 3.900000 4.000000 4.100000 4.200000 4.300000 4.400000 4.500000 4.600000 4.700000 4.800000 4.900000 5.000000 5.100000 5.200000 5.300000 5.400000 5.500000 5.600000 5.700000 5.800000 5.900000 6.000000 6.100000 6.200000 6.300000 6.400000 6.500000 6.600000 6.700000 6.800000 6.900000 7.000000 7.100000 7.200000 7.300000 7.400000 7.500000 7.600000 7.700000 7.800000 7.900000 8.000000 8.100000 8.200000 8.300000 8.400000 8.500000 8.600000 8.700000 8.800000 8.900000 9.000000 9.100000 9.200000 9.300000 9.400000 9.500000 9.600000 9.700000 9.800000 9.900000 10.000000 10.100000 
Y_COORDINATES 102 double
0.000000 0.100000 0.200000 0.300000 0.400000 0.500000 0.600000 0.700000 0.800000 0.900000 1.000000 1.100000 1.200000 1.300000 1.400000 1.500000 1.600000 1.700000 1.800000 1.900000 2.000000 2.100000 2.200000 2.300000 2.400000 2.500000 2.600000 2.700000 2.800000 2.900000 3.000000 3.100000 3.200000 3.300000 3.400000 3.500000 3.600000 3.700000 3.800000 3.900000 4.000000 4.100000 4.200000 4.300000 4.400000 4.500000 4.600000 4.700000 4.800000 4.900000 5.000000 5.100000 5.200000 5.300000 5.400000 5.500000 5.600000 5.700000 5.800000 5.900000 6.000000 6.100000 6.200000 6.300000 6.400000 6.500000 6.600000 6.700000 6.800000 6.900000 7.000000 7.100000 7.200000 7.300000 7.400000 7.500000 7.600000 7.700000 7.800000 7.900000 8.000000 8.100000 8.200000 8.300000 8.400000 8.500000 8.600000 8.700000 8.800000 8.900000 9.000000 9.100000 9.200000 9.300000 9.400000 9.500000 9.600000 9.700000 9.800000 9.900000 10.000000 10.100000 
Z_COORDINATES 1 double
0.0
POINT_DATA 10404
VECTORS Velocity double
0.000000e+00 0.000000e+00 0.0
-2.309591e-05 0.000000e+00 0.0
-4.229512e-05 0.000000e+00 0.0
-5.141430e-05 0.000000e+00 0.0
-4.815068e-05 0.000000e+00 0.0
-3.389352e-05 0.000000e+00 0.0
-1.085749e-05 0.000000e+00 0.0
1.972978e-05 0.000000e+00 0.0
5.810030e-05 0.000000e+00 0.0
1.054656e-04 0.000000e+00 0.0
1.631515e-04 0.000000e+00 0.0
2.318564e-04 0.000000e+00 0.0
3.113078e-04 0.000000e+00 0.0
4.003333e-04 0.000000e+00 0.0
4.971935e-04 0.000000e+00 0.0
5.999830e-04 0.000000e+00 0.0
7.069604e-04 0.000000e+00 0.0
8.167490e-04 0.000000e+00 0.0
9.284109e-04 0.000000e+00 0.0
1.041421e-03 0.000000e+00 0.0
1.155566e-03 0.000000e+00 0.0
1.270797e-03 0.000000e+00 0.0
1.387056e-03 0.000000e+00 0.0
1.504136e-03 0.000000e+00 0.0
1.621594e-03 0.000000e+00 0.0
1.738761e-03 0.000000e+00 0.0
1.854828e-03 0.000000e+00 0.0
1.968984e-03 0.000000e+00 0.0
2.080538e-03 0.000000e+00 0.0
2.188994e-03 0.000000e+00 0.0
2.294053e-03 0.000000e+00 0.0
2.395551e-03 0.000000e+00 0.0
2.493367e-03 0.000000e+00 0.0
2.587332e-03 0.000000e+00 0.0
2.677178e-03 0.000000e+00 0.0
2.762526e-03 0.000000e+00 0.0
2.842911e-03 0.000000e+00 0.0
2.917841e-03 0.000000e+00 0.0
2.986846e-03 0.000000e+00 0.0
3.049519e-03 0.000000e+00 0.0
3.105530e-03 0.000000e+00 0.0
3.154623e-03 0.000000e+00 0.0
3.196594e-03 0.000000e+00 0.0
3.231262e-03 0.000000e+00 0.0
3.258452e-03 0.000000e+00 0.0
3.277976e-03 0.000000e+00 0.0
3.289643e-03 0.000000e+00 0.0
3.293262e-03 0.000000e+00 0.0
3.288672e-03 0.000000e+00 0.0
3.275775e-03 0.000000e+00 0.0
3.254528e-03 0.000000e+00 0.0
3.224954e-03 0.000000e+00 0.0
3.187138e-03 0.000000e+00 0.0
3.141224e-03 0.000000e+00 0.0
3.087411e-03 0.000000e+00 0.0
3.025945e-03 0.000000e+00 0.0
2.957112e-03 0.000000e+00 0.0
2.881234e-03 0.000000e+00 0.0
2.798667e-03 0.000000e+00 0.0
2.709798e-03 0.000000e+00 0.0
2.615045e-03 0.000000e+00 0.0
2.514860e-03 0.000000e+00 0.0
2.409726e-03 0.000000e+00 0.0
2.300155e-03 0.000000e+00 0.0
2.186690e-03 0.000000e+00 0.0
2.069902e-03 0.000000e+00 0.0
1.950391e-03 0.000000e+00 0.0
1.828781e-03 0.000000e+00 0.0
1.705718e-03 0.000000e+00 0.0
1.581861e-03 0.000000e+00 0.0
1.457881e-03 0.000000e+00 0.0
1.334450e-03 0.000000e+00 0.0
1.212233e-03 0.000000e+00 0.0
1.091889e-03 0.000000e+00 0.0
9.740644e-04 0.000000e+00 0.0
8.593902e-04 0.000000e+00 0.0
7.484808e-04 0.000000e+00 0.0
6.419319e-04 0.000000e+00 0.0
5.403172e-04 0.000000e+00 0.0
4.441853e-04 0.000000e+00 0.0
3.540553e-04 0.000000e+00 0.0
2.704119e-04 0.000000e+00 0.0
1.937003e-04 0.000000e+00 0.0
1.243208e-04 0.000000e+00 0.0
6.262320e-05 0.000000e+00 0.0
8.900880e-06 0.000000e+00 0.0
-3.661596e-05 0.000000e+00 0.0
-7.376830e-05 0.000000e+00 0.0
-1.024790e-04 0.000000e+00 0.0
-1.227654e-04 0.000000e+00 0.0
-1.347568e-04 0.000000e+00 0.0
-1.387182e-04 0.000000e+00 0.0
-1.350833e-04 0.000000e+00 0.0
-1.245008e-04 0.000000e+00 0.0
-1.079010e-04 0.000000e+00 0.0
-8.659479e-05 0.000000e+00 0.0
-6.241830e-05 0.000000e+00 0.0
-3.793027e-05 0.000000e+00 0.0
-1.661956e-05 0.000000e+00 0.0
-2.818954e-06 0.000000e+00 0.0
-0.000000e+00 0.000000e+00 0.0
0.000000e+00 0.000000e+00 0.0
0.000000e+00 -4.736759e-06 0.0
1.744897e-06 -1.645241e-05 0.0
1.045953e-05 -2.930859e-05 0.0
2.334311e-05 -2.688001e-05 0.0
3.356585e-05 -1.292824e-05 0.0
3.567958e-05 6.114653e-06 0.0
2.546780e-05 2.524176e-05 0.0
4.428916e-07 4.125537e-05 0.0
-3.995772e-05 5.296404e-05 0.0
-9.465075e-05 6.081477e-05 0.0
-1.615177e-04 6.619365e-05 0.0
-2.380868e-04 7.069764e-05 0.0
-3.220793e-04 7.559650e-05 0.0
-4.117334e-04 8.156035e-05 0.0
-5.059157e-04 8.861978e-05 0.0
-6.040706e-04 9.628470e-05 0.0
-7.060597e-04 1.037553e-04 0.0
-8.119337e-04 1.101750e-04 0.0
-9.216861e-04 1.148763e-04 0.0
-1.035048e-03 1.175654e-04 0.0
-1.151386e-03 1.183901e-04 0.0
-1.269734e-03 1.178669e-04 0.0
-1.388948e-03 1.166909e-04 0.0
-1.507921e-03 1.154970e-04 0.0
-1.625770e-03 1.146633e-04 0.0
-1.741939e-03 1.142243e-04 0.0
-1.856178e-03 1.139156e-04 0.0
-1.968425e-03 1.133150e-04 0.0
-2.078651e-03 1.120179e-04 0.0
-2.186723e-03 1.097766e-04 0.0
-2.292335e-03 1.065631e-04 0.0
-2.395009e-03 1.025457e-04 0.0
-2.494156e-03 9.800621e-05 0.0
-2.589165e-03 9.323344e-05 0.0
-2.679486e-03 8.843427e-05 0.0
-2.764676e-03 8.368516e-05 0.0
-2.844412e-03 7.893171e-05 0.0
-2.918465e-03 7.402752e-05 0.0
-2.986654e-03 6.879339e-05 0.0
-3.048794e-03 6.307646e-05 0.0
-3.104665e-03 5.679215e-05 0.0
-3.153994e-03 4.994034e-05 0.0
-3.196461e-03 4.259606e-05 0.0
-3.231721e-03 3.488175e-05 0.0
-3.259433e-03 2.693257e-05 0.0
-3.279295e-03 1.886543e-05 0.0
-3.291059e-03 1.076026e-05 0.0
-3.294549e-03 2.656717e-06 0.0
-3.289668e-03 -5.432912e-06 0.0
-3.276404e-03 -1.350020e-05 0.0
-3.254806e-03 -2.155646e-05 0.0
-3.224964e-03 -2.960823e-05 0.0
-3.186999e-03 -3.764522e-05 0.0
-3.141062e-03 -4.563701e-05 0.0
-3.087330e-03 -5.353532e-05 0.0
-3.026015e-03 -6.127902e-05 0.0
-2.957362e-03 -6.879974e-05 0.0
-2.881656e-03 -7.602702e-05 0.0
-2.799220e-03 -8.289275e-05 0.0
-2.710422e-03 -8.933510e-05 0.0
-2.615669e-03 -9.530188e-05 0.0
-2.515417e-03 -1.007530e-04 0.0
-2.410159e-03 -1.056613e-04 0.0
-2.300432e-03 -1.100109e-04 0.0
-2.186805e-03 -1.137942e-04 0.0
-2.069877e-03 -1.170065e-04 0.0
-1.950267e-03 -1.196419e-04 0.0
-1.828608e-03 -1.216894e-04 0.0
-1.705545e-03 -1.231325e-04 0.0
-1.581725e-03 -1.239508e-04 0.0
-1.457798e-03 -1.241237e-04 0.0
-1.334418e-03 -1.236348e-04 0.0
-1.212236e-03 -1.224745e-04 0.0
-1.091902e-03 -1.206416e-04 0.0
-9.740634e-04 -1.181438e-04 0.0
-8.593568e-04 -1.149968e-04 0.0
-7.484064e-04 -1.112220e-04 0.0
-6.418173e-04 -1.068448e-04 0.0
-5.401702e-04 -1.018928e-04 0.0
-4.440173e-04 -9.639571e-05 0.0
-3.538776e-04 -9.038492e-05 0.0
-2.702338e-04 -8.389480e-05 0.0
-1.935277e-04 -7.696352e-05 0.0
-1.241567e-04 -6.963412e-05 0.0
-6.246843e-05 -6.195539e-05 0.0
-8.755115e-06 -5.398267e-05 0.0
3.675306e-05 -4.577862e-05 0.0
7.389656e-05 -3.741453e-05 0.0
1.025976e-04 -2.897261e-05 0.0
1.228730e-04 -2.054777e-05 0.0
1.348520e-04 -1.225237e-05 0.0
1.387997e-04 -4.222423e-06 0.0
1.351502e-04 3.373236e-06 0.0
1.245527e-04 1.031970e-05 0.0
1.079382e-04 1.633494e-05 0.0
8.661869e-05 2.103834e-05 0.0
6.243111e-05 2.390502e-05 0.0
3.793482e-05 2.421182e-05 0.0
1.661865e-05 2.103044e-05 0.0
2.814576e-06 1.351773e-05 0.0
0.000000e+00 2.528135e-06 0.0
0.000000e+00 -2.503830e-06 0.0
0.000000e+00 8.661922e-06 0.0
3.497730e-06 -4.095007e-05 0.0
2.580235e-05 -5.243673e-05 0.0
4.202905e-05 -3.415370e-05 0.0
3.928138e-05 3.151626e-06 0.0
8.994385e-06 4.835858e-05 0.0
-5.352155e-05 9.437746e-05 0.0
-1.497240e-04 1.374836e-04 0.0
-2.786826e-04 1.765122e-04 0.0
-4.379921e-04 2.118481e-04 0.0
-6.245766e-04 2.444856e-04 0.0
-8.352752e-04 2.753494e-04 0.0
-1.067189e-03 3.049275e-04 0.0
-1.317827e-03 3.331710e-04 0.0
-1.585115e-03 3.595754e-04 0.0
-1.867297e-03 3.833713e-04 0.0
-2.162781e-03 4.037682e-04 0.0
-2.469961e-03 4.201957e-04 0.0
-2.787072e-03 4.324828e-04 0.0
-3.112128e-03 4.409170e-04 0.0
-3.442967e-03 4.461582e-04 0.0
-3.777394e-03 4.490336e-04 0.0
-4.113349e-03 4.502875e-04 0.0
-4.449052e-03 4.503807e-04 0.0
-4.783050e-03 4.494060e-04 0.0
-5.114175e-03 4.471456e-04 0.0
-5.441429e-03 4.432240e-04 0.0
-5.763853e-03 4.372901e-04 0.0
-6.080419e-03 4.291575e-04 0.0
-6.389985e-03 4.188619e-04 0.0
-6.691306e-03 4.066314e-04 0.0
-6.983092e-03 3.927965e-04 0.0
-7.264078e-03 3.776808e-04 0.0
-7.533078e-03 3.615127e-04 0.0
-7.789018e-03 3.443797e-04 0.0
-8.030937e-03 3.262331e-04 0.0
-8.257955e-03 3.069327e-04 0.0
-8.469238e-03 2.863109e-04 0.0
-8.663958e-03 2.642362e-04 0.0
-8.841271e-03 2.406565e-04 0.0
-9.000311e-03 2.156149e-04 0.0
-9.140207e-03 1.892379e-04 0.0
-9.260104e-03 1.617041e-04 0.0
-9.359200e-03 1.332069e-04 0.0
-9.436769e-03 1.039233e-04 0.0
-9.492191e-03 7.399632e-05 0.0
-9.524958e-03 4.353621e-05 0.0
-9.534689e-03 1.263645e-05 0.0
-9.521137e-03 -1.859806e-05 0.0
-9.484205e-03 -5.002139e-05 0.0
-9.423920e-03 -8.149970e-05 0.0
-9.340429e-03 -1.128901e-04 0.0
-9.233992e-03 -1.440333e-04 0.0
-9.104978e-03 -1.747542e-04 0.0
-8.953873e-03 -2.048666e-04 0.0
-8.781279e-03 -2.341789e-04 0.0
-8.587911e-03 -2.624995e-04 0.0
-8.374605e-03 -2.896419e-04 0.0
-8.142309e-03 -3.154297e-04 0.0
-7.892089e-03 -3.397009e-04 0.0
-7.625121e-03 -3.623106e-04 0.0
-7.342690e-03 -3.831324e-04 0.0
-7.046181e-03 -4.020567e-04 0.0
-6.737069e-03 -4.189870e-04 0.0
-6.416913e-03 -4.338355e-04 0.0
-6.087338e-03 -4.465190e-04 0.0
-5.750029e-03 -4.569567e-04 0.0
-5.406721e-03 -4.650714e-04 0.0
-5.059186e-03 -4.707923e-04 0.0
-4.709228e-03 -4.740604e-04 0.0
-4.358670e-03 -4.748333e-04 0.0
-4.009347e-03 -4.730898e-04 0.0
-3.663095e-03 -4.688290e-04 0.0
-3.321741e-03 -4.620692e-04 0.0
-2.987090e-03 -4.528462e-04 0.0
-2.660914e-03 -4.412117e-04 0.0
-2.344943e-03 -4.272317e-04 0.0
-2.040847e-03 -4.109850e-04 0.0
-1.750230e-03 -3.925634e-04 0.0
-1.474616e-03 -3.720725e-04 0.0
-1.215438e-03 -3.496323e-04 0.0
-9.740259e-04 -3.253795e-04 0.0
-7.515940e-04 -2.994687e-04 0.0
-5.492265e-04 -2.720737e-04 0.0
-3.678617e-04 -2.433903e-04 0.0
-2.082751e-04 -2.136380e-04 0.0
-7.105754e-05 -1.830640e-04 0.0
4.340829e-05 -1.519482e-04 0.0
1.349773e-04 -1.206100e-04 0.0
2.037812e-04 -8.942057e-05 0.0
2.502736e-04 -5.881429e-05 0.0
2.752908e-04 -2.930960e-05 0.0
2.801300e-04 -1.536355e-06 0.0
2.666520e-04 2.372710e-05 0.0
2.374132e-04 4.550279e-05 0.0
1.958336e-04 6.254690e-05 0.0
1.463896e-04 7.327731e-05 0.0
9.479141e-05 7.573773e-05 0.0
4.800973e-05 6.773991e-05 0.0
1.387398e-05 4.758140e-05 0.0
0.000000e+00 1.633030e-05 0.0
0.000000e+00 -1.629589e-05 0.0
0.000000e+00 2.708095e-05 0.0
7.883126e-07 -5.637554e-05 0.0
1.826994e-05 -6.082735e-05 0.0
1.657290e-05 -1.951154e-05 0.0
-1.898810e-05 4.966951e-05 0.0
-9.748174e-05 1.320348e-04 0.0
-2.231652e-04 2.185402e-04 0.0
-3.966937e-04 3.042825e-04 0.0
-6.163935e-04 3.870748e-04 0.0
-8.793502e-04 4.661816e-04 0.0
-1.182178e-03 5.413885e-04 0.0
-1.521466e-03 6.124530e-04 0.0
-1.893983e-03 6.788758e-04 0.0
-2.296715e-03 7.398961e-04 0.0
-2.726803e-03 7.946278e-04 0.0
-3.181419e-03 8.422673e-04 0.0
-3.657627e-03 8.823125e-04 0.0
-4.152289e-03 9.147219e-04 0.0
-4.662054e-03 9.399520e-04 0.0
-5.183458e-03 9.588485e-04 0.0
-5.713105e-03 9.724183e-04 0.0
-6.247857e-03 9.815647e-04 0.0
-6.784960e-03 9.868802e-04 0.0
-7.322064e-03 9.885696e-04 0.0
-7.857139e-03 9.865141e-04 0.0
-8.388325e-03 9.804400e-04 0.0
-8.913787e-03 9.701065e-04 0.0
-9.431619e-03 9.554434e-04 0.0
-9.939817e-03 9.365998e-04 0.0
-1.043632e-02 9.139044e-04 0.0
-1.091906e-02 8.877682e-04 0.0
-1.138608e-02 8.585744e-04 0.0
-1.183554e-02 8.265922e-04 0.0
-1.226575e-02 7.919378e-04 0.0
-1.267514e-02 7.545861e-04 0.0
-1.306224e-02 7.144216e-04 0.0
-1.342562e-02 6.713084e-04 0.0
-1.376384e-02 6.251563e-04 0.0
-1.407547e-02 5.759653e-04 0.0
-1.435905e-02 5.238398e-04 0.0
-1.461315e-02 4.689736e-04 0.0
-1.483639e-02 4.116162e-04 0.0
-1.502748e-02 3.520337e-04 0.0
-1.518525e-02 2.904785e-04 0.0
-1.530866e-02 2.271756e-04 0.0
-1.539685e-02 1.623283e-04 0.0
-1.544910e-02 9.613828e-05 0.0
-1.546485e-02 2.883417e-05 0.0
-1.544372e-02 -3.929685e-05 0.0
-1.538555e-02 -1.078843e-04 0.0
-1.529034e-02 -1.765653e-04 0.0
-1.515829e-02 -2.449708e-04 0.0
-1.498978e-02 -3.127235e-04 0.0
-1.478538e-02 -3.794388e-04 0.0
-1.454586e-02 -4.447302e-04 0.0
-1.427217e-02 -5.082135e-04 0.0
-1.396545e-02 -5.695131e-04 0.0
-1.362702e-02 -6.282677e-04 0.0
-1.325841e-02 -6.841350e-04 0.0
-1.286129e-02 -7.367961e-04 0.0
-1.243754e-02 -7.859562e-04 0.0
-1.198919e-02 -8.313432e-04 0.0
-1.151839e-02 -8.727047e-04 0.0
-1.102747e-02 -9.098038e-04 0.0
-1.051886e-02 -9.424172e-04 0.0
-9.995084e-03 -9.703346e-04 0.0
-9.458788e-03 -9.933627e-04 0.0
-8.912680e-03 -1.011330e-03 0.0
-8.359543e-03 -1.024093e-03 0.0
-7.802211e-03 -1.031542e-03 0.0
-7.243557e-03 -1.033609e-03 0.0
-6.686471e-03 -1.030262e-03 0.0
-6.133844e-03 -1.021513e-03 0.0
-5.588551e-03 -1.007401e-03 0.0
-5.053429e-03 -9.880006e-04 0.0
-4.531261e-03 -9.634153e-04 0.0
-4.024760e-03 -9.337786e-04 0.0
-3.536546e-03 -8.992548e-04 0.0
-3.069135e-03 -8.600401e-04 0.0
-2.624913e-03 -8.163642e-04 0.0
-2.206125e-03 -7.684925e-04 0.0
-1.814848e-03 -7.167277e-04 0.0
-1.452973e-03 -6.614125e-04 0.0
-1.122182e-03 -6.029320e-04 0.0
-8.239199e-04 -5.417186e-04 0.0
-5.593673e-04 -4.782564e-04 0.0
-3.294075e-04 -4.130900e-04 0.0
-1.345880e-04 -3.468346e-04 0.0
2.492495e-05 -2.801904e-04 0.0
1.493992e-04 -2.139626e-04 0.0
2.396065e-04 -1.490895e-04 0.0
2.969036e-04 -8.667483e-05 0.0
3.233327e-04 -2.803378e-05 0.0
3.217434e-04 2.524771e-05 0.0
2.959370e-04 7.124001e-05 0.0
2.508254e-04 1.075890e-04 0.0
1.925850e-04 1.314473e-04 0.0
1.287643e-04 1.394873e-04 0.0
6.828421e-05 1.281489e-04 0.0
2.137037e-05 9.442431e-05 0.0
0.000000e+00 3.762998e-05 0.0
0.000000e+00 -3.758101e-05 0.0
0.000000e+00 4.181198e-05 0.0
-1.656068e-06 -5.776364e-05 0.0
-2.647591e-06 -4.600767e-05 0.0
-3.805472e-05 2.707972e-05 0.0
-1.212627e-04 1.375454e-04 0.0
-2.599139e-04 2.681265e-04 0.0
-4.570893e-04 4.078026e-04 0.0
-7.127724e-04 5.498681e-04 0.0
-1.025116e-03 6.902871e-04 0.0
-1.391341e-03 8.264732e-04 0.0
-1.808271e-03 9.565092e-04 0.0
-2.272572e-03 1.078741e-03 0.0
-2.780837e-03 1.191641e-03 0.0
-3.329547e-03 1.293850e-03 0.0
-3.915001e-03 1.384314e-03 0.0
-4.533216e-03 1.462454e-03 0.0
-5.179890e-03 1.528272e-03 0.0
-5.850445e-03 1.582356e-03 0.0
-6.540192e-03 1.625728e-03 0.0
-7.244563e-03 1.659584e-03 0.0
-7.959333e-03 1.685006e-03 0.0
-8.680764e-03 1.702746e-03 0.0
-9.405602e-03 1.713154e-03 0.0
-1.013096e-02 1.716255e-03 0.0
-1.085413e-02 1.711922e-03 0.0
-1.157241e-02 1.700078e-03 0.0
-1.228304e-02 1.680827e-03 0.0
-1.298312e-02 1.654488e-03 0.0
-1.366977e-02 1.621544e-03 0.0
-1.434014e-02 1.582532e-03 0.0
-1.499154e-02 1.537933e-03 0.0
-1.562146e-02 1.488083e-03 0.0
-1.622760e-02 1.433152e-03 0.0
-1.680780e-02 1.373157e-03 0.0
-1.736003e-02 1.308026e-03 0.0
-1.788226e-02 1.237674e-03 0.0
-1.837248e-02 1.162072e-03 0.0
-1.882867e-02 1.081292e-03 0.0
-1.924881e-02 9.955168e-04 0.0
-1.963089e-02 9.050242e-04 0.0
-1.997301e-02 8.101455e-04 0.0
-2.027338e-02 7.112282e-04 0.0
-2.053037e-02 6.086066e-04 0.0
-2.074252e-02 5.025947e-04 0.0
-2.090856e-02 3.934969e-04 0.0
-2.102740e-02 2.816347e-04 0.0
-2.109812e-02 1.673765e-04 0.0
-2.112001e-02 5.116735e-05 0.0
-2.109259e-02 -6.644794e-05 0.0
-2.101558e-02 -1.848084e-04 0.0
-2.088899e-02 -3.032611e-04 0.0
-2.071307e-02 -4.211546e-04 0.0
-2.048831e-02 -5.378375e-04 0.0
-2.021547e-02 -6.526612e-04 0.0
-1.989557e-02 -7.649835e-04 0.0
-1.952989e-02 -8.741742e-04 0.0
-1.911994e-02 -9.796218e-04 0.0
-1.866749e-02 -1.080738e-03 0.0
-1.817458e-02 -1.176965e-03 0.0
-1.764345e-02 -1.267771e-03 0.0
-1.707657e-02 -1.352653e-03 0.0
-1.647662e-02 -1.431135e-03 0.0
-1.584648e-02 -1.502762e-03 0.0
-1.518918e-02 -1.567102e-03 0.0
-1.450793e-02 -1.623750e-03 0.0
-1.380608e-02 -1.672331e-03 0.0
-1.308711e-02 -1.712511e-03 0.0
-1.235461e-02 -1.744006e-03 0.0
-1.161226e-02 -1.766586e-03 0.0
-1.086383e-02 -1.780080e-03 0.0
-1.011313e-02 -1.784382e-03 0.0
-9.363985e-03 -1.779446e-03 0.0
-8.620234e-03 -1.765289e-03 0.0
-7.885684e-03 -1.741975e-03 0.0
-7.164094e-03 -1.709624e-03 0.0
-6.459150e-03 -1.668405e-03 0.0
-5.774444e-03 -1.618543e-03 0.0
-5.113447e-03 -1.560318e-03 0.0
-4.479489e-03 -1.494069e-03 0.0
-3.875731e-03 -1.420194e-03 0.0
-3.305139e-03 -1.339154e-03 0.0
-2.770456e-03 -1.251477e-03 0.0
-2.274175e-03 -1.157758e-03 0.0
-1.818503e-03 -1.058668e-03 0.0
-1.405330e-03 -9.549553e-04 0.0
-1.036189e-03 -8.474619e-04 0.0
-7.122133e-04 -7.371305e-04 0.0
-4.340891e-04 -6.250242e-04 0.0
-2.019972e-04 -5.123479e-04 0.0
-1.554786e-05 -4.004775e-04 0.0
1.262949e-04 -2.909980e-04 0.0
2.253059e-04 -1.857518e-04 0.0
2.841063e-04 -8.690067e-05 0.0
3.062805e-04 3.006184e-06 0.0
2.965079e-04 8.094462e-05 0.0
2.606936e-04 1.433347e-04 0.0
2.060886e-04 1.859825e-04 0.0
1.413922e-04 2.041136e-04 0.0
7.686519e-05 1.926059e-04 0.0
2.466072e-05 1.465589e-04 0.0
0.000000e+00 6.222110e-05 0.0
0.000000e+00 -6.215532e-05 0.0
0.000000e+00 4.592271e-05 0.0
-4.395489e-06 -4.467552e-05 0.0
-3.373462e-05 -3.994340e-06 0.0
-1.132790e-04 1.120269e-04 0.0
-2.533717e-04 2.750257e-04 0.0
-4.594515e-04 4.657170e-04 0.0
-7.333493e-04 6.709000e-04 0.0
-1.074639e-03 8.815456e-04 0.0
-1.481609e-03 1.091250e-03 0.0
-1.951834e-03 1.295220e-03 0.0
-2.482427e-03 1.489675e-03 0.0
-3.070115e-03 1.671561e-03 0.0
-3.711221e-03 1.838464e-03 0.0
-4.401602e-03 1.988648e-03 0.0
-5.136596e-03 2.121141e-03 0.0
-5.911030e-03 2.235776e-03 0.0
-6.719324e-03 2.333127e-03 0.0
-7.555714e-03 2.414302e-03 0.0
-8.414547e-03 2.480639e-03 0.0
-9.290560e-03 2.533377e-03 0.0
-1.017904e-02 2.573427e-03 0.0
-1.107585e-02 2.601296e-03 0.0
-1.197724e-02 2.617173e-03 0.0
-1.287968e-02 2.621116e-03 0.0
-1.377966e-02 2.613251e-03 0.0
-1.467354e-02 2.593899e-03 0.0
-1.555761e-02 2.563603e-03 0.0
-1.642812e-02 2.523053e-03 0.0
-1.728144e-02 2.472966e-03 0.0
-1.811414e-02 2.413963e-03 0.0
-1.892302e-02 2.346493e-03 0.0
-1.970515e-02 2.270807e-03 0.0
-2.045780e-02 2.186992e-03 0.0
-2.117834e-02 2.095043e-03 0.0
-2.186419e-02 1.994946e-03 0.0
-2.251279e-02 1.886753e-03 0.0
-2.312154e-02 1.770626e-03 0.0
-2.368785e-02 1.646846e-03 0.0
-2.420917e-02 1.515787e-03 0.0
-2.468306e-02 1.377874e-03 0.0
-2.510721e-02 1.233543e-03 0.0
-2.547955e-02 1.083213e-03 0.0
-2.579815e-02 9.272892e-04 0.0
-2.606132e-02 7.661771e-04 0.0
-2.626756e-02 6.003192e-04 0.0
-2.641557e-02 4.302279e-04 0.0
-2.650426e-02 2.565136e-04 0.0
-2.653275e-02 7.990462e-05 0.0
-2.650044e-02 -9.874172e-05 0.0
-2.640701e-02 -2.784280e-04 0.0
-2.625244e-02 -4.581677e-04 0.0
-2.603703e-02 -6.369812e-04 0.0
-2.576140e-02 -8.138974e-04 0.0
-2.542647e-02 -9.879562e-04 0.0
-2.503350e-02 -1.158214e-03 0.0
-2.458403e-02 -1.323749e-03 0.0
-2.407995e-02 -1.483669e-03 0.0
-2.352343e-02 -1.637111e-03 0.0
-2.291693e-02 -1.783248e-03 0.0
-2.226321e-02 -1.921279e-03 0.0
-2.156527e-02 -2.050437e-03 0.0
-2.082636e-02 -2.169978e-03 0.0
-2.004996e-02 -2.279195e-03 0.0
-1.923978e-02 -2.377415e-03 0.0
-1.839969e-02 -2.464016e-03 0.0
-1.753379e-02 -2.538435e-03 0.0
-1.664631e-02 -2.600179e-03 0.0
-1.574162e-02 -2.648831e-03 0.0
-1.482424e-02 -2.684061e-03 0.0
-1.389875e-02 -2.705623e-03 0.0
-1.296979e-02 -2.713358e-03 0.0
-1.204205e-02 -2.707196e-03 0.0
-1.112021e-02 -2.687152e-03 0.0
-1.020890e-02 -2.653316e-03 0.0
-9.312706e-03 -2.605859e-03 0.0
-8.436137e-03 -2.545034e-03 0.0
-7.583573e-03 -2.471176e-03 0.0
-6.759252e-03 -2.384710e-03 0.0
-5.967240e-03 -2.286152e-03 0.0
-5.211394e-03 -2.176107e-03 0.0
-4.495333e-03 -2.055280e-03 0.0
-3.822400e-03 -1.924472e-03 0.0
-3.195629e-03 -1.784591e-03 0.0
-2.617702e-03 -1.636656e-03 0.0
-2.090909e-03 -1.481810e-03 0.0
-1.617105e-03 -1.321329e-03 0.0
-1.197654e-03 -1.156645e-03 0.0
-8.333774e-04 -9.893639e-04 0.0
-5.244892e-04 -8.212993e-04 0.0
-2.705237e-04 -6.545063e-04 0.0
-7.025524e-05 -4.913305e-04 0.0
7.839332e-05 -3.344651e-04 0.0
1.784478e-04 -1.870209e-04 0.0
2.339976e-04 -5.261040e-05 0.0
2.503042e-04 6.457060e-05 0.0
2.339135e-04 1.596574e-04 0.0
1.927644e-04 2.270624e-04 0.0
1.363228e-04 2.604860e-04 0.0
7.580548e-05 2.530543e-04 0.0
2.470386e-05 1.975919e-04 0.0
0.000000e+00 8.685655e-05 0.0
0.000000e+00 -8.677259e-05 0.0
0.000000e+00 3.460537e-05 0.0
-9.230582e-06 -1.906532e-05 0.0
-7.295357e-05 6.687042e-05 0.0
-2.023869e-04 2.398205e-04 0.0
-4.042298e-04 4.686257e-04 0.0
-6.816505e-04 7.321428e-04 0.0
-1.035420e-03 1.014786e-03 0.0
-1.464880e-03 1.304932e-03 0.0
-1.968501e-03 1.593653e-03 0.0
-2.544115e-03 1.873944e-03 0.0
-3.188942e-03 2.140292e-03 0.0
-3.899535e-03 2.388463e-03 0.0
-4.671708e-03 2.615431e-03 0.0
-5.500492e-03 2.819356e-03 0.0
-6.380167e-03 2.999538e-03 0.0
-7.304425e-03 3.156270e-03 0.0
-8.266644e-03 3.290556e-03 0.0
-9.260248e-03 3.403744e-03 0.0
-1.027904e-02 3.497151e-03 0.0
-1.131739e-02 3.571800e-03 0.0
-1.237030e-02 3.628332e-03 0.0
-1.343321e-02 3.667098e-03 0.0
-1.450178e-02 3.688348e-03 0.0
-1.557170e-02 3.692436e-03 0.0
-1.663854e-02 3.679931e-03 0.0
-1.769775e-02 3.651637e-03 0.0
-1.874480e-02 3.608498e-03 0.0
-1.977524e-02 3.551457e-03 0.0
-2.078492e-02 3.481329e-03 0.0
-2.176994e-02 3.398718e-03 0.0
-2.272672e-02 3.304000e-03 0.0
-2.365194e-02 3.197366e-03 0.0
-2.454238e-02 3.078905e-03 0.0
-2.539494e-02 2.948701e-03 0.0
-2.620647e-02 2.806908e-03 0.0
-2.697383e-02 2.653798e-03 0.0
-2.769388e-02 2.489766e-03 0.0
-2.836351e-02 2.315297e-03 0.0
-2.897975e-02 2.130923e-03 0.0
-2.953981e-02 1.937172e-03 0.0
-3.004110e-02 1.734555e-03 0.0
-3.048127e-02 1.523564e-03 0.0
-3.085816e-02 1.304705e-03 0.0
-3.116984e-02 1.078537e-03 0.0
-3.141460e-02 8.457114e-04 0.0
-3.159091e-02 6.070009e-04 0.0
-3.169750e-02 3.633177e-04 0.0
-3.173336e-02 1.157200e-04 0.0
-3.169779e-02 -1.345855e-04 0.0
-3.159040e-02 -3.862330e-04 0.0
-3.141118e-02 -6.378665e-04 0.0
-3.116049e-02 -8.881416e-04 0.0
-3.083903e-02 -1.135728e-03 0.0
-3.044789e-02 -1.379318e-03 0.0
-2.998853e-02 -1.617627e-03 0.0
-2.946277e-02 -1.849404e-03 0.0
-2.887279e-02 -2.073429e-03 0.0
-2.822113e-02 -2.288516e-03 0.0
-2.751063e-02 -2.493509e-03 0.0
-2.674448e-02 -2.687282e-03 0.0
-2.592614e-02 -2.868740e-03 0.0
-2.505937e-02 -3.036828e-03 0.0
-2.414819e-02 -3.190542e-03 0.0
-2.319688e-02 -3.328938e-03 0.0
-2.220996e-02 -3.451155e-03 0.0
-2.119216e-02 -3.556420e-03 0.0
-2.014841e-02 -3.644063e-03 0.0
-1.908379e-02 -3.713520e-03 0.0
-1.800354e-02 -3.764337e-03 0.0
-1.691300e-02 -3.796173e-03 0.0
-1.581755e-02 -3.808803e-03 0.0
-1.472264e-02 -3.802116e-03 0.0
-1.363370e-02 -3.776120e-03 0.0
-1.255613e-02 -3.730934e-03 0.0
-1.149527e-02 -3.666787e-03 0.0
-1.045634e-02 -3.584028e-03 0.0
-9.444464e-03 -3.483126e-03 0.0
-8.464569e-03 -3.364675e-03 0.0
-7.521393e-03 -3.229393e-03 0.0
-6.619430e-03 -3.078132e-03 0.0
-5.762895e-03 -2.911875e-03 0.0
-4.955682e-03 -2.731745e-03 0.0
-4.201320e-03 -2.539012e-03 0.0
-3.502931e-03 -2.335104e-03 0.0
-2.863183e-03 -2.121618e-03 0.0
-2.284235e-03 -1.900338e-03 0.0
-1.767681e-03 -1.673259e-03 0.0
-1.314495e-03 -1.442611e-03 0.0
-9.249556e-04 -1.210900e-03 0.0
-5.985799e-04 -9.809444e-04 0.0
-3.340388e-04 -7.559351e-04 0.0
-1.290720e-04 -5.394965e-04 0.0
1.960401e-05 -3.357625e-04 0.0
1.163897e-04 -1.494626e-04 0.0
1.669039e-04 1.398944e-05 0.0
1.780848e-04 1.484093e-04 0.0
1.582989e-04 2.467802e-04 0.0
1.175004e-04 3.012169e-04 0.0
6.750020e-05 3.029870e-04 0.0
2.249069e-05 2.425342e-04 0.0
0.000000e+00 1.092803e-04 0.0
0.000000e+00 -1.091770e-04 0.0
0.000000e+00 5.657925e-06 0.0
-1.781884e-05 1.677330e-05 0.0
-1.184654e-04 1.674548e-04 0.0
-2.998340e-04 4.138452e-04 0.0
-5.651800e-04 7.232948e-04 0.0
-9.156835e-04 1.072769e-03 0.0
-1.351243e-03 1.444258e-03 0.0
-1.870956e-03 1.823589e-03 0.0
-2.473284e-03 2.199483e-03 0.0
-3.156008e-03 2.563008e-03 0.0
-3.916098e-03 2.907261e-03 0.0
-4.749580e-03 3.227193e-03 0.0
-5.651464e-03 3.519493e-03 0.0
-6.615782e-03 3.782434e-03 0.0
-7.635768e-03 4.015641e-03 0.0
-8.704183e-03 4.219717e-03 0.0
-9.813720e-03 4.395798e-03 0.0
-1.095739e-02 4.545122e-03 0.0
-1.212878e-02 4.668717e-03 0.0
-1.332208e-02 4.767291e-03 0.0
-1.453195e-02 4.841315e-03 0.0
-1.575331e-02 4.891213e-03 0.0
-1.698106e-02 4.917557e-03 0.0
-1.821002e-02 4.921184e-03 0.0
-1.943486e-02 4.903176e-03 0.0
-2.065027e-02 4.864759e-03 0.0
-2.185107e-02 4.807146e-03 0.0
-2.303234e-02 4.731390e-03 0.0
-2.418953e-02 4.638295e-03 0.0
-2.531839e-02 4.528407e-03 0.0
-2.641499e-02 4.402063e-03 0.0
-2.747555e-02 4.259482e-03 0.0
-2.849639e-02 4.100873e-03 0.0
-2.947382e-02 3.926517e-03 0.0
-3.040415e-02 3.736821e-03 0.0
-3.128370e-02 3.532311e-03 0.0
-3.210882e-02 3.313602e-03 0.0
-3.287602e-02 3.081339e-03 0.0
-3.358201e-02 2.836156e-03 0.0
-3.422370e-02 2.578656e-03 0.0
-3.479828e-02 2.309419e-03 0.0
-3.530313e-02 2.029048e-03 0.0
-3.573589e-02 1.738212e-03 0.0
-3.609436e-02 1.437691e-03 0.0
-3.637660e-02 1.128412e-03 0.0
-3.658089e-02 8.114604e-04 0.0
-3.670578e-02 4.880897e-04 0.0
-3.675012e-02 1.597180e-04 0.0
-3.671313e-02 -1.720723e-04 0.0
-3.659438e-02 -5.055244e-04 0.0
-3.639385e-02 -8.388830e-04 0.0
-3.611195e-02 -1.170408e-03 0.0
-3.574947e-02 -1.498384e-03 0.0
-3.530766e-02 -1.821121e-03 0.0
-3.478815e-02 -2.136962e-03 0.0
-3.419299e-02 -2.444282e-03 0.0
-3.352464e-02 -2.741484e-03 0.0
-3.278591e-02 -3.026999e-03 0.0
-3.198001e-02 -3.299286e-03 0.0
-3.111046e-02 -3.556835e-03 0.0
-3.018115e-02 -3.798181e-03 0.0
-2.919627e-02 -4.021918e-03 0.0
-2.816034e-02 -4.226716e-03 0.0
-2.707816e-02 -4.411345e-03 0.0
-2.595481e-02 -4.574681e-03 0.0
-2.479561e-02 -4.715724e-03 0.0
-2.360612e-02 -4.833604e-03 0.0
-2.239206e-02 -4.927583e-03 0.0
-2.115932e-02 -4.997063e-03 0.0
-1.991390e-02 -5.041585e-03 0.0
-1.866188e-02 -5.060836e-03 0.0
-1.740937e-02 -5.054655e-03 0.0
-1.616250e-02 -5.023041e-03 0.0
-1.492736e-02 -4.966139e-03 0.0
-1.370997e-02 -4.884249e-03 0.0
-1.251624e-02 -4.777827e-03 0.0
-1.135194e-02 -4.647490e-03 0.0
-1.022266e-02 -4.494020e-03 0.0
-9.133746e-03 -4.318367e-03 0.0
-8.090283e-03 -4.121652e-03 0.0
-7.097040e-03 -3.905175e-03 0.0
-6.158424e-03 -3.670417e-03 0.0
-5.278435e-03 -3.419058e-03 0.0
-4.460614e-03 -3.152982e-03 0.0
-3.707993e-03 -2.874297e-03 0.0
-3.023036e-03 -2.585354e-03 0.0
-2.407582e-03 -2.288773e-03 0.0
-1.862779e-03 -1.987474e-03 0.0
-1.389019e-03 -1.684721e-03 0.0
-9.858619e-04 -1.384164e-03 0.0
-6.519612e-04 -1.089900e-03 0.0
-3.849813e-04 -8.065410e-04 0.0
-1.815156e-04 -5.392935e-04 0.0
-3.700155e-05 -2.940423e-04 0.0
5.436631e-05 -7.744399e-05 0.0
9.972851e-05 1.029819e-04 0.0
1.076773e-04 2.387652e-04 0.0
8.841300e-05 3.204154e-04 0.0
5.399654e-05 3.373381e-04 0.0
1.877167e-05 2.776939e-04 0.0
0.000000e+00 1.279869e-04 0.0
0.000000e+00 -1.278630e-04 0.0
0.000000e+00 -4.060048e-05 0.0
-3.063873e-05 6.144530e-05 0.0
-1.680286e-04 2.986023e-04 0.0
-4.009252e-04 6.366484e-04 0.0
-7.297031e-04 1.042380e-03 0.0
-1.153888e-03 1.490874e-03 0.0
-1.672550e-03 1.961896e-03 0.0
-2.284341e-03 2.439055e-03 0.0
-2.987353e-03 2.909157e-03 0.0
-3.778879e-03 3.361817e-03 0.0
-4.655201e-03 3.789216e-03 0.0
-5.611443e-03 4.185897e-03 0.0
-6.641573e-03 4.548533e-03 0.0
-7.738583e-03 4.875594e-03 0.0
-8.894824e-03 5.166890e-03 0.0
-1.010246e-02 5.423038e-03 0.0
-1.135387e-02 5.644960e-03 0.0
-1.264197e-02 5.833517e-03 0.0
-1.396026e-02 5.989361e-03 0.0
-1.530269e-02 6.112997e-03 0.0
-1.666347e-02 6.204960e-03 0.0
-1.803677e-02 6.266010e-03 0.0
-1.941669e-02 6.297228e-03 0.0
-2.079718e-02 6.299982e-03 0.0
-2.217217e-02 6.275794e-03 0.0
-2.353578e-02 6.226168e-03 0.0
-2.488240e-02 6.152427e-03 0.0
-2.620678e-02 6.055622e-03 0.0
-2.750408e-02 5.936509e-03 0.0
-2.876972e-02 5.795612e-03 0.0
-2.999936e-02 5.633321e-03 0.0
-3.118874e-02 5.450004e-03 0.0
-3.233365e-02 5.246103e-03 0.0
-3.342983e-02 5.022179e-03 0.0
-3.447307e-02 4.778915e-03 0.0
-3.545920e-02 4.517069e-03 0.0
-3.638421e-02 4.237419e-03 0.0
-3.724430e-02 3.940711e-03 0.0
-3.803592e-02 3.627645e-03 0.0
-3.875576e-02 3.298894e-03 0.0
-3.940077e-02 2.955152e-03 0.0
-3.996810e-02 2.597192e-03 0.0
-4.045510e-02 2.225914e-03 0.0
-4.085936e-02 1.842385e-03 0.0
-4.117868e-02 1.447850e-03 0.0
-4.141115e-02 1.043741e-03 0.0
-4.155516e-02 6.316740e-04 0.0
-4.160945e-02 2.134484e-04 0.0
-4.157316e-02 -2.089566e-04 0.0
-4.144580e-02 -6.333799e-04 0.0
-4.122737e-02 -1.057643e-03 0.0
-4.091831e-02 -1.479592e-03 0.0
-4.051951e-02 -1.897097e-03 0.0
-4.003232e-02 -2.308060e-03 0.0
-3.945854e-02 -2.710407e-03 0.0
-3.880041e-02 -3.102088e-03 0.0
-3.806059e-02 -3.481071e-03 0.0
-3.724216e-02 -3.845347e-03 0.0
-3.634857e-02 -4.192935e-03 0.0
-3.538369e-02 -4.521899e-03 0.0
-3.435174e-02 -4.830374e-03 0.0
-3.325735e-02 -5.116578e-03 0.0
-3.210544e-02 -5.378843e-03 0.0
-3.090131e-02 -5.615626e-03 0.0
-2.965054e-02 -5.825525e-03 0.0
-2.835900e-02 -6.007283e-03 0.0
-2.703279e-02 -6.159802e-03 0.0
-2.567820e-02 -6.282141e-03 0.0
-2.430173e-02 -6.373528e-03 0.0
-2.290996e-02 -6.433365e-03 0.0
-2.150959e-02 -6.461239e-03 0.0
-2.010737e-02 -6.456929e-03 0.0
-1.871006e-02 -6.420418e-03 0.0
-1.732439e-02 -6.351884e-03 0.0
-1.595701e-02 -6.251699e-03 0.0
-1.461447e-02 -6.120435e-03 0.0
-1.330315e-02 -5.958871e-03 0.0
-1.202923e-02 -5.767991e-03 0.0
-1.079866e-02 -5.548996e-03 0.0