# vtk DataFile Version 3.0
Vector Field
ASCII
DATASET RECTILINEAR_GRID
DIMENSIONS 102 102 1
X_COORDINATES 102 double
0.000000 0.100000 0.200000 0.300000 0.400000 0.500000 0.600000 0.700000 0.800000 0.900000 1.000000 1.100000 1.200000 1.300000 1.400000 1.500000 1.600000 1.700000 1.800000 1.900000 2.000000 2.100000 2.200000 2.300000 2.400000 2.500000 2.600000 2.700000 2.800000 2.900000 3.000000 3.100000 3.200000 3.300000 3.400000 3.500000 3.600000 3.700000 3.800000 3.900000 4.000000 4.100000 4.200000 4.300000 4.400000 4.500000 4.600000 4.700000 4.800000 4.900000 5.000000 5.100000 5.200000 5.300000 5.400000 5.500000 5.600000 5.700000 5.800000 5.900000 6.000000 6.100000 6.200000 6.300000 6.400000 6.500000 6.600000 6.700000 6.800000 6.900000 7.000000 7.100000 7.200000 7.300000 7.400000 7.500000 7.600000 7.700000 7.800000 7.900000 8.000000 8.100000 8.200000 8.300000 8.400000 8.500000 8.600000 8.700000 8.800000 8.900000 9.000000 9.100000 9.200000 9.300000 9.400000 9.500000 9.600000 9.700000 9.800000 9.900000 10.000000 10.100000 
Y_COORDINATES 102 double
0.000000 0.100000 0.200000 0.300000 0.400000 0.500000 0.600000 0.700000 0.800000 0.900000 1.000000 1.100000 1.200000 1.300000 1.400000 1.500000 1.600000 1.700000 1.800000 1.900000 2.000000 2.100000 2.200000 2.300000 2.400000 2.500000 2.600000 2.700000 2.800000 2.900000 3.000000 3.100000 3.200000 3.300000 3.400000 3.500000 3.600000 3.700000 3.800000 3.900000 4.000000 4.100000 4.200000 4.300000 4.400000 4.500000 4.600000 4.700000 4.800000 4.900000 5.000000 5.100000 5.200000 5.300000 5.400000 5.500000 5.600000 5.700000 5.800000 5.900000 6.000000 6.100000 6.200000 6.300000 6.400000 6.500000 6.600000 6.700000 6.800000 6.900000 7.000000 7.100000 7.200000 7.300000 7.400000 7.500000 7.600000 7.700000 7.800000 7.900000 8.000000 8.100000 8.200000 8.300000 8.400000 8.500000 8.600000 8.700000 8.800000 8.900000 9.000000 9.100000 9.200000 9.300000 9.400000 9.500000 9.600000 9.700000 9.800000 9.900000 10.000000 10.100000 
Z_COORDINATES 1 double
0.0
POINT_DATA 10404
VECTORS Velocity double
0.000000e+00 0.000000e+00 0.0
-1.752886e-05 0.000000e+00 0.0
-2.853864e-05 0.000000e+00 0.0
-3.428352e-05 0.000000e+00 0.0
-3.206760e-05 0.000000e+00 0.0
-2.232884e-05 0.000000e+00 0.0
-5.697873e-06 0.000000e+00 0.0
1.839929e-05 0.000000e+00 0.0
5.176677e-05 0.000000e+00 0.0
9.652518e-05 0.000000e+00 0.0
1.540286e-04 0.000000e+00 0.0
2.242099e-04 0.000000e+00 0.0
3.055705e-04 0.000000e+00 0.0
3.956823e-04 0.000000e+00 0.0
4.919004e-04 0.000000e+00 0.0
5.919920e-04 0.000000e+00 0.0
6.944995e-04 0.000000e+00 0.0
7.987923e-04 0.000000e+00 0.0
9.048626e-04 0.000000e+00 0.0
1.012979e-03 0.000000e+00 0.0
1.123335e-03 0.000000e+00 0.0
1.235800e-03 0.000000e+00 0.0
1.349847e-03 0.000000e+00 0.0
1.464652e-03 0.000000e+00 0.0
1.579286e-03 0.000000e+00 0.0
1.692926e-03 0.000000e+00 0.0
1.804973e-03 0.000000e+00 0.0
1.915060e-03 0.000000e+00 0.0
2.022961e-03 0.000000e+00 0.0
2.128452e-03 0.000000e+00 0.0
2.231224e-03 0.000000e+00 0.0
2.330847e-03 0.000000e+00 0.0
2.426819e-03 0.000000e+00 0.0
2.518656e-03 0.000000e+00 0.0
2.605962e-03 0.000000e+00 0.0
2.688472e-03 0.000000e+00 0.0
2.766018e-03 0.000000e+00 0.0
2.838469e-03 0.000000e+00 0.0
2.905648e-03 0.000000e+00 0.0
2.967283e-03 0.000000e+00 0.0
3.022995e-03 0.000000e+00 0.0
3.072340e-03 0.000000e+00 0.0
3.114873e-03 0.000000e+00 0.0
3.150212e-03 0.000000e+00 0.0
3.178077e-03 0.000000e+00 0.0
3.198295e-03 0.000000e+00 0.0
3.210772e-03 0.000000e+00 0.0
3.215456e-03 0.000000e+00 0.0
3.212304e-03 0.000000e+00 0.0
3.201282e-03 0.000000e+00 0.0
3.182359e-03 0.000000e+00 0.0
3.155517e-03 0.000000e+00 0.0
3.120779e-03 0.000000e+00 0.0
3.078224e-03 0.000000e+00 0.0
3.028002e-03 0.000000e+00 0.0
2.970330e-03 0.000000e+00 0.0
2.905478e-03 0.000000e+00 0.0
2.833759e-03 0.000000e+00 0.0
2.755508e-03 0.000000e+00 0.0
2.671084e-03 0.000000e+00 0.0
2.580863e-03 0.000000e+00 0.0
2.485249e-03 0.000000e+00 0.0
2.384681e-03 0.000000e+00 0.0
2.279640e-03 0.000000e+00 0.0
2.170650e-03 0.000000e+00 0.0
2.058275e-03 0.000000e+00 0.0
1.943108e-03 0.000000e+00 0.0
1.825764e-03 0.000000e+00 0.0
1.706868e-03 0.000000e+00 0.0
1.587045e-03 0.000000e+00 0.0
1.466921e-03 0.000000e+00 0.0
1.347120e-03 0.000000e+00 0.0
1.228265e-03 0.000000e+00 0.0
1.110979e-03 0.000000e+00 0.0
9.958863e-04 0.000000e+00 0.0
8.836040e-04 0.000000e+00 0.0
7.747406e-04 0.000000e+00 0.0
6.698886e-04 0.000000e+00 0.0
5.696184e-04 0.000000e+00 0.0
4.744735e-04 0.000000e+00 0.0
3.849668e-04 0.000000e+00 0.0
3.015772e-04 0.000000e+00 0.0
2.247467e-04 0.000000e+00 0.0
1.548773e-04 0.000000e+00 0.0
9.232596e-05 0.000000e+00 0.0
3.739985e-05 0.000000e+00 0.0
-9.651048e-06 0.000000e+00 0.0
-4.864177e-05 0.000000e+00 0.0
-7.946282e-05 0.000000e+00 0.0
-1.020931e-04 0.000000e+00 0.0
-1.166165e-04 0.000000e+00 0.0
-1.232445e-04 0.000000e+00 0.0
-1.223466e-04 0.000000e+00 0.0
-1.144952e-04 0.000000e+00 0.0
-1.005291e-04 0.000000e+00 0.0
-8.164985e-05 0.000000e+00 0.0
-5.956503e-05 0.000000e+00 0.0
-3.668899e-05 0.000000e+00 0.0
-1.637207e-05 0.000000e+00 0.0
-2.898841e-06 0.000000e+00 0.0
-0.000000e+00 0.000000e+00 0.0
0.000000e+00 0.000000e+00 0.0
0.000000e+00 3.455384e-07 0.0
-9.244848e-06 -2.691651e-05 0.0
6.636540e-06 -2.982758e-05 0.0
2.611122e-05 -1.960341e-05 0.0
4.088902e-05 -1.593018e-06 0.0
4.438304e-05 1.758541e-05 0.0
3.226794e-05 3.345318e-05 0.0
3.033400e-06 4.415083e-05 0.0
-4.218687e-05 5.022289e-05 0.0
-1.004989e-04 5.373173e-05 0.0
-1.684461e-04 5.711041e-05 0.0
-2.430681e-04 6.219065e-05 0.0
-3.225204e-04 6.966913e-05 0.0
-4.061728e-04 7.907380e-05 0.0
-4.942864e-04 8.913003e-05 0.0
-5.874673e-04 9.833256e-05 0.0
-6.861226e-04 1.055009e-04 0.0
-7.901019e-04 1.101309e-04 0.0
-8.986193e-04 1.124460e-04 0.0
-1.010439e-03 1.131707e-04 0.0
-1.124207e-03 1.131568e-04 0.0
-1.238776e-03 1.130377e-04 0.0
-1.353380e-03 1.130498e-04 0.0
-1.467622e-03 1.130672e-04 0.0
-1.581311e-03 1.127910e-04 0.0
-1.694251e-03 1.119732e-04 0.0
-1.806099e-03 1.105596e-04 0.0
-1.916334e-03 1.086965e-04 0.0
-2.024347e-03 1.066208e-04 0.0
-2.129571e-03 1.045090e-04 0.0
-2.231592e-03 1.023661e-04 0.0
-2.330187e-03 1.000098e-04 0.0
-2.425257e-03 9.715009e-05 0.0
-2.516722e-03 9.352173e-05 0.0
-2.604399e-03 8.900599e-05 0.0
-2.687940e-03 8.368614e-05 0.0
-2.766835e-03 7.781533e-05 0.0
-2.840496e-03 7.171481e-05 0.0
-2.908362e-03 6.564969e-05 0.0
-2.969987e-03 5.973653e-05 0.0
-3.025081e-03 5.391878e-05 0.0
-3.073489e-03 4.801383e-05 0.0
-3.115120e-03 4.180440e-05 0.0
-3.149873e-03 3.513137e-05 0.0
-3.177588e-03 2.794994e-05 0.0
-3.198034e-03 2.033273e-05 0.0
-3.210936e-03 1.242779e-05 0.0
-3.216032e-03 4.397627e-06 0.0
-3.213125e-03 -3.630871e-06 0.0
-3.202125e-03 -1.158203e-05 0.0
-3.183044e-03 -1.945258e-05 0.0
-3.155971e-03 -2.727682e-05 0.0
-3.121040e-03 -3.508510e-05 0.0
-3.078405e-03 -4.287384e-05 0.0
-3.028233e-03 -5.059472e-05 0.0
-2.970696e-03 -5.816304e-05 0.0
-2.905993e-03 -6.547873e-05 0.0
-2.834361e-03 -7.245038e-05 0.0
-2.756091e-03 -7.901323e-05 0.0
-2.671536e-03 -8.513573e-05 0.0
-2.581110e-03 -9.081405e-05 0.0
-2.485276e-03 -9.605817e-05 0.0
-2.384531e-03 -1.008757e-04 0.0
-2.279396e-03 -1.052596e-04 0.0
-2.170403e-03 -1.091827e-04 0.0
-2.058097e-03 -1.126017e-04 0.0
-1.943032e-03 -1.154656e-04 0.0
-1.825780e-03 -1.177269e-04 0.0
-1.706934e-03 -1.193502e-04 0.0
-1.587109e-03 -1.203167e-04 0.0
-1.466935e-03 -1.206229e-04 0.0
-1.347059e-03 -1.202769e-04 0.0
-1.228124e-03 -1.192913e-04 0.0
-1.110774e-03 -1.176784e-04 0.0
-9.956397e-04 -1.154480e-04 0.0
-8.833385e-04 -1.126081e-04 0.0
-7.744715e-04 -1.091676e-04 0.0
-6.696213e-04 -1.051388e-04 0.0
-5.693507e-04 -1.005397e-04 0.0
-4.741997e-04 -9.539470e-05 0.0
-3.846823e-04 -8.973437e-05 0.0
-3.012813e-04 -8.359458e-05 0.0
-2.244438e-04 -7.701502e-05 0.0
-1.545750e-04 -7.003846e-05 0.0
-9.203380e-05 -6.271079e-05 0.0
-3.712640e-05 -5.508192e-05 0.0
9.899481e-06 -4.720724e-05 0.0
4.886207e-05 -3.914962e-05 0.0
7.965504e-05 -3.098229e-05 0.0
1.022595e-04 -2.279191e-05 0.0
1.167605e-04 -1.468274e-05 0.0
1.233689e-04 -6.782099e-06 0.0
1.224533e-04 7.505977e-07 0.0
1.145851e-04 7.711674e-06 0.0
1.006026e-04 1.383299e-05 0.0
8.170735e-05 1.875062e-05 0.0
5.960761e-05 2.195877e-05 0.0
3.671962e-05 2.275032e-05 0.0
1.639536e-05 2.018718e-05 0.0
2.918312e-06 1.334047e-05 0.0
0.000000e+00 2.781710e-06 0.0
0.000000e+00 -2.831080e-06 0.0
0.000000e+00 2.072068e-05 0.0
1.538452e-06 -4.264855e-05 0.0
2.841611e-05 -4.549964e-05 0.0
4.678385e-05 -2.225871e-05 0.0
4.389015e-05 1.483291e-05 0.0
1.160519e-05 5.611176e-05 0.0
-5.376749e-05 9.610070e-05 0.0
-1.523383e-04 1.328687e-04 0.0
-2.818810e-04 1.668350e-04 0.0
-4.391160e-04 1.993855e-04 0.0
-6.207330e-04 2.317313e-04 0.0
-8.239966e-04 2.642469e-04 0.0
-1.046917e-03 2.963303e-04 0.0
-1.288079e-03 3.266831e-04 0.0
-1.546276e-03 3.538279e-04 0.0
-1.820140e-03 3.766406e-04 0.0
-2.107898e-03 3.946982e-04 0.0
-2.407353e-03 4.083291e-04 0.0
-2.716064e-03 4.183775e-04 0.0
-3.031623e-03 4.258138e-04 0.0
-3.351904e-03 4.313756e-04 0.0
-3.675166e-03 4.353865e-04 0.0
-4.000003e-03 4.377989e-04 0.0
-4.325189e-03 4.383941e-04 0.0
-4.649501e-03 4.370117e-04 0.0
-4.971631e-03 4.336892e-04 0.0
-5.290181e-03 4.286576e-04 0.0
-5.603760e-03 4.222184e-04 0.0
-5.911083e-03 4.145860e-04 0.0
-6.211045e-03 4.057831e-04 0.0
-6.502718e-03 3.956376e-04 0.0
-6.785277e-03 3.838772e-04 0.0
-7.057898e-03 3.702723e-04 0.0
-7.319666e-03 3.547564e-04 0.0
-7.569544e-03 3.374720e-04 0.0
-7.806397e-03 3.187234e-04 0.0
-8.029069e-03 2.988626e-04 0.0
-8.236472e-03 2.781611e-04 0.0
-8.427647e-03 2.567244e-04 0.0
-8.601780e-03 2.344829e-04 0.0
-8.758167e-03 2.112559e-04 0.0
-8.896154e-03 1.868553e-04 0.0
-9.015086e-03 1.611799e-04 0.0
-9.114283e-03 1.342644e-04 0.0
-9.193055e-03 1.062683e-04 0.0
-9.250743e-03 7.742303e-05 0.0
-9.286774e-03 4.796457e-05 0.0
-9.300703e-03 1.808712e-05 0.0
-9.292241e-03 -1.206602e-05 0.0
-9.261268e-03 -4.236968e-05 0.0
-9.207804e-03 -7.273358e-05 0.0
-9.131979e-03 -1.030601e-04 0.0
-9.034019e-03 -1.332119e-04 0.0
-8.914236e-03 -1.630058e-04 0.0
-8.773043e-03 -1.922268e-04 0.0
-8.610957e-03 -2.206544e-04 0.0
-8.428622e-03 -2.480872e-04 0.0
-8.226807e-03 -2.743587e-04 0.0
-8.006413e-03 -2.993396e-04 0.0
-7.768460e-03 -3.229280e-04 0.0
-7.514076e-03 -3.450335e-04 0.0
-7.244485e-03 -3.655613e-04 0.0
-6.960990e-03 -3.844024e-04 0.0
-6.664969e-03 -4.014323e-04 0.0
-6.357869e-03 -4.165186e-04 0.0
-6.041205e-03 -4.295322e-04 0.0
-5.716556e-03 -4.403595e-04 0.0
-5.385562e-03 -4.489104e-04 0.0
-5.049915e-03 -4.551213e-04 0.0
-4.711350e-03 -4.589533e-04 0.0
-4.371628e-03 -4.603869e-04 0.0
-4.032523e-03 -4.594172e-04 0.0
-3.695810e-03 -4.560496e-04 0.0
-3.363252e-03 -4.502960e-04 0.0
-3.036591e-03 -4.421770e-04 0.0
-2.717542e-03 -4.317251e-04 0.0
-2.407781e-03 -4.189878e-04 0.0
-2.108937e-03 -4.040291e-04 0.0
-1.822581e-03 -3.869304e-04 0.0
-1.550216e-03 -3.677897e-04 0.0
-1.293262e-03 -3.467207e-04 0.0
-1.053046e-03 -3.238519e-04 0.0
-8.307885e-04 -2.993265e-04 0.0
-6.275890e-04 -2.733039e-04 0.0
-4.444123e-04 -2.459617e-04 0.0
-2.820718e-04 -2.174994e-04 0.0
-1.412105e-04 -1.881429e-04 0.0
-2.227792e-05 -1.581494e-04 0.0
7.449746e-05 -1.278152e-04 0.0
1.491433e-04 -9.748551e-05 0.0
2.019898e-04 -6.756879e-05 0.0
2.337262e-04 -3.855283e-05 0.0
2.454782e-04 -1.103281e-05 0.0
2.389070e-04 1.425212e-05 0.0
2.163401e-04 3.636806e-05 0.0
1.809390e-04 5.411833e-05 0.0
1.368996e-04 6.596420e-05 0.0
8.964633e-05 6.996827e-05 0.0
4.591276e-05 6.388444e-05 0.0
1.343655e-05 4.578003e-05 0.0
0.000000e+00 1.618142e-05 0.0
0.000000e+00 -1.622600e-05 0.0
0.000000e+00 4.084206e-05 0.0
6.340179e-06 -4.976129e-05 0.0
2.543616e-05 -4.890848e-05 0.0
2.251146e-05 -6.354208e-06 0.0
-1.609504e-05 5.877340e-05 0.0
-9.795698e-05 1.342897e-04 0.0
-2.257021e-04 2.132878e-04 0.0
-3.986256e-04 2.926027e-04 0.0
-6.142848e-04 3.711304e-04 0.0
-8.697259e-04 4.484070e-04 0.0
-1.162189e-03 5.237105e-04 0.0
-1.489314e-03 5.957436e-04 0.0
-1.848991e-03 6.627899e-04 0.0
-2.239020e-03 7.231503e-04 0.0
-2.656804e-03 7.756233e-04 0.0
-3.099193e-03 8.198166e-04 0.0
-3.562575e-03 8.561622e-04 0.0
-4.043150e-03 8.856451e-04 0.0
-4.537279e-03 9.093816e-04 0.0
-5.041730e-03 9.282420e-04 0.0
-5.553764e-03 9.426688e-04 0.0
-6.071020e-03 9.527318e-04 0.0
-6.591319e-03 9.583423e-04 0.0
-7.112478e-03 9.594864e-04 0.0
-7.632229e-03 9.563527e-04 0.0
-8.148259e-03 9.493125e-04 0.0
-8.658326e-03 9.387816e-04 0.0
-9.160378e-03 9.250562e-04 0.0
-9.652599e-03 9.082148e-04 0.0
-1.013338e-02 8.881310e-04 0.0
-1.060121e-02 8.645862e-04 0.0
-1.105457e-02 8.374208e-04 0.0
-1.149183e-02 8.066529e-04 0.0
-1.191125e-02 7.725105e-04 0.0
-1.231103e-02 7.353678e-04 0.0
-1.268941e-02 6.956182e-04 0.0
-1.304476e-02 6.535450e-04 0.0
-1.337561e-02 6.092482e-04 0.0
-1.368067e-02 5.626544e-04 0.0
-1.395874e-02 5.136014e-04 0.0
-1.420865e-02 4.619529e-04 0.0
-1.442924e-02 4.076912e-04 0.0
-1.461929e-02 3.509546e-04 0.0
-1.477764e-02 2.920105e-04 0.0
-1.490319e-02 2.311895e-04 0.0
-1.499500e-02 1.688164e-04 0.0
-1.505230e-02 1.051696e-04 0.0
-1.507454e-02 4.048419e-05 0.0
-1.506134e-02 -2.500729e-05 0.0
-1.501253e-02 -9.101315e-05 0.0
-1.492809e-02 -1.572191e-04 0.0
-1.480816e-02 -2.232726e-04 0.0
-1.465304e-02 -2.887810e-04 0.0
-1.446319e-02 -3.533315e-04 0.0
-1.423928e-02 -4.165186e-04 0.0
-1.398216e-02 -4.779683e-04 0.0
-1.369290e-02 -5.373483e-04 0.0
-1.337274e-02 -5.943649e-04 0.0
-1.302313e-02 -6.487493e-04 0.0
-1.264566e-02 -7.002401e-04 0.0
-1.224208e-02 -7.485696e-04 0.0
-1.181429e-02 -7.934582e-04 0.0
-1.136429e-02 -8.346187e-04 0.0
-1.089423e-02 -8.717675e-04 0.0
-1.040639e-02 -9.046390e-04 0.0
-9.903161e-03 -9.329984e-04 0.0
-9.387036e-03 -9.566485e-04 0.0
-8.860609e-03 -9.754322e-04 0.0
-8.326550e-03 -9.892291e-04 0.0
-7.787582e-03 -9.979506e-04 0.0
-7.246467e-03 -1.001536e-03 0.0
-6.705982e-03 -9.999514e-04 0.0
-6.168905e-03 -9.931897e-04 0.0
-5.638003e-03 -9.812683e-04 0.0
-5.116012e-03 -9.642335e-04 0.0
-4.605630e-03 -9.421632e-04 0.0
-4.109493e-03 -9.151694e-04 0.0
-3.630163e-03 -8.833974e-04 0.0
-3.170106e-03 -8.470260e-04 0.0
-2.731676e-03 -8.062661e-04 0.0
-2.317096e-03 -7.613610e-04 0.0
-1.928433e-03 -7.125869e-04 0.0
-1.567586e-03 -6.602553e-04 0.0
-1.236258e-03 -6.047172e-04 0.0
-9.359345e-04 -5.463672e-04 0.0
-6.678566e-04 -4.856509e-04 0.0
-4.329901e-04 -4.230715e-04 0.0
-2.319885e-04 -3.592012e-04 0.0
-6.514975e-05 -2.946941e-04 0.0
6.763676e-05 -2.303051e-04 0.0
1.669528e-04 -1.669145e-04 0.0
2.339356e-04 -1.055650e-04 0.0
2.703740e-04 -4.750185e-05 0.0
2.788289e-04 5.764395e-06 0.0
2.627781e-04 5.238375e-05 0.0
2.267794e-04 9.008035e-05 0.0
1.766375e-04 1.160696e-04 0.0
1.195319e-04 1.270362e-04 0.0
6.406848e-05 1.193105e-04 0.0
2.026384e-05 8.954724e-05 0.0
0.000000e+00 3.640773e-05 0.0
0.000000e+00 -3.644807e-05 0.0
0.000000e+00 5.275858e-05 0.0
8.060643e-06 -4.535431e-05 0.0
5.295405e-06 -3.228009e-05 0.0
-3.367728e-05 3.824197e-05 0.0
-1.206368e-04 1.418143e-04 0.0
-2.613570e-04 2.639654e-04 0.0
-4.573932e-04 3.957376e-04 0.0
-7.078993e-04 5.317031e-04 0.0
-1.011019e-03 6.682398e-04 0.0
-1.364695e-03 8.023671e-04 0.0
-1.766917e-03 9.311957e-04 0.0
-2.215570e-03 1.051910e-03 0.0
-2.708090e-03 1.162090e-03 0.0
-3.241167e-03 1.260109e-03 0.0
-3.810655e-03 1.345386e-03 0.0
-4.411764e-03 1.418331e-03 0.0
-5.039461e-03 1.480007e-03 0.0
-5.688923e-03 1.531649e-03 0.0
-6.355846e-03 1.574244e-03 0.0
-7.036520e-03 1.608348e-03 0.0
-7.727676e-03 1.634150e-03 0.0
-8.426233e-03 1.651710e-03 0.0
-9.129079e-03 1.661197e-03 0.0
-9.832997e-03 1.663005e-03 0.0
-1.053474e-02 1.657706e-03 0.0
-1.123120e-02 1.645886e-03 0.0
-1.191950e-02 1.627977e-03 0.0
-1.259711e-02 1.604156e-03 0.0
-1.326172e-02 1.574384e-03 0.0
-1.391116e-02 1.538532e-03 0.0
-1.454322e-02 1.496548e-03 0.0
-1.515557e-02 1.448571e-03 0.0
-1.574579e-02 1.394949e-03 0.0
-1.631140e-02 1.336152e-03 0.0
-1.685004e-02 1.272632e-03 0.0
-1.735952e-02 1.204699e-03 0.0
-1.783788e-02 1.132454e-03 0.0
-1.828334e-02 1.055830e-03 0.0
-1.869424e-02 9.746974e-04 0.0
-1.906891e-02 8.889870e-04 0.0
-1.940568e-02 7.987836e-04 0.0
-1.970281e-02 7.043449e-04 0.0
-1.995865e-02 6.060575e-04 0.0
-2.017165e-02 5.043586e-04 0.0
-2.034046e-02 3.996657e-04 0.0
-2.046395e-02 2.923475e-04 0.0
-2.054123e-02 1.827416e-04 0.0
-2.057165e-02 7.120839e-05 0.0
-2.055472e-02 -4.180529e-05 0.0
-2.049017e-02 -1.557146e-04 0.0
-2.037791e-02 -2.698781e-04 0.0
-2.021810e-02 -3.836256e-04 0.0
-2.001110e-02 -4.962835e-04 0.0
-1.975757e-02 -6.072030e-04 0.0
-1.945841e-02 -7.157795e-04 0.0
-1.911482e-02 -8.214559e-04 0.0
-1.872822e-02 -9.237127e-04 0.0
-1.830030e-02 -1.022049e-03 0.0
-1.783294e-02 -1.115966e-03 0.0
-1.732824e-02 -1.204954e-03 0.0
-1.678848e-02 -1.288496e-03 0.0
-1.621615e-02 -1.366076e-03 0.0
-1.561390e-02 -1.437194e-03 0.0
-1.498458e-02 -1.501386e-03 0.0
-1.433120e-02 -1.558234e-03 0.0
-1.365696e-02 -1.607376e-03 0.0
-1.296517e-02 -1.648501e-03 0.0
-1.225928e-02 -1.681351e-03 0.0
-1.154281e-02 -1.705716e-03 0.0
-1.081936e-02 -1.721426e-03 0.0
-1.009259e-02 -1.728362e-03 0.0
-9.366158e-03 -1.726449e-03 0.0
-8.643752e-03 -1.715669e-03 0.0
-7.929033e-03 -1.696054e-03 0.0
-7.225635e-03 -1.667689e-03 0.0
-6.537132e-03 -1.630714e-03 0.0
-5.867022e-03 -1.585325e-03 0.0
-5.218699e-03 -1.531772e-03 0.0
-4.595427e-03 -1.470361e-03 0.0
-4.000318e-03 -1.401452e-03 0.0
-3.436305e-03 -1.325462e-03 0.0
-2.906117e-03 -1.242868e-03 0.0
-2.412250e-03 -1.154212e-03 0.0
-1.956941e-03 -1.060107e-03 0.0
-1.542132e-03 -9.612442e-04 0.0
-1.169435e-03 -8.584014e-04 0.0
-8.400916e-04 -7.524560e-04 0.0
-5.549250e-04 -6.444004e-04 0.0
-3.142848e-04 -5.353623e-04 0.0
-1.179837e-04 -4.266336e-04 0.0
3.477838e-05 -3.197061e-04 0.0
1.455013e-04 -2.163208e-04 0.0
2.164928e-04 -1.185292e-04 0.0
2.509857e-04 -2.876654e-05 0.0
2.532706e-04 5.005958e-05 0.0
2.288346e-04 1.144769e-04 0.0
1.844935e-04 1.603726e-04 0.0
1.285092e-04 1.829819e-04 0.0
7.073534e-05 1.770466e-04 0.0
2.295532e-05 1.372896e-04 0.0
0.000000e+00 5.932522e-05 0.0
0.000000e+00 -5.935943e-05 0.0
0.000000e+00 5.100442e-05 0.0
5.867026e-06 -3.024698e-05 0.0
-2.768147e-05 8.381543e-06 0.0
-1.113861e-04 1.188071e-04 0.0
-2.537804e-04 2.732746e-04 0.0
-4.586197e-04 4.549643e-04 0.0
-7.267661e-04 6.522599e-04 0.0
-1.057721e-03 8.567785e-04 0.0
-1.450515e-03 1.061905e-03 0.0
-1.903978e-03 1.262010e-03 0.0
-2.416550e-03 1.452252e-03 0.0
-2.985892e-03 1.628746e-03 0.0
-3.608540e-03 1.788879e-03 0.0
-4.279825e-03 1.931463e-03 0.0
-4.994138e-03 2.056601e-03 0.0
-5.745454e-03 2.165246e-03 0.0
-6.527906e-03 2.258631e-03 0.0
-7.336194e-03 2.337783e-03 0.0
-8.165693e-03 2.403318e-03 0.0
-9.012279e-03 2.455509e-03 0.0
-9.872029e-03 2.494547e-03 0.0
-1.074097e-02 2.520787e-03 0.0
-1.161499e-02 2.534855e-03 0.0
-1.248993e-02 2.537568e-03 0.0
-1.336181e-02 2.529738e-03 0.0
-1.422694e-02 2.511980e-03 0.0
-1.508202e-02 2.484620e-03 0.0
-1.592406e-02 2.447746e-03 0.0
-1.675020e-02 2.401362e-03 0.0
-1.755756e-02 2.345560e-03 0.0
-1.834313e-02 2.280640e-03 0.0
-1.910379e-02 2.207105e-03 0.0
-1.983644e-02 2.125553e-03 0.0
-2.053809e-02 2.036525e-03 0.0
-2.120599e-02 1.940372e-03 0.0
-2.183770e-02 1.837216e-03 0.0
-2.243093e-02 1.727008e-03 0.0
-2.298356e-02 1.609665e-03 0.0
-2.349343e-02 1.485200e-03 0.0
-2.395835e-02 1.353813e-03 0.0
-2.437611e-02 1.215889e-03 0.0
-2.474454e-02 1.071940e-03 0.0
-2.506163e-02 9.225091e-04 0.0
-2.532560e-02 7.681055e-04 0.0
-2.553496e-02 6.091875e-04 0.0
-2.568843e-02 4.461990e-04 0.0
-2.578500e-02 2.796369e-04 0.0
-2.582385e-02 1.101192e-04 0.0
-2.580434e-02 -6.157155e-05 0.0
-2.572610e-02 -2.344772e-04 0.0
-2.558900e-02 -4.075944e-04 0.0
-2.539320e-02 -5.799350e-04 0.0
-2.513920e-02 -7.505547e-04 0.0
-2.482784e-02 -9.185663e-04 0.0
-2.446027e-02 -1.083134e-03 0.0
-2.403796e-02 -1.243455e-03 0.0
-2.356268e-02 -1.398737e-03 0.0
-2.303644e-02 -1.548180e-03 0.0
-2.246151e-02 -1.690971e-03 0.0
-2.184042e-02 -1.826291e-03 0.0
-2.117593e-02 -1.953330e-03 0.0
-2.047105e-02 -2.071310e-03 0.0
-1.972904e-02 -2.179504e-03 0.0
-1.895338e-02 -2.277250e-03 0.0
-1.814777e-02 -2.363952e-03 0.0
-1.731609e-02 -2.439086e-03 0.0
-1.646240e-02 -2.502191e-03 0.0
-1.559089e-02 -2.552868e-03 0.0
-1.470585e-02 -2.590785e-03 0.0
-1.381166e-02 -2.615671e-03 0.0
-1.291276e-02 -2.627333e-03 0.0
-1.201364e-02 -2.625655e-03 0.0
-1.111877e-02 -2.610609e-03 0.0
-1.023264e-02 -2.582248e-03 0.0
-9.359679e-03 -2.540703e-03 0.0
-8.504260e-03 -2.486190e-03 0.0
-7.670649e-03 -2.419001e-03 0.0
-6.862987e-03 -2.339514e-03 0.0
-6.085253e-03 -2.248186e-03 0.0
-5.341240e-03 -2.145563e-03 0.0
-4.634523e-03 -2.032277e-03 0.0
-3.968422e-03 -1.909058e-03 0.0
-3.345975e-03 -1.776734e-03 0.0
-2.769897e-03 -1.636244e-03 0.0
-2.242540e-03 -1.488645e-03 0.0
-1.765852e-03 -1.335123e-03 0.0
-1.341322e-03 -1.177013e-03 0.0
-9.699314e-04 -1.015817e-03 0.0
-6.520903e-04 -8.532318e-04 0.0
-3.875658e-04 -6.911904e-04 0.0
-1.754053e-04 -5.319036e-04 0.0
-1.384495e-05 -3.779214e-04 0.0
9.978785e-05 -2.322037e-04 0.0
1.691844e-04 -9.820494e-05 0.0
1.991722e-04 2.003080e-05 0.0
1.958309e-04 1.177785e-04 0.0
1.666115e-04 1.895541e-04 0.0
1.204747e-04 2.290808e-04 0.0
6.812785e-05 2.293562e-04 0.0
2.252558e-05 1.828546e-04 0.0
0.000000e+00 8.181316e-05 0.0
0.000000e+00 -8.183782e-05 0.0
0.000000e+00 3.287167e-05 0.0
-1.445310e-06 -6.369038e-06 0.0
-7.010303e-05 7.544090e-05 0.0
-2.023580e-04 2.408681e-04 0.0
-4.032733e-04 4.603880e-04 0.0
-6.748986e-04 7.146762e-04 0.0
-1.017798e-03 9.891005e-04 0.0
-1.431998e-03 1.272080e-03 0.0
-1.917267e-03 1.554044e-03 0.0
-2.472874e-03 1.827058e-03 0.0
-3.097092e-03 2.084873e-03 0.0
-3.786755e-03 2.323137e-03 0.0
-4.537126e-03 2.539464e-03 0.0
-5.342180e-03 2.733198e-03 0.0
-6.195210e-03 2.904855e-03 0.0
-7.089531e-03 3.055432e-03 0.0
-8.018993e-03 3.185838e-03 0.0
-8.978150e-03 3.296627e-03 0.0
-9.962096e-03 3.388071e-03 0.0
-1.096614e-02 3.460431e-03 0.0
-1.198551e-02 3.514210e-03 0.0
-1.301527e-02 3.550258e-03 0.0
-1.405042e-02 3.569653e-03 0.0
-1.508612e-02 3.573467e-03 0.0
-1.611790e-02 3.562541e-03 0.0
-1.714170e-02 3.537393e-03 0.0
-1.815381e-02 3.498279e-03 0.0
-1.915070e-02 3.445373e-03 0.0
-2.012880e-02 3.378953e-03 0.0
-2.108444e-02 3.299515e-03 0.0
-2.201384e-02 3.207757e-03 0.0
-2.291325e-02 3.104440e-03 0.0
-2.377908e-02 2.990225e-03 0.0
-2.460806e-02 2.865532e-03 0.0
-2.539719e-02 2.730527e-03 0.0
-2.614373e-02 2.585202e-03 0.0
-2.684504e-02 2.429536e-03 0.0
-2.749848e-02 2.263642e-03 0.0
-2.810137e-02 2.087841e-03 0.0
-2.865098e-02 1.902654e-03 0.0
-2.914467e-02 1.708713e-03 0.0
-2.957998e-02 1.506666e-03 0.0
-2.995470e-02 1.297110e-03 0.0
-3.026690e-02 1.080588e-03 0.0
-3.051494e-02 8.576497e-04 0.0
-3.069737e-02 6.289316e-04 0.0
-3.081300e-02 3.952271e-04 0.0
-3.086079e-02 1.575239e-04 0.0
-3.083999e-02 -8.300003e-05 0.0
-3.075010e-02 -3.250079e-04 0.0
-3.059102e-02 -5.671572e-04 0.0
-3.036297e-02 -8.081662e-04 0.0
-3.006659e-02 -1.046820e-03 0.0
-2.970289e-02 -1.281956e-03 0.0
-2.927323e-02 -1.512437e-03 0.0
-2.877930e-02 -1.737123e-03 0.0
-2.822313e-02 -1.954857e-03 0.0
-2.760700e-02 -2.164466e-03 0.0
-2.693352e-02 -2.364768e-03 0.0
-2.620560e-02 -2.554605e-03 0.0
-2.542645e-02 -2.732858e-03 0.0
-2.459958e-02 -2.898477e-03 0.0
-2.372877e-02 -3.050490e-03 0.0
-2.281808e-02 -3.188006e-03 0.0
-2.187182e-02 -3.310215e-03 0.0
-2.089451e-02 -3.416387e-03 0.0
-1.989082e-02 -3.505870e-03 0.0
-1.886563e-02 -3.578094e-03 0.0
-1.782390e-02 -3.632576e-03 0.0
-1.677072e-02 -3.668934e-03 0.0
-1.571124e-02 -3.686894e-03 0.0
-1.465068e-02 -3.686296e-03 0.0
-1.359426e-02 -3.667102e-03 0.0
-1.254719e-02 -3.629387e-03 0.0
-1.151463e-02 -3.573333e-03 0.0
-1.050166e-02 -3.499235e-03 0.0
-9.513252e-03 -3.407500e-03 0.0
-8.554220e-03 -3.298646e-03 0.0
-7.629195e-03 -3.173314e-03 0.0
-6.742589e-03 -3.032265e-03 0.0
-5.898562e-03 -2.876388e-03 0.0
-5.100977e-03 -2.706708e-03 0.0
-4.353368e-03 -2.524392e-03 0.0
-3.658889e-03 -2.330758e-03 0.0
-3.020274e-03 -2.127288e-03 0.0
-2.439782e-03 -1.915641e-03 0.0
-1.919144e-03 -1.697679e-03 0.0
-1.459506e-03 -1.475487e-03 0.0
-1.061361e-03 -1.251415e-03 0.0
-7.244798e-04 -1.028114e-03 0.0
-4.478299e-04 -8.085982e-04 0.0
-2.294918e-04 -5.963045e-04 0.0
-6.656647e-05 -3.951725e-04 0.0
4.492078e-05 -2.097337e-04 0.0
1.101197e-04 -4.520763e-05 0.0
1.354626e-04 9.239800e-05 0.0
1.287793e-04 1.962008e-04 0.0
9.945179e-05 2.583716e-04 0.0
5.868040e-05 2.700909e-04 0.0
1.997122e-05 2.215269e-04 0.0
0.000000e+00 1.017472e-04 0.0
0.000000e+00 -1.017588e-04 0.0
0.000000e+00 -1.756226e-06 0.0
-1.418927e-05 2.501187e-05 0.0
-1.186533e-04 1.707473e-04 0.0
-2.998859e-04 4.085505e-04 0.0
-5.599536e-04 7.082185e-04 0.0
-8.996682e-04 1.047859e-03 0.0
-1.319494e-03 1.409818e-03 0.0
-1.819804e-03 1.779524e-03 0.0
-2.400574e-03 2.144938e-03 0.0
-3.060771e-03 2.496508e-03 0.0
-3.797757e-03 2.827304e-03 0.0
-4.607045e-03 3.133029e-03 0.0
-5.482531e-03 3.411681e-03 0.0
-6.417145e-03 3.662879e-03 0.0
-7.403640e-03 3.887041e-03 0.0
-8.435211e-03 4.084693e-03 0.0
-9.505729e-03 4.256141e-03 0.0
-1.060961e-02 4.401505e-03 0.0
-1.174146e-02 4.521001e-03 0.0
-1.289580e-02 4.615204e-03 0.0
-1.406693e-02 4.685133e-03 0.0
-1.524908e-02 4.732105e-03 0.0
-1.643662e-02 4.757454e-03 0.0
-1.762433e-02 4.762277e-03 0.0
-1.880742e-02 4.747308e-03 0.0
-1.998149e-02 4.713008e-03 0.0
-2.114231e-02 4.659754e-03 0.0
-2.228565e-02 4.588046e-03 0.0
-2.340716e-02 4.498615e-03 0.0
-2.450242e-02 4.392387e-03 0.0
-2.556704e-02 4.270326e-03 0.0
-2.659686e-02 4.133243e-03 0.0
-2.758807e-02 3.981663e-03 0.0
-2.853717e-02 3.815823e-03 0.0
-2.944091e-02 3.635785e-03 0.0
-3.029615e-02 3.441616e-03 0.0
-3.109976e-02 3.233541e-03 0.0
-3.184853e-02 3.012020e-03 0.0
-3.253925e-02 2.777708e-03 0.0
-3.316881e-02 2.531357e-03 0.0
-3.373429e-02 2.273711e-03 0.0
-3.423305e-02 2.005446e-03 0.0
-3.466275e-02 1.727190e-03 0.0
-3.502131e-02 1.439594e-03 0.0
-3.530687e-02 1.143433e-03 0.0
-3.551778e-02 8.396725e-04 0.0
-3.565258e-02 5.295026e-04 0.0
-3.571008e-02 2.143165e-04 0.0
-3.568941e-02 -1.043323e-04 0.0
-3.559004e-02 -4.247732e-04 0.0
-3.541190e-02 -7.453581e-04 0.0
-3.515532e-02 -1.064510e-03 0.0
-3.482104e-02 -1.380697e-03 0.0
-3.441022e-02 -1.692403e-03 0.0
-3.392434e-02 -1.998094e-03 0.0
-3.336528e-02 -2.296206e-03 0.0
-3.273523e-02 -2.585152e-03 0.0
-3.203674e-02 -2.863341e-03 0.0
-3.127274e-02 -3.129209e-03 0.0
-3.044648e-02 -3.381247e-03 0.0
-2.956157e-02 -3.618023e-03 0.0
-2.862199e-02 -3.838194e-03 0.0
-2.763200e-02 -4.040508e-03 0.0
-2.659618e-02 -4.223805e-03 0.0
-2.551936e-02 -4.387014e-03 0.0
-2.440659e-02 -4.529155e-03 0.0
-2.326315e-02 -4.649351e-03 0.0
-2.209448e-02 -4.746835e-03 0.0
-2.090618e-02 -4.820965e-03 0.0
-1.970398e-02 -4.871234e-03 0.0
-1.849367e-02 -4.897282e-03 0.0
-1.728115e-02 -4.898899e-03 0.0
-1.607229e-02 -4.876032e-03 0.0
-1.487299e-02 -4.828772e-03 0.0
-1.368906e-02 -4.757356e-03 0.0
-1.252623e-02 -4.662162e-03 0.0
-1.139012e-02 -4.543722e-03 0.0
-1.028615e-02 -4.402719e-03 0.0
-9.219552e-03 -4.239997e-03 0.0
-8.195324e-03 -4.056565e-03 0.0
-7.218162e-03 -3.853603e-03 0.0
-6.292439e-03 -3.632470e-03 0.0
-5.422149e-03 -3.394711e-03 0.0
-4.610863e-03 -3.142070e-03 0.0
-3.861678e-03 -2.876502e-03 0.0
-3.177157e-03 -2.600195e-03 0.0
-2.559280e-03 -2.315596e-03 0.0
-2.009375e-03 -2.025437e-03 0.0
-1.528056e-03 -1.732781e-03 0.0
-1.115151e-03 -1.441068e-03 0.0
-7.696233e-04 -1.154172e-03 0.0
-4.894966e-04 -8.764751e-04 0.0
-2.717682e-04 -6.129417e-04 0.0
-1.123253e-04 -3.692150e-04 0.0
-5.855945e-06 -1.517137e-04 0.0
5.424325e-05 3.226314e-05 0.0
7.598075e-05 1.744276e-04 0.0
6.892195e-05 2.653944e-04 0.0
4.442690e-05 2.945496e-04 0.0
1.603163e-05 2.498855e-04 0.0
0.000000e+00 1.177419e-04 0.0
0.000000e+00 -1.177384e-04 0.0
0.000000e+00 -5.106145e-05 0.0
-3.130998e-05 6.396491e-05 0.0
-1.699004e-04 2.959923e-04 0.0
-3.986787e-04 6.246711e-04 0.0
-7.174380e-04 1.019707e-03 0.0
-1.126112e-03 1.456779e-03 0.0
-1.624967e-03 1.915563e-03 0.0
-2.214203e-03 2.379114e-03 0.0
-2.893209e-03 2.833749e-03 0.0
-3.659810e-03 3.269163e-03 0.0
-4.509853e-03 3.678396e-03 0.0
-5.437346e-03 4.057447e-03 0.0
-6.435082e-03 4.404490e-03 0.0
-7.495479e-03 4.718921e-03 0.0
-8.611271e-03 5.000538e-03 0.0
-9.775807e-03 5.249122e-03 0.0
-1.098294e-02 5.464433e-03 0.0
-1.222670e-02 5.646472e-03 0.0
-1.350093e-02 5.795755e-03 0.0
-1.479928e-02 5.913374e-03 0.0
-1.611523e-02 6.000823e-03 0.0
-1.744246e-02 6.059667e-03 0.0
-1.877504e-02 6.091243e-03 0.0
-2.010752e-02 6.096522e-03 0.0
-2.143482e-02 6.076182e-03 0.0
-2.275206e-02 6.030830e-03 0.0
-2.405433e-02 5.961219e-03 0.0
-2.533663e-02 5.868347e-03 0.0
-2.659387e-02 5.753406e-03 0.0
-2.782106e-02 5.617594e-03 0.0
-2.901350e-02 5.461908e-03 0.0
-3.016682e-02 5.287010e-03 0.0
-3.127705e-02 5.093242e-03 0.0
-3.234044e-02 4.880767e-03 0.0
-3.335336e-02 4.649769e-03 0.0
-3.431213e-02 4.400613e-03 0.0
-3.521304e-02 4.133908e-03 0.0
-3.605238e-02 3.850449e-03 0.0
-3.682658e-02 3.551107e-03 0.0
-3.753227e-02 3.236713e-03 0.0
-3.816640e-02 2.908016e-03 0.0
-3.872620e-02 2.565721e-03 0.0
-3.920915e-02 2.210579e-03 0.0
-3.961295e-02 1.843498e-03 0.0
-3.993545e-02 1.465613e-03 0.0
-4.017476e-02 1.078305e-03 0.0
-4.032920e-02 6.831656e-04 0.0
-4.039747e-02 2.819504e-04 0.0
-4.037862e-02 -1.234716e-04 0.0
-4.027217e-02 -5.311360e-04 0.0
-4.007808e-02 -9.390800e-04 0.0
-3.979674e-02 -1.345375e-03 0.0
-3.942898e-02 -1.748086e-03 0.0
-3.897598e-02 -2.145245e-03 0.0
-3.843936e-02 -2.534840e-03 0.0
-3.782108e-02 -2.914828e-03 0.0
-3.712353e-02 -3.283165e-03 0.0
-3.634949e-02 -3.637839e-03 0.0
-3.550215e-02 -3.976901e-03 0.0
-3.458513e-02 -4.298488e-03 0.0
-3.360240e-02 -4.600829e-03 0.0
-3.255834e-02 -4.882250e-03 0.0
-3.145763e-02 -5.141172e-03 0.0
-3.030529e-02 -5.376116e-03 0.0
-2.910661e-02 -5.585703e-03 0.0
-2.786715e-02 -5.768675e-03 0.0
-2.659269e-02 -5.923905e-03 0.0
-2.528921e-02 -6.050414e-03 0.0
-2.396288e-02 -6.147389e-03 0.0
-2.262002e-02 -6.214190e-03 0.0
-2.126703e-02 -6.250358e-03 0.0
-1.991039e-02 -6.255622e-03 0.0
-1.855661e-02 -6.229901e-03 0.0
-1.721218e-02 -6.173302e-03 0.0
-1.588353e-02 -6.086111e-03 0.0
-1.457700e-02 -5.968801e-03 0.0
-1.329877e-02 -5.822039e-03 0.0
-1.205488e-02 -5.646690e-03 0.0
-1.085112e-02 -5.443824e-03 0.0