# vtk DataFile Version 3.0
Vector Field
ASCII
DATASET RECTILINEAR_GRID
DIMENSIONS 102 102 1
X_COORDINATES 102 double
0.000000 0.100000 0.200000 0.300000 0.400000 0.500000 0.600000 0.700000 0.800000 0.900000 1.000000 1.100000 1.200000 1.300000 1.400000 1.500000 1.600000 1.700000 1.800000 1.900000 2.000000 2.100000 2.200000 2.300000 2.400000 2.500000 2.600000 2.700000 2.800000 2.900000 3.000000 3.100000 3.200000 3.300000 3.400000 3.500000 3.600000 3.700000 3.800000 3.900000 4.000000 4.100000 4.200000 4.300000 4.400000 4.500000 4.600000 4.700000 4.800000 4.900000 5.000000 5.100000 5.200000 5.300000 5.400000 5.500000 5.600000 5.700000 5.800000 5.900000 6.000000 6.100000 6.200000 6.300000 6.400000 6.500000 6.600000 6.700000 6.800000 6.900000 7.000000 7.100000 7.200000 7.300000 7.400000 7.500000 7.600000 7.700000 7.800000 7.900000 8.000000 8.100000 8.200000 8.300000 8.400000 8.500000 8.600000 8.700000 8.800000 8.900000 9.000000 9.100000 9.200000 9.300000 9.400000 9.500000 9.600000 9.700000 9.800000 9.900000 10.000000 10.100000 
Y_COORDINATES 102 double
0.000000 0.100000 0.200000 0.300000 0.400000 0.500000 0.600000 0.700000 0.800000 0.900000 1.000000 1.100000 1.200000 1.300000 1.400000 1.500000 1.600000 1.700000 1.800000 1.900000 2.000000 2.100000 2.200000 2.300000 2.400000 2.500000 2.600000 2.700000 2.800000 2.900000 3.000000 3.100000 3.200000 3.300000 3.400000 3.500000 3.600000 3.700000 3.800000 3.900000 4.000000 4.100000 4.200000 4.300000 4.400000 4.500000 4.600000 4.700000 4.800000 4.900000 5.000000 5.100000 5.200000 5.300000 5.400000 5.500000 5.600000 5.700000 5.800000 5.900000 6.000000 6.100000 6.200000 6.300000 6.400000 6.500000 6.600000 6.700000 6.800000 6.900000 7.000000 7.100000 7.200000 7.300000 7.400000 7.500000 7.600000 7.700000 7.800000 7.900000 8.000000 8.100000 8.200000 8.300000 8.400000 8.500000 8.600000 8.700000 8.800000 8.900000 9.000000 9.100000 9.200000 9.300000 9.400000 9.500000 9.600000 9.700000 9.800000 9.900000 10.000000 10.100000 
Z_COORDINATES 1 double
0.0
POINT_DATA 10404
VECTORS Velocity double
0.000000e+00 0.000000e+00 0.0
-1.685804e-05 0.000000e+00 0.0
-3.213235e-05 0.000000e+00 0.0
-3.803114e-05 0.000000e+00 0.0
-3.175036e-05 0.000000e+00 0.0
-1.434121e-05 0.000000e+00 0.0
1.117409e-05 0.000000e+00 0.0
4.175157e-05 0.000000e+00 0.0
7.570644e-05 0.000000e+00 0.0
1.131990e-04 0.000000e+00 0.0
1.557997e-04 0.000000e+00 0.0
2.054600e-04 0.000000e+00 0.0
2.634187e-04 0.000000e+00 0.0
3.295347e-04 0.000000e+00 0.0
4.022860e-04 0.000000e+00 0.0
4.793502e-04 0.000000e+00 0.0
5.584371e-04 0.000000e+00 0.0
6.379795e-04 0.000000e+00 0.0
7.174125e-04 0.000000e+00 0.0
7.969946e-04 0.000000e+00 0.0
8.773332e-04 0.000000e+00 0.0
9.588773e-04 0.000000e+00 0.0
1.041604e-03 0.000000e+00 0.0
1.124996e-03 0.000000e+00 0.0
1.208249e-03 0.000000e+00 0.0
1.290576e-03 0.000000e+00 0.0
1.371432e-03 0.000000e+00 0.0
1.450584e-03 0.000000e+00 0.0
1.528025e-03 0.000000e+00 0.0
1.603806e-03 0.000000e+00 0.0
1.677883e-03 0.000000e+00 0.0
1.750054e-03 0.000000e+00 0.0
1.819995e-03 0.000000e+00 0.0
1.887357e-03 0.000000e+00 0.0
1.951867e-03 0.000000e+00 0.0
2.013385e-03 0.000000e+00 0.0
2.071887e-03 0.000000e+00 0.0
2.127400e-03 0.000000e+00 0.0
2.179918e-03 0.000000e+00 0.0
2.229340e-03 0.000000e+00 0.0
2.275454e-03 0.000000e+00 0.0
2.317969e-03 0.000000e+00 0.0
2.356573e-03 0.000000e+00 0.0
2.390998e-03 0.000000e+00 0.0
2.421061e-03 0.000000e+00 0.0
2.446679e-03 0.000000e+00 0.0
2.467846e-03 0.000000e+00 0.0
2.484590e-03 0.000000e+00 0.0
2.496935e-03 0.000000e+00 0.0
2.504861e-03 0.000000e+00 0.0
2.508296e-03 0.000000e+00 0.0
2.507123e-03 0.000000e+00 0.0
2.501213e-03 0.000000e+00 0.0
2.490447e-03 0.000000e+00 0.0
2.474743e-03 0.000000e+00 0.0
2.454067e-03 0.000000e+00 0.0
2.428442e-03 0.000000e+00 0.0
2.397939e-03 0.000000e+00 0.0
2.362661e-03 0.000000e+00 0.0
2.322730e-03 0.000000e+00 0.0
2.278275e-03 0.000000e+00 0.0
2.229425e-03 0.000000e+00 0.0
2.176309e-03 0.000000e+00 0.0
2.119065e-03 0.000000e+00 0.0
2.057841e-03 0.000000e+00 0.0
1.992809e-03 0.000000e+00 0.0
1.924165e-03 0.000000e+00 0.0
1.852134e-03 0.000000e+00 0.0
1.776968e-03 0.000000e+00 0.0
1.698944e-03 0.000000e+00 0.0
1.618363e-03 0.000000e+00 0.0
1.535546e-03 0.000000e+00 0.0
1.450833e-03 0.000000e+00 0.0
1.364582e-03 0.000000e+00 0.0
1.277168e-03 0.000000e+00 0.0
1.188983e-03 0.000000e+00 0.0
1.100437e-03 0.000000e+00 0.0
1.011951e-03 0.000000e+00 0.0
9.239641e-04 0.000000e+00 0.0
8.369252e-04 0.000000e+00 0.0
7.512957e-04 0.000000e+00 0.0
6.675478e-04 0.000000e+00 0.0
5.861633e-04 0.000000e+00 0.0
5.076331e-04 0.000000e+00 0.0
4.324558e-04 0.000000e+00 0.0
3.611369e-04 0.000000e+00 0.0
2.941858e-04 0.000000e+00 0.0
2.321134e-04 0.000000e+00 0.0
1.754276e-04 0.000000e+00 0.0
1.246268e-04 0.000000e+00 0.0
8.019197e-05 0.000000e+00 0.0
4.257306e-05 0.000000e+00 0.0
1.217043e-05 0.000000e+00 0.0
-1.069565e-05 0.000000e+00 0.0
-2.583453e-05 0.000000e+00 0.0
-3.326789e-05 0.000000e+00 0.0
-3.337437e-05 0.000000e+00 0.0
-2.714498e-05 0.000000e+00 0.0
-1.662893e-05 0.000000e+00 0.0
-5.597279e-06 0.000000e+00 0.0
-0.000000e+00 0.000000e+00 0.0
0.000000e+00 0.000000e+00 0.0
0.000000e+00 -3.676434e-06 0.0
5.921499e-06 -7.236719e-06 0.0
5.825414e-06 -1.903005e-05 0.0
7.365972e-06 -1.995691e-05 0.0
8.407393e-06 -1.065812e-05 0.0
6.321902e-06 5.022474e-06 0.0
-2.439264e-06 2.257261e-05 0.0
-2.137954e-05 3.778305e-05 0.0
-5.266683e-05 4.802360e-05 0.0
-9.632163e-05 5.291778e-05 0.0
-1.503026e-04 5.409458e-05 0.0
-2.114026e-04 5.417560e-05 0.0
-2.764867e-04 5.551058e-05 0.0
-3.434982e-04 5.923788e-05 0.0
-4.118376e-04 6.502901e-05 0.0
-4.820569e-04 7.151871e-05 0.0
-5.551280e-04 7.711225e-05 0.0
-6.316909e-04 8.073972e-05 0.0
-7.116231e-04 8.222602e-05 0.0
-7.940608e-04 8.218023e-05 0.0
-8.777672e-04 8.154969e-05 0.0
-9.616044e-04 8.111409e-05 0.0
-1.044864e-03 8.117062e-05 0.0
-1.127329e-03 8.152132e-05 0.0
-1.209095e-03 8.170665e-05 0.0
-1.290287e-03 8.131941e-05 0.0
-1.370834e-03 8.022615e-05 0.0
-1.450407e-03 7.860077e-05 0.0
-1.528506e-03 7.678622e-05 0.0
-1.604646e-03 7.508342e-05 0.0
-1.678505e-03 7.358695e-05 0.0
-1.749991e-03 7.214538e-05 0.0
-1.819175e-03 7.045175e-05 0.0
-1.886164e-03 6.820596e-05 0.0
-1.950965e-03 6.526424e-05 0.0
-2.013404e-03 6.170775e-05 0.0
-2.073139e-03 5.780719e-05 0.0
-2.129736e-03 5.390873e-05 0.0
-2.182789e-03 5.029676e-05 0.0
-2.232005e-03 4.709129e-05 0.0
-2.277257e-03 4.421631e-05 0.0
-2.318556e-03 4.144266e-05 0.0
-2.355992e-03 3.848063e-05 0.0
-2.389652e-03 3.508301e-05 0.0
-2.419550e-03 3.112137e-05 0.0
-2.445594e-03 2.661397e-05 0.0
-2.467596e-03 2.170331e-05 0.0
-2.485304e-03 1.659836e-05 0.0
-2.498458e-03 1.150565e-05 0.0
-2.506839e-03 6.572291e-06 0.0
-2.510301e-03 1.856892e-06 0.0
-2.508780e-03 -2.667297e-06 0.0
-2.502294e-03 -7.080898e-06 0.0
-2.490903e-03 -1.149112e-05 0.0
-2.474684e-03 -1.599143e-05 0.0
-2.453706e-03 -2.063340e-05 0.0
-2.428017e-03 -2.541700e-05 0.0
-2.397646e-03 -3.029744e-05 0.0
-2.362618e-03 -3.520244e-05 0.0
-2.322961e-03 -4.005272e-05 0.0
-2.278729e-03 -4.477894e-05 0.0
-2.230004e-03 -4.933144e-05 0.0
-2.176906e-03 -5.368200e-05 0.0
-2.119586e-03 -5.781953e-05 0.0
-2.058226e-03 -6.174260e-05 0.0
-1.993032e-03 -6.545220e-05 0.0
-1.924229e-03 -6.894637e-05 0.0
-1.852062e-03 -7.221781e-05 0.0
-1.776793e-03 -7.525386e-05 0.0
-1.698699e-03 -7.803790e-05 0.0
-1.618079e-03 -8.055104e-05 0.0
-1.535248e-03 -8.277320e-05 0.0
-1.450543e-03 -8.468348e-05 0.0
-1.364316e-03 -8.625987e-05 0.0
-1.276939e-03 -8.747895e-05 0.0
-1.188797e-03 -8.831588e-05 0.0
-1.100292e-03 -8.874530e-05 0.0
-1.011840e-03 -8.874275e-05 0.0
-9.238729e-04 -8.828641e-05 0.0
-8.368363e-04 -8.735795e-05 0.0
-7.511912e-04 -8.594357e-05 0.0
-6.674126e-04 -8.403423e-05 0.0
-5.859880e-04 -8.162504e-05 0.0
-5.074156e-04 -7.871414e-05 0.0
-4.322013e-04 -7.530144e-05 0.0
-3.608563e-04 -7.138757e-05 0.0
-2.938937e-04 -6.697355e-05 0.0
-2.318255e-04 -6.206113e-05 0.0
-1.751580e-04 -5.665395e-05 0.0
-1.243868e-04 -5.075990e-05 0.0
-7.998844e-05 -4.439427e-05 0.0
-4.240910e-05 -3.758451e-05 0.0
-1.204555e-05 -3.037761e-05 0.0
1.078454e-05 -2.285134e-05 0.0
2.589167e-05 -1.513380e-05 0.0
3.329868e-05 -7.436902e-06 0.0
3.338439e-05 -1.175748e-07 0.0
2.713988e-05 6.209815e-06 0.0
1.661528e-05 1.049011e-05 0.0
5.578642e-06 1.100237e-05 0.0
0.000000e+00 5.544674e-06 0.0
0.000000e+00 -5.464114e-06 0.0
0.000000e+00 1.253721e-06 0.0
1.230410e-06 -2.771513e-05 0.0
8.638250e-06 -3.372555e-05 0.0
1.070433e-05 -1.780470e-05 0.0
-4.534378e-07 1.335884e-05 0.0
-3.093169e-05 5.095556e-05 0.0
-8.490867e-05 8.817608e-05 0.0
-1.642315e-04 1.208122e-04 0.0
-2.683007e-04 1.475475e-04 0.0
-3.945490e-04 1.694429e-04 0.0
-5.394169e-04 1.887629e-04 0.0
-6.994460e-04 2.076236e-04 0.0
-8.720624e-04 2.270168e-04 0.0
-1.055798e-03 2.465500e-04 0.0
-1.249975e-03 2.648796e-04 0.0
-1.454114e-03 2.805137e-04 0.0
-1.667399e-03 2.925422e-04 0.0
-1.888439e-03 3.009671e-04 0.0
-2.115394e-03 3.065496e-04 0.0
-2.346315e-03 3.103368e-04 0.0
-2.579512e-03 3.131547e-04 0.0
-2.813747e-03 3.153177e-04 0.0
-3.048201e-03 3.166503e-04 0.0
-3.282282e-03 3.167488e-04 0.0
-3.515382e-03 3.153025e-04 0.0
-3.746737e-03 3.122992e-04 0.0
-3.975423e-03 3.080290e-04 0.0
-4.200470e-03 3.029164e-04 0.0
-4.421020e-03 2.972974e-04 0.0
-4.636421e-03 2.912636e-04 0.0
-4.846238e-03 2.846471e-04 0.0
-5.050158e-03 2.771391e-04 0.0
-5.247870e-03 2.684690e-04 0.0
-5.438960e-03 2.585542e-04 0.0
-5.622869e-03 2.475518e-04 0.0
-5.798930e-03 2.357992e-04 0.0
-5.966456e-03 2.236797e-04 0.0
-6.124826e-03 2.114773e-04 0.0
-6.273550e-03 1.992818e-04 0.0
-6.412279e-03 1.869752e-04 0.0
-6.540768e-03 1.742962e-04 0.0
-6.658813e-03 1.609491e-04 0.0
-6.766185e-03 1.467110e-04 0.0
-6.862587e-03 1.315028e-04 0.0
-6.947648e-03 1.154021e-04 0.0
-7.020942e-03 9.860565e-05 0.0
-7.082030e-03 8.135952e-05 0.0
-7.130501e-03 6.388677e-05 0.0
-7.166009e-03 4.633467e-05 0.0
-7.188293e-03 2.875555e-05 0.0
-7.197171e-03 1.112150e-05 0.0
-7.192536e-03 -6.636302e-06 0.0
-7.174335e-03 -2.457693e-05 0.0
-7.142552e-03 -4.273619e-05 0.0
-7.097190e-03 -6.110289e-05 0.0
-7.038268e-03 -7.961264e-05 0.0
-6.965830e-03 -9.815894e-05 0.0
-6.879955e-03 -1.166136e-04 0.0
-6.780769e-03 -1.348476e-04 0.0
-6.668458e-03 -1.527468e-04 0.0
-6.543272e-03 -1.702187e-04 0.0
-6.405523e-03 -1.871910e-04 0.0
-6.255589e-03 -2.036051e-04 0.0
-6.093906e-03 -2.194079e-04 0.0
-5.920967e-03 -2.345449e-04 0.0
-5.737322e-03 -2.489555e-04 0.0
-5.543574e-03 -2.625725e-04 0.0
-5.340382e-03 -2.753232e-04 0.0
-5.128463e-03 -2.871312e-04 0.0
-4.908590e-03 -2.979190e-04 0.0
-4.681591e-03 -3.076086e-04 0.0
-4.448349e-03 -3.161221e-04 0.0
-4.209801e-03 -3.233814e-04 0.0
-3.966935e-03 -3.293084e-04 0.0
-3.720786e-03 -3.338255e-04 0.0
-3.472439e-03 -3.368573e-04 0.0
-3.223021e-03 -3.383327e-04 0.0
-2.973705e-03 -3.381870e-04 0.0
-2.725705e-03 -3.363641e-04 0.0
-2.480270e-03 -3.328156e-04 0.0
-2.238687e-03 -3.275008e-04 0.0
-2.002273e-03 -3.203867e-04 0.0
-1.772368e-03 -3.114467e-04 0.0
-1.550336e-03 -3.006598e-04 0.0
-1.337548e-03 -2.880110e-04 0.0
-1.135384e-03 -2.734919e-04 0.0
-9.452171e-04 -2.571031e-04 0.0
-7.684053e-04 -2.388582e-04 0.0
-6.062739e-04 -2.187892e-04 0.0
-4.600961e-04 -1.969548e-04 0.0
-3.310632e-04 -1.734513e-04 0.0
-2.202441e-04 -1.484299e-04 0.0
-1.285244e-04 -1.221217e-04 0.0
-5.652015e-05 -9.487662e-05 0.0
-4.445558e-06 -6.722525e-05 0.0
2.808157e-05 -3.997661e-05 0.0
4.232745e-05 -1.437406e-05 0.0
4.086400e-05 7.664588e-06 0.0
2.812862e-05 2.321880e-05 0.0
1.108353e-05 2.804132e-05 0.0
0.000000e+00 1.662217e-05 0.0
0.000000e+00 -1.653177e-05 0.0
0.000000e+00 8.778557e-06 0.0
-6.524319e-06 -3.983749e-05 0.0
-3.169669e-06 -3.285770e-05 0.0
-1.473102e-05 6.269784e-06 0.0
-5.162973e-05 6.475892e-05 0.0
-1.209873e-04 1.304171e-04 0.0
-2.262611e-04 1.953842e-04 0.0
-3.674500e-04 2.558958e-04 0.0
-5.419747e-04 3.113973e-04 0.0
-7.460012e-04 3.630827e-04 0.0
-9.757405e-04 4.123517e-04 0.0
-1.228276e-03 4.597254e-04 0.0
-1.501712e-03 5.045342e-04 0.0
-1.794762e-03 5.453267e-04 0.0
-2.106099e-03 5.806458e-04 0.0
-2.433863e-03 6.097187e-04 0.0
-2.775537e-03 6.327304e-04 0.0
-3.128199e-03 6.506163e-04 0.0
-3.488971e-03 6.645532e-04 0.0
-3.855401e-03 6.754488e-04 0.0
-4.225613e-03 6.836750e-04 0.0
-4.598199e-03 6.891269e-04 0.0
-4.971948e-03 6.915118e-04 0.0
-5.345593e-03 6.906732e-04 0.0
-5.717689e-03 6.867741e-04 0.0
-6.086666e-03 6.802662e-04 0.0
-6.450996e-03 6.716929e-04 0.0
-6.809357e-03 6.614553e-04 0.0
-7.160716e-03 6.496710e-04 0.0
-7.504288e-03 6.361885e-04 0.0
-7.839404e-03 6.207346e-04 0.0
-8.165360e-03 6.031092e-04 0.0
-8.481322e-03 5.833285e-04 0.0
-8.786316e-03 5.616546e-04 0.0
-9.079300e-03 5.385085e-04 0.0
-9.359272e-03 5.143162e-04 0.0
-9.625365e-03 4.893609e-04 0.0
-9.876886e-03 4.637018e-04 0.0
-1.011330e-02 4.371852e-04 0.0
-1.033415e-02 4.095326e-04 0.0
-1.053899e-02 3.804636e-04 0.0
-1.072733e-02 3.498044e-04 0.0
-1.089857e-02 3.175455e-04 0.0
-1.105205e-02 2.838374e-04 0.0
-1.118709e-02 2.489347e-04 0.0
-1.130303e-02 2.131177e-04 0.0
-1.139928e-02 1.766200e-04 0.0
-1.147535e-02 1.395851e-04 0.0
-1.153085e-02 1.020612e-04 0.0
-1.156549e-02 6.402864e-05 0.0
-1.157903e-02 2.544692e-05 0.0
-1.157129e-02 -1.369502e-05 0.0
-1.154212e-02 -5.333816e-05 0.0
-1.149142e-02 -9.337237e-05 0.0
-1.141913e-02 -1.336398e-04 0.0
-1.132524e-02 -1.739489e-04 0.0
-1.120981e-02 -2.140957e-04 0.0
-1.107299e-02 -2.538826e-04 0.0
-1.091503e-02 -2.931300e-04 0.0
-1.073626e-02 -3.316793e-04 0.0
-1.053711e-02 -3.693878e-04 0.0
-1.031809e-02 -4.061203e-04 0.0
-1.007981e-02 -4.417407e-04 0.0
-9.822958e-03 -4.761064e-04 0.0
-9.548305e-03 -5.090653e-04 0.0
-9.256713e-03 -5.404572e-04 0.0
-8.949129e-03 -5.701159e-04 0.0
-8.626593e-03 -5.978724e-04 0.0
-8.290234e-03 -6.235566e-04 0.0
-7.941270e-03 -6.469989e-04 0.0
-7.581009e-03 -6.680305e-04 0.0
-7.210842e-03 -6.864835e-04 0.0
-6.832243e-03 -7.021917e-04 0.0
-6.446768e-03 -7.149924e-04 0.0
-6.056049e-03 -7.247288e-04 0.0
-5.661794e-03 -7.312527e-04 0.0
-5.265782e-03 -7.344275e-04 0.0
-4.869861e-03 -7.341302e-04 0.0
-4.475938e-03 -7.302526e-04 0.0
-4.085979e-03 -7.226982e-04 0.0
-3.701997e-03 -7.113828e-04 0.0
-3.326044e-03 -6.962334e-04 0.0
-2.960208e-03 -6.771892e-04 0.0
-2.606595e-03 -6.542025e-04 0.0
-2.267323e-03 -6.272420e-04 0.0
-1.944505e-03 -5.962971e-04 0.0
-1.640235e-03 -5.613845e-04 0.0
-1.356563e-03 -5.225573e-04 0.0
-1.095472e-03 -4.799166e-04 0.0
-8.588352e-04 -4.336286e-04 0.0
-6.483727e-04 -3.839478e-04 0.0
-4.655798e-04 -3.312505e-04 0.0
-3.116373e-04 -2.760846e-04 0.0
-1.872849e-04 -2.192431e-04 0.0
-9.264561e-05 -1.618734e-04 0.0
-2.698932e-05 -1.056379e-04 0.0
1.158232e-05 -5.295031e-05 0.0
2.654874e-05 -7.304723e-06 0.0
2.346445e-05 2.630026e-05 0.0
1.059303e-05 4.091000e-05 0.0
0.000000e+00 2.721226e-05 0.0
0.000000e+00 -2.710278e-05 0.0
0.000000e+00 1.460231e-05 0.0
-1.122834e-05 -3.846497e-05 0.0
-2.030376e-05 -1.084009e-05 0.0
-5.659523e-05 5.712863e-05 0.0
-1.301579e-04 1.478773e-04 0.0
-2.466999e-04 2.477748e-04 0.0
-4.076244e-04 3.488326e-04 0.0
-6.110690e-04 4.474823e-04 0.0
-8.534921e-04 5.427870e-04 0.0
-1.131208e-03 6.346379e-04 0.0
-1.441338e-03 7.224916e-04 0.0
-1.781944e-03 8.049563e-04 0.0
-2.151531e-03 8.801456e-04 0.0
-2.548308e-03 9.464117e-04 0.0
-2.969679e-03 1.002979e-03 0.0
-3.412194e-03 1.050144e-03 0.0
-3.871936e-03 1.088993e-03 0.0
-4.345096e-03 1.120835e-03 0.0
-4.828428e-03 1.146675e-03 0.0
-5.319398e-03 1.166962e-03 0.0
-5.816008e-03 1.181685e-03 0.0
-6.316460e-03 1.190692e-03 0.0
-6.818851e-03 1.194018e-03 0.0
-7.321064e-03 1.192046e-03 0.0
-7.820860e-03 1.185433e-03 0.0
-8.316103e-03 1.174885e-03 0.0
-8.804956e-03 1.160908e-03 0.0
-9.285960e-03 1.143684e-03 0.0
-9.757955e-03 1.123116e-03 0.0
-1.021990e-02 1.099007e-03 0.0
-1.067071e-02 1.071269e-03 0.0
-1.110911e-02 1.040056e-03 0.0
-1.153371e-02 1.005769e-03 0.0
-1.194308e-02 9.689348e-04 0.0
-1.233587e-02 9.300385e-04 0.0
-1.271096e-02 8.893707e-04 0.0
-1.306743e-02 8.469673e-04 0.0
-1.340457e-02 8.026494e-04 0.0
-1.372172e-02 7.561374e-04 0.0
-1.401820e-02 7.071878e-04 0.0
-1.429326e-02 6.556978e-04 0.0
-1.454602e-02 6.017473e-04 0.0
-1.477553e-02 5.455714e-04 0.0
-1.498086e-02 4.874870e-04 0.0
-1.516112e-02 4.278059e-04 0.0
-1.531554e-02 3.667668e-04 0.0
-1.544349e-02 3.045053e-04 0.0
-1.554445e-02 2.410653e-04 0.0
-1.561797e-02 1.764413e-04 0.0
-1.566371e-02 1.106322e-04 0.0
-1.568132e-02 4.369045e-05 0.0
-1.567051e-02 -2.424629e-05 0.0
-1.563103e-02 -9.294380e-05 0.0
-1.556270e-02 -1.621253e-04 0.0
-1.546541e-02 -2.314940e-04 0.0
-1.533915e-02 -3.007527e-04 0.0
-1.518406e-02 -3.696192e-04 0.0
-1.500036e-02 -4.378319e-04 0.0
-1.478840e-02 -5.051470e-04 0.0
-1.454868e-02 -5.713300e-04 0.0
-1.428177e-02 -6.361454e-04 0.0
-1.398836e-02 -6.993487e-04 0.0
-1.366926e-02 -7.606825e-04 0.0
-1.332538e-02 -8.198762e-04 0.0
-1.295775e-02 -8.766488e-04 0.0
-1.256750e-02 -9.307125e-04 0.0
-1.215591e-02 -9.817766e-04 0.0
-1.172436e-02 -1.029549e-03 0.0
-1.127435e-02 -1.073738e-03 0.0
-1.080750e-02 -1.114054e-03 0.0
-1.032555e-02 -1.150206e-03 0.0
-9.830350e-03 -1.181911e-03 0.0
-9.323856e-03 -1.208889e-03 0.0
-8.808134e-03 -1.230873e-03 0.0
-8.285353e-03 -1.247606e-03 0.0
-7.757781e-03 -1.258852e-03 0.0
-7.227779e-03 -1.264391e-03 0.0
-6.697796e-03 -1.264024e-03 0.0
-6.170355e-03 -1.257574e-03 0.0
-5.648049e-03 -1.244878e-03 0.0
-5.133526e-03 -1.225793e-03 0.0
-4.629482e-03 -1.200193e-03 0.0
-4.138646e-03 -1.167978e-03 0.0
-3.663765e-03 -1.129072e-03 0.0
-3.207591e-03 -1.083435e-03 0.0
-2.772858e-03 -1.031071e-03 0.0
-2.362257e-03 -9.720370e-04 0.0
-1.978407e-03 -9.064602e-04 0.0
-1.623813e-03 -8.345576e-04 0.0
-1.300818e-03 -7.566617e-04 0.0
-1.011532e-03 -6.732591e-04 0.0
-7.577561e-04 -5.850426e-04 0.0
-5.408618e-04 -4.929863e-04 0.0
-3.616544e-04 -3.984526e-04 0.0
-2.201837e-04 -3.033427e-04 0.0
-1.155118e-04 -2.103069e-04 0.0
-4.542599e-05 -1.230347e-04 0.0
-6.086931e-06 -4.664169e-05 0.0
8.376362e-06 1.183812e-05 0.0
6.418705e-06 4.286856e-05 0.0
0.000000e+00 3.363169e-05 0.0
0.000000e+00 -3.349545e-05 0.0
0.000000e+00 1.462772e-05 0.0
-1.255805e-05 -2.306798e-05 0.0
-4.113979e-05 3.339978e-05 0.0
-1.102398e-04 1.364763e-04 0.0
-2.272228e-04 2.657285e-04 0.0
-3.949600e-04 4.074986e-04 0.0
-6.125926e-04 5.537854e-04 0.0
-8.771801e-04 7.003270e-04 0.0
-1.185397e-03 8.445359e-04 0.0
-1.534624e-03 9.840284e-04 0.0
-1.923138e-03 1.116068e-03 0.0
-2.349553e-03 1.237833e-03 0.0
-2.811997e-03 1.347095e-03 0.0
-3.307525e-03 1.442785e-03 0.0
-3.832085e-03 1.525114e-03 0.0
-4.380984e-03 1.595199e-03 0.0
-4.949582e-03 1.654424e-03 0.0
-5.533854e-03 1.703864e-03 0.0
-6.130581e-03 1.744042e-03 0.0
-6.737159e-03 1.775043e-03 0.0
-7.351211e-03 1.796862e-03 0.0
-7.970238e-03 1.809740e-03 0.0
-8.591493e-03 1.814301e-03 0.0
-9.212099e-03 1.811441e-03 0.0
-9.829308e-03 1.802064e-03 0.0
-1.044074e-02 1.786823e-03 0.0
-1.104446e-02 1.766009e-03 0.0
-1.163890e-02 1.739621e-03 0.0
-1.222261e-02 1.707582e-03 0.0
-1.279408e-02 1.669957e-03 0.0
-1.335165e-02 1.627076e-03 0.0
-1.389349e-02 1.579512e-03 0.0
-1.441777e-02 1.527930e-03 0.0
-1.492280e-02 1.472893e-03 0.0
-1.540717e-02 1.414718e-03 0.0
-1.586973e-02 1.353436e-03 0.0
-1.630956e-02 1.288860e-03 0.0
-1.672579e-02 1.220731e-03 0.0
-1.711752e-02 1.148864e-03 0.0
-1.748373e-02 1.073247e-03 0.0
-1.782327e-02 9.940647e-04 0.0
-1.813493e-02 9.116479e-04 0.0
-1.841752e-02 8.263791e-04 0.0
-1.866994e-02 7.386008e-04 0.0
-1.889124e-02 6.485541e-04 0.0
-1.908062e-02 5.563655e-04 0.0
-1.923740e-02 4.620766e-04 0.0
-1.936103e-02 3.657013e-04 0.0
-1.945097e-02 2.672860e-04 0.0
-1.950675e-02 1.669561e-04 0.0
-1.952789e-02 6.493782e-05 0.0
-1.951400e-02 -3.844300e-05 0.0
-1.946473e-02 -1.427776e-04 0.0
-1.937985e-02 -2.476484e-04 0.0
-1.925925e-02 -3.526511e-04 0.0
-1.910298e-02 -4.574047e-04 0.0
-1.891122e-02 -5.615507e-04 0.0
-1.868428e-02 -6.647438e-04 0.0
-1.842264e-02 -7.666396e-04 0.0
-1.812689e-02 -8.668830e-04 0.0
-1.779774e-02 -9.651012e-04 0.0
-1.743604e-02 -1.060901e-03 0.0
-1.704277e-02 -1.153873e-03 0.0
-1.661905e-02 -1.243591e-03 0.0
-1.616614e-02 -1.329625e-03 0.0
-1.568544e-02 -1.411537e-03 0.0
-1.517850e-02 -1.488888e-03 0.0
-1.464703e-02 -1.561237e-03 0.0
-1.409287e-02 -1.628146e-03 0.0
-1.351799e-02 -1.689175e-03 0.0
-1.292453e-02 -1.743893e-03 0.0
-1.231475e-02 -1.791876e-03 0.0
-1.169104e-02 -1.832717e-03 0.0
-1.105593e-02 -1.866025e-03 0.0
-1.041207e-02 -1.891431e-03 0.0
-9.762237e-03 -1.908593e-03 0.0
-9.109304e-03 -1.917189e-03 0.0
-8.456251e-03 -1.916929e-03 0.0
-7.806146e-03 -1.907544e-03 0.0
-7.162130e-03 -1.888792e-03 0.0
-6.527405e-03 -1.860459e-03 0.0
-5.905225e-03 -1.822361e-03 0.0
-5.298873e-03 -1.774357e-03 0.0
-4.711648e-03 -1.716351e-03 0.0
-4.146843e-03 -1.648310e-03 0.0
-3.607714e-03 -1.570272e-03 0.0
-3.097451e-03 -1.482363e-03 0.0
-2.619140e-03 -1.384822e-03 0.0
-2.175707e-03 -1.278024e-03 0.0
-1.769865e-03 -1.162523e-03 0.0
-1.404033e-03 -1.039099e-03 0.0
-1.080241e-03 -9.088328e-04 0.0
-8.000167e-04 -7.732032e-04 0.0
-5.642402e-04 -6.342202e-04 0.0
-3.729664e-04 -4.946070e-04 0.0
-2.252209e-04 -3.580436e-04 0.0
-1.187619e-04 -2.294877e-04 0.0
-4.980504e-05 -1.155929e-04 0.0
-1.272319e-05 -2.523908e-05 0.0
3.395986e-07 2.981018e-05 0.0
0.000000e+00 3.397562e-05 0.0
0.000000e+00 -3.380780e-05 0.0
0.000000e+00 4.925935e-06 0.0
-1.280061e-05 3.727784e-06 0.0
-6.614705e-05 9.867281e-05 0.0
-1.726060e-04 2.450342e-04 0.0
-3.356051e-04 4.212812e-04 0.0
-5.549690e-04 6.141497e-04 0.0
-8.282862e-04 8.150140e-04 0.0
-1.152604e-03 1.017864e-03 0.0
-1.525600e-03 1.217652e-03 0.0
-1.945834e-03 1.409586e-03 0.0
-2.412174e-03 1.589303e-03 0.0
-2.922905e-03 1.753474e-03 0.0
-3.475051e-03 1.900314e-03 0.0
-4.064294e-03 2.029627e-03 0.0
-4.685457e-03 2.142330e-03 0.0
-5.333282e-03 2.239733e-03 0.0
-6.003072e-03 2.322900e-03 0.0
-6.690952e-03 2.392375e-03 0.0
-7.393709e-03 2.448310e-03 0.0
-8.108387e-03 2.490827e-03 0.0
-8.831910e-03 2.520359e-03 0.0
-9.560949e-03 2.537766e-03 0.0
-1.029203e-02 2.544193e-03 0.0
-1.102185e-02 2.540767e-03 0.0
-1.174746e-02 2.528323e-03 0.0
-1.246646e-02 2.507301e-03 0.0
-1.317680e-02 2.477844e-03 0.0
-1.387660e-02 2.440039e-03 0.0
-1.456394e-02 2.394142e-03 0.0
-1.523670e-02 2.340697e-03 0.0
-1.589264e-02 2.280482e-03 0.0
-1.652953e-02 2.214325e-03 0.0
-1.714536e-02 2.142897e-03 0.0
-1.773840e-02 2.066569e-03 0.0
-1.830728e-02 1.985392e-03 0.0
-1.885081e-02 1.899202e-03 0.0
-1.936792e-02 1.807786e-03 0.0
-1.985744e-02 1.711039e-03 0.0
-2.031810e-02 1.609063e-03 0.0
-2.074849e-02 1.502161e-03 0.0
-2.114714e-02 1.390765e-03 0.0
-2.151262e-02 1.275326e-03 0.0
-2.184363e-02 1.156220e-03 0.0
-2.213903e-02 1.033690e-03 0.0
-2.239785e-02 9.078568e-04 0.0
-2.261927e-02 7.787658e-04 0.0
-2.280255e-02 6.464572e-04 0.0
-2.294702e-02 5.110317e-04 0.0
-2.305200e-02 3.726927e-04 0.0
-2.311686e-02 2.317581e-04 0.0
-2.314102e-02 8.864730e-05 0.0
-2.312398e-02 -5.614479e-05 0.0
-2.306536e-02 -2.020746e-04 0.0
-2.296492e-02 -3.486212e-04 0.0
-2.282259e-02 -4.952936e-04 0.0
-2.263846e-02 -6.416230e-04 0.0
-2.241277e-02 -7.871480e-04 0.0
-2.214591e-02 -9.313993e-04 0.0
-2.183844e-02 -1.073887e-03 0.0
-2.149104e-02 -1.214094e-03 0.0
-2.110455e-02 -1.351476e-03 0.0
-2.067994e-02 -1.485468e-03 0.0
-2.021837e-02 -1.615485e-03 0.0
-1.972114e-02 -1.740932e-03 0.0
-1.918973e-02 -1.861207e-03 0.0
-1.862579e-02 -1.975702e-03 0.0
-1.803112e-02 -2.083804e-03 0.0
-1.740772e-02 -2.184903e-03 0.0
-1.675773e-02 -2.278385e-03 0.0
-1.608347e-02 -2.363647e-03 0.0
-1.538741e-02 -2.440095e-03 0.0
-1.467220e-02 -2.507155e-03 0.0
-1.394063e-02 -2.564274e-03 0.0
-1.319564e-02 -2.610926e-03 0.0
-1.244031e-02 -2.646613e-03 0.0
-1.167788e-02 -2.670864e-03 0.0
-1.091166e-02 -2.683243e-03 0.0
-1.014513e-02 -2.683343e-03 0.0
-9.381805e-03 -2.670793e-03 0.0
-8.625320e-03 -2.645259e-03 0.0
-7.879360e-03 -2.606449e-03 0.0
-7.147664e-03 -2.554125e-03 0.0
-6.433998e-03 -2.488111e-03 0.0
-5.742137e-03 -2.408305e-03 0.0
-5.075836e-03 -2.314695e-03 0.0
-4.438796e-03 -2.207379e-03 0.0
-3.834627e-03 -2.086578e-03 0.0
-3.266801e-03 -1.952674e-03 0.0
-2.738593e-03 -1.806240e-03 0.0
-2.253021e-03 -1.648091e-03 0.0
-1.812757e-03 -1.479350e-03 0.0
-1.420037e-03 -1.301537e-03 0.0
-1.076545e-03 -1.116679e-03 0.0
-7.832786e-04 -9.274713e-04 0.0
-5.403983e-04 -7.374738e-04 0.0
-3.470572e-04 -5.513730e-04 0.0
-2.012211e-04 -3.753154e-04 0.0
-9.947385e-05 -2.173321e-04 0.0
-3.683442e-05 -8.787097e-05 0.0
-6.563464e-06 -4.532708e-07 0.0
0.000000e+00 2.741971e-05 0.0
0.000000e+00 -2.721871e-05 0.0
0.000000e+00 -1.736699e-05 0.0
-1.505626e-05 3.815238e-05 0.0
-9.584731e-05 1.834663e-04 0.0
-2.405829e-04 3.837378e-04 0.0
-4.487802e-04 6.175289e-04 0.0
-7.180068e-04 8.714949e-04 0.0
-1.045374e-03 1.135520e-03 0.0
-1.428664e-03 1.401195e-03 0.0
-1.866593e-03 1.661011e-03 0.0
-2.358240e-03 1.908443e-03 0.0
-2.902092e-03 2.138499e-03 0.0
-3.495299e-03 2.348177e-03 0.0
-4.133513e-03 2.536449e-03 0.0
-4.811347e-03 2.703705e-03 0.0
-5.523163e-03 2.850942e-03 0.0
-6.263773e-03 2.979047e-03 0.0
-7.028752e-03 3.088483e-03 0.0
-7.814317e-03 3.179397e-03 0.0
-8.616946e-03 3.251982e-03 0.0
-9.433003e-03 3.306818e-03 0.0
-1.025860e-02 3.344969e-03 0.0
-1.108974e-02 3.367808e-03 0.0
-1.192255e-02 3.376691e-03 0.0
-1.275363e-02 3.372653e-03 0.0
-1.358006e-02 3.356318e-03 0.0
-1.439932e-02 3.328016e-03 0.0
-1.520908e-02 3.288036e-03 0.0
-1.600694e-02 3.236870e-03 0.0
-1.679034e-02 3.175306e-03 0.0
-1.755660e-02 3.104354e-03 0.0
-1.830313e-02 3.025035e-03 0.0
-1.902757e-02 2.938157e-03 0.0
-1.972791e-02 2.844175e-03 0.0
-2.040250e-02 2.743198e-03 0.0
-2.104992e-02 2.635118e-03 0.0
-2.166881e-02 2.519801e-03 0.0
-2.225776e-02 2.397257e-03 0.0
-2.281521e-02 2.267717e-03 0.0
-2.333948e-02 2.131616e-03 0.0
-2.382886e-02 1.989495e-03 0.0
-2.428170e-02 1.841877e-03 0.0
-2.469651e-02 1.689169e-03 0.0
-2.507196e-02 1.531625e-03 0.0
-2.540693e-02 1.369367e-03 0.0
-2.570042e-02 1.202453e-03 0.0
-2.595151e-02 1.030960e-03 0.0
-2.615934e-02 8.550490e-04 0.0
-2.632305e-02 6.750052e-04 0.0
-2.644182e-02 4.912365e-04 0.0
-2.651488e-02 3.042519e-04 0.0
-2.654158e-02 1.146277e-04 0.0
-2.652136e-02 -7.702046e-05 0.0
-2.645385e-02 -2.700532e-04 0.0
-2.633884e-02 -4.638616e-04 0.0
-2.617628e-02 -6.578563e-04 0.0
-2.596630e-02 -8.514477e-04 0.0
-2.570919e-02 -1.044029e-03 0.0
-2.540541e-02 -1.234963e-03 0.0
-2.505556e-02 -1.423577e-03 0.0
-2.466040e-02 -1.609166e-03 0.0
-2.422088e-02 -1.790997e-03 0.0
-2.373813e-02 -1.968314e-03 0.0
-2.321342e-02 -2.140345e-03 0.0
-2.264826e-02 -2.306307e-03 0.0
-2.204432e-02 -2.465405e-03 0.0
-2.140346e-02 -2.616838e-03 0.0
-2.072773e-02 -2.759801e-03 0.0
-2.001939e-02 -2.893487e-03 0.0
-1.928085e-02 -3.017098e-03 0.0
-1.851474e-02 -3.129850e-03 0.0
-1.772387e-02 -3.230975e-03 0.0
-1.691122e-02 -3.319736e-03 0.0
-1.607993e-02 -3.395419e-03 0.0
-1.523334e-02 -3.457344e-03 0.0
-1.437491e-02 -3.504864e-03 0.0
-1.350827e-02 -3.537364e-03 0.0
-1.263715e-02 -3.554267e-03 0.0
-1.176543e-02 -3.555040e-03 0.0
-1.089706e-02 -3.539199e-03 0.0
-1.003608e-02 -3.506313e-03 0.0
-9.186621e-03 -3.456016e-03 0.0
-8.352840e-03 -3.388021e-03 0.0
-7.538929e-03 -3.302127e-03 0.0
-6.749077e-03 -3.198242e-03 0.0
-5.987437e-03 -3.076394e-03 0.0
-5.258093e-03 -2.936755e-03 0.0
-4.565012e-03 -2.779669e-03 0.0
-3.911995e-03 -2.605684e-03 0.0
-3.302617e-03 -2.415600e-03 0.0
-2.740158e-03 -2.210528e-03 0.0
-2.227522e-03 -1.991963e-03 0.0
-1.767145e-03 -1.761891e-03 0.0
-1.360893e-03 -1.522911e-03 0.0
-1.009944e-03 -1.278405e-03 0.0
-7.146597e-04 -1.032743e-03 0.0
-4.744645e-04 -7.915556e-04 0.0
-2.877168e-04 -5.620533e-04 0.0
-1.515963e-04 -3.534429e-04 0.0
-6.203081e-05 -1.774264e-04 0.0
-1.367361e-05 -4.880027e-05 0.0
0.000000e+00 1.375638e-05 0.0
0.000000e+00 -1.352302e-05 0.0
0.000000e+00 -5.320651e-05 0.0
-2.145876e-05 7.713622e-05 0.0
-1.294990e-04 2.871013e-04 0.0
-3.105154e-04 5.539480e-04 0.0
-5.611331e-04 8.568481e-04 0.0
-8.778705e-04 1.181525e-03 0.0
-1.258170e-03 1.515822e-03 0.0
-1.700587e-03 1.849033e-03 0.0
-2.204182e-03 2.171962e-03 0.0
-2.767517e-03 2.477432e-03 0.0
-3.387837e-03 2.760727e-03 0.0
-4.060839e-03 3.019529e-03 0.0
-4.781080e-03 3.253308e-03 0.0
-5.542738e-03 3.462434e-03 0.0
-6.340319e-03 3.647384e-03 0.0
-7.168994e-03 3.808366e-03 0.0
-8.024506e-03 3.945400e-03 0.0
-8.902811e-03 4.058657e-03 0.0
-9.799742e-03 4.148787e-03 0.0
-1.071088e-02 4.216996e-03 0.0
-1.163170e-02 4.264843e-03 0.0
-1.255788e-02 4.293881e-03 0.0
-1.348552e-02 4.305349e-03 0.0
-1.441127e-02 4.300071e-03 0.0
-1.533214e-02 4.278592e-03 0.0
-1.624533e-02 4.241442e-03 0.0
-1.714795e-02 4.189379e-03 0.0
-1.803697e-02 4.123470e-03 0.0
-1.890929e-02 4.044984e-03 0.0
-1.976191e-02 3.955159e-03 0.0
-2.059216e-02 3.854968e-03 0.0
-2.139774e-02 3.744984e-03 0.0
-2.217674e-02 3.625412e-03 0.0
-2.292746e-02 3.496241e-03 0.0
-2.364828e-02 3.357458e-03 0.0
-2.433748e-02 3.209216e-03 0.0
-2.499320e-02 3.051904e-03 0.0
-2.561351e-02 2.886104e-03 0.0
-2.619644e-02 2.712470e-03 0.0
-2.674013e-02 2.531603e-03 0.0
-2.724290e-02 2.343947e-03 0.0
-2.770327e-02 2.149771e-03 0.0
-2.811994e-02 1.949209e-03 0.0
-2.849173e-02 1.742347e-03 0.0
-2.881755e-02 1.529309e-03 0.0
-2.909631e-02 1.310327e-03 0.0
-2.932696e-02 1.085769e-03 0.0
-2.950847e-02 8.561302e-04 0.0
-2.963990e-02 6.220005e-04 0.0
-2.972041e-02 3.840292e-04 0.0
-2.974928e-02 1.428968e-04 0.0
-2.972598e-02 -1.006960e-04 0.0
-2.965013e-02 -3.460204e-04 0.0
-2.952156e-02 -5.923596e-04 0.0
-2.934023e-02 -8.389873e-04 0.0
-2.910630e-02 -1.085149e-03 0.0
-2.882008e-02 -1.330053e-03 0.0
-2.848206e-02 -1.572864e-03 0.0
-2.809289e-02 -1.812707e-03 0.0
-2.765344e-02 -2.048676e-03 0.0
-2.716473e-02 -2.279834e-03 0.0
-2.662802e-02 -2.505225e-03 0.0
-2.604474e-02 -2.723871e-03 0.0
-2.541655e-02 -2.934780e-03 0.0
-2.474529e-02 -3.136944e-03 0.0
-2.403305e-02 -3.329350e-03 0.0
-2.328208e-02 -3.510980e-03 0.0
-2.249488e-02 -3.680823e-03 0.0
-2.167413e-02 -3.837883e-03 0.0
-2.082274e-02 -3.981182e-03 0.0
-1.994382e-02 -4.109770e-03 0.0
-1.904065e-02 -4.222724e-03 0.0
-1.811673e-02 -4.319155e-03 0.0
-1.717570e-02 -4.398207e-03 0.0
-1.622140e-02 -4.459060e-03 0.0
-1.525778e-02 -4.500939e-03 0.0
-1.428897e-02 -4.523113e-03 0.0