# vtk DataFile Version 3.0
Vector Field
ASCII
DATASET RECTILINEAR_GRID
DIMENSIONS 102 102 1
X_COORDINATES 102 double
0.000000 0.100000 0.200000 0.300000 0.400000 0.500000 0.600000 0.700000 0.800000 0.900000 1.000000 1.100000 1.200000 1.300000 1.400000 1.500000 1.600000 1.700000 1.800000 1.900000 2.000000 2.100000 2.200000 2.300000 2.400000 2.500000 2.600000 2.700000 2.800000 2.900000 3.000000 3.100000 3.200000 3.300000 3.400000 3.500000 3.600000 3.700000 3.800000 3.900000 4.000000 4.100000 4.200000 4.300000 4.400000 4.500000 4.600000 4.700000 4.800000 4.900000 5.000000 5.100000 5.200000 5.300000 5.400000 5.500000 5.600000 5.700000 5.800000 5.900000 6.000000 6.100000 6.200000 6.300000 6.400000 6.500000 6.600000 6.700000 6.800000 6.900000 7.000000 7.100000 7.200000 7.300000 7.400000 7.500000 7.600000 7.700000 7.800000 7.900000 8.000000 8.100000 8.200000 8.300000 8.400000 8.500000 8.600000 8.700000 8.800000 8.900000 9.000000 9.100000 9.200000 9.300000 9.400000 9.500000 9.600000 9.700000 9.800000 9.900000 10.000000 10.100000 
Y_COORDINATES 102 double
0.000000 0.100000 0.200000 0.300000 0.400000 0.500000 0.600000 0.700000 0.800000 0.900000 1.000000 1.100000 1.200000 1.300000 1.400000 1.500000 1.600000 1.700000 1.800000 1.900000 2.000000 2.100000 2.200000 2.300000 2.400000 2.500000 2.600000 2.700000 2.800000 2.900000 3.000000 3.100000 3.200000 3.300000 3.400000 3.500000 3.600000 3.700000 3.800000 3.900000 4.000000 4.100000 4.200000 4.300000 4.400000 4.500000 4.600000 4.700000 4.800000 4.900000 5.000000 5.100000 5.200000 5.300000 5.400000 5.500000 5.600000 5.700000 5.800000 5.900000 6.000000 6.100000 6.200000 6.300000 6.400000 6.500000 6.600000 6.700000 6.800000 6.900000 7.000000 7.100000 7.200000 7.300000 7.400000 7.500000 7.600000 7.700000 7.800000 7.900000 8.000000 8.100000 8.200000 8.300000 8.400000 8.500000 8.600000 8.700000 8.800000 8.900000 9.000000 9.100000 9.200000 9.300000 9.400000 9.500000 9.600000 9.700000 9.800000 9.900000 10.000000 10.100000 
Z_COORDINATES 1 double
0.0
POINT_DATA 10404
VECTORS Velocity double
0.000000e+00 0.000000e+00 0.0
-5.141863e-06 0.000000e+00 0.0
-5.396927e-06 0.000000e+00 0.0
6.620994e-06 0.000000e+00 0.0
3.129537e-05 0.000000e+00 0.0
6.698621e-05 0.000000e+00 0.0
1.115398e-04 0.000000e+00 0.0
1.628603e-04 0.000000e+00 0.0
2.191127e-04 0.000000e+00 0.0
2.787789e-04 0.000000e+00 0.0
3.406502e-04 0.000000e+00 0.0
4.037941e-04 0.000000e+00 0.0
4.675105e-04 0.000000e+00 0.0
5.312864e-04 0.000000e+00 0.0
5.947532e-04 0.000000e+00 0.0
6.576491e-04 0.000000e+00 0.0
7.197887e-04 0.000000e+00 0.0
7.810386e-04 0.000000e+00 0.0
8.412990e-04 0.000000e+00 0.0
9.004910e-04 0.000000e+00 0.0
9.585475e-04 0.000000e+00 0.0
1.015408e-03 0.000000e+00 0.0
1.071014e-03 0.000000e+00 0.0
1.125309e-03 0.000000e+00 0.0
1.178238e-03 0.000000e+00 0.0
1.229744e-03 0.000000e+00 0.0
1.279773e-03 0.000000e+00 0.0
1.328270e-03 0.000000e+00 0.0
1.375183e-03 0.000000e+00 0.0
1.420459e-03 0.000000e+00 0.0
1.464050e-03 0.000000e+00 0.0
1.505907e-03 0.000000e+00 0.0
1.545985e-03 0.000000e+00 0.0
1.584239e-03 0.000000e+00 0.0
1.620628e-03 0.000000e+00 0.0
1.655110e-03 0.000000e+00 0.0
1.687648e-03 0.000000e+00 0.0
1.718205e-03 0.000000e+00 0.0
1.746747e-03 0.000000e+00 0.0
1.773239e-03 0.000000e+00 0.0
1.797650e-03 0.000000e+00 0.0
1.819951e-03 0.000000e+00 0.0
1.840114e-03 0.000000e+00 0.0
1.858113e-03 0.000000e+00 0.0
1.873924e-03 0.000000e+00 0.0
1.887526e-03 0.000000e+00 0.0
1.898900e-03 0.000000e+00 0.0
1.908028e-03 0.000000e+00 0.0
1.914896e-03 0.000000e+00 0.0
1.919491e-03 0.000000e+00 0.0
1.921805e-03 0.000000e+00 0.0
1.921828e-03 0.000000e+00 0.0
1.919557e-03 0.000000e+00 0.0
1.914992e-03 0.000000e+00 0.0
1.908132e-03 0.000000e+00 0.0
1.898983e-03 0.000000e+00 0.0
1.887549e-03 0.000000e+00 0.0
1.873838e-03 0.000000e+00 0.0
1.857862e-03 0.000000e+00 0.0
1.839632e-03 0.000000e+00 0.0
1.819163e-03 0.000000e+00 0.0
1.796475e-03 0.000000e+00 0.0
1.771587e-03 0.000000e+00 0.0
1.744523e-03 0.000000e+00 0.0
1.715309e-03 0.000000e+00 0.0
1.683974e-03 0.000000e+00 0.0
1.650548e-03 0.000000e+00 0.0
1.615067e-03 0.000000e+00 0.0
1.577566e-03 0.000000e+00 0.0
1.538086e-03 0.000000e+00 0.0
1.496668e-03 0.000000e+00 0.0
1.453357e-03 0.000000e+00 0.0
1.408199e-03 0.000000e+00 0.0
1.361244e-03 0.000000e+00 0.0
1.312544e-03 0.000000e+00 0.0
1.262150e-03 0.000000e+00 0.0
1.210118e-03 0.000000e+00 0.0
1.156505e-03 0.000000e+00 0.0
1.101367e-03 0.000000e+00 0.0
1.044765e-03 0.000000e+00 0.0
9.867584e-04 0.000000e+00 0.0
9.274114e-04 0.000000e+00 0.0
8.667919e-04 0.000000e+00 0.0
8.049765e-04 0.000000e+00 0.0
7.420556e-04 0.000000e+00 0.0
6.781432e-04 0.000000e+00 0.0
6.133896e-04 0.000000e+00 0.0
5.480003e-04 0.000000e+00 0.0
4.822601e-04 0.000000e+00 0.0
4.165635e-04 0.000000e+00 0.0
3.514520e-04 0.000000e+00 0.0
2.876559e-04 0.000000e+00 0.0
2.261386e-04 0.000000e+00 0.0
1.681400e-04 0.000000e+00 0.0
1.152100e-04 0.000000e+00 0.0
6.921524e-05 0.000000e+00 0.0
3.228371e-05 0.000000e+00 0.0
6.600417e-06 0.000000e+00 0.0
-6.160608e-06 0.000000e+00 0.0
-6.331583e-06 0.000000e+00 0.0
-0.000000e+00 0.000000e+00 0.0
0.000000e+00 0.000000e+00 0.0
0.000000e+00 7.805936e-06 0.0
5.073438e-06 -7.883311e-06 0.0
5.420681e-06 -1.916318e-06 0.0
-6.474979e-06 1.036007e-05 0.0
-3.101466e-05 2.303903e-05 0.0
-6.657456e-05 3.409378e-05 0.0
-1.110133e-04 4.300500e-05 0.0
-1.622433e-04 4.982477e-05 0.0
-2.184338e-04 5.480912e-05 0.0
-2.780678e-04 5.827045e-05 0.0
-3.399350e-04 6.051546e-05 0.0
-4.030998e-04 6.181859e-05 0.0
-4.668580e-04 6.241173e-05 0.0
-5.306919e-04 6.248225e-05 0.0
-5.942281e-04 6.217562e-05 0.0
-6.572006e-04 6.160067e-05 0.0
-7.194196e-04 6.083592e-05 0.0
-7.807483e-04 5.993586e-05 0.0
-8.410837e-04 5.893682e-05 0.0
-9.003445e-04 5.786203e-05 0.0
-9.584619e-04 5.672557e-05 0.0
-1.015374e-03 5.553546e-05 0.0
-1.071023e-03 5.429578e-05 0.0
-1.125353e-03 5.300823e-05 0.0
-1.178310e-03 5.167307e-05 0.0
-1.229839e-03 5.028979e-05 0.0
-1.279887e-03 4.885749e-05 0.0
-1.328404e-03 4.737522e-05 0.0
-1.375337e-03 4.584210e-05 0.0
-1.420637e-03 4.425754e-05 0.0
-1.464257e-03 4.262132e-05 0.0
-1.506148e-03 4.093370e-05 0.0
-1.546266e-03 3.919546e-05 0.0
-1.584565e-03 3.740797e-05 0.0
-1.621002e-03 3.557314e-05 0.0
-1.655537e-03 3.369337e-05 0.0
-1.688127e-03 3.177144e-05 0.0
-1.718736e-03 2.981041e-05 0.0
-1.747326e-03 2.781339e-05 0.0
-1.773863e-03 2.578345e-05 0.0
-1.798314e-03 2.372344e-05 0.0
-1.820650e-03 2.163594e-05 0.0
-1.840841e-03 1.952320e-05 0.0
-1.858864e-03 1.738713e-05 0.0
-1.874696e-03 1.522941e-05 0.0
-1.888314e-03 1.305156e-05 0.0
-1.899703e-03 1.085504e-05 0.0
-1.908844e-03 8.641393e-06 0.0
-1.915725e-03 6.412286e-06 0.0
-1.920333e-03 4.169570e-06 0.0
-1.922657e-03 1.915329e-06 0.0
-1.922691e-03 -3.479137e-07 0.0
-1.920428e-03 -2.616346e-06 0.0
-1.915868e-03 -4.886313e-06 0.0
-1.909012e-03 -7.155076e-06 0.0
-1.899862e-03 -9.420054e-06 0.0
-1.888423e-03 -1.167868e-05 0.0
-1.874704e-03 -1.392842e-05 0.0
-1.858715e-03 -1.616676e-05 0.0
-1.840468e-03 -1.839126e-05 0.0
-1.819980e-03 -2.059949e-05 0.0
-1.797269e-03 -2.278904e-05 0.0
-1.772355e-03 -2.495745e-05 0.0
-1.745262e-03 -2.710227e-05 0.0
-1.716016e-03 -2.922096e-05 0.0
-1.684647e-03 -3.131095e-05 0.0
-1.651186e-03 -3.336965e-05 0.0
-1.615666e-03 -3.539446e-05 0.0
-1.578125e-03 -3.738281e-05 0.0
-1.538603e-03 -3.933214e-05 0.0
-1.497140e-03 -4.123996e-05 0.0
-1.453782e-03 -4.310383e-05 0.0
-1.408576e-03 -4.492144e-05 0.0
-1.361570e-03 -4.669061e-05 0.0
-1.312817e-03 -4.840936e-05 0.0
-1.262368e-03 -5.007593e-05 0.0
-1.210280e-03 -5.168874e-05 0.0
-1.156609e-03 -5.324641e-05 0.0
-1.101412e-03 -5.474765e-05 0.0
-1.044749e-03 -5.619110e-05 0.0
-9.866811e-04 -5.757497e-05 0.0
-9.272713e-04 -5.889642e-05 0.0
-8.665884e-04 -6.015052e-05 0.0
-8.047094e-04 -6.132872e-05 0.0
-7.417257e-04 -6.241644e-05 0.0
-6.777527e-04 -6.338991e-05 0.0
-6.129426e-04 -6.421206e-05 0.0
-5.475031e-04 -6.482742e-05 0.0
-4.817214e-04 -6.515608e-05 0.0
-4.159951e-04 -6.508753e-05 0.0
-3.508689e-04 -6.447490e-05 0.0
-2.870765e-04 -6.312976e-05 0.0
-2.255844e-04 -6.081953e-05 0.0
-1.676344e-04 -5.726910e-05 0.0
-1.147752e-04 -5.217106e-05 0.0
-6.886980e-05 -4.521204e-05 0.0
-3.204011e-05 -3.613445e-05 0.0
-6.461249e-06 -2.488376e-05 0.0
6.209157e-06 -1.197471e-05 0.0
6.323974e-06 5.815590e-07 0.0
0.000000e+00 7.020652e-06 0.0
0.000000e+00 -6.978587e-06 0.0
0.000000e+00 7.779556e-06 0.0
-1.581141e-06 -7.871996e-06 0.0
-2.087740e-05 1.700943e-05 0.0
-6.690611e-05 5.602524e-05 0.0
-1.406901e-04 9.646471e-05 0.0
-2.397261e-04 1.327746e-04 0.0
-3.600266e-04 1.629512e-04 0.0
-4.972592e-04 1.867019e-04 0.0
-6.473315e-04 2.045230e-04 0.0
-8.066583e-04 2.172344e-04 0.0
-9.722514e-04 2.257399e-04 0.0
-1.141711e-03 2.309031e-04 0.0
-1.313167e-03 2.334862e-04 0.0
-1.485197e-03 2.341257e-04 0.0
-1.656742e-03 2.333291e-04 0.0
-1.827020e-03 2.314853e-04 0.0
-1.995457e-03 2.288807e-04 0.0
-2.161629e-03 2.257185e-04 0.0
-2.325212e-03 2.221372e-04 0.0
-2.485950e-03 2.182275e-04 0.0
-2.643630e-03 2.140460e-04 0.0
-2.798065e-03 2.096266e-04 0.0
-2.949085e-03 2.049884e-04 0.0
-3.096530e-03 2.001416e-04 0.0
-3.240243e-03 1.950916e-04 0.0
-3.380074e-03 1.898410e-04 0.0
-3.515874e-03 1.843918e-04 0.0
-3.647500e-03 1.787457e-04 0.0
-3.774810e-03 1.729051e-04 0.0
-3.897666e-03 1.668731e-04 0.0
-4.015935e-03 1.606535e-04 0.0
-4.129486e-03 1.542512e-04 0.0
-4.238195e-03 1.476719e-04 0.0
-4.341939e-03 1.409222e-04 0.0
-4.440603e-03 1.340092e-04 0.0
-4.534074e-03 1.269409e-04 0.0
-4.622247e-03 1.197254e-04 0.0
-4.705019e-03 1.123713e-04 0.0
-4.782295e-03 1.048871e-04 0.0
-4.853985e-03 9.728114e-05 0.0
-4.920003e-03 8.956156e-05 0.0
-4.980273e-03 8.173629e-05 0.0
-5.034720e-03 7.381297e-05 0.0
-5.083280e-03 6.579906e-05 0.0
-5.125890e-03 5.770193e-05 0.0
-5.162497e-03 4.952896e-05 0.0
-5.193052e-03 4.128767e-05 0.0
-5.217512e-03 3.298575e-05 0.0
-5.235840e-03 2.463113e-05 0.0
-5.248007e-03 1.623196e-05 0.0
-5.253985e-03 7.796764e-06 0.0
-5.253759e-03 -6.651527e-07 0.0
-5.247315e-03 -9.142446e-06 0.0
-5.234651e-03 -1.762424e-05 0.0
-5.215770e-03 -2.610122e-05 0.0
-5.190680e-03 -3.456448e-05 0.0
-5.159398e-03 -4.300511e-05 0.0
-5.121946e-03 -5.141415e-05 0.0
-5.078353e-03 -5.978252e-05 0.0
-5.028657e-03 -6.810105e-05 0.0
-4.972899e-03 -7.636046e-05 0.0
-4.911130e-03 -8.455136e-05 0.0
-4.843408e-03 -9.266426e-05 0.0
-4.769795e-03 -1.006896e-04 0.0
-4.690364e-03 -1.086176e-04 0.0
-4.605193e-03 -1.164387e-04 0.0
-4.514367e-03 -1.241431e-04 0.0
-4.417980e-03 -1.317211e-04 0.0
-4.316130e-03 -1.391631e-04 0.0
-4.208925e-03 -1.464597e-04 0.0
-4.096477e-03 -1.536015e-04 0.0
-3.978908e-03 -1.605795e-04 0.0
-3.856344e-03 -1.673848e-04 0.0
-3.728919e-03 -1.740091e-04 0.0
-3.596770e-03 -1.804445e-04 0.0
-3.460043e-03 -1.866835e-04 0.0
-3.318889e-03 -1.927194e-04 0.0
-3.173461e-03 -1.985453e-04 0.0
-3.023922e-03 -2.041547e-04 0.0
-2.870436e-03 -2.095400e-04 0.0
-2.713180e-03 -2.146910e-04 0.0
-2.552339e-03 -2.195927e-04 0.0
-2.388121e-03 -2.242212e-04 0.0
-2.220762e-03 -2.285376e-04 0.0
-2.050544e-03 -2.324796e-04 0.0
-1.877826e-03 -2.359506e-04 0.0
-1.703072e-03 -2.388056e-04 0.0
-1.526901e-03 -2.408342e-04 0.0
-1.350147e-03 -2.417423e-04 0.0
-1.173930e-03 -2.411339e-04 0.0
-9.997353e-04 -2.384951e-04 0.0
-8.295042e-04 -2.331845e-04 0.0
-6.657091e-04 -2.244364e-04 0.0
-5.114133e-04 -2.113849e-04 0.0
-3.702788e-04 -1.931242e-04 0.0
-2.464787e-04 -1.688307e-04 0.0
-1.444325e-04 -1.380010e-04 0.0
-6.822337e-05 -1.009131e-04 0.0
-2.047228e-05 -5.954527e-05 0.0
-3.031677e-07 -1.940660e-05 0.0
0.000000e+00 6.898377e-06 0.0
0.000000e+00 -6.803531e-06 0.0
0.000000e+00 -4.494202e-06 0.0
-1.375483e-05 4.341819e-06 0.0
-6.018433e-05 6.307196e-05 0.0
-1.447785e-04 1.402560e-04 0.0
-2.672629e-04 2.185876e-04 0.0
-4.242756e-04 2.894256e-04 0.0
-6.108226e-04 3.491348e-04 0.0
-8.213568e-04 3.968692e-04 0.0
-1.050467e-03 4.332618e-04 0.0
-1.293267e-03 4.596562e-04 0.0
-1.545567e-03 4.776560e-04 0.0
-1.803918e-03 4.888642e-04 0.0
-2.065568e-03 4.947409e-04 0.0
-2.328376e-03 4.965346e-04 0.0
-2.590709e-03 4.952613e-04 0.0
-2.851337e-03 4.917133e-04 0.0
-3.109337e-03 4.864846e-04 0.0
-3.364011e-03 4.800044e-04 0.0
-3.614822e-03 4.725708e-04 0.0
-3.861343e-03 4.643837e-04 0.0
-4.103219e-03 4.555721e-04 0.0
-4.340142e-03 4.462161e-04 0.0
-4.571835e-03 4.363637e-04 0.0
-4.798038e-03 4.260435e-04 0.0
-5.018507e-03 4.152723e-04 0.0
-5.233002e-03 4.040612e-04 0.0
-5.441294e-03 3.924186e-04 0.0
-5.643158e-03 3.803524e-04 0.0
-5.838376e-03 3.678710e-04 0.0
-6.026735e-03 3.549839e-04 0.0
-6.208030e-03 3.417020e-04 0.0
-6.382060e-03 3.280373e-04 0.0
-6.548634e-03 3.140034e-04 0.0
-6.707566e-03 2.996146e-04 0.0
-6.858678e-03 2.848863e-04 0.0
-7.001800e-03 2.698346e-04 0.0
-7.136772e-03 2.544759e-04 0.0
-7.263439e-03 2.388270e-04 0.0
-7.381657e-03 2.229044e-04 0.0
-7.491290e-03 2.067249e-04 0.0
-7.592212e-03 1.903049e-04 0.0
-7.684303e-03 1.736608e-04 0.0
-7.767455e-03 1.568087e-04 0.0
-7.841569e-03 1.397651e-04 0.0
-7.906553e-03 1.225463e-04 0.0
-7.962326e-03 1.051689e-04 0.0
-8.008815e-03 8.765000e-05 0.0
-8.045957e-03 7.000674e-05 0.0
-8.073697e-03 5.225671e-05 0.0
-8.091990e-03 3.441778e-05 0.0
-8.100801e-03 1.650831e-05 0.0
-8.100105e-03 -1.452368e-06 0.0
-8.089887e-03 -1.944273e-05 0.0
-8.070141e-03 -3.744189e-05 0.0
-8.040872e-03 -5.543054e-05 0.0
-8.002097e-03 -7.338985e-05 0.0
-7.953841e-03 -9.130099e-05 0.0
-7.896139e-03 -1.091449e-04 0.0
-7.829038e-03 -1.269023e-04 0.0
-7.752594e-03 -1.445537e-04 0.0
-7.666874e-03 -1.620792e-04 0.0
-7.571956e-03 -1.794589e-04 0.0
-7.467927e-03 -1.966726e-04 0.0
-7.354887e-03 -2.136998e-04 0.0
-7.232945e-03 -2.305203e-04 0.0
-7.102223e-03 -2.471134e-04 0.0
-6.962850e-03 -2.634587e-04 0.0
-6.814969e-03 -2.795358e-04 0.0
-6.658734e-03 -2.953245e-04 0.0
-6.494307e-03 -3.108047e-04 0.0
-6.321862e-03 -3.259567e-04 0.0
-6.141584e-03 -3.407613e-04 0.0
-5.953666e-03 -3.551995e-04 0.0
-5.758313e-03 -3.692533e-04 0.0
-5.555739e-03 -3.829053e-04 0.0
-5.346165e-03 -3.961389e-04 0.0
-5.129823e-03 -4.089381e-04 0.0
-4.906955e-03 -4.212870e-04 0.0
-4.677811e-03 -4.331686e-04 0.0
-4.442654e-03 -4.445634e-04 0.0
-4.201762e-03 -4.554450e-04 0.0
-3.955438e-03 -4.657754e-04 0.0
-3.704019e-03 -4.754960e-04 0.0
-3.447893e-03 -4.845152e-04 0.0
-3.187529e-03 -4.926916e-04 0.0
-2.923512e-03 -4.998116e-04 0.0
-2.656596e-03 -5.055619e-04 0.0
-2.387769e-03 -5.094977e-04 0.0
-2.118335e-03 -5.110087e-04 0.0
-1.850010e-03 -5.092874e-04 0.0
-1.585026e-03 -5.033046e-04 0.0
-1.326233e-03 -4.918014e-04 0.0
-1.077180e-03 -4.733103e-04 0.0
-8.421607e-04 -4.462230e-04 0.0
-6.261705e-04 -4.089319e-04 0.0
-4.347332e-04 -3.600860e-04 0.0
-2.735154e-04 -2.990385e-04 0.0
-1.476372e-04 -2.266099e-04 0.0
-6.060065e-05 -1.463998e-04 0.0
-1.281291e-05 -6.701201e-05 0.0
0.000000e+00 -5.732447e-06 0.0
0.000000e+00 5.918414e-06 0.0
0.000000e+00 -2.935929e-05 0.0
-2.629590e-05 2.912230e-05 0.0
-1.007371e-04 1.371462e-04 0.0
-2.236795e-04 2.628320e-04 0.0
-3.923006e-04 3.868409e-04 0.0
-6.018870e-04 4.986415e-04 0.0
-8.465337e-04 5.934067e-04 0.0
-1.119888e-03 6.698432e-04 0.0
-1.415737e-03 7.287242e-04 0.0
-1.728393e-03 7.719195e-04 0.0
-2.052902e-03 8.017656e-04 0.0
-2.385111e-03 8.206689e-04 0.0
-2.721648e-03 8.308703e-04 0.0
-3.059844e-03 8.343211e-04 0.0
-3.397624e-03 8.326342e-04 0.0
-3.733399e-03 8.270855e-04 0.0
-4.065955e-03 8.186454e-04 0.0
-4.394359e-03 8.080249e-04 0.0
-4.717886e-03 7.957265e-04 0.0
-5.035950e-03 7.820932e-04 0.0
-5.348069e-03 7.673516e-04 0.0
-5.653823e-03 7.516466e-04 0.0
-5.952837e-03 7.350692e-04 0.0
-6.244764e-03 7.176757e-04 0.0
-6.529277e-03 6.995021e-04 0.0
-6.806063e-03 6.805731e-04 0.0
-7.074820e-03 6.609082e-04 0.0
-7.335256e-03 6.405248e-04 0.0
-7.587085e-03 6.194406e-04 0.0
-7.830034e-03 5.976745e-04 0.0
-8.063835e-03 5.752468e-04 0.0
-8.288231e-03 5.521795e-04 0.0
-8.502975e-03 5.284962e-04 0.0
-8.707828e-03 5.042216e-04 0.0
-8.902563e-03 4.793815e-04 0.0
-9.086962e-03 4.540026e-04 0.0
-9.260820e-03 4.281118e-04 0.0
-9.423939e-03 4.017364e-04 0.0
-9.576137e-03 3.749037e-04 0.0
-9.717240e-03 3.476411e-04 0.0
-9.847088e-03 3.199761e-04 0.0
-9.965529e-03 2.919360e-04 0.0
-1.007243e-02 2.635486e-04 0.0
-1.016765e-02 2.348419e-04 0.0
-1.025110e-02 2.058441e-04 0.0
-1.032265e-02 1.765840e-04 0.0
-1.038222e-02 1.470907e-04 0.0
-1.042973e-02 1.173939e-04 0.0
-1.046512e-02 8.752354e-05 0.0
-1.048832e-02 5.750992e-05 0.0
-1.049929e-02 2.738392e-05 0.0
-1.049801e-02 -2.822579e-06 0.0
-1.048446e-02 -3.307580e-05 0.0
-1.045863e-02 -6.334253e-05 0.0
-1.042052e-02 -9.359076e-05 0.0
-1.037017e-02 -1.237888e-04 0.0
-1.030760e-02 -1.539047e-04 0.0
-1.023286e-02 -1.839065e-04 0.0
-1.014602e-02 -2.137615e-04 0.0
-1.004714e-02 -2.434368e-04 0.0
-9.936313e-03 -2.728993e-04 0.0
-9.813641e-03 -3.021151e-04 0.0
-9.679238e-03 -3.310506e-04 0.0
-9.533231e-03 -3.596717e-04 0.0
-9.375763e-03 -3.879443e-04 0.0
-9.206989e-03 -4.158340e-04 0.0
-9.027079e-03 -4.433068e-04 0.0
-8.836216e-03 -4.703285e-04 0.0
-8.634597e-03 -4.968654e-04 0.0
-8.422432e-03 -5.228837e-04 0.0
-8.199947e-03 -5.483504e-04 0.0
-7.967377e-03 -5.732328e-04 0.0
-7.724975e-03 -5.974990e-04 0.0
-7.473002e-03 -6.211181e-04 0.0
-7.211735e-03 -6.440600e-04 0.0
-6.941463e-03 -6.662956e-04 0.0
-6.662485e-03 -6.877960e-04 0.0
-6.375117e-03 -7.085320e-04 0.0
-6.079687e-03 -7.284718e-04 0.0
-5.776543e-03 -7.475772e-04 0.0
-5.466055e-03 -7.657981e-04 0.0
-5.148630e-03 -7.830624e-04 0.0
-4.824721e-03 -7.992624e-04 0.0
-4.494855e-03 -8.142340e-04 0.0
-4.159666e-03 -8.277298e-04 0.0
-3.819939e-03 -8.393836e-04 0.0
-3.476673e-03 -8.486679e-04 0.0
-3.131161e-03 -8.548454e-04 0.0
-2.785082e-03 -8.569194e-04 0.0
-2.440607e-03 -8.535893e-04 0.0
-2.100516e-03 -8.432205e-04 0.0
-1.768293e-03 -8.238452e-04 0.0
-1.448213e-03 -7.932102e-04 0.0
-1.145351e-03 -7.489012e-04 0.0
-8.655232e-04 -6.885755e-04 0.0
-6.150725e-04 -6.103534e-04 0.0
-4.004846e-04 -5.134442e-04 0.0
-2.277995e-04 -3.991113e-04 0.0
-1.018684e-04 -2.721465e-04 0.0
-2.563946e-05 -1.430565e-04 0.0
0.000000e+00 -3.118780e-05 0.0
0.000000e+00 3.148285e-05 0.0
0.000000e+00 -6.526731e-05 0.0
-3.731001e-05 6.493710e-05 0.0
-1.373452e-04 2.368112e-04 0.0
-2.954682e-04 4.205824e-04 0.0
-5.058743e-04 5.968705e-04 0.0
-7.621296e-04 7.545152e-04 0.0
-1.057294e-03 8.881831e-04 0.0
-1.384304e-03 9.964585e-04 0.0
-1.736373e-03 1.080392e-03 0.0
-2.107297e-03 1.142436e-03 0.0
-2.491638e-03 1.185693e-03 0.0
-2.884793e-03 1.213407e-03 0.0
-3.282980e-03 1.228639e-03 0.0
-3.683164e-03 1.234089e-03 0.0
-4.082956e-03 1.232016e-03 0.0
-4.480499e-03 1.224226e-03 0.0
-4.874353e-03 1.212109e-03 0.0
-5.263399e-03 1.196694e-03 0.0
-5.646752e-03 1.178718e-03 0.0
-6.023699e-03 1.158694e-03 0.0
-6.393641e-03 1.136964e-03 0.0
-6.756064e-03 1.113755e-03 0.0
-7.110507e-03 1.089210e-03 0.0
-7.456547e-03 1.063424e-03 0.0
-7.793787e-03 1.036459e-03 0.0
-8.121849e-03 1.008358e-03 0.0
-8.440369e-03 9.791553e-04 0.0
-8.748997e-03 9.488826e-04 0.0
-9.047395e-03 9.175696e-04 0.0
-9.335236e-03 8.852470e-04 0.0
-9.612202e-03 8.519472e-04 0.0
-9.877990e-03 8.177044e-04 0.0
-1.013231e-02 7.825543e-04 0.0
-1.037487e-02 7.465341e-04 0.0
-1.060541e-02 7.096820e-04 0.0
-1.082368e-02 6.720370e-04 0.0
-1.102942e-02 6.336387e-04 0.0
-1.122242e-02 5.945269e-04 0.0
-1.140246e-02 5.547418e-04 0.0
-1.156933e-02 5.143237e-04 0.0
-1.172284e-02 4.733132e-04 0.0
-1.186282e-02 4.317513e-04 0.0
-1.198912e-02 3.896795e-04 0.0
-1.210157e-02 3.471397e-04 0.0
-1.220005e-02 3.041744e-04 0.0
-1.228443e-02 2.608267e-04 0.0
-1.235462e-02 2.171402e-04 0.0
-1.241051e-02 1.731591e-04 0.0
-1.245203e-02 1.289279e-04 0.0
-1.247912e-02 8.449139e-05 0.0
-1.249173e-02 3.989522e-05 0.0
-1.248983e-02 -4.814277e-06 0.0
-1.247339e-02 -4.958922e-05 0.0
-1.244241e-02 -9.438212e-05 0.0
-1.239691e-02 -1.391460e-04 0.0
-1.233691e-02 -1.838338e-04 0.0
-1.226244e-02 -2.283983e-04 0.0
-1.217358e-02 -2.727918e-04 0.0
-1.207038e-02 -3.169660e-04 0.0
-1.195294e-02 -3.608723e-04 0.0
-1.182137e-02 -4.044615e-04 0.0
-1.167578e-02 -4.476841e-04 0.0
-1.151631e-02 -4.904903e-04 0.0
-1.134311e-02 -5.328300e-04 0.0
-1.115635e-02 -5.746530e-04 0.0
-1.095622e-02 -6.159089e-04 0.0
-1.074291e-02 -6.565476e-04 0.0
-1.051665e-02 -6.965188e-04 0.0
-1.027766e-02 -7.357724e-04 0.0
-1.002620e-02 -7.742589e-04 0.0
-9.762531e-03 -8.119290e-04 0.0
-9.486933e-03 -8.487343e-04 0.0
-9.199703e-03 -8.846272e-04 0.0
-8.901155e-03 -9.195611e-04 0.0
-8.591616e-03 -9.534905e-04 0.0
-8.271429e-03 -9.863707e-04 0.0
-7.940953e-03 -1.018157e-03 0.0
-7.600564e-03 -1.048802e-03 0.0
-7.250658e-03 -1.078255e-03 0.0
-6.891654e-03 -1.106454e-03 0.0
-6.524003e-03 -1.133317e-03 0.0
-6.148200e-03 -1.158729e-03 0.0
-5.764800e-03 -1.182521e-03 0.0
-5.374448e-03 -1.204440e-03 0.0
-4.977915e-03 -1.224112e-03 0.0
-4.576149e-03 -1.240993e-03 0.0
-4.170347e-03 -1.254308e-03 0.0
-3.762035e-03 -1.262991e-03 0.0
-3.353170e-03 -1.265614e-03 0.0
-2.946248e-03 -1.260335e-03 0.0
-2.544425e-03 -1.244866e-03 0.0
-2.151606e-03 -1.216483e-03 0.0
-1.772527e-03 -1.172106e-03 0.0
-1.412759e-03 -1.108483e-03 0.0
-1.078644e-03 -1.022503e-03 0.0
-7.771071e-04 -9.117048e-04 0.0
-5.153473e-04 -7.750189e-04 0.0
-3.004400e-04 -6.138317e-04 0.0
-1.389554e-04 -4.334437e-04 0.0
-3.683395e-05 -2.449906e-04 0.0
0.000000e+00 -6.783485e-05 0.0
0.000000e+00 6.824033e-05 0.0
0.000000e+00 -1.101864e-04 0.0
-4.631016e-05 1.097653e-04 0.0
-1.681793e-04 3.583039e-04 0.0
-3.568325e-04 6.088543e-04 0.0
-6.036122e-04 8.432629e-04 0.0
-9.002536e-04 1.050762e-03 0.0
-1.238677e-03 1.226205e-03 0.0
-1.611096e-03 1.368468e-03 0.0
-2.010225e-03 1.479105e-03 0.0
-2.429480e-03 1.561269e-03 0.0
-2.863100e-03 1.618888e-03 0.0
-3.306196e-03 1.656076e-03 0.0
-3.754723e-03 1.676742e-03 0.0
-4.205412e-03 1.684359e-03 0.0
-4.655663e-03 1.681856e-03 0.0
-5.103429e-03 1.671595e-03 0.0
-5.547110e-03 1.655406e-03 0.0
-5.985444e-03 1.634660e-03 0.0
-6.417428e-03 1.610350e-03 0.0
-6.842240e-03 1.583170e-03 0.0
-7.259192e-03 1.553596e-03 0.0
-7.667690e-03 1.521943e-03 0.0
-8.067200e-03 1.488422e-03 0.0
-8.457235e-03 1.453168e-03 0.0
-8.837339e-03 1.416277e-03 0.0
-9.207079e-03 1.377815e-03 0.0
-9.566041e-03 1.337837e-03 0.0
-9.913828e-03 1.296389e-03 0.0
-1.025005e-02 1.253517e-03 0.0
-1.057435e-02 1.209266e-03 0.0
-1.088636e-02 1.163683e-03 0.0
-1.118574e-02 1.116815e-03 0.0
-1.147216e-02 1.068713e-03 0.0
-1.174531e-02 1.019428e-03 0.0
-1.200488e-02 9.690116e-04 0.0
-1.225059e-02 9.175175e-04 0.0
-1.248217e-02 8.649993e-04 0.0
-1.269936e-02 8.115114e-04 0.0
-1.290193e-02 7.571084e-04 0.0
-1.308964e-02 7.018457e-04 0.0
-1.326228e-02 6.457789e-04 0.0
-1.341967e-02 5.889645e-04 0.0
-1.356161e-02 5.314597e-04 0.0
-1.368796e-02 4.733221e-04 0.0
-1.379855e-02 4.146105e-04 0.0
-1.389325e-02 3.553839e-04 0.0
-1.397195e-02 2.957020e-04 0.0
-1.403454e-02 2.356251e-04 0.0
-1.408095e-02 1.752140e-04 0.0
-1.411109e-02 1.145298e-04 0.0
-1.412492e-02 5.363424e-05 0.0
-1.412241e-02 -7.410024e-06 0.0
-1.410353e-02 -6.853943e-05 0.0
-1.406828e-02 -1.296904e-04 0.0
-1.401667e-02 -1.907991e-04 0.0
-1.394874e-02 -2.518015e-04 0.0
-1.386453e-02 -3.126329e-04 0.0
-1.376411e-02 -3.732280e-04 0.0
-1.364756e-02 -4.335212e-04 0.0
-1.351498e-02 -4.934462e-04 0.0
-1.336649e-02 -5.529360e-04 0.0
-1.320222e-02 -6.119235e-04 0.0
-1.302234e-02 -6.703409e-04 0.0
-1.282700e-02 -7.281204e-04 0.0
-1.261641e-02 -7.851938e-04 0.0
-1.239076e-02 -8.414928e-04 0.0
-1.215029e-02 -8.969489e-04 0.0
-1.189524e-02 -9.514938e-04 0.0
-1.162587e-02 -1.005059e-03 0.0
-1.134247e-02 -1.057578e-03 0.0
-1.104533e-02 -1.108982e-03 0.0
-1.073476e-02 -1.159205e-03 0.0
-1.041111e-02 -1.208181e-03 0.0
-1.007473e-02 -1.255847e-03 0.0
-9.725975e-03 -1.302138e-03 0.0
-9.365248e-03 -1.346991e-03 0.0
-8.992950e-03 -1.390343e-03 0.0
-8.609510e-03 -1.432127e-03 0.0
-8.215378e-03 -1.472266e-03 0.0
-7.811036e-03 -1.510671e-03 0.0
-7.396999e-03 -1.547222e-03 0.0
-6.973837e-03 -1.581754e-03 0.0
-6.542189e-03 -1.614026e-03 0.0
-6.102794e-03 -1.643686e-03 0.0
-5.656533e-03 -1.670219e-03 0.0
-5.204481e-03 -1.692885e-03 0.0
-4.747981e-03 -1.710644e-03 0.0
-4.288726e-03 -1.722075e-03 0.0
-3.828868e-03 -1.725297e-03 0.0
-3.371121e-03 -1.717902e-03 0.0
-2.918884e-03 -1.696921e-03 0.0
-2.476330e-03 -1.658851e-03 0.0
-2.048489e-03 -1.599760e-03 0.0
-1.641260e-03 -1.515522e-03 0.0
-1.261370e-03 -1.402203e-03 0.0
-9.162460e-04 -1.256641e-03 0.0
-6.138094e-04 -1.077266e-03 0.0
-3.622750e-04 -8.651755e-04 0.0
-1.700446e-04 -6.254831e-04 0.0
-4.592533e-05 -3.689191e-04 0.0
0.000000e+00 -1.135698e-04 0.0
0.000000e+00 1.140757e-04 0.0
0.000000e+00 -1.621570e-04 0.0
-5.336524e-05 1.616538e-04 0.0
-1.930493e-04 4.976026e-04 0.0
-4.071469e-04 8.225598e-04 0.0
-6.845617e-04 1.120278e-03 0.0
-1.015300e-03 1.381093e-03 0.0
-1.390132e-03 1.600621e-03 0.0
-1.800528e-03 1.778439e-03 0.0
-2.238720e-03 1.916867e-03 0.0
-2.697795e-03 2.019911e-03 0.0
-3.171754e-03 2.092411e-03 0.0
-3.655513e-03 2.139401e-03 0.0
-4.144864e-03 2.165665e-03 0.0
-4.636389e-03 2.175466e-03 0.0
-5.127353e-03 2.172415e-03 0.0
-5.615590e-03 2.159440e-03 0.0
-6.099389e-03 2.138829e-03 0.0
-6.577389e-03 2.112301e-03 0.0
-7.048497e-03 2.081115e-03 0.0
-7.511814e-03 2.046158e-03 0.0
-7.966580e-03 2.008046e-03 0.0
-8.412137e-03 1.967193e-03 0.0
-8.847894e-03 1.923879e-03 0.0
-9.273310e-03 1.878290e-03 0.0
-9.687882e-03 1.830557e-03 0.0
-1.009113e-02 1.780774e-03 0.0
-1.048260e-02 1.729019e-03 0.0
-1.086186e-02 1.675357e-03 0.0
-1.122848e-02 1.619851e-03 0.0
-1.158207e-02 1.562563e-03 0.0
-1.192222e-02 1.503555e-03 0.0
-1.224857e-02 1.442891e-03 0.0
-1.256075e-02 1.380637e-03 0.0
-1.285844e-02 1.316859e-03 0.0
-1.314129e-02 1.251625e-03 0.0
-1.340901e-02 1.185004e-03 0.0
-1.366129e-02 1.117065e-03 0.0
-1.389787e-02 1.047878e-03 0.0
-1.411847e-02 9.775149e-04 0.0
-1.432287e-02 9.060469e-04 0.0
-1.451082e-02 8.335466e-04 0.0
-1.468212e-02 7.600874e-04 0.0
-1.483658e-02 6.857437e-04 0.0
-1.497401e-02 6.105904e-04 0.0
-1.509426e-02 5.347034e-04 0.0
-1.519718e-02 4.581591e-04 0.0
-1.528265e-02 3.810347e-04 0.0
-1.535056e-02 3.034077e-04 0.0
-1.540082e-02 2.253563e-04 0.0
-1.543335e-02 1.469593e-04 0.0
-1.544810e-02 6.829608e-05 0.0
-1.544503e-02 -1.055321e-05 0.0
-1.542413e-02 -8.950777e-05 0.0
-1.538539e-02 -1.684864e-04 0.0
-1.532882e-02 -2.474069e-04 0.0
-1.525447e-02 -3.261868e-04 0.0
-1.516238e-02 -4.047425e-04 0.0
-1.505262e-02 -4.829901e-04 0.0
-1.492530e-02 -5.608447e-04 0.0
-1.478051e-02 -6.382211e-04 0.0
-1.461840e-02 -7.150335e-04 0.0
-1.443909e-02 -7.911953e-04 0.0
-1.424277e-02 -8.666197e-04 0.0
-1.402963e-02 -9.412195e-04 0.0
-1.379986e-02 -1.014907e-03 0.0
-1.355369e-02 -1.087594e-03 0.0
-1.329138e-02 -1.159193e-03 0.0
-1.301318e-02 -1.229615e-03 0.0
-1.271939e-02 -1.298772e-03 0.0
-1.241031e-02 -1.366578e-03 0.0
-1.208627e-02 -1.432944e-03 0.0
-1.174760e-02 -1.497784e-03 0.0
-1.139468e-02 -1.561013e-03 0.0
-1.102788e-02 -1.622547e-03 0.0
-1.064762e-02 -1.682301e-03 0.0
-1.025431e-02 -1.740194e-03 0.0
-9.848411e-03 -1.796138e-03 0.0
-9.430381e-03 -1.850043e-03 0.0
-9.000720e-03 -1.901808e-03 0.0
-8.559957e-03 -1.951308e-03 0.0
-8.108663e-03 -1.998383e-03 0.0
-7.647467e-03 -2.042811e-03 0.0
-7.177073e-03 -2.084274e-03 0.0
-6.698294e-03 -2.122312e-03 0.0
-6.212094e-03 -2.156261e-03 0.0
-5.719638e-03 -2.185175e-03 0.0
-5.222373e-03 -2.207738e-03 0.0
-4.722107e-03 -2.222165e-03 0.0
-4.221117e-03 -2.226107e-03 0.0
-3.722257e-03 -2.216578e-03 0.0
-3.229077e-03 -2.189916e-03 0.0
-2.745920e-03 -2.141818e-03 0.0
-2.278013e-03 -2.067476e-03 0.0
-1.831499e-03 -1.961843e-03 0.0
-1.413436e-03 -1.820072e-03 0.0
-1.031734e-03 -1.638152e-03 0.0
-6.950552e-04 -1.413751e-03 0.0
-4.127669e-04 -1.147269e-03 0.0
-1.950004e-04 -8.430547e-04 0.0
-5.300828e-05 -5.107164e-04 0.0
0.000000e+00 -1.663838e-04 0.0
0.000000e+00 1.669733e-04 0.0
0.000000e+00 -2.194898e-04 0.0
-5.874319e-05 2.189170e-04 0.0
-2.125156e-04 6.509788e-04 0.0
-4.471907e-04 1.056830e-03 0.0
-7.497348e-04 1.422408e-03 0.0
-1.108651e-03 1.739586e-03 0.0
-1.513632e-03 2.005171e-03 0.0
-1.955417e-03 2.219787e-03 0.0
-2.425764e-03 2.386771e-03 0.0
-2.917448e-03 2.511151e-03 0.0
-3.424263e-03 2.598785e-03 0.0
-3.940982e-03 2.655684e-03 0.0
-4.463285e-03 2.687541e-03 0.0
-4.987663e-03 2.699429e-03 0.0
-5.511300e-03 2.695652e-03 0.0
-6.031956e-03 2.679712e-03 0.0
-6.547847e-03 2.654354e-03 0.0
-7.057551e-03 2.621654e-03 0.0
-7.559913e-03 2.583139e-03 0.0
-8.053975e-03 2.539896e-03 0.0
-8.538928e-03 2.492684e-03 0.0
-9.014063e-03 2.442020e-03 0.0
-9.478745e-03 2.388257e-03 0.0
-9.932392e-03 2.331636e-03 0.0
-1.037446e-02 2.272325e-03 0.0
-1.080444e-02 2.210452e-03 0.0
-1.122184e-02 2.146116e-03 0.0
-1.162618e-02 2.079406e-03 0.0
-1.201703e-02 2.010404e-03 0.0
-1.239395e-02 1.939189e-03 0.0
-1.275653e-02 1.865843e-03 0.0
-1.310435e-02 1.790444e-03 0.0
-1.343706e-02 1.713077e-03 0.0
-1.375428e-02 1.633823e-03 0.0
-1.405566e-02 1.552768e-03 0.0
-1.434088e-02 1.469996e-03 0.0
-1.460963e-02 1.385596e-03 0.0
-1.486162e-02 1.299654e-03 0.0
-1.509657e-02 1.212258e-03 0.0
-1.531421e-02 1.123499e-03 0.0
-1.551432e-02 1.033467e-03 0.0
-1.569667e-02 9.422533e-04 0.0
-1.586106e-02 8.499506e-04 0.0
-1.600729e-02 7.566523e-04 0.0
-1.613519e-02 6.624522e-04 0.0
-1.624462e-02 5.674450e-04 0.0
-1.633545e-02 4.717261e-04 0.0
-1.640756e-02 3.753914e-04 0.0
-1.646085e-02 2.785375e-04 0.0
-1.649525e-02 1.812617e-04 0.0
-1.651070e-02 8.366224e-05 0.0
-1.650716e-02 -1.416210e-05 0.0
-1.648462e-02 -1.121119e-04 0.0
-1.644307e-02 -2.100870e-04 0.0
-1.638252e-02 -3.079860e-04 0.0
-1.630303e-02 -4.057066e-04 0.0
-1.620464e-02 -5.031455e-04 0.0
-1.608744e-02 -6.001990e-04 0.0
-1.595152e-02 -6.967622e-04 0.0
-1.579699e-02 -7.927300e-04 0.0
-1.562400e-02 -8.879963e-04 0.0
-1.543271e-02 -9.824544e-04 0.0
-1.522329e-02 -1.075997e-03 0.0
-1.499594e-02 -1.168517e-03 0.0
-1.475088e-02 -1.259904e-03 0.0
-1.448837e-02 -1.350052e-03 0.0
-1.420864e-02 -1.438849e-03 0.0
-1.391200e-02 -1.526188e-03 0.0
-1.359874e-02 -1.611958e-03 0.0
-1.326919e-02 -1.696052e-03 0.0
-1.292370e-02 -1.778359e-03 0.0
-1.256263e-02 -1.858774e-03 0.0
-1.218637e-02 -1.937188e-03 0.0
-1.179533e-02 -2.013497e-03 0.0
-1.138994e-02 -2.087595e-03 0.0
-1.097066e-02 -2.159376e-03 0.0
-1.053796e-02 -2.228731e-03 0.0