# vtk DataFile Version 3.0
Vector Field
ASCII
DATASET RECTILINEAR_GRID
DIMENSIONS 102 102 1
X_COORDINATES 102 double
0.000000 0.100000 0.200000 0.300000 0.400000 0.500000 0.600000 0.700000 0.800000 0.900000 1.000000 1.100000 1.200000 1.300000 1.400000 1.500000 1.600000 1.700000 1.800000 1.900000 2.000000 2.100000 2.200000 2.300000 2.400000 2.500000 2.600000 2.700000 2.800000 2.900000 3.000000 3.100000 3.200000 3.300000 3.400000 3.500000 3.600000 3.700000 3.800000 3.900000 4.000000 4.100000 4.200000 4.300000 4.400000 4.500000 4.600000 4.700000 4.800000 4.900000 5.000000 5.100000 5.200000 5.300000 5.400000 5.500000 5.600000 5.700000 5.800000 5.900000 6.000000 6.100000 6.200000 6.300000 6.400000 6.500000 6.600000 6.700000 6.800000 6.900000 7.000000 7.100000 7.200000 7.300000 7.400000 7.500000 7.600000 7.700000 7.800000 7.900000 8.000000 8.100000 8.200000 8.300000 8.400000 8.500000 8.600000 8.700000 8.800000 8.900000 9.000000 9.100000 9.200000 9.300000 9.400000 9.500000 9.600000 9.700000 9.800000 9.900000 10.000000 10.100000 
Y_COORDINATES 102 double
0.000000 0.100000 0.200000 0.300000 0.400000 0.500000 0.600000 0.700000 0.800000 0.900000 1.000000 1.100000 1.200000 1.300000 1.400000 1.500000 1.600000 1.700000 1.800000 1.900000 2.000000 2.100000 2.200000 2.300000 2.400000 2.500000 2.600000 2.700000 2.800000 2.900000 3.000000 3.100000 3.200000 3.300000 3.400000 3.500000 3.600000 3.700000 3.800000 3.900000 4.000000 4.100000 4.200000 4.300000 4.400000 4.500000 4.600000 4.700000 4.800000 4.900000 5.000000 5.100000 5.200000 5.300000 5.400000 5.500000 5.600000 5.700000 5.800000 5.900000 6.000000 6.100000 6.200000 6.300000 6.400000 6.500000 6.600000 6.700000 6.800000 6.900000 7.000000 7.100000 7.200000 7.300000 7.400000 7.500000 7.600000 7.700000 7.800000 7.900000 8.000000 8.100000 8.200000 8.300000 8.400000 8.500000 8.600000 8.700000 8.800000 8.900000 9.000000 9.100000 9.200000 9.300000 9.400000 9.500000 9.600000 9.700000 9.800000 9.900000 10.000000 10.100000 
Z_COORDINATES 1 double
0.0
POINT_DATA 10404
VECTORS Velocity double
0.000000e+00 0.000000e+00 0.0
-4.563179e-06 0.000000e+00 0.0
2.574422e-06 0.000000e+00 0.0
2.573109e-05 0.000000e+00 0.0
6.268442e-05 0.000000e+00 0.0
1.098035e-04 0.000000e+00 0.0
1.637162e-04 0.000000e+00 0.0
2.217786e-04 0.000000e+00 0.0
2.821008e-04 0.000000e+00 0.0
3.434222e-04 0.000000e+00 0.0
4.049519e-04 0.000000e+00 0.0
4.662206e-04 0.000000e+00 0.0
5.269614e-04 0.000000e+00 0.0
5.870248e-04 0.000000e+00 0.0
6.463223e-04 0.000000e+00 0.0
7.047927e-04 0.000000e+00 0.0
7.623848e-04 0.000000e+00 0.0
8.190490e-04 0.000000e+00 0.0
8.747343e-04 0.000000e+00 0.0
9.293878e-04 0.000000e+00 0.0
9.829554e-04 0.000000e+00 0.0
1.035382e-03 0.000000e+00 0.0
1.086614e-03 0.000000e+00 0.0
1.136595e-03 0.000000e+00 0.0
1.185274e-03 0.000000e+00 0.0
1.232598e-03 0.000000e+00 0.0
1.278515e-03 0.000000e+00 0.0
1.322978e-03 0.000000e+00 0.0
1.365938e-03 0.000000e+00 0.0
1.407350e-03 0.000000e+00 0.0
1.447169e-03 0.000000e+00 0.0
1.485353e-03 0.000000e+00 0.0
1.521860e-03 0.000000e+00 0.0
1.556653e-03 0.000000e+00 0.0
1.589695e-03 0.000000e+00 0.0
1.620950e-03 0.000000e+00 0.0
1.650386e-03 0.000000e+00 0.0
1.677970e-03 0.000000e+00 0.0
1.703675e-03 0.000000e+00 0.0
1.727472e-03 0.000000e+00 0.0
1.749336e-03 0.000000e+00 0.0
1.769244e-03 0.000000e+00 0.0
1.787175e-03 0.000000e+00 0.0
1.803109e-03 0.000000e+00 0.0
1.817028e-03 0.000000e+00 0.0
1.828918e-03 0.000000e+00 0.0
1.838764e-03 0.000000e+00 0.0
1.846556e-03 0.000000e+00 0.0
1.852283e-03 0.000000e+00 0.0
1.855937e-03 0.000000e+00 0.0
1.857515e-03 0.000000e+00 0.0
1.857010e-03 0.000000e+00 0.0
1.854423e-03 0.000000e+00 0.0
1.849754e-03 0.000000e+00 0.0
1.843007e-03 0.000000e+00 0.0
1.834186e-03 0.000000e+00 0.0
1.823299e-03 0.000000e+00 0.0
1.810354e-03 0.000000e+00 0.0
1.795363e-03 0.000000e+00 0.0
1.778339e-03 0.000000e+00 0.0
1.759298e-03 0.000000e+00 0.0
1.738256e-03 0.000000e+00 0.0
1.715234e-03 0.000000e+00 0.0
1.690254e-03 0.000000e+00 0.0
1.663340e-03 0.000000e+00 0.0
1.634517e-03 0.000000e+00 0.0
1.603815e-03 0.000000e+00 0.0
1.571263e-03 0.000000e+00 0.0
1.536896e-03 0.000000e+00 0.0
1.500747e-03 0.000000e+00 0.0
1.462854e-03 0.000000e+00 0.0
1.423256e-03 0.000000e+00 0.0
1.381995e-03 0.000000e+00 0.0
1.339113e-03 0.000000e+00 0.0
1.294658e-03 0.000000e+00 0.0
1.248675e-03 0.000000e+00 0.0
1.201215e-03 0.000000e+00 0.0
1.152329e-03 0.000000e+00 0.0
1.102070e-03 0.000000e+00 0.0
1.050492e-03 0.000000e+00 0.0
9.976514e-04 0.000000e+00 0.0
9.436044e-04 0.000000e+00 0.0
8.884081e-04 0.000000e+00 0.0
8.321190e-04 0.000000e+00 0.0
7.747928e-04 0.000000e+00 0.0
7.164836e-04 0.000000e+00 0.0
6.572446e-04 0.000000e+00 0.0
5.971314e-04 0.000000e+00 0.0
5.362100e-04 0.000000e+00 0.0
4.745758e-04 0.000000e+00 0.0
4.123858e-04 0.000000e+00 0.0
3.499160e-04 0.000000e+00 0.0
2.876473e-04 0.000000e+00 0.0
2.263836e-04 0.000000e+00 0.0
1.674000e-04 0.000000e+00 0.0
1.126000e-04 0.000000e+00 0.0
6.463884e-05 0.000000e+00 0.0
2.689605e-05 0.000000e+00 0.0
3.017455e-06 0.000000e+00 0.0
-4.703726e-06 0.000000e+00 0.0
-0.000000e+00 0.000000e+00 0.0
0.000000e+00 0.000000e+00 0.0
0.000000e+00 5.389172e-06 0.0
4.867593e-06 -5.156957e-06 0.0
-2.185572e-06 6.877028e-06 0.0
-2.517756e-05 2.281071e-05 0.0
-6.193634e-05 3.657265e-05 0.0
-1.088824e-04 4.675530e-05 0.0
-1.626696e-04 5.359217e-05 0.0
-2.206599e-04 5.779115e-05 0.0
-2.809577e-04 6.009475e-05 0.0
-3.422918e-04 6.112740e-05 0.0
-4.038599e-04 6.135802e-05 0.0
-4.651829e-04 6.110962e-05 0.0
-5.259866e-04 6.058740e-05 0.0
-5.861167e-04 5.991093e-05 0.0
-6.454817e-04 5.914323e-05 0.0
-7.040193e-04 5.831329e-05 0.0
-7.616775e-04 5.743177e-05 0.0
-8.184068e-04 5.650072e-05 0.0
-8.741561e-04 5.551893e-05 0.0
-9.288728e-04 5.448461e-05 0.0
-9.825028e-04 5.339639e-05 0.0
-1.034991e-03 5.225360e-05 0.0
-1.086284e-03 5.105626e-05 0.0
-1.136325e-03 4.980488e-05 0.0
-1.185064e-03 4.850036e-05 0.0
-1.232446e-03 4.714388e-05 0.0
-1.278421e-03 4.573678e-05 0.0
-1.322941e-03 4.428057e-05 0.0
-1.365957e-03 4.277683e-05 0.0
-1.407422e-03 4.122724e-05 0.0
-1.447294e-03 3.963352e-05 0.0
-1.485530e-03 3.799745e-05 0.0
-1.522088e-03 3.632085e-05 0.0
-1.556930e-03 3.460555e-05 0.0
-1.590018e-03 3.285343e-05 0.0
-1.621319e-03 3.106639e-05 0.0
-1.650797e-03 2.924632e-05 0.0
-1.678423e-03 2.739514e-05 0.0
-1.704168e-03 2.551481e-05 0.0
-1.728002e-03 2.360725e-05 0.0
-1.749902e-03 2.167442e-05 0.0
-1.769843e-03 1.971828e-05 0.0
-1.787805e-03 1.774081e-05 0.0
-1.803767e-03 1.574397e-05 0.0
-1.817712e-03 1.372975e-05 0.0
-1.829625e-03 1.170014e-05 0.0
-1.839492e-03 9.657111e-06 0.0
-1.847301e-03 7.602655e-06 0.0
-1.853044e-03 5.538719e-06 0.0
-1.856711e-03 3.467209e-06 0.0
-1.858298e-03 1.389981e-06 0.0
-1.857801e-03 -6.910195e-07 0.0
-1.855218e-03 -2.772993e-06 0.0
-1.850550e-03 -4.853754e-06 0.0
-1.843801e-03 -6.931406e-06 0.0
-1.834976e-03 -9.004007e-06 0.0
-1.824081e-03 -1.106954e-05 0.0
-1.811126e-03 -1.312594e-05 0.0
-1.796122e-03 -1.517110e-05 0.0
-1.779081e-03 -1.720291e-05 0.0
-1.760020e-03 -1.921921e-05 0.0
-1.738956e-03 -2.121788e-05 0.0
-1.715909e-03 -2.319673e-05 0.0
-1.690901e-03 -2.515361e-05 0.0
-1.663955e-03 -2.708635e-05 0.0
-1.635098e-03 -2.899275e-05 0.0
-1.604359e-03 -3.087063e-05 0.0
-1.571768e-03 -3.271782e-05 0.0
-1.537359e-03 -3.453212e-05 0.0
-1.501165e-03 -3.631136e-05 0.0
-1.463225e-03 -3.805337e-05 0.0
-1.423577e-03 -3.975601e-05 0.0
-1.382263e-03 -4.141715e-05 0.0
-1.339328e-03 -4.303469e-05 0.0
-1.294815e-03 -4.460658e-05 0.0
-1.248773e-03 -4.613084e-05 0.0
-1.201252e-03 -4.760553e-05 0.0
-1.152303e-03 -4.902886e-05 0.0
-1.101979e-03 -5.039913e-05 0.0
-1.050335e-03 -5.171487e-05 0.0
-9.974257e-04 -5.297483e-05 0.0
-9.433086e-04 -5.417818e-05 0.0
-8.880404e-04 -5.532458e-05 0.0
-8.316778e-04 -5.641436e-05 0.0
-7.742762e-04 -5.744854e-05 0.0
-7.158899e-04 -5.842855e-05 0.0
-6.565721e-04 -5.935514e-05 0.0
-5.963791e-04 -6.022570e-05 0.0
-5.353784e-04 -6.102877e-05 0.0
-4.736683e-04 -6.173431e-05 0.0
-4.114114e-04 -6.227806e-05 0.0
-3.488912e-04 -6.253837e-05 0.0
-2.865989e-04 -6.230797e-05 0.0
-2.253500e-04 -6.126197e-05 0.0
-1.664307e-04 -5.893025e-05 0.0
-1.117513e-04 -5.468847e-05 0.0
-6.396301e-05 -4.779589e-05 0.0
-2.642407e-05 -3.754528e-05 0.0
-2.739467e-06 -2.369011e-05 0.0
4.837153e-06 -7.581644e-06 0.0
0.000000e+00 4.832232e-06 0.0
0.000000e+00 -4.950336e-06 0.0
0.000000e+00 -2.439177e-06 0.0
-7.780459e-06 2.442710e-06 0.0
-4.522451e-05 4.426373e-05 0.0
-1.154192e-04 9.294681e-05 0.0
-2.147313e-04 1.358252e-04 0.0
-3.368931e-04 1.688564e-04 0.0
-4.753949e-04 1.920322e-04 0.0
-6.246267e-04 2.069603e-04 0.0
-7.802454e-04 2.156500e-04 0.0
-9.391358e-04 2.199536e-04 0.0
-1.099195e-03 2.213525e-04 0.0
-1.259073e-03 2.209218e-04 0.0
-1.417931e-03 2.193793e-04 0.0
-1.575255e-03 2.171675e-04 0.0
-1.730716e-03 2.145378e-04 0.0
-1.884091e-03 2.116197e-04 0.0
-2.035200e-03 2.084728e-04 0.0
-2.183887e-03 2.051199e-04 0.0
-2.330004e-03 2.015672e-04 0.0
-2.473403e-03 1.978149e-04 0.0
-2.613938e-03 1.938623e-04 0.0
-2.751463e-03 1.897091e-04 0.0
-2.885833e-03 1.853570e-04 0.0
-3.016906e-03 1.808086e-04 0.0
-3.144542e-03 1.760676e-04 0.0
-3.268605e-03 1.711386e-04 0.0
-3.388964e-03 1.660266e-04 0.0
-3.505489e-03 1.607372e-04 0.0
-3.618057e-03 1.552764e-04 0.0
-3.726547e-03 1.496501e-04 0.0
-3.830846e-03 1.438647e-04 0.0
-3.930842e-03 1.379267e-04 0.0
-4.026430e-03 1.318427e-04 0.0
-4.117510e-03 1.256194e-04 0.0
-4.203985e-03 1.192636e-04 0.0
-4.285766e-03 1.127822e-04 0.0
-4.362765e-03 1.061821e-04 0.0
-4.434903e-03 9.947021e-05 0.0
-4.502104e-03 9.265361e-05 0.0
-4.564298e-03 8.573933e-05 0.0
-4.621419e-03 7.873446e-05 0.0
-4.673406e-03 7.164607e-05 0.0
-4.720205e-03 6.448132e-05 0.0
-4.761766e-03 5.724733e-05 0.0
-4.798045e-03 4.995127e-05 0.0
-4.829000e-03 4.260034e-05 0.0
-4.854600e-03 3.520172e-05 0.0
-4.874813e-03 2.776259e-05 0.0
-4.889617e-03 2.029009e-05 0.0
-4.898992e-03 1.279131e-05 0.0
-4.902925e-03 5.273321e-06 0.0
-4.901409e-03 -2.256606e-06 0.0
-4.894439e-03 -9.790059e-06 0.0
-4.882020e-03 -1.731943e-05 0.0
-4.864159e-03 -2.483750e-05 0.0
-4.840869e-03 -3.233701e-05 0.0
-4.812171e-03 -3.981059e-05 0.0
-4.778087e-03 -4.725075e-05 0.0
-4.738648e-03 -5.464992e-05 0.0
-4.693889e-03 -6.200047e-05 0.0
-4.643850e-03 -6.929473e-05 0.0
-4.588578e-03 -7.652500e-05 0.0
-4.528126e-03 -8.368352e-05 0.0
-4.462550e-03 -9.076254e-05 0.0
-4.391913e-03 -9.775424e-05 0.0
-4.316285e-03 -1.046508e-04 0.0
-4.235740e-03 -1.114444e-04 0.0
-4.150357e-03 -1.181273e-04 0.0
-4.060224e-03 -1.246915e-04 0.0
-3.965430e-03 -1.311293e-04 0.0
-3.866073e-03 -1.374330e-04 0.0
-3.762255e-03 -1.435948e-04 0.0
-3.654085e-03 -1.496072e-04 0.0
-3.541676e-03 -1.554625e-04 0.0
-3.425146e-03 -1.611535e-04 0.0
-3.304620e-03 -1.666729e-04 0.0
-3.180226e-03 -1.720139e-04 0.0
-3.052097e-03 -1.771698e-04 0.0
-2.920374e-03 -1.821345e-04 0.0
-2.785196e-03 -1.869023e-04 0.0
-2.646711e-03 -1.914686e-04 0.0
-2.505067e-03 -1.958294e-04 0.0
-2.360416e-03 -1.999825e-04 0.0
-2.212908e-03 -2.039267e-04 0.0
-2.062698e-03 -2.076617e-04 0.0
-1.909942e-03 -2.111862e-04 0.0
-1.754806e-03 -2.144922e-04 0.0
-1.597476e-03 -2.175548e-04 0.0
-1.438192e-03 -2.203119e-04 0.0
-1.277294e-03 -2.226301e-04 0.0
-1.115316e-03 -2.242533e-04 0.0
-9.531188e-04 -2.247327e-04 0.0
-7.920789e-04 -2.233441e-04 0.0
-6.343305e-04 -2.190059e-04 0.0
-4.830245e-04 -2.102313e-04 0.0
-3.425440e-04 -1.951637e-04 0.0
-2.185460e-04 -1.717883e-04 0.0
-1.176054e-04 -1.384802e-04 0.0
-4.609843e-05 -9.519131e-05 0.0
-7.831284e-06 -4.584306e-05 0.0
0.000000e+00 -2.993489e-06 0.0
0.000000e+00 3.069378e-06 0.0
0.000000e+00 -2.640236e-05 0.0
-2.388434e-05 2.613376e-05 0.0
-9.468983e-05 1.150073e-04 0.0
-2.097134e-04 2.079072e-04 0.0
-3.628394e-04 2.888870e-04 0.0
-5.461507e-04 3.521025e-04 0.0
-7.515800e-04 3.973953e-04 0.0
-9.719985e-04 4.273116e-04 0.0
-1.201693e-03 4.452770e-04 0.0
-1.436414e-03 4.546052e-04 0.0
-1.673178e-03 4.580472e-04 0.0
-1.909989e-03 4.576633e-04 0.0
-2.145553e-03 4.548723e-04 0.0
-2.379035e-03 4.505787e-04 0.0
-2.609886e-03 4.453171e-04 0.0
-2.837717e-03 4.393794e-04 0.0
-3.062228e-03 4.329116e-04 0.0
-3.283160e-03 4.259797e-04 0.0
-3.500276e-03 4.186099e-04 0.0
-3.713345e-03 4.108119e-04 0.0
-3.922145e-03 4.025898e-04 0.0
-4.126456e-03 3.939471e-04 0.0
-4.326061e-03 3.848891e-04 0.0
-4.520747e-03 3.754227e-04 0.0
-4.710308e-03 3.655565e-04 0.0
-4.894542e-03 3.553004e-04 0.0
-5.073253e-03 3.446655e-04 0.0
-5.246250e-03 3.336633e-04 0.0
-5.413351e-03 3.223062e-04 0.0
-5.574379e-03 3.106072e-04 0.0
-5.729163e-03 2.985793e-04 0.0
-5.877542e-03 2.862362e-04 0.0
-6.019360e-03 2.735915e-04 0.0
-6.154467e-03 2.606592e-04 0.0
-6.282725e-03 2.474535e-04 0.0
-6.403997e-03 2.339886e-04 0.0
-6.518160e-03 2.202790e-04 0.0
-6.625094e-03 2.063391e-04 0.0
-6.724687e-03 1.921834e-04 0.0
-6.816838e-03 1.778267e-04 0.0
-6.901449e-03 1.632835e-04 0.0
-6.978432e-03 1.485686e-04 0.0
-7.047707e-03 1.336968e-04 0.0
-7.109202e-03 1.186829e-04 0.0
-7.162849e-03 1.035417e-04 0.0
-7.208594e-03 8.828809e-05 0.0
-7.246384e-03 7.293701e-05 0.0
-7.276179e-03 5.750338e-05 0.0
-7.297943e-03 4.200210e-05 0.0
-7.311651e-03 2.644805e-05 0.0
-7.317284e-03 1.085613e-05 0.0
-7.314831e-03 -4.758526e-06 0.0
-7.304288e-03 -2.037994e-05 0.0
-7.285661e-03 -3.599271e-05 0.0
-7.258961e-03 -5.158165e-05 0.0
-7.224210e-03 -6.713152e-05 0.0
-7.181435e-03 -8.262693e-05 0.0
-7.130674e-03 -9.805238e-05 0.0
-7.071970e-03 -1.133922e-04 0.0
-7.005377e-03 -1.286307e-04 0.0
-6.930955e-03 -1.437520e-04 0.0
-6.848774e-03 -1.587402e-04 0.0
-6.758911e-03 -1.735795e-04 0.0
-6.661451e-03 -1.882537e-04 0.0
-6.556488e-03 -2.027468e-04 0.0
-6.444124e-03 -2.170428e-04 0.0
-6.324470e-03 -2.311255e-04 0.0
-6.197644e-03 -2.449787e-04 0.0
-6.063772e-03 -2.585864e-04 0.0
-5.922991e-03 -2.719325e-04 0.0
-5.775443e-03 -2.850010e-04 0.0
-5.621281e-03 -2.977761e-04 0.0
-5.460663e-03 -3.102420e-04 0.0
-5.293758e-03 -3.223833e-04 0.0
-5.120742e-03 -3.341847e-04 0.0
-4.941796e-03 -3.456314e-04 0.0
-4.757112e-03 -3.567089e-04 0.0
-4.566888e-03 -3.674036e-04 0.0
-4.371329e-03 -3.777024e-04 0.0
-4.170645e-03 -3.875934e-04 0.0
-3.965053e-03 -3.970660e-04 0.0
-3.754775e-03 -4.061112e-04 0.0
-3.540039e-03 -4.147219e-04 0.0
-3.321074e-03 -4.228923e-04 0.0
-3.098120e-03 -4.306162e-04 0.0
-2.871423e-03 -4.378816e-04 0.0
-2.641253e-03 -4.446589e-04 0.0
-2.407926e-03 -4.508780e-04 0.0
-2.171846e-03 -4.563875e-04 0.0
-1.933583e-03 -4.608883e-04 0.0
-1.693994e-03 -4.638360e-04 0.0
-1.454406e-03 -4.643143e-04 0.0
-1.216850e-03 -4.608919e-04 0.0
-9.843534e-04 -4.514949e-04 0.0
-7.612163e-04 -4.333597e-04 0.0
-5.532118e-04 -4.031591e-04 0.0
-3.675431e-04 -3.574477e-04 0.0
-2.123779e-04 -2.936359e-04 0.0
-9.577301e-05 -2.117866e-04 0.0
-2.400744e-05 -1.175991e-04 0.0
0.000000e+00 -2.699162e-05 0.0
0.000000e+00 2.730108e-05 0.0
0.000000e+00 -6.406544e-05 0.0
-3.762404e-05 6.354958e-05 0.0
-1.379225e-04 2.152386e-04 0.0
-2.916930e-04 3.616093e-04 0.0
-4.895553e-04 4.866799e-04 0.0
-7.219087e-04 5.843855e-04 0.0
-9.796338e-04 6.550491e-04 0.0
-1.254779e-03 7.023846e-04 0.0
-1.540919e-03 7.313439e-04 0.0
-1.833186e-03 7.467990e-04 0.0
-2.128088e-03 7.528749e-04 0.0
-2.423222e-03 7.527221e-04 0.0
-2.716979e-03 7.485545e-04 0.0
-3.008292e-03 7.418159e-04 0.0
-3.296434e-03 7.333826e-04 0.0
-3.580881e-03 7.237508e-04 0.0
-3.861228e-03 7.131815e-04 0.0
-4.137127e-03 7.018024e-04 0.0
-4.408266e-03 6.896722e-04 0.0
-4.674349e-03 6.768177e-04 0.0
-4.935089e-03 6.632529e-04 0.0
-5.190207e-03 6.489888e-04 0.0
-5.439432e-03 6.340370e-04 0.0
-5.682496e-03 6.184109e-04 0.0
-5.919142e-03 6.021259e-04 0.0
-6.149116e-03 5.851991e-04 0.0
-6.372175e-03 5.676491e-04 0.0
-6.588082e-03 5.494957e-04 0.0
-6.796609e-03 5.307593e-04 0.0
-6.997537e-03 5.114614e-04 0.0
-7.190654e-03 4.916238e-04 0.0
-7.375759e-03 4.712689e-04 0.0
-7.552658e-03 4.504195e-04 0.0
-7.721168e-03 4.290985e-04 0.0
-7.881114e-03 4.073294e-04 0.0
-8.032329e-03 3.851357e-04 0.0
-8.174659e-03 3.625411e-04 0.0
-8.307956e-03 3.395695e-04 0.0
-8.432083e-03 3.162449e-04 0.0
-8.546912e-03 2.925913e-04 0.0
-8.652325e-03 2.686328e-04 0.0
-8.748212e-03 2.443939e-04 0.0
-8.834475e-03 2.198986e-04 0.0
-8.911023e-03 1.951714e-04 0.0
-8.977777e-03 1.702367e-04 0.0
-9.034664e-03 1.451189e-04 0.0
-9.081626e-03 1.198426e-04 0.0
-9.118609e-03 9.443236e-05 0.0
-9.145573e-03 6.891277e-05 0.0
-9.162484e-03 4.330845e-05 0.0
-9.169322e-03 1.764408e-05 0.0
-9.166074e-03 -8.055548e-06 0.0
-9.152735e-03 -3.376527e-05 0.0
-9.129313e-03 -5.946008e-05 0.0
-9.095824e-03 -8.511492e-05 0.0
-9.052293e-03 -1.107046e-04 0.0
-8.998757e-03 -1.362037e-04 0.0
-8.935262e-03 -1.615869e-04 0.0
-8.861863e-03 -1.868283e-04 0.0
-8.778628e-03 -2.119022e-04 0.0
-8.685631e-03 -2.367828e-04 0.0
-8.582960e-03 -2.614440e-04 0.0
-8.470711e-03 -2.858597e-04 0.0
-8.348990e-03 -3.100036e-04 0.0
-8.217915e-03 -3.338495e-04 0.0
-8.077613e-03 -3.573711e-04 0.0
-7.928221e-03 -3.805419e-04 0.0
-7.769887e-03 -4.033355e-04 0.0
-7.602769e-03 -4.257256e-04 0.0
-7.427035e-03 -4.476859e-04 0.0
-7.242863e-03 -4.691902e-04 0.0
-7.050443e-03 -4.902124e-04 0.0
-6.849973e-03 -5.107270e-04 0.0
-6.641661e-03 -5.307083e-04 0.0
-6.425725e-03 -5.501314e-04 0.0
-6.202394e-03 -5.689720e-04 0.0
-5.971905e-03 -5.872061e-04 0.0
-5.734504e-03 -6.048111e-04 0.0
-5.490446e-03 -6.217651e-04 0.0
-5.239995e-03 -6.380479e-04 0.0
-4.983422e-03 -6.536410e-04 0.0
-4.721006e-03 -6.685279e-04 0.0
-4.453033e-03 -6.826940e-04 0.0
-4.179798e-03 -6.961250e-04 0.0
-3.901607e-03 -7.088035e-04 0.0
-3.618784e-03 -7.206988e-04 0.0
-3.331689e-03 -7.317473e-04 0.0
-3.040744e-03 -7.418147e-04 0.0
-2.746492e-03 -7.506313e-04 0.0
-2.449682e-03 -7.576895e-04 0.0
-2.151411e-03 -7.620974e-04 0.0
-1.853321e-03 -7.623934e-04 0.0
-1.557858e-03 -7.563430e-04 0.0
-1.268566e-03 -7.407740e-04 0.0
-9.903735e-04 -7.115396e-04 0.0
-7.297762e-04 -6.637430e-04 0.0
-4.948131e-04 -5.923972e-04 0.0
-2.947134e-04 -4.937218e-04 0.0
-1.392137e-04 -3.672725e-04 0.0
-3.783300e-05 -2.189660e-04 0.0
0.000000e+00 -6.481103e-05 0.0
0.000000e+00 6.534235e-05 0.0
0.000000e+00 -1.118809e-04 0.0
-4.784279e-05 1.111668e-04 0.0
-1.714049e-04 3.387278e-04 0.0
-3.561627e-04 5.462930e-04 0.0
-5.895170e-04 7.199590e-04 0.0
-8.601069e-04 8.548993e-04 0.0
-1.157864e-03 9.527288e-04 0.0
-1.474275e-03 1.018718e-03 0.0
-1.802527e-03 1.059518e-03 0.0
-2.137446e-03 1.081639e-03 0.0
-2.475282e-03 1.090631e-03 0.0
-2.813413e-03 1.090773e-03 0.0
-3.150050e-03 1.085112e-03 0.0
-3.483978e-03 1.075662e-03 0.0
-3.814348e-03 1.063672e-03 0.0
-4.140540e-03 1.049862e-03 0.0
-4.462066e-03 1.034626e-03 0.0
-4.778513e-03 1.018167e-03 0.0
-5.089506e-03 1.000584e-03 0.0
-5.394697e-03 9.819274e-04 0.0
-5.693752e-03 9.622263e-04 0.0
-5.986346e-03 9.415020e-04 0.0
-6.272165e-03 9.197752e-04 0.0
-6.550902e-03 8.970677e-04 0.0
-6.822260e-03 8.734036e-04 0.0
-7.085949e-03 8.488088e-04 0.0
-7.341690e-03 8.233110e-04 0.0
-7.589212e-03 7.969393e-04 0.0
-7.828254e-03 7.697240e-04 0.0
-8.058565e-03 7.416962e-04 0.0
-8.279905e-03 7.128879e-04 0.0
-8.492043e-03 6.833317e-04 0.0
-8.694759e-03 6.530608e-04 0.0
-8.887842e-03 6.221087e-04 0.0
-9.071094e-03 5.905092e-04 0.0
-9.244326e-03 5.582967e-04 0.0
-9.407361e-03 5.255055e-04 0.0
-9.560030e-03 4.921703e-04 0.0
-9.702179e-03 4.583259e-04 0.0
-9.833661e-03 4.240071e-04 0.0
-9.954342e-03 3.892489e-04 0.0
-1.006410e-02 3.540866e-04 0.0
-1.016282e-02 3.185552e-04 0.0
-1.025040e-02 2.826901e-04 0.0
-1.032675e-02 2.465265e-04 0.0
-1.039178e-02 2.100999e-04 0.0
-1.044544e-02 1.734459e-04 0.0
-1.048767e-02 1.365999e-04 0.0
-1.051840e-02 9.959761e-05 0.0
-1.053762e-02 6.247485e-05 0.0
-1.054530e-02 2.526737e-05 0.0
-1.054141e-02 -1.198901e-05 0.0
-1.052596e-02 -4.925861e-05 0.0
-1.049896e-02 -8.650545e-05 0.0
-1.046043e-02 -1.236932e-04 0.0
-1.041039e-02 -1.607855e-04 0.0
-1.034889e-02 -1.977454e-04 0.0
-1.027598e-02 -2.345361e-04 0.0
-1.019172e-02 -2.711206e-04 0.0
-1.009619e-02 -3.074617e-04 0.0
-9.989488e-03 -3.435218e-04 0.0
-9.871699e-03 -3.792636e-04 0.0
-9.742939e-03 -4.146493e-04 0.0
-9.603328e-03 -4.496410e-04 0.0
-9.453002e-03 -4.842010e-04 0.0
-9.292106e-03 -5.182910e-04 0.0
-9.120797e-03 -5.518730e-04 0.0
-8.939243e-03 -5.849090e-04 0.0
-8.747626e-03 -6.173609e-04 0.0
-8.546138e-03 -6.491906e-04 0.0
-8.334983e-03 -6.803604e-04 0.0
-8.114375e-03 -7.108327e-04 0.0
-7.884543e-03 -7.405702e-04 0.0
-7.645725e-03 -7.695362e-04 0.0
-7.398170e-03 -7.976945e-04 0.0
-7.142138e-03 -8.250095e-04 0.0
-6.877902e-03 -8.514467e-04 0.0
-6.605743e-03 -8.769727e-04 0.0
-6.325954e-03 -9.015554e-04 0.0
-6.038837e-03 -9.251647e-04 0.0
-5.744703e-03 -9.477723e-04 0.0
-5.443876e-03 -9.693520e-04 0.0
-5.136685e-03 -9.898790e-04 0.0
-4.823476e-03 -1.009327e-03 0.0
-4.504608e-03 -1.027664e-03 0.0
-4.180465e-03 -1.044832e-03 0.0
-3.851476e-03 -1.060726e-03 0.0
-3.518145e-03 -1.075133e-03 0.0
-3.181115e-03 -1.087649e-03 0.0
-2.841255e-03 -1.097536e-03 0.0
-2.499814e-03 -1.103524e-03 0.0
-2.158618e-03 -1.103574e-03 0.0
-1.820335e-03 -1.094610e-03 0.0
-1.488770e-03 -1.072322e-03 0.0
-1.169163e-03 -1.031129e-03 0.0
-8.684039e-04 -9.644842e-04 0.0
-5.950941e-04 -8.656886e-04 0.0
-3.594099e-04 -7.293875e-04 0.0
-1.728369e-04 -5.538268e-04 0.0
-4.810330e-05 -3.436811e-04 0.0
0.000000e+00 -1.128959e-04 0.0
0.000000e+00 1.136082e-04 0.0
0.000000e+00 -1.666511e-04 0.0
-5.487439e-05 1.657959e-04 0.0
-1.954531e-04 4.792270e-04 0.0
-4.034942e-04 7.542536e-04 0.0
-6.637292e-04 9.801126e-04 0.0
-9.631593e-04 1.154247e-03 0.0
-1.290806e-03 1.280293e-03 0.0
-1.637679e-03 1.365507e-03 0.0
-1.996706e-03 1.418460e-03 0.0
-2.362558e-03 1.447406e-03 0.0
-2.731369e-03 1.459356e-03 0.0
-3.100425e-03 1.459742e-03 0.0
-3.467849e-03 1.452449e-03 0.0
-3.832348e-03 1.440074e-03 0.0
-4.193003e-03 1.424240e-03 0.0
-4.549133e-03 1.405904e-03 0.0
-4.900193e-03 1.385599e-03 0.0
-5.245721e-03 1.363608e-03 0.0
-5.585300e-03 1.340076e-03 0.0
-5.918542e-03 1.315083e-03 0.0
-6.245077e-03 1.288674e-03 0.0
-6.564546e-03 1.260886e-03 0.0
-6.876605e-03 1.231748e-03 0.0
-7.180916e-03 1.201294e-03 0.0
-7.477155e-03 1.169558e-03 0.0
-7.765005e-03 1.136575e-03 0.0
-8.044162e-03 1.102385e-03 0.0
-8.314330e-03 1.067025e-03 0.0
-8.575225e-03 1.030538e-03 0.0
-8.826575e-03 9.929651e-04 0.0
-9.068116e-03 9.543500e-04 0.0
-9.299599e-03 9.147363e-04 0.0
-9.520784e-03 8.741685e-04 0.0
-9.731443e-03 8.326917e-04 0.0
-9.931360e-03 7.903513e-04 0.0
-1.012033e-02 7.471933e-04 0.0
-1.029816e-02 7.032637e-04 0.0
-1.046467e-02 6.586090e-04 0.0
-1.061969e-02 6.132758e-04 0.0
-1.076306e-02 5.673107e-04 0.0
-1.089464e-02 5.207605e-04 0.0
-1.101429e-02 4.736724e-04 0.0
-1.112189e-02 4.260932e-04 0.0
-1.121733e-02 3.780701e-04 0.0
-1.130052e-02 3.296504e-04 0.0
-1.137136e-02 2.808813e-04 0.0
-1.142978e-02 2.318103e-04 0.0
-1.147572e-02 1.824850e-04 0.0
-1.150913e-02 1.329528e-04 0.0
-1.152997e-02 8.326176e-05 0.0
-1.153821e-02 3.345955e-05 0.0
-1.153384e-02 -1.640601e-05 0.0
-1.151686e-02 -6.628756e-05 0.0
-1.148727e-02 -1.161371e-04 0.0
-1.144510e-02 -1.659063e-04 0.0
-1.139038e-02 -2.155463e-04 0.0
-1.132316e-02 -2.650081e-04 0.0
-1.124349e-02 -3.142424e-04 0.0
-1.115144e-02 -3.632000e-04 0.0
-1.104710e-02 -4.118311e-04 0.0
-1.093057e-02 -4.600860e-04 0.0
-1.080195e-02 -5.079145e-04 0.0
-1.066136e-02 -5.552665e-04 0.0
-1.050893e-02 -6.020915e-04 0.0
-1.034482e-02 -6.483389e-04 0.0
-1.016917e-02 -6.939581e-04 0.0
-9.982167e-03 -7.388982e-04 0.0
-9.783985e-03 -7.831084e-04 0.0
-9.574823e-03 -8.265380e-04 0.0
-9.354891e-03 -8.691362e-04 0.0
-9.124410e-03 -9.108526e-04 0.0
-8.883615e-03 -9.516370e-04 0.0
-8.632753e-03 -9.914396e-04 0.0
-8.372084e-03 -1.030211e-03 0.0
-8.101879e-03 -1.067903e-03 0.0
-7.822422e-03 -1.104468e-03 0.0
-7.534010e-03 -1.139860e-03 0.0
-7.236949e-03 -1.174032e-03 0.0
-6.931558e-03 -1.206943e-03 0.0
-6.618169e-03 -1.238549e-03 0.0
-6.297123e-03 -1.268812e-03 0.0
-5.968772e-03 -1.297694e-03 0.0
-5.633483e-03 -1.325158e-03 0.0
-5.291635e-03 -1.351164e-03 0.0
-4.943628e-03 -1.375658e-03 0.0
-4.589890e-03 -1.398556e-03 0.0
-4.230898e-03 -1.419702e-03 0.0
-3.867214e-03 -1.438801e-03 0.0
-3.499541e-03 -1.455305e-03 0.0
-3.128821e-03 -1.468236e-03 0.0
-2.756382e-03 -1.475943e-03 0.0
-2.384138e-03 -1.475797e-03 0.0
-2.014853e-03 -1.463873e-03 0.0
-1.652450e-03 -1.434703e-03 0.0
-1.302324e-03 -1.381231e-03 0.0
-9.716269e-04 -1.295158e-03 0.0
-6.694371e-04 -1.167855e-03 0.0
-4.068357e-04 -9.919649e-04 0.0
-1.969397e-04 -7.636990e-04 0.0
-5.514586e-05 -4.854510e-04 0.0
0.000000e+00 -1.680181e-04 0.0
0.000000e+00 1.688575e-04 0.0
0.000000e+00 -2.259107e-04 0.0
-5.944208e-05 2.249705e-04 0.0
-2.117873e-04 6.314858e-04 0.0
-4.364731e-04 9.788520e-04 0.0
-7.162583e-04 1.259809e-03 0.0
-1.036776e-03 1.474675e-03 0.0
-1.386221e-03 1.629648e-03 0.0
-1.755158e-03 1.734353e-03 0.0
-2.136299e-03 1.799509e-03 0.0
-2.524214e-03 1.835228e-03 0.0
-2.914991e-03 1.850041e-03 0.0
-3.305884e-03 1.850542e-03 0.0
-3.694989e-03 1.841462e-03 0.0
-4.080982e-03 1.825974e-03 0.0
-4.462910e-03 1.806076e-03 0.0
-4.840058e-03 1.782959e-03 0.0
-5.211849e-03 1.757297e-03 0.0
-5.577787e-03 1.729453e-03 0.0
-5.937427e-03 1.699623e-03 0.0
-6.290352e-03 1.667916e-03 0.0
-6.636167e-03 1.634397e-03 0.0
-6.974490e-03 1.599117e-03 0.0
-7.304953e-03 1.562120e-03 0.0
-7.627198e-03 1.523450e-03 0.0
-7.940881e-03 1.483152e-03 0.0
-8.245667e-03 1.441273e-03 0.0
-8.541233e-03 1.397862e-03 0.0
-8.827266e-03 1.352972e-03 0.0
-9.103467e-03 1.306653e-03 0.0
-9.369547e-03 1.258961e-03 0.0
-9.625229e-03 1.209949e-03 0.0
-9.870250e-03 1.159675e-03 0.0
-1.010436e-02 1.108194e-03 0.0
-1.032731e-02 1.055564e-03 0.0
-1.053888e-02 1.001843e-03 0.0
-1.073885e-02 9.470883e-04 0.0
-1.092702e-02 8.913593e-04 0.0
-1.110320e-02 8.347145e-04 0.0
-1.126721e-02 7.772130e-04 0.0
-1.141888e-02 7.189141e-04 0.0
-1.155807e-02 6.598770e-04 0.0
-1.168462e-02 6.001613e-04 0.0
-1.179842e-02 5.398264e-04 0.0
-1.189935e-02 4.789321e-04 0.0
-1.198729e-02 4.175380e-04 0.0
-1.206218e-02 3.557040e-04 0.0
-1.212391e-02 2.934900e-04 0.0
-1.217244e-02 2.309562e-04 0.0
-1.220770e-02 1.681627e-04 0.0
-1.222966e-02 1.051699e-04 0.0
-1.223829e-02 4.203843e-05 0.0
-1.223358e-02 -2.117146e-05 0.0
-1.221551e-02 -8.439976e-05 0.0
-1.218410e-02 -1.475858e-04 0.0
-1.213938e-02 -2.106685e-04 0.0
-1.208138e-02 -2.735860e-04 0.0
-1.201015e-02 -3.362767e-04 0.0
-1.192575e-02 -3.986782e-04 0.0
-1.182826e-02 -4.607283e-04 0.0
-1.171775e-02 -5.223642e-04 0.0
-1.159435e-02 -5.835232e-04 0.0
-1.145814e-02 -6.441419e-04 0.0
-1.130928e-02 -7.041570e-04 0.0
-1.114789e-02 -7.635047e-04 0.0
-1.097413e-02 -8.221211e-04 0.0
-1.078816e-02 -8.799423e-04 0.0
-1.059017e-02 -9.369039e-04 0.0
-1.038035e-02 -9.929417e-04 0.0
-1.015891e-02 -1.047992e-03 0.0
-9.926066e-03 -1.101989e-03 0.0
-9.682055e-03 -1.154871e-03 0.0
-9.427124e-03 -1.206574e-03 0.0
-9.161534e-03 -1.257033e-03 0.0
-8.885558e-03 -1.306188e-03 0.0
-8.599485e-03 -1.353976e-03 0.0
-8.303614e-03 -1.400338e-03 0.0
-7.998257e-03 -1.445212e-03 0.0
-7.683740e-03 -1.488543e-03 0.0
-7.360402e-03 -1.530273e-03 0.0
-7.028592e-03 -1.570349e-03 0.0
-6.688673e-03 -1.608720e-03 0.0
-6.341021e-03 -1.645333e-03 0.0
-5.986025e-03 -1.680140e-03 0.0
-5.624091e-03 -1.713082e-03 0.0
-5.255645e-03 -1.744085e-03 0.0
-4.881147e-03 -1.773034e-03 0.0
-4.501106e-03 -1.799722e-03 0.0
-4.116116e-03 -1.823769e-03 0.0
-3.726916e-03 -1.844482e-03 0.0
-3.334481e-03 -1.860647e-03 0.0
-2.940170e-03 -1.870228e-03 0.0
-2.545927e-03 -1.870013e-03 0.0
-2.154548e-03 -1.855225e-03 0.0
-1.770003e-03 -1.819219e-03 0.0
-1.397791e-03 -1.753414e-03 0.0
-1.045278e-03 -1.647643e-03 0.0
-7.219873e-04 -1.491115e-03 0.0
-4.398243e-04 -1.274098e-03 0.0
-2.132709e-04 -9.902225e-04 0.0
-5.969927e-05 -6.389929e-04 0.0
0.000000e+00 -2.276879e-04 0.0
0.000000e+00 2.285999e-04 0.0
0.000000e+00 -2.879361e-04 0.0
-6.228058e-05 2.869592e-04 0.0
-2.224376e-04 7.915488e-04 0.0
-4.586029e-04 1.214922e-03 0.0
-7.521938e-04 1.553304e-03 0.0
-1.087790e-03 1.810175e-03 0.0
-1.452887e-03 1.994647e-03 0.0
-1.837640e-03 2.119008e-03 0.0
-2.234555e-03 2.196326e-03 0.0
-2.638117e-03 2.238691e-03 0.0
-3.044384e-03 2.256210e-03 0.0
-3.450607e-03 2.256665e-03 0.0
-3.854879e-03 2.245635e-03 0.0
-4.255871e-03 2.226866e-03 0.0
-4.652622e-03 2.202727e-03 0.0
-5.044400e-03 2.174638e-03 0.0
-5.430610e-03 2.143408e-03 0.0
-5.810740e-03 2.109484e-03 0.0
-6.184324e-03 2.073109e-03 0.0
-6.550929e-03 2.034422e-03 0.0
-6.910139e-03 1.993510e-03 0.0
-7.261558e-03 1.950439e-03 0.0
-7.604802e-03 1.905268e-03 0.0
-7.939498e-03 1.858051e-03 0.0
-8.265288e-03 1.808847e-03 0.0
-8.581824e-03 1.757715e-03 0.0
-8.888770e-03 1.704716e-03 0.0
-9.185803e-03 1.649914e-03 0.0
-9.472613e-03 1.593373e-03 0.0
-9.748899e-03 1.535159e-03 0.0
-1.001438e-02 1.475339e-03 0.0
-1.026877e-02 1.413983e-03 0.0
-1.051182e-02 1.351160e-03 0.0
-1.074328e-02 1.286939e-03 0.0
-1.096291e-02 1.221392e-03 0.0
-1.117049e-02 1.154588e-03 0.0
-1.136581e-02 1.086601e-03 0.0
-1.154867e-02 1.017501e-03 0.0
-1.171889e-02 9.473600e-04 0.0
-1.187630e-02 8.762511e-04 0.0
-1.202074e-02 8.042461e-04 0.0
-1.215207e-02 7.314175e-04 0.0
-1.227014e-02 6.578377e-04 0.0
-1.237486e-02 5.835793e-04 0.0
-1.246609e-02 5.087150e-04 0.0
-1.254377e-02 4.333175e-04 0.0
-1.260780e-02 3.574596e-04 0.0
-1.265811e-02 2.812144e-04 0.0
-1.269466e-02 2.046550e-04 0.0
-1.271739e-02 1.278549e-04 0.0
-1.272629e-02 5.088752e-05 0.0
-1.272134e-02 -2.617370e-05 0.0
-1.270253e-02 -1.032556e-04 0.0
-1.266987e-02 -1.802842e-04 0.0
-1.262340e-02 -2.571853e-04 0.0
-1.256314e-02 -3.338840e-04 0.0
-1.248914e-02 -4.103051e-04 0.0
-1.240148e-02 -4.863733e-04 0.0
-1.230023e-02 -5.620128e-04 0.0
-1.218547e-02 -6.371476e-04 0.0
-1.205732e-02 -7.117012e-04 0.0
-1.191589e-02 -7.855969e-04 0.0
-1.176131e-02 -8.587576e-04 0.0
-1.159373e-02 -9.311059e-04 0.0
-1.141331e-02 -1.002564e-03 0.0
-1.122021e-02 -1.073054e-03 0.0
-1.101463e-02 -1.142499e-03 0.0
-1.079676e-02 -1.210819e-03 0.0
-1.056682e-02 -1.277936e-03 0.0
-1.032505e-02 -1.343774e-03 0.0
-1.007167e-02 -1.408253e-03 0.0
-9.806947e-03 -1.471296e-03 0.0
-9.531153e-03 -1.532827e-03 0.0
-9.244569e-03 -1.592770e-03 0.0
-8.947492e-03 -1.651048e-03 0.0
-8.640235e-03 -1.707588e-03 0.0
-8.323121e-03 -1.762318e-03 0.0