# vtk DataFile Version 3.0
Vector Field
ASCII
DATASET RECTILINEAR_GRID
DIMENSIONS 102 102 1
X_COORDINATES 102 double
0.000000 0.100000 0.200000 0.300000 0.400000 0.500000 0.600000 0.700000 0.800000 0.900000 1.000000 1.100000 1.200000 1.300000 1.400000 1.500000 1.600000 1.700000 1.800000 1.900000 2.000000 2.100000 2.200000 2.300000 2.400000 2.500000 2.600000 2.700000 2.800000 2.900000 3.000000 3.100000 3.200000 3.300000 3.400000 3.500000 3.600000 3.700000 3.800000 3.900000 4.000000 4.100000 4.200000 4.300000 4.400000 4.500000 4.600000 4.700000 4.800000 4.900000 5.000000 5.100000 5.200000 5.300000 5.400000 5.500000 5.600000 5.700000 5.800000 5.900000 6.000000 6.100000 6.200000 6.300000 6.400000 6.500000 6.600000 6.700000 6.800000 6.900000 7.000000 7.100000 7.200000 7.300000 7.400000 7.500000 7.600000 7.700000 7.800000 7.900000 8.000000 8.100000 8.200000 8.300000 8.400000 8.500000 8.600000 8.700000 8.800000 8.900000 9.000000 9.100000 9.200000 9.300000 9.400000 9.500000 9.600000 9.700000 9.800000 9.900000 10.000000 10.100000 
Y_COORDINATES 102 double
0.000000 0.100000 0.200000 0.300000 0.400000 0.500000 0.600000 0.700000 0.800000 0.900000 1.000000 1.100000 1.200000 1.300000 1.400000 1.500000 1.600000 1.700000 1.800000 1.900000 2.000000 2.100000 2.200000 2.300000 2.400000 2.500000 2.600000 2.700000 2.800000 2.900000 3.000000 3.100000 3.200000 3.300000 3.400000 3.500000 3.600000 3.700000 3.800000 3.900000 4.000000 4.100000 4.200000 4.300000 4.400000 4.500000 4.600000 4.700000 4.800000 4.900000 5.000000 5.100000 5.200000 5.300000 5.400000 5.500000 5.600000 5.700000 5.800000 5.900000 6.000000 6.100000 6.200000 6.300000 6.400000 6.500000 6.600000 6.700000 6.800000 6.900000 7.000000 7.100000 7.200000 7.300000 7.400000 7.500000 7.600000 7.700000 7.800000 7.900000 8.000000 8.100000 8.200000 8.300000 8.400000 8.500000 8.600000 8.700000 8.800000 8.900000 9.000000 9.100000 9.200000 9.300000 9.400000 9.500000 9.600000 9.700000 9.800000 9.900000 10.000000 10.100000 
Z_COORDINATES 1 double
0.0
POINT_DATA 10404
VECTORS Velocity double
0.000000e+00 0.000000e+00 0.0
1.779100e-05 0.000000e+00 0.0
-5.237305e-06 0.000000e+00 0.0
-2.917086e-05 0.000000e+00 0.0
-4.272017e-05 0.000000e+00 0.0
-4.007294e-05 0.000000e+00 0.0
-2.044612e-05 0.000000e+00 0.0
1.360118e-05 0.000000e+00 0.0
5.829013e-05 0.000000e+00 0.0
1.103840e-04 0.000000e+00 0.0
1.680491e-04 0.000000e+00 0.0
2.307918e-04 0.000000e+00 0.0
2.988469e-04 0.000000e+00 0.0
3.725085e-04 0.000000e+00 0.0
4.517362e-04 0.000000e+00 0.0
5.361080e-04 0.000000e+00 0.0
6.249864e-04 0.000000e+00 0.0
7.177031e-04 0.000000e+00 0.0
8.136381e-04 0.000000e+00 0.0
9.121846e-04 0.000000e+00 0.0
1.012672e-03 0.000000e+00 0.0
1.114334e-03 0.000000e+00 0.0
1.216355e-03 0.000000e+00 0.0
1.317978e-03 0.000000e+00 0.0
1.418615e-03 0.000000e+00 0.0
1.517902e-03 0.000000e+00 0.0
1.615679e-03 0.000000e+00 0.0
1.711910e-03 0.000000e+00 0.0
1.806572e-03 0.000000e+00 0.0
1.899567e-03 0.000000e+00 0.0
1.990672e-03 0.000000e+00 0.0
2.079534e-03 0.000000e+00 0.0
2.165717e-03 0.000000e+00 0.0
2.248749e-03 0.000000e+00 0.0
2.328183e-03 0.000000e+00 0.0
2.403640e-03 0.000000e+00 0.0
2.474820e-03 0.000000e+00 0.0
2.541500e-03 0.000000e+00 0.0
2.603508e-03 0.000000e+00 0.0
2.660690e-03 0.000000e+00 0.0
2.712886e-03 0.000000e+00 0.0
2.759907e-03 0.000000e+00 0.0
2.801536e-03 0.000000e+00 0.0
2.837536e-03 0.000000e+00 0.0
2.867661e-03 0.000000e+00 0.0
2.891679e-03 0.000000e+00 0.0
2.909383e-03 0.000000e+00 0.0
2.920601e-03 0.000000e+00 0.0
2.925199e-03 0.000000e+00 0.0
2.923086e-03 0.000000e+00 0.0
2.914220e-03 0.000000e+00 0.0
2.898600e-03 0.000000e+00 0.0
2.876254e-03 0.000000e+00 0.0
2.847240e-03 0.000000e+00 0.0
2.811642e-03 0.000000e+00 0.0
2.769573e-03 0.000000e+00 0.0
2.721177e-03 0.000000e+00 0.0
2.666625e-03 0.000000e+00 0.0
2.606120e-03 0.000000e+00 0.0
2.539897e-03 0.000000e+00 0.0
2.468221e-03 0.000000e+00 0.0
2.391386e-03 0.000000e+00 0.0
2.309723e-03 0.000000e+00 0.0
2.223590e-03 0.000000e+00 0.0
2.133380e-03 0.000000e+00 0.0
2.039513e-03 0.000000e+00 0.0
1.942435e-03 0.000000e+00 0.0
1.842613e-03 0.000000e+00 0.0
1.740533e-03 0.000000e+00 0.0
1.636696e-03 0.000000e+00 0.0
1.531615e-03 0.000000e+00 0.0
1.425813e-03 0.000000e+00 0.0
1.319817e-03 0.000000e+00 0.0
1.214162e-03 0.000000e+00 0.0
1.109383e-03 0.000000e+00 0.0
1.006017e-03 0.000000e+00 0.0
9.046004e-04 0.000000e+00 0.0
8.056644e-04 0.000000e+00 0.0
7.097350e-04 0.000000e+00 0.0
6.173285e-04 0.000000e+00 0.0
5.289483e-04 0.000000e+00 0.0
4.450810e-04 0.000000e+00 0.0
3.661931e-04 0.000000e+00 0.0
2.927267e-04 0.000000e+00 0.0
2.250957e-04 0.000000e+00 0.0
1.636815e-04 0.000000e+00 0.0
1.088289e-04 0.000000e+00 0.0
6.084032e-05 0.000000e+00 0.0
1.996888e-05 0.000000e+00 0.0
-1.359053e-05 0.000000e+00 0.0
-3.971388e-05 0.000000e+00 0.0
-5.836595e-05 0.000000e+00 0.0
-6.962639e-05 0.000000e+00 0.0
-7.372776e-05 0.000000e+00 0.0
-7.111276e-05 0.000000e+00 0.0
-6.252525e-05 0.000000e+00 0.0
-4.915181e-05 0.000000e+00 0.0
-3.284505e-05 0.000000e+00 0.0
-1.643253e-05 0.000000e+00 0.0
-3.968962e-06 0.000000e+00 0.0
-0.000000e+00 0.000000e+00 0.0
0.000000e+00 0.000000e+00 0.0
0.000000e+00 3.371735e-05 0.0
2.524026e-05 9.701606e-06 0.0
4.358922e-05 5.350537e-06 0.0
4.831974e-05 2.633236e-06 0.0
4.022369e-05 -9.688021e-07 0.0
2.261240e-05 -1.638902e-06 0.0
-1.543034e-06 2.952407e-06 0.0
-3.115050e-05 1.287489e-05 0.0
-6.685935e-05 2.629305e-05 0.0
-1.100299e-04 4.067239e-05 0.0
-1.616914e-04 5.393333e-05 0.0
-2.220273e-04 6.499762e-05 0.0
-2.904503e-04 7.368636e-05 0.0
-3.659928e-04 8.028181e-05 0.0
-4.476719e-04 8.512696e-05 0.0
-5.346312e-04 8.847055e-05 0.0
-6.260732e-04 9.053662e-05 0.0
-7.211248e-04 9.165866e-05 0.0
-8.187849e-04 9.232204e-05 0.0
-9.180074e-04 9.306197e-05 0.0
-1.017871e-03 9.427765e-05 0.0
-1.117735e-03 9.607517e-05 0.0
-1.217293e-03 9.822788e-05 0.0
-1.316510e-03 1.002706e-04 0.0
-1.415465e-03 1.016780e-04 0.0
-1.514188e-03 1.020458e-04 0.0
-1.612540e-03 1.012070e-04 0.0
-1.710177e-03 9.925278e-05 0.0
-1.806580e-03 9.646930e-05 0.0
-1.901144e-03 9.322830e-05 0.0
-1.993272e-03 8.987290e-05 0.0
-2.082454e-03 8.663286e-05 0.0
-2.168307e-03 8.358653e-05 0.0
-2.250574e-03 8.067071e-05 0.0
-2.329098e-03 7.772672e-05 0.0
-2.403766e-03 7.456363e-05 0.0
-2.474460e-03 7.101800e-05 0.0
-2.541016e-03 6.699395e-05 0.0
-2.603215e-03 6.247589e-05 0.0
-2.660781e-03 5.751588e-05 0.0
-2.713408e-03 5.220525e-05 0.0
-2.760787e-03 4.664274e-05 0.0
-2.802627e-03 4.090957e-05 0.0
-2.838672e-03 3.505662e-05 0.0
-2.868704e-03 2.910392e-05 0.0
-2.892545e-03 2.304856e-05 0.0
-2.910044e-03 1.687628e-05 0.0
-2.921076e-03 1.057237e-05 0.0
-2.925536e-03 4.130309e-06 0.0
-2.923344e-03 -2.441779e-06 0.0
-2.914455e-03 -9.112905e-06 0.0
-2.898855e-03 -1.584908e-05 0.0
-2.876558e-03 -2.261334e-05 0.0
-2.847605e-03 -2.936385e-05 0.0
-2.812065e-03 -3.605433e-05 0.0
-2.770038e-03 -4.263571e-05 0.0
-2.721655e-03 -4.905859e-05 0.0
-2.667084e-03 -5.527626e-05 0.0
-2.606523e-03 -6.124782e-05 0.0
-2.540212e-03 -6.694050e-05 0.0
-2.468427e-03 -7.233039e-05 0.0
-2.391479e-03 -7.740101e-05 0.0
-2.309713e-03 -8.214012e-05 0.0
-2.223504e-03 -8.653556e-05 0.0
-2.133251e-03 -9.057161e-05 0.0
-2.039373e-03 -9.422676e-05 0.0
-1.942309e-03 -9.747367e-05 0.0
-1.842516e-03 -1.002807e-04 0.0
-1.740466e-03 -1.026148e-04 0.0
-1.636649e-03 -1.044447e-04 0.0
-1.531569e-03 -1.057436e-04 0.0
-1.425744e-03 -1.064921e-04 0.0
-1.319703e-03 -1.066784e-04 0.0
-1.213986e-03 -1.062998e-04 0.0
-1.109136e-03 -1.053603e-04 0.0
-1.005699e-03 -1.038693e-04 0.0
-9.042201e-04 -1.018397e-04 0.0
-8.052379e-04 -9.928608e-05 0.0
-7.092828e-04 -9.622325e-05 0.0
-6.168719e-04 -9.266530e-05 0.0
-5.285061e-04 -8.862550e-05 0.0
-4.446671e-04 -8.411693e-05 0.0
-3.658150e-04 -7.915393e-05 0.0
-2.923863e-04 -7.375380e-05 0.0
-2.247901e-04 -6.793844e-05 0.0
-1.634056e-04 -6.173559e-05 0.0
-1.085770e-04 -5.517989e-05 0.0
-6.060773e-05 -4.831364e-05 0.0
-1.975325e-05 -4.118768e-05 0.0
1.378930e-05 -3.386297e-05 0.0
3.989438e-05 -2.641304e-05 0.0
5.852608e-05 -1.892899e-05 0.0
6.976377e-05 -1.152707e-05 0.0
7.384048e-05 -4.360922e-06 0.0
7.120041e-05 2.358618e-06 0.0
6.258916e-05 8.331187e-06 0.0
4.919511e-05 1.311388e-05 0.0
3.287295e-05 1.604212e-05 0.0
1.645149e-05 1.614162e-05 0.0
3.983475e-06 1.218707e-05 0.0
0.000000e+00 3.702476e-06 0.0
0.000000e+00 -3.732415e-06 0.0
0.000000e+00 3.706040e-05 0.0
3.149938e-05 2.292231e-06 0.0
4.278459e-05 -1.571767e-05 0.0
4.037813e-05 -1.288568e-05 0.0
1.958052e-05 3.391283e-06 0.0
-2.171252e-05 3.082867e-05 0.0
-8.507129e-05 6.629676e-05 0.0
-1.719065e-04 1.059683e-04 0.0
-2.831097e-04 1.461386e-04 0.0
-4.186309e-04 1.840543e-04 0.0
-5.774018e-04 2.182438e-04 0.0
-7.576228e-04 2.482867e-04 0.0
-9.571873e-04 2.743119e-04 0.0
-1.173995e-03 2.965761e-04 0.0
-1.406044e-03 3.153062e-04 0.0
-1.651362e-03 3.307657e-04 0.0
-1.907909e-03 3.433745e-04 0.0
-2.173570e-03 3.537271e-04 0.0
-2.446261e-03 3.624659e-04 0.0
-2.724085e-03 3.700803e-04 0.0
-3.005458e-03 3.767498e-04 0.0
-3.289129e-03 3.823134e-04 0.0
-3.574111e-03 3.863771e-04 0.0
-3.859545e-03 3.884988e-04 0.0
-4.144565e-03 3.883664e-04 0.0
-4.428213e-03 3.859058e-04 0.0
-4.709414e-03 3.812912e-04 0.0
-4.987009e-03 3.748736e-04 0.0
-5.259819e-03 3.670695e-04 0.0
-5.526711e-03 3.582492e-04 0.0
-5.786650e-03 3.486585e-04 0.0
-6.038719e-03 3.383870e-04 0.0
-6.282119e-03 3.273843e-04 0.0
-6.516131e-03 3.155084e-04 0.0
-6.740083e-03 3.025907e-04 0.0
-6.953306e-03 2.884938e-04 0.0
-7.155108e-03 2.731497e-04 0.0
-7.344764e-03 2.565693e-04 0.0
-7.521527e-03 2.388286e-04 0.0
-7.684646e-03 2.200395e-04 0.0
-7.833383e-03 2.003197e-04 0.0
-7.967039e-03 1.797705e-04 0.0
-8.084959e-03 1.584664e-04 0.0
-8.186542e-03 1.364565e-04 0.0
-8.271240e-03 1.137735e-04 0.0
-8.338561e-03 9.044470e-05 0.0
-8.388064e-03 6.650311e-05 0.0
-8.419370e-03 4.199636e-05 0.0
-8.432162e-03 1.699393e-05 0.0
-8.426201e-03 -8.405296e-06 0.0
-8.401343e-03 -3.406237e-05 0.0
-8.357533e-03 -5.983688e-05 0.0
-8.294808e-03 -8.558977e-05 0.0
-8.213290e-03 -1.111799e-04 0.0
-8.113190e-03 -1.364644e-04 0.0
-7.994811e-03 -1.613016e-04 0.0
-7.858548e-03 -1.855540e-04 0.0
-7.704889e-03 -2.090923e-04 0.0
-7.534417e-03 -2.317971e-04 0.0
-7.347813e-03 -2.535593e-04 0.0
-7.145844e-03 -2.742781e-04 0.0
-6.929368e-03 -2.938571e-04 0.0
-6.699325e-03 -3.122002e-04 0.0
-6.456731e-03 -3.292089e-04 0.0
-6.202672e-03 -3.447808e-04 0.0
-5.938302e-03 -3.588113e-04 0.0
-5.664839e-03 -3.711966e-04 0.0
-5.383559e-03 -3.818382e-04 0.0
-5.095790e-03 -3.906470e-04 0.0
-4.802913e-03 -3.975471e-04 0.0
-4.506347e-03 -4.024779e-04 0.0
-4.207549e-03 -4.053954e-04 0.0
-3.908003e-03 -4.062722e-04 0.0
-3.609209e-03 -4.050969e-04 0.0
-3.312677e-03 -4.018710e-04 0.0
-3.019918e-03 -3.966053e-04 0.0
-2.732433e-03 -3.893189e-04 0.0
-2.451707e-03 -3.800375e-04 0.0
-2.179200e-03 -3.687940e-04 0.0
-1.916336e-03 -3.556286e-04 0.0
-1.664498e-03 -3.405906e-04 0.0
-1.425017e-03 -3.237402e-04 0.0
-1.199165e-03 -3.051511e-04 0.0
-9.881421e-04 -2.849125e-04 0.0
-7.930697e-04 -2.631314e-04 0.0
-6.149734e-04 -2.399339e-04 0.0
-4.547696e-04 -2.154684e-04 0.0
-3.132465e-04 -1.899079e-04 0.0
-1.910410e-04 -1.634557e-04 0.0
-8.860962e-05 -1.363529e-04 0.0
-6.190572e-06 -1.088899e-04 0.0
5.624533e-05 -8.142464e-05 0.0
9.906330e-05 -5.440787e-05 0.0
1.230578e-04 -2.842161e-05 0.0
1.295809e-04 -4.233317e-06 0.0
1.207176e-04 1.712358e-05 0.0
9.951831e-05 3.424039e-05 0.0
7.028145e-05 4.520653e-05 0.0
3.881090e-05 4.753796e-05 0.0
1.249015e-05 3.843388e-05 0.0
0.000000e+00 1.611873e-05 0.0
0.000000e+00 -1.614139e-05 0.0
0.000000e+00 3.308585e-05 0.0
2.280896e-05 -1.282808e-05 0.0
1.878946e-05 -2.990056e-05 0.0
-2.330011e-06 -7.250747e-06 0.0
-4.840299e-05 4.239653e-05 0.0
-1.253694e-04 1.096964e-04 0.0
-2.377339e-04 1.864355e-04 0.0
-3.881543e-04 2.658871e-04 0.0
-5.772150e-04 3.433151e-04 0.0
-8.036899e-04 4.159697e-04 0.0
-1.065177e-03 4.826033e-04 0.0
-1.358769e-03 5.428033e-04 0.0
-1.681492e-03 5.964791e-04 0.0
-2.030412e-03 6.436600e-04 0.0
-2.402563e-03 6.845364e-04 0.0
-2.794855e-03 7.195509e-04 0.0
-3.204110e-03 7.493813e-04 0.0
-3.627219e-03 7.747784e-04 0.0
-4.061330e-03 7.963411e-04 0.0
-4.503973e-03 8.143526e-04 0.0
-4.953058e-03 8.287578e-04 0.0
-5.406760e-03 8.392810e-04 0.0
-5.863363e-03 8.456170e-04 0.0
-6.321134e-03 8.476033e-04 0.0
-6.778254e-03 8.453139e-04 0.0
-7.232829e-03 8.390553e-04 0.0
-7.682947e-03 8.292875e-04 0.0
-8.126750e-03 8.165083e-04 0.0
-8.562499e-03 8.011464e-04 0.0
-8.988606e-03 7.834908e-04 0.0
-9.403636e-03 7.636675e-04 0.0
-9.806281e-03 7.416625e-04 0.0
-1.019532e-02 7.173740e-04 0.0
-1.056956e-02 6.906783e-04 0.0
-1.092783e-02 6.614857e-04 0.0
-1.126890e-02 6.297754e-04 0.0
-1.159157e-02 5.956020e-04 0.0
-1.189460e-02 5.590794e-04 0.0
-1.217677e-02 5.203519e-04 0.0
-1.243693e-02 4.795667e-04 0.0
-1.267397e-02 4.368547e-04 0.0
-1.288683e-02 3.923241e-04 0.0
-1.307455e-02 3.460637e-04 0.0
-1.323621e-02 2.981536e-04 0.0
-1.337099e-02 2.486761e-04 0.0
-1.347811e-02 1.977272e-04 0.0
-1.355689e-02 1.454261e-04 0.0
-1.360676e-02 9.192384e-05 0.0
-1.362720e-02 3.741057e-05 0.0
-1.361787e-02 -1.787589e-05 0.0
-1.357853e-02 -7.363995e-05 0.0
-1.350909e-02 -1.295828e-04 0.0
-1.340961e-02 -1.854112e-04 0.0
-1.328028e-02 -2.408355e-04 0.0
-1.312146e-02 -2.955709e-04 0.0
-1.293362e-02 -3.493401e-04 0.0
-1.271740e-02 -4.018756e-04 0.0
-1.247360e-02 -4.529209e-04 0.0
-1.220313e-02 -5.022296e-04 0.0
-1.190708e-02 -5.495628e-04 0.0
-1.158666e-02 -5.946847e-04 0.0
-1.124320e-02 -6.373597e-04 0.0
-1.087817e-02 -6.773505e-04 0.0
-1.049317e-02 -7.144192e-04 0.0
-1.008988e-02 -7.483312e-04 0.0
-9.670126e-03 -7.788603e-04 0.0
-9.235815e-03 -8.057953e-04 0.0
-8.788957e-03 -8.289446e-04 0.0
-8.331651e-03 -8.481412e-04 0.0
-7.866071e-03 -8.632445e-04 0.0
-7.394458e-03 -8.741416e-04 0.0
-6.919104e-03 -8.807468e-04 0.0
-6.442343e-03 -8.830010e-04 0.0
-5.966532e-03 -8.808703e-04 0.0
-5.494041e-03 -8.743432e-04 0.0
-5.027236e-03 -8.634263e-04 0.0
-4.568470e-03 -8.481447e-04 0.0
-4.120067e-03 -8.285425e-04 0.0
-3.684311e-03 -8.046854e-04 0.0
-3.263432e-03 -7.766625e-04 0.0
-2.859591e-03 -7.445890e-04 0.0
-2.474869e-03 -7.086096e-04 0.0
-2.111248e-03 -6.689003e-04 0.0
-1.770594e-03 -6.256716e-04 0.0
-1.454638e-03 -5.791707e-04 0.0
-1.164953e-03 -5.296852e-04 0.0
-9.029291e-04 -4.775485e-04 0.0
-6.697408e-04 -4.231477e-04 0.0
-4.663131e-04 -3.669354e-04 0.0
-2.932745e-04 -3.094465e-04 0.0
-1.509015e-04 -2.513224e-04 0.0
-3.904559e-05 -1.933446e-04 0.0
4.295989e-05 -1.364814e-04 0.0
9.641929e-05 -8.195204e-05 0.0
1.234296e-04 -3.131641e-05 0.0
1.270679e-04 1.341115e-05 0.0
1.116146e-04 4.961862e-05 0.0
8.278997e-05 7.395674e-05 0.0
4.796840e-05 8.228377e-05 0.0
1.641883e-05 6.990833e-05 0.0
0.000000e+00 3.246263e-05 0.0
0.000000e+00 -3.247726e-05 0.0
0.000000e+00 2.395850e-05 0.0
3.889411e-06 -2.610387e-05 0.0
-1.797522e-05 -2.504338e-05 0.0
-6.383369e-05 3.138298e-05 0.0
-1.438944e-04 1.251712e-04 0.0
-2.662504e-04 2.409257e-04 0.0
-4.363150e-04 3.668082e-04 0.0
-6.564280e-04 4.943833e-04 0.0
-9.262018e-04 6.183214e-04 0.0
-1.243406e-03 7.355969e-04 0.0
-1.604912e-03 8.445678e-04 0.0
-2.007313e-03 9.442931e-04 0.0
-2.447126e-03 1.034233e-03 0.0
-2.920717e-03 1.114231e-03 0.0
-3.424222e-03 1.184561e-03 0.0
-3.953601e-03 1.245854e-03 0.0
-4.504844e-03 1.298895e-03 0.0
-5.074217e-03 1.344357e-03 0.0
-5.658403e-03 1.382614e-03 0.0
-6.254502e-03 1.413728e-03 0.0
-6.859889e-03 1.437565e-03 0.0
-7.472036e-03 1.453991e-03 0.0
-8.088374e-03 1.463037e-03 0.0
-8.706245e-03 1.464972e-03 0.0
-9.322934e-03 1.460286e-03 0.0
-9.935753e-03 1.449590e-03 0.0
-1.054214e-02 1.433505e-03 0.0
-1.113971e-02 1.412558e-03 0.0
-1.172629e-02 1.387115e-03 0.0
-1.229991e-02 1.357371e-03 0.0
-1.285876e-02 1.323377e-03 0.0
-1.340110e-02 1.285101e-03 0.0
-1.392526e-02 1.242490e-03 0.0
-1.442953e-02 1.195526e-03 0.0
-1.491221e-02 1.144259e-03 0.0
-1.537159e-02 1.088808e-03 0.0
-1.580596e-02 1.029341e-03 0.0
-1.621366e-02 9.660516e-04 0.0
-1.659309e-02 8.991273e-04 0.0
-1.694273e-02 8.287383e-04 0.0
-1.726116e-02 7.550337e-04 0.0
-1.754703e-02 6.781486e-04 0.0
-1.779907e-02 5.982160e-04 0.0
-1.801610e-02 5.153791e-04 0.0
-1.819702e-02 4.298039e-04 0.0
-1.834083e-02 3.416902e-04 0.0
-1.844663e-02 2.512812e-04 0.0
-1.851365e-02 1.588724e-04 0.0
-1.854126e-02 6.481856e-05 0.0
-1.852899e-02 -3.046010e-05 0.0
-1.847653e-02 -1.264714e-04 0.0
-1.838377e-02 -2.227196e-04 0.0
-1.825080e-02 -3.187208e-04 0.0
-1.807789e-02 -4.140026e-04 0.0
-1.786550e-02 -5.081040e-04 0.0
-1.761431e-02 -6.005758e-04 0.0
-1.732516e-02 -6.909795e-04 0.0
-1.699912e-02 -7.788843e-04 0.0
-1.663742e-02 -8.638634e-04 0.0
-1.624149e-02 -9.454904e-04 0.0
-1.581292e-02 -1.023337e-03 0.0
-1.535349e-02 -1.096974e-03 0.0
-1.486513e-02 -1.165976e-03 0.0
-1.434994e-02 -1.229924e-03 0.0
-1.381017e-02 -1.288421e-03 0.0
-1.324822e-02 -1.341092e-03 0.0
-1.266664e-02 -1.387595e-03 0.0
-1.206809e-02 -1.427626e-03 0.0
-1.145537e-02 -1.460917e-03 0.0
-1.083137e-02 -1.487242e-03 0.0
-1.019905e-02 -1.506415e-03 0.0
-9.561450e-03 -1.518286e-03 0.0
-8.921666e-03 -1.522745e-03 0.0
-8.282813e-03 -1.519721e-03 0.0
-7.648025e-03 -1.509180e-03 0.0
-7.020431e-03 -1.491119e-03 0.0
-6.403141e-03 -1.465575e-03 0.0
-5.799228e-03 -1.432622e-03 0.0
-5.211710e-03 -1.392376e-03 0.0
-4.643533e-03 -1.345001e-03 0.0
-4.097551e-03 -1.290709e-03 0.0
-3.576507e-03 -1.229764e-03 0.0
-3.083008e-03 -1.162484e-03 0.0
-2.619497e-03 -1.089244e-03 0.0
-2.188234e-03 -1.010483e-03 0.0
-1.791256e-03 -9.267071e-04 0.0
-1.430348e-03 -8.385015e-04 0.0
-1.107001e-03 -7.465445e-04 0.0
-8.223660e-04 -6.516270e-04 0.0
-5.771961e-04 -5.546795e-04 0.0
-3.717780e-04 -4.568087e-04 0.0
-2.058478e-04 -3.593470e-04 0.0
-7.848669e-05 -2.639171e-04 0.0
1.200453e-05 -1.725193e-04 0.0
6.825469e-05 -8.764298e-05 0.0
9.399484e-05 -1.240594e-05 0.0
9.425003e-05 4.928670e-05 0.0
7.554146e-05 9.258899e-05 0.0
4.612620e-05 1.116223e-04 0.0
1.641461e-05 9.954374e-05 0.0
0.000000e+00 4.880131e-05 0.0
0.000000e+00 -4.880581e-05 0.0
0.000000e+00 1.157474e-05 0.0
-1.658250e-05 -2.996503e-05 0.0
-5.753856e-05 6.561997e-06 0.0
-1.336006e-04 1.093463e-04 0.0
-2.555543e-04 2.561238e-04 0.0
-4.314616e-04 4.275728e-04 0.0
-6.658512e-04 6.098133e-04 0.0
-9.598460e-04 7.934398e-04 0.0
-1.312054e-03 9.724439e-04 0.0
-1.719673e-03 1.143017e-03 0.0
-2.179296e-03 1.302646e-03 0.0
-2.687236e-03 1.449663e-03 0.0
-3.239515e-03 1.583129e-03 0.0
-3.831785e-03 1.702814e-03 0.0
-4.459403e-03 1.809058e-03 0.0
-5.117669e-03 1.902505e-03 0.0
-5.802108e-03 1.983784e-03 0.0
-6.508657e-03 2.053295e-03 0.0
-7.233673e-03 2.111174e-03 0.0
-7.973790e-03 2.157413e-03 0.0
-8.725725e-03 2.192050e-03 0.0
-9.486133e-03 2.215323e-03 0.0
-1.025156e-02 2.227726e-03 0.0
-1.101851e-02 2.229965e-03 0.0
-1.178351e-02 2.222848e-03 0.0
-1.254328e-02 2.207161e-03 0.0
-1.329478e-02 2.183570e-03 0.0
-1.403523e-02 2.152562e-03 0.0
-1.476209e-02 2.114436e-03 0.0
-1.547301e-02 2.069347e-03 0.0
-1.616577e-02 2.017359e-03 0.0
-1.683818e-02 1.958521e-03 0.0
-1.748806e-02 1.892914e-03 0.0
-1.811321e-02 1.820682e-03 0.0
-1.871144e-02 1.742032e-03 0.0
-1.928058e-02 1.657209e-03 0.0
-1.981850e-02 1.566471e-03 0.0
-2.032319e-02 1.470062e-03 0.0
-2.079273e-02 1.368205e-03 0.0
-2.122528e-02 1.261097e-03 0.0
-2.161914e-02 1.148925e-03 0.0
-2.197267e-02 1.031877e-03 0.0
-2.228434e-02 9.101600e-04 0.0
-2.255271e-02 7.840121e-04 0.0
-2.277645e-02 6.537163e-04 0.0
-2.295434e-02 5.196127e-04 0.0
-2.308530e-02 3.821083e-04 0.0
-2.316839e-02 2.416836e-04 0.0
-2.320286e-02 9.889548e-05 0.0
-2.318813e-02 -4.562141e-05 0.0
-2.312386e-02 -1.911530e-04 0.0
-2.300993e-02 -3.369834e-04 0.0
-2.284644e-02 -4.824151e-04 0.0
-2.263375e-02 -6.267663e-04 0.0
-2.237245e-02 -7.693679e-04 0.0
-2.206337e-02 -9.095591e-04 0.0
-2.170755e-02 -1.046683e-03 0.0
-2.130629e-02 -1.180079e-03 0.0
-2.086110e-02 -1.309085e-03 0.0
-2.037370e-02 -1.433031e-03 0.0
-1.984604e-02 -1.551246e-03 0.0
-1.928027e-02 -1.663068e-03 0.0
-1.867874e-02 -1.767847e-03 0.0
-1.804403e-02 -1.864962e-03 0.0
-1.737888e-02 -1.953828e-03 0.0
-1.668624e-02 -2.033904e-03 0.0
-1.596921e-02 -2.104694e-03 0.0
-1.523107e-02 -2.165758e-03 0.0
-1.447523e-02 -2.216704e-03 0.0
-1.370520e-02 -2.257192e-03 0.0
-1.292461e-02 -2.286936e-03 0.0
-1.213716e-02 -2.305703e-03 0.0
-1.134662e-02 -2.313312e-03 0.0
-1.055679e-02 -2.309642e-03 0.0
-9.771480e-03 -2.294631e-03 0.0
-8.994502e-03 -2.268271e-03 0.0
-8.229647e-03 -2.230617e-03 0.0
-7.480658e-03 -2.181788e-03 0.0
-6.751214e-03 -2.121974e-03 0.0
-6.044902e-03 -2.051435e-03 0.0
-5.365193e-03 -1.970506e-03 0.0
-4.715416e-03 -1.879602e-03 0.0
-4.098727e-03 -1.779215e-03 0.0
-3.518080e-03 -1.669927e-03 0.0
-2.976190e-03 -1.552411e-03 0.0
-2.475497e-03 -1.427445e-03 0.0
-2.018125e-03 -1.295927e-03 0.0
-1.605834e-03 -1.158898e-03 0.0
-1.239967e-03 -1.017564e-03 0.0
-9.213836e-04 -8.733380e-04 0.0
-6.503853e-04 -7.278845e-04 0.0
-4.266291e-04 -5.831821e-04 0.0
-2.490219e-04 -4.416036e-04 0.0
-1.156021e-04 -3.060181e-04 0.0
-2.340476e-05 -1.799186e-04 0.0
3.168555e-05 -6.757437e-05 0.0
5.509901e-05 2.579611e-05 0.0
5.376522e-05 9.384589e-05 0.0
3.636772e-05 1.289432e-04 0.0
1.379003e-05 1.220453e-04 0.0
0.000000e+00 6.251533e-05 0.0
0.000000e+00 -6.250573e-05 0.0
0.000000e+00 -4.419219e-06 0.0
-3.334610e-05 -1.957815e-05 0.0
-9.516665e-05 6.828531e-05 0.0
-2.065205e-04 2.288292e-04 0.0
-3.767119e-04 4.369464e-04 0.0
-6.119370e-04 6.715345e-04 0.0
-9.148274e-04 9.177238e-04 0.0
-1.285110e-03 1.165292e-03 0.0
-1.720672e-03 1.407217e-03 0.0
-2.218442e-03 1.638552e-03 0.0
-2.774826e-03 1.855797e-03 0.0
-3.385762e-03 2.056664e-03 0.0
-4.046680e-03 2.239954e-03 0.0
-4.752584e-03 2.405352e-03 0.0
-5.498306e-03 2.553081e-03 0.0
-6.278823e-03 2.683520e-03 0.0
-7.089467e-03 2.796946e-03 0.0
-7.925955e-03 2.893471e-03 0.0
-8.784264e-03 2.973143e-03 0.0
-9.660426e-03 3.036130e-03 0.0
-1.055039e-02 3.082853e-03 0.0
-1.144998e-02 3.114027e-03 0.0
-1.235495e-02 3.130587e-03 0.0
-1.326111e-02 3.133567e-03 0.0
-1.416448e-02 3.123955e-03 0.0
-1.506134e-02 3.102598e-03 0.0
-1.594827e-02 3.070143e-03 0.0
-1.682217e-02 3.027039e-03 0.0
-1.768014e-02 2.973577e-03 0.0
-1.851944e-02 2.909957e-03 0.0
-1.933739e-02 2.836354e-03 0.0
-2.013132e-02 2.752979e-03 0.0
-2.089856e-02 2.660095e-03 0.0
-2.163644e-02 2.558023e-03 0.0
-2.234233e-02 2.447108e-03 0.0
-2.301366e-02 2.327695e-03 0.0
-2.364800e-02 2.200106e-03 0.0
-2.424300e-02 2.064626e-03 0.0
-2.479645e-02 1.921514e-03 0.0
-2.530626e-02 1.771015e-03 0.0
-2.577043e-02 1.613376e-03 0.0
-2.618707e-02 1.448868e-03 0.0
-2.655440e-02 1.277801e-03 0.0
-2.687075e-02 1.100541e-03 0.0
-2.713457e-02 9.175253e-04 0.0
-2.734444e-02 7.292740e-04 0.0
-2.749909e-02 5.363942e-04 0.0
-2.759746e-02 3.395816e-04 0.0
-2.763866e-02 1.396180e-04 0.0
-2.762207e-02 -6.263197e-05 0.0
-2.754730e-02 -2.662211e-04 0.0
-2.741422e-02 -4.701993e-04 0.0
-2.722300e-02 -6.736341e-04 0.0
-2.697404e-02 -8.756047e-04 0.0
-2.666806e-02 -1.075193e-03 0.0
-2.630601e-02 -1.271479e-03 0.0
-2.588912e-02 -1.463530e-03 0.0
-2.541888e-02 -1.650405e-03 0.0
-2.489702e-02 -1.831151e-03 0.0
-2.432555e-02 -2.004814e-03 0.0
-2.370672e-02 -2.170447e-03 0.0
-2.304302e-02 -2.327127e-03 0.0
-2.233721e-02 -2.473964e-03 0.0
-2.159227e-02 -2.610114e-03 0.0
-2.081142e-02 -2.734786e-03 0.0
-1.999808e-02 -2.847247e-03 0.0
-1.915588e-02 -2.946825e-03 0.0
-1.828863e-02 -3.032911e-03 0.0
-1.740028e-02 -3.104958e-03 0.0
-1.649493e-02 -3.162487e-03 0.0
-1.557678e-02 -3.205087e-03 0.0
-1.465013e-02 -3.232418e-03 0.0
-1.371935e-02 -3.244220e-03 0.0
-1.278885e-02 -3.240314e-03 0.0
-1.186307e-02 -3.220611e-03 0.0
-1.094643e-02 -3.185105e-03 0.0
-1.004333e-02 -3.133882e-03 0.0
-9.158132e-03 -3.067121e-03 0.0
-8.295104e-03 -2.985099e-03 0.0
-7.458409e-03 -2.888194e-03 0.0
-6.652072e-03 -2.776886e-03 0.0
-5.879945e-03 -2.651761e-03 0.0
-5.145672e-03 -2.513520e-03 0.0
-4.452658e-03 -2.362981e-03 0.0
-3.804023e-03 -2.201096e-03 0.0
-3.202565e-03 -2.028965e-03 0.0
-2.650708e-03 -1.847855e-03 0.0
-2.150457e-03 -1.659227e-03 0.0
-1.703330e-03 -1.464772e-03 0.0
-1.310297e-03 -1.266453e-03 0.0
-9.716997e-04 -1.066564e-03 0.0
-6.871672e-04 -8.677958e-04 0.0
-4.555168e-04 -6.733342e-04 0.0
-2.746477e-04 -4.869661e-04 0.0
-1.414250e-04 -3.132186e-04 0.0
-5.155552e-05 -1.575204e-04 0.0
5.514773e-07 -2.638591e-05 0.0
2.194359e-05 7.237873e-05 0.0
2.135753e-05 1.294548e-04 0.0
9.574832e-06 1.337536e-04 0.0
0.000000e+00 7.201578e-05 0.0
0.000000e+00 -7.198640e-05 0.0
0.000000e+00 -2.648612e-05 0.0
-4.462791e-05 6.652230e-06 0.0
-1.299165e-04 1.603586e-04 0.0
-2.807218e-04 3.897839e-04 0.0
-5.032910e-04 6.682853e-04 0.0
-8.010035e-04 9.744071e-04 0.0
-1.174415e-03 1.292677e-03 0.0
-1.622092e-03 1.611898e-03 0.0
-2.141422e-03 1.923824e-03 0.0
-2.729056e-03 2.222369e-03 0.0
-3.381012e-03 2.503244e-03 0.0
-4.092666e-03 2.763739e-03 0.0
-4.858855e-03 3.002424e-03 0.0
-5.674141e-03 3.218727e-03 0.0
-6.533133e-03 3.412486e-03 0.0
-7.430720e-03 3.583628e-03 0.0
-8.362114e-03 3.732067e-03 0.0
-9.322731e-03 3.857782e-03 0.0
-1.030801e-02 3.960974e-03 0.0
-1.131327e-02 4.042184e-03 0.0
-1.233367e-02 4.102303e-03 0.0
-1.336432e-02 4.142480e-03 0.0
-1.440035e-02 4.163974e-03 0.0
-1.543710e-02 4.168002e-03 0.0
-1.647021e-02 4.155622e-03 0.0
-1.749564e-02 4.127681e-03 0.0
-1.850970e-02 4.084813e-03 0.0
-1.950894e-02 4.027485e-03 0.0
-2.049008e-02 3.956062e-03 0.0
-2.144994e-02 3.870882e-03 0.0
-2.238539e-02 3.772307e-03 0.0
-2.329326e-02 3.660754e-03 0.0
-2.417044e-02 3.536679e-03 0.0
-2.501383e-02 3.400557e-03 0.0
-2.582045e-02 3.252843e-03 0.0
-2.658742e-02 3.093957e-03 0.0
-2.731200e-02 2.924268e-03 0.0
-2.799157e-02 2.744110e-03 0.0
-2.862366e-02 2.553793e-03 0.0
-2.920592e-02 2.353630e-03 0.0
-2.973610e-02 2.143959e-03 0.0
-3.021206e-02 1.925161e-03 0.0
-3.063178e-02 1.697685e-03 0.0
-3.099336e-02 1.462063e-03 0.0
-3.129505e-02 1.218925e-03 0.0
-3.153523e-02 9.689999e-04 0.0
-3.171249e-02 7.131185e-04 0.0
-3.182562e-02 4.522043e-04 0.0
-3.187367e-02 1.872691e-04 0.0
-3.185594e-02 -8.058848e-05 0.0
-3.177204e-02 -3.501800e-04 0.0
-3.162184e-02 -6.203022e-04 0.0
-3.140553e-02 -8.897574e-04 0.0
-3.112361e-02 -1.157343e-03 0.0
-3.077684e-02 -1.421843e-03 0.0
-3.036630e-02 -1.682022e-03 0.0
-2.989335e-02 -1.936624e-03 0.0
-2.935966e-02 -2.184377e-03 0.0
-2.876717e-02 -2.424008e-03 0.0
-2.811813e-02 -2.654249e-03 0.0
-2.741507e-02 -2.873863e-03 0.0
-2.666081e-02 -3.081649e-03 0.0
-2.585846e-02 -3.276460e-03 0.0
-2.501140e-02 -3.457209e-03 0.0
-2.412325e-02 -3.622872e-03 0.0
-2.319789e-02 -3.772495e-03 0.0
-2.223940e-02 -3.905195e-03 0.0
-2.125207e-02 -4.020160e-03 0.0
-2.024033e-02 -4.116661e-03 0.0
-1.920881e-02 -4.194051e-03 0.0
-1.816224e-02 -4.251777e-03 0.0
-1.710544e-02 -4.289382e-03 0.0
-1.604334e-02 -4.306518e-03 0.0
-1.498091e-02 -4.302951e-03 0.0
-1.392314e-02 -4.278567e-03 0.0
-1.287503e-02 -4.233370e-03 0.0
-1.184153e-02 -4.167484e-03 0.0
-1.082757e-02 -4.081160e-03 0.0
-9.837935e-03 -3.974774e-03 0.0
-8.877326e-03 -3.848833e-03 0.0
-7.950260e-03 -3.703979e-03 0.0
-7.061063e-03 -3.540994e-03 0.0
-6.213821e-03 -3.360810e-03 0.0
-5.412345e-03 -3.164518e-03 0.0
-4.660125e-03 -2.953388e-03 0.0
-3.960287e-03 -2.728884e-03 0.0
-3.315536e-03 -2.492690e-03 0.0
-2.728106e-03 -2.246742e-03 0.0
-2.199695e-03 -1.993267e-03 0.0
-1.731398e-03 -1.734833e-03 0.0
-1.323633e-03 -1.474410e-03 0.0
-9.760552e-04 -1.215452e-03 0.0
-6.874753e-04 -9.619908e-04 0.0
-4.557618e-04 -7.187542e-04 0.0
-2.777454e-04 -4.913076e-04 0.0
-1.491172e-04 -2.862200e-04 0.0
-6.431661e-05 -1.112564e-04 0.0
-1.640677e-05 2.439820e-05 0.0
3.099792e-06 1.098778e-04 0.0
4.462933e-06 1.323198e-04 0.0
0.000000e+00 7.640775e-05 0.0
0.000000e+00 -7.635221e-05 0.0
0.000000e+00 -5.787544e-05 0.0
-5.138869e-05 4.767921e-05 0.0
-1.627735e-04 2.813691e-04 0.0
-3.555806e-04 5.914148e-04 0.0
-6.323506e-04 9.505473e-04 0.0
-9.935927e-04 1.337516e-03 0.0
-1.438087e-03 1.736240e-03 0.0
-1.963474e-03 2.134463e-03 0.0
-2.566592e-03 2.522828e-03 0.0
-3.243548e-03 2.894411e-03 0.0
-3.989713e-03 3.244415e-03 0.0
-4.799836e-03 3.569796e-03 0.0
-5.668317e-03 3.868756e-03 0.0
-6.589535e-03 4.140231e-03 0.0
-7.558074e-03 4.383500e-03 0.0
-8.568770e-03 4.598044e-03 0.0
-9.616593e-03 4.783584e-03 0.0
-1.069648e-02 4.940210e-03 0.0
-1.180319e-02 5.068466e-03 0.0
-1.293134e-02 5.169339e-03 0.0
-1.407540e-02 5.244137e-03 0.0
-1.522992e-02 5.294320e-03 0.0
-1.638962e-02 5.321324e-03 0.0
-1.754954e-02 5.326440e-03 0.0
-1.870503e-02 5.310738e-03 0.0
-1.985182e-02 5.275069e-03 0.0
-2.098591e-02 5.220105e-03 0.0
-2.210350e-02 5.146408e-03 0.0
-2.320091e-02 5.054507e-03 0.0
-2.427450e-02 4.944948e-03 0.0
-2.532065e-02 4.818323e-03 0.0
-2.633578e-02 4.675260e-03 0.0
-2.731637e-02 4.516384e-03 0.0
-2.825899e-02 4.342292e-03 0.0
-2.916036e-02 4.153522e-03 0.0
-3.001733e-02 3.950550e-03 0.0
-3.082689e-02 3.733800e-03 0.0
-3.158620e-02 3.503664e-03 0.0
-3.229252e-02 3.260527e-03 0.0
-3.294325e-02 3.004799e-03 0.0
-3.353589e-02 2.736936e-03 0.0
-3.406807e-02 2.457468e-03 0.0
-3.453754e-02 2.167020e-03 0.0
-3.494217e-02 1.866326e-03 0.0
-3.528001e-02 1.556231e-03 0.0
-3.554927e-02 1.237688e-03 0.0
-3.574841e-02 9.117524e-04 0.0
-3.587613e-02 5.795710e-04 0.0
-3.593140e-02 2.423850e-04 0.0
-3.591347e-02 -9.846651e-05 0.0
-3.582194e-02 -4.415350e-04 0.0
-3.565668e-02 -7.853305e-04 0.0
-3.541789e-02 -1.128345e-03 0.0
-3.510610e-02 -1.469045e-03 0.0
-3.472215e-02 -1.805864e-03 0.0
-3.426720e-02 -2.137205e-03 0.0
-3.374272e-02 -2.461452e-03 0.0
-3.315053e-02 -2.776978e-03 0.0
-3.249276e-02 -3.082169e-03 0.0
-3.177189e-02 -3.375436e-03 0.0
-3.099072e-02 -3.655234e-03 0.0
-3.015236e-02 -3.920071e-03 0.0
-2.926026e-02 -4.168519e-03 0.0
-2.831814e-02 -4.399216e-03 0.0
-2.733000e-02 -4.610872e-03 0.0
-2.630010e-02 -4.802274e-03 0.0
-2.523295e-02 -4.972290e-03 0.0
-2.413324e-02 -5.119882e-03 0.0
-2.300589e-02 -5.244109e-03 0.0
-2.185595e-02 -5.344143e-03 0.0
-2.068866e-02 -5.419275e-03 0.0
-1.950932e-02 -5.468927e-03 0.0
-1.832338e-02 -5.492660e-03 0.0
-1.713631e-02 -5.490186e-03 0.0
-1.595363e-02 -5.461369e-03 0.0
-1.478086e-02 -5.406226e-03 0.0
-1.362347e-02 -5.324924e-03 0.0
-1.248687e-02 -5.217787e-03 0.0