# vtk DataFile Version 3.0
Vector Field
ASCII
DATASET RECTILINEAR_GRID
DIMENSIONS 102 102 1
X_COORDINATES 102 double
0.000000 0.100000 0.200000 0.300000 0.400000 0.500000 0.600000 0.700000 0.800000 0.900000 1.000000 1.100000 1.200000 1.300000 1.400000 1.500000 1.600000 1.700000 1.800000 1.900000 2.000000 2.100000 2.200000 2.300000 2.400000 2.500000 2.600000 2.700000 2.800000 2.900000 3.000000 3.100000 3.200000 3.300000 3.400000 3.500000 3.600000 3.700000 3.800000 3.900000 4.000000 4.100000 4.200000 4.300000 4.400000 4.500000 4.600000 4.700000 4.800000 4.900000 5.000000 5.100000 5.200000 5.300000 5.400000 5.500000 5.600000 5.700000 5.800000 5.900000 6.000000 6.100000 6.200000 6.300000 6.400000 6.500000 6.600000 6.700000 6.800000 6.900000 7.000000 7.100000 7.200000 7.300000 7.400000 7.500000 7.600000 7.700000 7.800000 7.900000 8.000000 8.100000 8.200000 8.300000 8.400000 8.500000 8.600000 8.700000 8.800000 8.900000 9.000000 9.100000 9.200000 9.300000 9.400000 9.500000 9.600000 9.700000 9.800000 9.900000 10.000000 10.100000 
Y_COORDINATES 102 double
0.000000 0.100000 0.200000 0.300000 0.400000 0.500000 0.600000 0.700000 0.800000 0.900000 1.000000 1.100000 1.200000 1.300000 1.400000 1.500000 1.600000 1.700000 1.800000 1.900000 2.000000 2.100000 2.200000 2.300000 2.400000 2.500000 2.600000 2.700000 2.800000 2.900000 3.000000 3.100000 3.200000 3.300000 3.400000 3.500000 3.600000 3.700000 3.800000 3.900000 4.000000 4.100000 4.200000 4.300000 4.400000 4.500000 4.600000 4.700000 4.800000 4.900000 5.000000 5.100000 5.200000 5.300000 5.400000 5.500000 5.600000 5.700000 5.800000 5.900000 6.000000 6.100000 6.200000 6.300000 6.400000 6.500000 6.600000 6.700000 6.800000 6.900000 7.000000 7.100000 7.200000 7.300000 7.400000 7.500000 7.600000 7.700000 7.800000 7.900000 8.000000 8.100000 8.200000 8.300000 8.400000 8.500000 8.600000 8.700000 8.800000 8.900000 9.000000 9.100000 9.200000 9.300000 9.400000 9.500000 9.600000 9.700000 9.800000 9.900000 10.000000 10.100000 
Z_COORDINATES 1 double
0.0
POINT_DATA 10404
VECTORS Velocity double
0.000000e+00 0.000000e+00 0.0
1.562346e-05 0.000000e+00 0.0
-8.494992e-06 0.000000e+00 0.0
-3.095754e-05 0.000000e+00 0.0
-4.052514e-05 0.000000e+00 0.0
-3.282951e-05 0.000000e+00 0.0
-9.175494e-06 0.000000e+00 0.0
2.603152e-05 0.000000e+00 0.0
6.810378e-05 0.000000e+00 0.0
1.140733e-04 0.000000e+00 0.0
1.633229e-04 0.000000e+00 0.0
2.169913e-04 0.000000e+00 0.0
2.767643e-04 0.000000e+00 0.0
3.437489e-04 0.000000e+00 0.0
4.178890e-04 0.000000e+00 0.0
4.980191e-04 0.000000e+00 0.0
5.823576e-04 0.000000e+00 0.0
6.691189e-04 0.000000e+00 0.0
7.569736e-04 0.000000e+00 0.0
8.452249e-04 0.000000e+00 0.0
9.337206e-04 0.000000e+00 0.0
1.022609e-03 0.000000e+00 0.0
1.112071e-03 0.000000e+00 0.0
1.202117e-03 0.000000e+00 0.0
1.292506e-03 0.000000e+00 0.0
1.382771e-03 0.000000e+00 0.0
1.472309e-03 0.000000e+00 0.0
1.560508e-03 0.000000e+00 0.0
1.646845e-03 0.000000e+00 0.0
1.730950e-03 0.000000e+00 0.0
1.812611e-03 0.000000e+00 0.0
1.891737e-03 0.000000e+00 0.0
1.968296e-03 0.000000e+00 0.0
2.042251e-03 0.000000e+00 0.0
2.113505e-03 0.000000e+00 0.0
2.181887e-03 0.000000e+00 0.0
2.247150e-03 0.000000e+00 0.0
2.308995e-03 0.000000e+00 0.0
2.367105e-03 0.000000e+00 0.0
2.421171e-03 0.000000e+00 0.0
2.470917e-03 0.000000e+00 0.0
2.516115e-03 0.000000e+00 0.0
2.556585e-03 0.000000e+00 0.0
2.592194e-03 0.000000e+00 0.0
2.622840e-03 0.000000e+00 0.0
2.648442e-03 0.000000e+00 0.0
2.668917e-03 0.000000e+00 0.0
2.684174e-03 0.000000e+00 0.0
2.694107e-03 0.000000e+00 0.0
2.698594e-03 0.000000e+00 0.0
2.697518e-03 0.000000e+00 0.0
2.690782e-03 0.000000e+00 0.0
2.678322e-03 0.000000e+00 0.0
2.660110e-03 0.000000e+00 0.0
2.636160e-03 0.000000e+00 0.0
2.606525e-03 0.000000e+00 0.0
2.571291e-03 0.000000e+00 0.0
2.530568e-03 0.000000e+00 0.0
2.484490e-03 0.000000e+00 0.0
2.433207e-03 0.000000e+00 0.0
2.376884e-03 0.000000e+00 0.0
2.315710e-03 0.000000e+00 0.0
2.249895e-03 0.000000e+00 0.0
2.179676e-03 0.000000e+00 0.0
2.105320e-03 0.000000e+00 0.0
2.027123e-03 0.000000e+00 0.0
1.945406e-03 0.000000e+00 0.0
1.860516e-03 0.000000e+00 0.0
1.772817e-03 0.000000e+00 0.0
1.682694e-03 0.000000e+00 0.0
1.590547e-03 0.000000e+00 0.0
1.496792e-03 0.000000e+00 0.0
1.401858e-03 0.000000e+00 0.0
1.306189e-03 0.000000e+00 0.0
1.210240e-03 0.000000e+00 0.0
1.114478e-03 0.000000e+00 0.0
1.019379e-03 0.000000e+00 0.0
9.254260e-04 0.000000e+00 0.0
8.331057e-04 0.000000e+00 0.0
7.429084e-04 0.000000e+00 0.0
6.553240e-04 0.000000e+00 0.0
5.708400e-04 0.000000e+00 0.0
4.899393e-04 0.000000e+00 0.0
4.130980e-04 0.000000e+00 0.0
3.407823e-04 0.000000e+00 0.0
2.734466e-04 0.000000e+00 0.0
2.115292e-04 0.000000e+00 0.0
1.554485e-04 0.000000e+00 0.0
1.055977e-04 0.000000e+00 0.0
6.233710e-05 0.000000e+00 0.0
2.598418e-05 0.000000e+00 0.0
-3.201578e-06 0.000000e+00 0.0
-2.504050e-05 0.000000e+00 0.0
-3.946651e-05 0.000000e+00 0.0
-4.658050e-05 0.000000e+00 0.0
-4.673634e-05 0.000000e+00 0.0
-4.068582e-05 0.000000e+00 0.0
-2.981774e-05 0.000000e+00 0.0
-1.654405e-05 0.000000e+00 0.0
-4.792313e-06 0.000000e+00 0.0
-0.000000e+00 0.000000e+00 0.0
0.000000e+00 0.000000e+00 0.0
0.000000e+00 2.998346e-05 0.0
2.460959e-05 1.073248e-05 0.0
2.853358e-05 -5.100744e-06 0.0
2.554191e-05 -1.223480e-05 0.0
1.808722e-05 -1.219220e-05 0.0
7.668971e-06 -4.245526e-06 0.0
-6.466344e-06 9.549542e-06 0.0
-2.691604e-05 2.554196e-05 0.0
-5.662049e-05 4.006467e-05 0.0
-9.739952e-05 5.080691e-05 0.0
-1.492462e-04 5.735582e-05 0.0
-2.105237e-04 6.085090e-05 0.0
-2.787620e-04 6.311356e-05 0.0
-3.515724e-04 6.574390e-05 0.0
-4.272870e-04 6.955398e-05 0.0
-5.051543e-04 7.446436e-05 0.0
-5.851476e-04 7.977008e-05 0.0
-6.675718e-04 8.456898e-05 0.0
-7.526732e-04 8.814786e-05 0.0
-8.403865e-04 9.020100e-05 0.0
-9.302662e-04 9.085289e-05 0.0
-1.021573e-03 9.053093e-05 0.0
-1.113442e-03 8.976912e-05 0.0
-1.205062e-03 8.902162e-05 0.0
-1.295806e-03 8.854039e-05 0.0
-1.385283e-03 8.833979e-05 0.0
-1.473320e-03 8.823896e-05 0.0
-1.559887e-03 8.795368e-05 0.0
-1.644992e-03 8.720134e-05 0.0
-1.728601e-03 8.578626e-05 0.0
-1.810575e-03 8.364477e-05 0.0
-1.890662e-03 8.084580e-05 0.0
-1.968517e-03 7.755585e-05 0.0
-2.043745e-03 7.398523e-05 0.0
-2.115951e-03 7.033297e-05 0.0
-2.184783e-03 6.674376e-05 0.0
-2.249955e-03 6.328370e-05 0.0
-2.311257e-03 5.993649e-05 0.0
-2.368542e-03 5.661757e-05 0.0
-2.421715e-03 5.320148e-05 0.0
-2.470698e-03 4.955579e-05 0.0
-2.515408e-03 4.557412e-05 0.0
-2.555732e-03 4.120034e-05 0.0
-2.591518e-03 3.643833e-05 0.0
-2.622578e-03 3.134535e-05 0.0
-2.648696e-03 2.601192e-05 0.0
-2.669657e-03 2.053524e-05 0.0
-2.685263e-03 1.499487e-05 0.0
-2.695353e-03 9.437833e-06 0.0
-2.699812e-03 3.877069e-06 0.0
-2.698573e-03 -1.697474e-06 0.0
-2.691610e-03 -7.297731e-06 0.0
-2.678932e-03 -1.293411e-05 0.0
-2.660560e-03 -1.860500e-05 0.0
-2.636524e-03 -2.429022e-05 0.0
-2.606868e-03 -2.995391e-05 0.0
-2.571645e-03 -3.555250e-05 0.0
-2.530936e-03 -4.104381e-05 0.0
-2.484848e-03 -4.639357e-05 0.0
-2.433521e-03 -5.157771e-05 0.0
-2.377126e-03 -5.658053e-05 0.0
-2.315867e-03 -6.139012e-05 0.0
-2.249972e-03 -6.599338e-05 0.0
-2.179694e-03 -7.037214e-05 0.0
-2.105305e-03 -7.450174e-05 0.0
-2.027097e-03 -7.835195e-05 0.0
-1.945382e-03 -8.188984e-05 0.0
-1.860494e-03 -8.508320e-05 0.0
-1.772788e-03 -8.790351e-05 0.0
-1.682644e-03 -9.032762e-05 0.0
-1.590459e-03 -9.233777e-05 0.0
-1.496655e-03 -9.392073e-05 0.0
-1.401666e-03 -9.506635e-05 0.0
-1.305944e-03 -9.576609e-05 0.0
-1.209950e-03 -9.601192e-05 0.0
-1.114155e-03 -9.579597e-05 0.0
-1.019036e-03 -9.511051e-05 0.0
-9.250722e-04 -9.394800e-05 0.0
-8.327505e-04 -9.230208e-05 0.0
-7.425575e-04 -9.016834e-05 0.0
-6.549806e-04 -8.754492e-05 0.0
-5.705057e-04 -8.443290e-05 0.0
-4.896150e-04 -8.083642e-05 0.0
-4.127842e-04 -7.676261e-05 0.0
-3.404805e-04 -7.222153e-05 0.0
-2.731586e-04 -6.722625e-05 0.0
-2.112575e-04 -6.179318e-05 0.0
-1.551962e-04 -5.594276e-05 0.0
-1.053679e-04 -4.970063e-05 0.0
-6.213267e-05 -4.309953e-05 0.0
-2.580709e-05 -3.618241e-05 0.0
3.350204e-06 -2.900697e-05 0.0
2.516049e-05 -2.165305e-05 0.0
3.955869e-05 -1.423431e-05 0.0
4.664632e-05 -6.917898e-06 0.0
4.677837e-05 4.260752e-08 0.0
4.070676e-05 6.249741e-06 0.0
2.982163e-05 1.106513e-05 0.0
1.653610e-05 1.346701e-05 0.0
4.780011e-06 1.193793e-05 0.0
0.000000e+00 4.961873e-06 0.0
0.000000e+00 -4.955088e-06 0.0
0.000000e+00 2.858251e-05 0.0
1.737753e-05 -7.898013e-06 0.0
2.152517e-05 -2.748180e-05 0.0
1.905375e-05 -2.082553e-05 0.0
3.794241e-06 3.289949e-06 0.0
-2.919336e-05 3.832134e-05 0.0
-8.405095e-05 7.768614e-05 0.0
-1.635148e-04 1.159682e-04 0.0
-2.683834e-04 1.498781e-04 0.0
-3.975083e-04 1.784749e-04 0.0
-5.483388e-04 2.026034e-04 0.0
-7.177448e-04 2.238960e-04 0.0
-9.027654e-04 2.438120e-04 0.0
-1.101046e-03 2.630623e-04 0.0
-1.310910e-03 2.815190e-04 0.0
-1.531162e-03 2.984932e-04 0.0
-1.760797e-03 3.131617e-04 0.0
-1.998736e-03 3.249360e-04 0.0
-2.243702e-03 3.336545e-04 0.0
-2.494215e-03 3.395795e-04 0.0
-2.748682e-03 3.432528e-04 0.0
-3.005528e-03 3.452928e-04 0.0
-3.263315e-03 3.462127e-04 0.0
-3.520813e-03 3.463084e-04 0.0
-3.777016e-03 3.456331e-04 0.0
-4.031111e-03 3.440500e-04 0.0
-4.282408e-03 3.413276e-04 0.0
-4.530264e-03 3.372432e-04 0.0
-4.774027e-03 3.316635e-04 0.0
-5.012994e-03 3.245849e-04 0.0
-5.246409e-03 3.161289e-04 0.0
-5.473477e-03 3.065052e-04 0.0
-5.693400e-03 2.959561e-04 0.0
-5.905405e-03 2.847025e-04 0.0
-6.108773e-03 2.729017e-04 0.0
-6.302850e-03 2.606255e-04 0.0
-6.487050e-03 2.478589e-04 0.0
-6.660844e-03 2.345184e-04 0.0
-6.823746e-03 2.204835e-04 0.0
-6.975289e-03 2.056336e-04 0.0
-7.115004e-03 1.898827e-04 0.0
-7.242410e-03 1.732031e-04 0.0
-7.357007e-03 1.556314e-04 0.0
-7.458285e-03 1.372582e-04 0.0
-7.545740e-03 1.182040e-04 0.0
-7.618893e-03 9.859142e-05 0.0
-7.677310e-03 7.852163e-05 0.0
-7.720613e-03 5.806375e-05 0.0
-7.748487e-03 3.725805e-05 0.0
-7.760680e-03 1.613142e-05 0.0
-7.757004e-03 -5.280529e-06 0.0
-7.737338e-03 -2.690983e-05 0.0
-7.701618e-03 -4.867275e-05 0.0
-7.649839e-03 -7.047306e-05 0.0
-7.582054e-03 -9.220358e-05 0.0
-7.498379e-03 -1.137537e-04 0.0
-7.399002e-03 -1.350172e-04 0.0
-7.284182e-03 -1.558972e-04 0.0
-7.154256e-03 -1.763061e-04 0.0
-7.009632e-03 -1.961620e-04 0.0
-6.850794e-03 -2.153837e-04 0.0
-6.678293e-03 -2.338856e-04 0.0
-6.492747e-03 -2.515752e-04 0.0
-6.294843e-03 -2.683537e-04 0.0
-6.085329e-03 -2.841186e-04 0.0
-5.865024e-03 -2.987673e-04 0.0
-5.634808e-03 -3.122021e-04 0.0
-5.395628e-03 -3.243326e-04 0.0
-5.148491e-03 -3.350775e-04 0.0
-4.894463e-03 -3.443641e-04 0.0
-4.634662e-03 -3.521274e-04 0.0
-4.370254e-03 -3.583086e-04 0.0
-4.102450e-03 -3.628539e-04 0.0
-3.832493e-03 -3.657142e-04 0.0
-3.561664e-03 -3.668456e-04 0.0
-3.291264e-03 -3.662102e-04 0.0
-3.022617e-03 -3.637772e-04 0.0
-2.757064e-03 -3.595223e-04 0.0
-2.495955e-03 -3.534290e-04 0.0
-2.240644e-03 -3.454895e-04 0.0
-1.992485e-03 -3.357054e-04 0.0
-1.752822e-03 -3.240876e-04 0.0
-1.522987e-03 -3.106573e-04 0.0
-1.304283e-03 -2.954459e-04 0.0
-1.097986e-03 -2.784960e-04 0.0
-9.053237e-04 -2.598630e-04 0.0
-7.274726e-04 -2.396177e-04 0.0
-5.655376e-04 -2.178498e-04 0.0
-4.205353e-04 -1.946729e-04 0.0
-2.933691e-04 -1.702328e-04 0.0
-1.847964e-04 -1.447185e-04 0.0
-9.538368e-05 -1.183793e-04 0.0
-2.544283e-05 -9.155015e-05 0.0
2.505886e-05 -6.468971e-05 0.0
5.662829e-05 -3.843973e-05 0.0
7.043422e-05 -1.371522e-05 0.0
6.857033e-05 8.160774e-06 0.0
5.441384e-05 2.526819e-05 0.0
3.305337e-05 3.487296e-05 0.0
1.169843e-05 3.333789e-05 0.0
0.000000e+00 1.670498e-05 0.0
0.000000e+00 -1.670062e-05 0.0
0.000000e+00 2.213525e-05 0.0
3.829028e-06 -2.739534e-05 0.0
1.239339e-06 -3.609187e-05 0.0
-1.392022e-05 -4.971184e-06 0.0
-5.199815e-05 5.137662e-05 0.0
-1.209530e-04 1.204529e-04 0.0
-2.258797e-04 1.928237e-04 0.0
-3.686398e-04 2.625200e-04 0.0
-5.482261e-04 3.268834e-04 0.0
-7.617188e-04 3.856692e-04 0.0
-1.005424e-03 4.398058e-04 0.0
-1.275791e-03 4.902833e-04 0.0
-1.569873e-03 5.375012e-04 0.0
-1.885352e-03 5.811469e-04 0.0
-2.220285e-03 6.204614e-04 0.0
-2.572776e-03 6.546517e-04 0.0
-2.940749e-03 6.832358e-04 0.0
-3.321877e-03 7.062033e-04 0.0
-3.713646e-03 7.239798e-04 0.0
-4.113503e-03 7.372583e-04 0.0
-4.519014e-03 7.467854e-04 0.0
-4.927979e-03 7.531792e-04 0.0
-5.338485e-03 7.568266e-04 0.0
-5.748890e-03 7.578684e-04 0.0
-6.157766e-03 7.562587e-04 0.0
-6.563813e-03 7.518645e-04 0.0
-6.965783e-03 7.445671e-04 0.0
-7.362422e-03 7.343376e-04 0.0
-7.752450e-03 7.212695e-04 0.0
-8.134560e-03 7.055707e-04 0.0
-8.507451e-03 6.875226e-04 0.0
-8.869857e-03 6.674246e-04 0.0
-9.220582e-03 6.455406e-04 0.0
-9.558512e-03 6.220581e-04 0.0
-9.882625e-03 5.970700e-04 0.0
-1.019198e-02 5.705770e-04 0.0
-1.048571e-02 5.425112e-04 0.0
-1.076296e-02 5.127716e-04 0.0
-1.102292e-02 4.812652e-04 0.0
-1.126477e-02 4.479420e-04 0.0
-1.148767e-02 4.128161e-04 0.0
-1.169077e-02 3.759683e-04 0.0
-1.187324e-02 3.375303e-04 0.0
-1.203427e-02 2.976589e-04 0.0
-1.217311e-02 2.565070e-04 0.0
-1.228906e-02 2.142043e-04 0.0
-1.238153e-02 1.708516e-04 0.0
-1.244997e-02 1.265299e-04 0.0
-1.249393e-02 8.131932e-05 0.0
-1.251303e-02 3.532221e-05 0.0
-1.250697e-02 -1.131768e-05 0.0
-1.247555e-02 -5.840108e-05 0.0
-1.241863e-02 -1.057122e-04 0.0
-1.233621e-02 -1.530345e-04 0.0
-1.222837e-02 -2.001548e-04 0.0
-1.209531e-02 -2.468684e-04 0.0
-1.193734e-02 -2.929797e-04 0.0
-1.175490e-02 -3.383000e-04 0.0
-1.154852e-02 -3.826416e-04 0.0
-1.131885e-02 -4.258126e-04 0.0
-1.106664e-02 -4.676128e-04 0.0
-1.079277e-02 -5.078339e-04 0.0
-1.049819e-02 -5.462611e-04 0.0
-1.018399e-02 -5.826785e-04 0.0
-9.851348e-03 -6.168734e-04 0.0
-9.501563e-03 -6.486419e-04 0.0
-9.136028e-03 -6.777911e-04 0.0
-8.756242e-03 -7.041408e-04 0.0
-8.363795e-03 -7.275231e-04 0.0
-7.960366e-03 -7.477816e-04 0.0
-7.547714e-03 -7.647700e-04 0.0
-7.127671e-03 -7.783529e-04 0.0
-6.702135e-03 -7.884056e-04 0.0
-6.273061e-03 -7.948163e-04 0.0
-5.842456e-03 -7.974872e-04 0.0
-5.412366e-03 -7.963377e-04 0.0
-4.984871e-03 -7.913047e-04 0.0
-4.562075e-03 -7.823418e-04 0.0
-4.146097e-03 -7.694200e-04 0.0
-3.739060e-03 -7.525291e-04 0.0
-3.343082e-03 -7.316782e-04 0.0
-2.960261e-03 -7.068969e-04 0.0
-2.592666e-03 -6.782366e-04 0.0
-2.242322e-03 -6.457722e-04 0.0
-1.911195e-03 -6.096050e-04 0.0
-1.601170e-03 -5.698673e-04 0.0
-1.314037e-03 -5.267278e-04 0.0
-1.051459e-03 -4.804003e-04 0.0
-8.149454e-04 -4.311549e-04 0.0
-6.058064e-04 -3.793347e-04 0.0
-4.251042e-04 -3.253788e-04 0.0
-2.735824e-04 -2.698557e-04 0.0
-1.515731e-04 -2.135117e-04 0.0
-5.887446e-05 -1.573402e-04 0.0
5.415092e-06 -1.026817e-04 0.0
4.311196e-05 -5.136596e-05 0.0
5.722217e-05 -5.905307e-06 0.0
5.227309e-05 3.026025e-05 0.0
3.468689e-05 5.250112e-05 0.0
1.324215e-05 5.482447e-05 0.0
0.000000e+00 2.998888e-05 0.0
0.000000e+00 -2.998089e-05 0.0
0.000000e+00 1.406768e-05 0.0
-1.057395e-05 -3.726138e-05 0.0
-2.441175e-05 -2.206535e-05 0.0
-6.150750e-05 4.223115e-05 0.0
-1.336891e-04 1.367565e-04 0.0
-2.490300e-04 2.455084e-04 0.0
-4.113872e-04 3.579126e-04 0.0
-6.208189e-04 4.680372e-04 0.0
-8.747922e-04 5.733684e-04 0.0
-1.169622e-03 6.732647e-04 0.0
-1.501603e-03 7.676202e-04 0.0
-1.867570e-03 8.560686e-04 0.0
-2.264904e-03 9.377842e-04 0.0
-2.691226e-03 1.011704e-03 0.0
-3.144034e-03 1.076905e-03 0.0
-3.620478e-03 1.132914e-03 0.0
-4.117334e-03 1.179816e-03 0.0
-4.631149e-03 1.218182e-03 0.0
-5.158450e-03 1.248858e-03 0.0
-5.695948e-03 1.272736e-03 0.0
-6.240670e-03 1.290564e-03 0.0
-6.790004e-03 1.302851e-03 0.0
-7.341658e-03 1.309862e-03 0.0
-7.893584e-03 1.311682e-03 0.0
-8.443868e-03 1.308317e-03 0.0
-8.990654e-03 1.299796e-03 0.0
-9.532082e-03 1.286238e-03 0.0
-1.006628e-02 1.267874e-03 0.0
-1.059138e-02 1.245040e-03 0.0
-1.110554e-02 1.218124e-03 0.0
-1.160702e-02 1.187516e-03 0.0
-1.209418e-02 1.153550e-03 0.0
-1.256548e-02 1.116468e-03 0.0
-1.301954e-02 1.076404e-03 0.0
-1.345505e-02 1.033394e-03 0.0
-1.387081e-02 9.874027e-04 0.0
-1.426563e-02 9.383663e-04 0.0
-1.463834e-02 8.862367e-04 0.0
-1.498777e-02 8.310162e-04 0.0
-1.531274e-02 7.727751e-04 0.0
-1.561207e-02 7.116498e-04 0.0
-1.588460e-02 6.478215e-04 0.0
-1.612922e-02 5.814880e-04 0.0
-1.634489e-02 5.128363e-04 0.0
-1.653067e-02 4.420282e-04 0.0
-1.668571e-02 3.692011e-04 0.0
-1.680925e-02 2.944837e-04 0.0
-1.690061e-02 2.180188e-04 0.0
-1.695919e-02 1.399862e-04 0.0
-1.698451e-02 6.061855e-05 0.0
-1.697613e-02 -1.979164e-05 0.0
-1.693379e-02 -1.008907e-04 0.0
-1.685732e-02 -1.823186e-04 0.0
-1.674671e-02 -2.637280e-04 0.0
-1.660210e-02 -3.447844e-04 0.0
-1.642377e-02 -4.251620e-04 0.0
-1.621216e-02 -5.045382e-04 0.0
-1.596783e-02 -5.825852e-04 0.0
-1.569151e-02 -6.589653e-04 0.0
-1.538405e-02 -7.333283e-04 0.0
-1.504646e-02 -8.053132e-04 0.0
-1.467988e-02 -8.745535e-04 0.0
-1.428559e-02 -9.406827e-04 0.0
-1.386505e-02 -1.003341e-03 0.0
-1.341982e-02 -1.062180e-03 0.0
-1.295164e-02 -1.116865e-03 0.0
-1.246236e-02 -1.167078e-03 0.0
-1.195399e-02 -1.212514e-03 0.0
-1.142862e-02 -1.252885e-03 0.0
-1.088849e-02 -1.287917e-03 0.0
-1.033593e-02 -1.317354e-03 0.0
-9.773371e-03 -1.340957e-03 0.0
-9.203317e-03 -1.358511e-03 0.0
-8.628362e-03 -1.369825e-03 0.0
-8.051163e-03 -1.374735e-03 0.0
-7.474433e-03 -1.373107e-03 0.0
-6.900926e-03 -1.364838e-03 0.0
-6.333425e-03 -1.349857e-03 0.0
-5.774730e-03 -1.328118e-03 0.0
-5.227645e-03 -1.299611e-03 0.0
-4.694957e-03 -1.264358e-03 0.0
-4.179427e-03 -1.222418e-03 0.0
-3.683767e-03 -1.173886e-03 0.0
-3.210624e-03 -1.118904e-03 0.0
-2.762553e-03 -1.057660e-03 0.0
-2.341999e-03 -9.904015e-04 0.0
-1.951261e-03 -9.174398e-04 0.0
-1.592460e-03 -8.391688e-04 0.0
-1.267494e-03 -7.560817e-04 0.0
-9.779873e-04 -6.687980e-04 0.0
-7.252195e-04 -5.781000e-04 0.0
-5.100444e-04 -4.849835e-04 0.0
-3.327810e-04 -3.907286e-04 0.0
-1.930793e-04 -2.969976e-04 0.0
-8.975054e-05 -2.059686e-04 0.0
-2.056177e-05 -1.205150e-04 0.0
1.800818e-05 -4.443736e-05 0.0
3.105121e-05 1.725435e-05 0.0
2.556688e-05 5.802266e-05 0.0
1.095496e-05 6.947394e-05 0.0
0.000000e+00 4.098151e-05 0.0
0.000000e+00 -4.096656e-05 0.0
0.000000e+00 5.539108e-06 0.0
-2.056925e-05 -3.214917e-05 0.0
-5.080798e-05 1.803446e-05 0.0
-1.182130e-04 1.230947e-04 0.0
-2.332313e-04 2.615929e-04 0.0
-4.017961e-04 4.163764e-04 0.0
-6.254423e-04 5.767032e-04 0.0
-9.025130e-04 7.364708e-04 0.0
-1.229756e-03 8.923924e-04 0.0
-1.603653e-03 1.042414e-03 0.0
-2.021107e-03 1.184741e-03 0.0
-2.479488e-03 1.317517e-03 0.0
-2.976286e-03 1.438983e-03 0.0
-3.508705e-03 1.547790e-03 0.0
-4.073411e-03 1.643259e-03 0.0
-4.666528e-03 1.725428e-03 0.0
-5.283834e-03 1.794918e-03 0.0
-5.921047e-03 1.852678e-03 0.0
-6.574075e-03 1.899719e-03 0.0
-7.239192e-03 1.936918e-03 0.0
-7.913086e-03 1.964912e-03 0.0
-8.592814e-03 1.984107e-03 0.0
-9.275704e-03 1.994746e-03 0.0
-9.959239e-03 1.997008e-03 0.0
-1.064096e-02 1.991103e-03 0.0
-1.131842e-02 1.977332e-03 0.0
-1.198915e-02 1.956107e-03 0.0
-1.265072e-02 1.927929e-03 0.0
-1.330075e-02 1.893334e-03 0.0
-1.393699e-02 1.852839e-03 0.0
-1.455731e-02 1.806884e-03 0.0
-1.515978e-02 1.755795e-03 0.0
-1.574261e-02 1.699776e-03 0.0
-1.630414e-02 1.638921e-03 0.0
-1.684280e-02 1.573248e-03 0.0
-1.735708e-02 1.502753e-03 0.0
-1.784547e-02 1.427450e-03 0.0
-1.830645e-02 1.347412e-03 0.0
-1.873850e-02 1.262781e-03 0.0
-1.914011e-02 1.173760e-03 0.0
-1.950981e-02 1.080588e-03 0.0
-1.984618e-02 9.835112e-04 0.0
-2.014790e-02 8.827539e-04 0.0
-2.041377e-02 7.785138e-04 0.0
-2.064268e-02 6.709689e-04 0.0
-2.083364e-02 5.602996e-04 0.0
-2.098573e-02 4.467158e-04 0.0
-2.109813e-02 3.304795e-04 0.0
-2.117010e-02 2.119170e-04 0.0
-2.120102e-02 9.142074e-05 0.0
-2.119041e-02 -3.055517e-05 0.0
-2.113792e-02 -1.535007e-04 0.0
-2.104339e-02 -2.769082e-04 0.0
-2.090681e-02 -4.002863e-04 0.0
-2.072839e-02 -5.231519e-04 0.0
-2.050847e-02 -6.450196e-04 0.0
-2.024759e-02 -7.653929e-04 0.0
-1.994645e-02 -8.837588e-04 0.0
-1.960592e-02 -9.995870e-04 0.0
-1.922706e-02 -1.112334e-03 0.0
-1.881108e-02 -1.221451e-03 0.0
-1.835939e-02 -1.326388e-03 0.0
-1.787357e-02 -1.426606e-03 0.0
-1.735541e-02 -1.521577e-03 0.0
-1.680683e-02 -1.610788e-03 0.0
-1.622996e-02 -1.693743e-03 0.0
-1.562708e-02 -1.769963e-03 0.0
-1.500062e-02 -1.838987e-03 0.0
-1.435316e-02 -1.900374e-03 0.0
-1.368742e-02 -1.953706e-03 0.0
-1.300625e-02 -1.998595e-03 0.0
-1.231259e-02 -2.034680e-03 0.0
-1.160953e-02 -2.061639e-03 0.0
-1.090022e-02 -2.079189e-03 0.0
-1.018791e-02 -2.087091e-03 0.0
-9.475891e-03 -2.085147e-03 0.0
-8.767532e-03 -2.073210e-03 0.0
-8.066219e-03 -2.051175e-03 0.0
-7.375356e-03 -2.018982e-03 0.0
-6.698344e-03 -1.976622e-03 0.0
-6.038565e-03 -1.924135e-03 0.0
-5.399357e-03 -1.861622e-03 0.0
-4.783994e-03 -1.789242e-03 0.0
-4.195660e-03 -1.707226e-03 0.0
-3.637421e-03 -1.615880e-03 0.0
-3.112193e-03 -1.515602e-03 0.0
-2.622707e-03 -1.406892e-03 0.0
-2.171461e-03 -1.290374e-03 0.0
-1.760673e-03 -1.166826e-03 0.0
-1.392215e-03 -1.037211e-03 0.0
-1.067539e-03 -9.027320e-04 0.0
-7.875875e-04 -7.648941e-04 0.0
-5.526805e-04 -6.255980e-04 0.0
-3.623852e-04 -4.872585e-04 0.0
-2.153587e-04 -3.529626e-04 0.0
-1.091694e-04 -2.266731e-04 0.0
-4.009252e-05 -1.134832e-04 0.0
-2.878530e-06 -1.992810e-05 0.0
9.531422e-06 4.564550e-05 0.0
6.420845e-06 7.261792e-05 0.0
0.000000e+00 4.743583e-05 0.0
0.000000e+00 -4.741165e-05 0.0
0.000000e+00 -5.656767e-06 0.0
-2.568999e-05 -1.138718e-05 0.0
-7.764534e-05 8.384533e-05 0.0
-1.816856e-04 2.376782e-04 0.0
-3.447836e-04 4.274696e-04 0.0
-5.696598e-04 6.363341e-04 0.0
-8.555566e-04 8.534227e-04 0.0
-1.199802e-03 1.071760e-03 0.0
-1.599224e-03 1.286438e-03 0.0
-2.050952e-03 1.493458e-03 0.0
-2.552509e-03 1.689295e-03 0.0
-3.101465e-03 1.870957e-03 0.0
-3.694978e-03 2.036245e-03 0.0
-4.329502e-03 2.183935e-03 0.0
-5.000771e-03 2.313769e-03 0.0
-5.704021e-03 2.426239e-03 0.0
-6.434325e-03 2.522276e-03 0.0
-7.186907e-03 2.602934e-03 0.0
-7.957349e-03 2.669166e-03 0.0
-8.741672e-03 2.721720e-03 0.0
-9.536299e-03 2.761132e-03 0.0
-1.033795e-02 2.787804e-03 0.0
-1.114350e-02 2.802102e-03 0.0
-1.194992e-02 2.804438e-03 0.0
-1.275418e-02 2.795325e-03 0.0
-1.355325e-02 2.775384e-03 0.0
-1.434413e-02 2.745316e-03 0.0
-1.512389e-02 2.705846e-03 0.0
-1.588977e-02 2.657656e-03 0.0
-1.663918e-02 2.601329e-03 0.0
-1.736972e-02 2.537312e-03 0.0
-1.807921e-02 2.465911e-03 0.0
-1.876562e-02 2.387304e-03 0.0
-1.942701e-02 2.301594e-03 0.0
-2.006153e-02 2.208856e-03 0.0
-2.066733e-02 2.109191e-03 0.0
-2.124255e-02 2.002760e-03 0.0
-2.178535e-02 1.889794e-03 0.0
-2.229387e-02 1.770574e-03 0.0
-2.276633e-02 1.645410e-03 0.0
-2.320102e-02 1.514601e-03 0.0
-2.359634e-02 1.378417e-03 0.0
-2.395082e-02 1.237096e-03 0.0
-2.426309e-02 1.090860e-03 0.0
-2.453190e-02 9.399449e-04 0.0
-2.475609e-02 7.846296e-04 0.0
-2.493459e-02 6.252584e-04 0.0
-2.506643e-02 4.622506e-04 0.0
-2.515074e-02 2.960981e-04 0.0
-2.518681e-02 1.273569e-04 0.0
-2.517410e-02 -4.336128e-05 0.0
-2.511223e-02 -2.153895e-04 0.0
-2.500103e-02 -3.880594e-04 0.0
-2.484054e-02 -5.607077e-04 0.0
-2.463098e-02 -7.326632e-04 0.0
-2.437277e-02 -9.032368e-04 0.0
-2.406652e-02 -1.071716e-03 0.0
-2.371304e-02 -1.237367e-03 0.0
-2.331336e-02 -1.399440e-03 0.0
-2.286868e-02 -1.557177e-03 0.0
-2.238046e-02 -1.709821e-03 0.0
-2.185033e-02 -1.856621e-03 0.0
-2.128016e-02 -1.996839e-03 0.0
-2.067201e-02 -2.129751e-03 0.0
-2.002817e-02 -2.254648e-03 0.0
-1.935109e-02 -2.370840e-03 0.0
-1.864343e-02 -2.477654e-03 0.0
-1.790803e-02 -2.574444e-03 0.0
-1.714788e-02 -2.660593e-03 0.0
-1.636615e-02 -2.735518e-03 0.0
-1.556614e-02 -2.798680e-03 0.0
-1.475131e-02 -2.849585e-03 0.0
-1.392521e-02 -2.887791e-03 0.0
-1.309152e-02 -2.912911e-03 0.0
-1.225402e-02 -2.924618e-03 0.0
-1.141654e-02 -2.922645e-03 0.0
-1.058297e-02 -2.906788e-03 0.0
-9.757246e-03 -2.876909e-03 0.0
-8.943305e-03 -2.832931e-03 0.0
-8.145081e-03 -2.774851e-03 0.0
-7.366480e-03 -2.702739e-03 0.0
-6.611350e-03 -2.616748e-03 0.0
-5.883458e-03 -2.517124e-03 0.0
-5.186456e-03 -2.404208e-03 0.0
-4.523853e-03 -2.278455e-03 0.0
-3.898972e-03 -2.140447e-03 0.0
-3.314912e-03 -1.990912e-03 0.0
-2.774492e-03 -1.830753e-03 0.0
-2.280200e-03 -1.661079e-03 0.0
-1.834121e-03 -1.483254e-03 0.0
-1.437864e-03 -1.298958e-03 0.0
-1.092464e-03 -1.110267e-03 0.0
-7.982829e-04 -9.197545e-04 0.0
-5.548858e-04 -7.306323e-04 0.0
-3.609060e-04 -5.469188e-04 0.0
-2.138972e-04 -3.736567e-04 0.0
-1.101734e-04 -2.171804e-04 0.0
-4.463108e-05 -8.544203e-05 0.0
-1.054351e-05 1.158786e-05 0.0
7.097961e-07 6.139498e-05 0.0
0.000000e+00 4.817580e-05 0.0
0.000000e+00 -4.813875e-05 0.0
0.000000e+00 -2.385917e-05 0.0
-2.834646e-05 2.240648e-05 0.0
-1.063366e-04 1.734115e-04 0.0
-2.504172e-04 3.856993e-04 0.0
-4.632786e-04 6.362571e-04 0.0
-7.445472e-04 9.087602e-04 0.0
-1.091905e-03 1.191728e-03 0.0
-1.502440e-03 1.476619e-03 0.0
-1.973471e-03 1.756509e-03 0.0
-2.502685e-03 2.025540e-03 0.0
-3.087786e-03 2.278900e-03 0.0
-3.726006e-03 2.513024e-03 0.0
-4.413768e-03 2.725716e-03 0.0
-5.146633e-03 2.916068e-03 0.0
-5.919517e-03 3.084176e-03 0.0
-6.727046e-03 3.230750e-03 0.0
-7.563909e-03 3.356745e-03 0.0
-8.425108e-03 3.463099e-03 0.0
-9.306066e-03 3.550597e-03 0.0
-1.020261e-02 3.619869e-03 0.0
-1.111087e-02 3.671452e-03 0.0
-1.202715e-02 3.705882e-03 0.0
-1.294787e-02 3.723777e-03 0.0
-1.386942e-02 3.725873e-03 0.0
-1.478823e-02 3.713018e-03 0.0
-1.570075e-02 3.686143e-03 0.0
-1.660355e-02 3.646189e-03 0.0
-1.749333e-02 3.594041e-03 0.0
-1.836703e-02 3.530464e-03 0.0
-1.922180e-02 3.456063e-03 0.0
-2.005504e-02 3.371278e-03 0.0
-2.086433e-02 3.276410e-03 0.0
-2.164736e-02 3.171672e-03 0.0
-2.240194e-02 3.057247e-03 0.0
-2.312585e-02 2.933349e-03 0.0
-2.381692e-02 2.800248e-03 0.0
-2.447295e-02 2.658280e-03 0.0
-2.509178e-02 2.507823e-03 0.0
-2.567130e-02 2.349266e-03 0.0
-2.620952e-02 2.182974e-03 0.0
-2.670456e-02 2.009269e-03 0.0
-2.715467e-02 1.828437e-03 0.0
-2.755822e-02 1.640751e-03 0.0
-2.791370e-02 1.446505e-03 0.0
-2.821968e-02 1.246047e-03 0.0
-2.847483e-02 1.039803e-03 0.0
-2.867793e-02 8.282802e-04 0.0
-2.882788e-02 6.120651e-04 0.0
-2.892370e-02 3.918107e-04 0.0
-2.896463e-02 1.682291e-04 0.0
-2.895006e-02 -5.790869e-05 0.0
-2.887963e-02 -2.857644e-04 0.0
-2.875314e-02 -5.144789e-04 0.0
-2.857065e-02 -7.431781e-04 0.0
-2.833239e-02 -9.709621e-04 0.0
-2.803884e-02 -1.196902e-03 0.0
-2.769068e-02 -1.420041e-03 0.0
-2.728883e-02 -1.639404e-03 0.0
-2.683444e-02 -1.854006e-03 0.0
-2.632890e-02 -2.062858e-03 0.0
-2.577384e-02 -2.264977e-03 0.0
-2.517113e-02 -2.459386e-03 0.0
-2.452288e-02 -2.645119e-03 0.0
-2.383144e-02 -2.821224e-03 0.0
-2.309936e-02 -2.986763e-03 0.0
-2.232944e-02 -3.140820e-03 0.0
-2.152466e-02 -3.282507e-03 0.0
-2.068823e-02 -3.410968e-03 0.0
-1.982352e-02 -3.525392e-03 0.0
-1.893410e-02 -3.625017e-03 0.0
-1.802370e-02 -3.709140e-03 0.0
-1.709622e-02 -3.777119e-03 0.0
-1.615567e-02 -3.828378e-03 0.0
-1.520619e-02 -3.862414e-03 0.0
-1.425203e-02 -3.878802e-03 0.0
-1.329750e-02 -3.877193e-03 0.0
-1.234698e-02 -3.857326e-03 0.0
-1.140488e-02 -3.819023e-03 0.0
-1.047563e-02 -3.762196e-03 0.0
-9.563632e-03 -3.686854e-03 0.0
-8.673262e-03 -3.593106e-03 0.0
-7.808822e-03 -3.481177e-03 0.0
-6.974513e-03 -3.351411e-03 0.0
-6.174403e-03 -3.204288e-03 0.0
-5.412389e-03 -3.040434e-03 0.0
-4.692152e-03 -2.860648e-03 0.0
-4.017112e-03 -2.665919e-03 0.0
-3.390372e-03 -2.457464e-03 0.0
-2.814661e-03 -2.236767e-03 0.0
-2.292263e-03 -2.005634e-03 0.0
-1.824941e-03 -1.766266e-03 0.0
-1.413851e-03 -1.521343e-03 0.0
-1.059446e-03 -1.274145e-03 0.0
-7.613711e-04 -1.028690e-03 0.0
-5.183511e-04 -7.899184e-04 0.0
-3.280768e-04 -5.639071e-04 0.0
-1.870890e-04 -3.581423e-04 0.0
-9.065914e-05 -1.818442e-04 0.0
-3.267391e-05 -4.636879e-05 0.0
-5.518698e-06 3.426825e-05 0.0
0.000000e+00 4.268510e-05 0.0
0.000000e+00 -4.262966e-05 0.0
0.000000e+00 -5.331755e-05 0.0
-3.171508e-05 6.541438e-05 0.0
-1.379323e-04 2.849019e-04 0.0
-3.224108e-04 5.674120e-04 0.0
-5.839704e-04 8.899596e-04 0.0
-9.200092e-04 1.236304e-03 0.0
-1.327499e-03 1.593743e-03 0.0
-1.803712e-03 1.951879e-03 0.0
-2.346334e-03 2.301965e-03 0.0
-2.953104e-03 2.636827e-03 0.0
-3.621295e-03 2.951021e-03 0.0
-4.347339e-03 3.240908e-03 0.0
-5.126733e-03 3.504521e-03 0.0
-5.954227e-03 3.741214e-03 0.0
-6.824170e-03 3.951205e-03 0.0
-7.730880e-03 4.135144e-03 0.0
-8.668908e-03 4.293794e-03 0.0
-9.633176e-03 4.427873e-03 0.0
-1.061898e-02 4.538020e-03 0.0
-1.162191e-02 4.624850e-03 0.0
-1.263773e-02 4.689035e-03 0.0
-1.366231e-02 4.731371e-03 0.0
-1.469151e-02 4.752806e-03 0.0
-1.572124e-02 4.754423e-03 0.0
-1.674744e-02 4.737391e-03 0.0
-1.776615e-02 4.702892e-03 0.0
-1.877359e-02 4.652041e-03 0.0
-1.976621e-02 4.585816e-03 0.0
-2.074073e-02 4.505015e-03 0.0
-2.169411e-02 4.410252e-03 0.0
-2.262354e-02 4.301983e-03 0.0
-2.352634e-02 4.180564e-03 0.0
-2.439994e-02 4.046320e-03 0.0
-2.524180e-02 3.899601e-03 0.0
-2.604936e-02 3.740812e-03 0.0
-2.682012e-02 3.570415e-03 0.0
-2.755159e-02 3.388903e-03 0.0
-2.824135e-02 3.196758e-03 0.0
-2.888712e-02 2.994424e-03 0.0
-2.948675e-02 2.782286e-03 0.0
-3.003821e-02 2.560687e-03 0.0
-3.053961e-02 2.329959e-03 0.0
-3.098916e-02 2.090458e-03 0.0
-3.138516e-02 1.842604e-03 0.0
-3.172603e-02 1.586900e-03 0.0
-3.201026e-02 1.323937e-03 0.0
-3.223648e-02 1.054389e-03 0.0
-3.240350e-02 7.789967e-04 0.0
-3.251027e-02 4.985665e-04 0.0
-3.255596e-02 2.139694e-04 0.0
-3.253995e-02 -7.384615e-05 0.0
-3.246183e-02 -3.638388e-04 0.0
-3.232140e-02 -6.549210e-04 0.0
-3.211869e-02 -9.459709e-04 0.0
-3.185398e-02 -1.235830e-03 0.0
-3.152777e-02 -1.523310e-03 0.0
-3.114082e-02 -1.807195e-03 0.0
-3.069414e-02 -2.086258e-03 0.0
-3.018901e-02 -2.359264e-03 0.0
-2.962697e-02 -2.624974e-03 0.0
-2.900985e-02 -2.882152e-03 0.0
-2.833971e-02 -3.129566e-03 0.0
-2.761889e-02 -3.365990e-03 0.0
-2.684996e-02 -3.590212e-03 0.0
-2.603576e-02 -3.801040e-03 0.0
-2.517937e-02 -3.997309e-03 0.0
-2.428408e-02 -4.177894e-03 0.0
-2.335342e-02 -4.341717e-03 0.0
-2.239113e-02 -4.487757e-03 0.0
-2.140115e-02 -4.615058e-03 0.0
-2.038760e-02 -4.722737e-03 0.0
-1.935476e-02 -4.809987e-03 0.0
-1.830708e-02 -4.876088e-03 0.0
-1.724912e-02 -4.920406e-03 0.0
-1.618555e-02 -4.942405e-03 0.0
-1.512111e-02 -4.941653e-03 0.0
-1.406064e-02 -4.917824e-03 0.0
-1.300897e-02 -4.870706e-03 0.0