# vtk DataFile Version 3.0
Vector Field
ASCII
DATASET RECTILINEAR_GRID
DIMENSIONS 102 102 1
X_COORDINATES 102 double
0.000000 0.100000 0.200000 0.300000 0.400000 0.500000 0.600000 0.700000 0.800000 0.900000 1.000000 1.100000 1.200000 1.300000 1.400000 1.500000 1.600000 1.700000 1.800000 1.900000 2.000000 2.100000 2.200000 2.300000 2.400000 2.500000 2.600000 2.700000 2.800000 2.900000 3.000000 3.100000 3.200000 3.300000 3.400000 3.500000 3.600000 3.700000 3.800000 3.900000 4.000000 4.100000 4.200000 4.300000 4.400000 4.500000 4.600000 4.700000 4.800000 4.900000 5.000000 5.100000 5.200000 5.300000 5.400000 5.500000 5.600000 5.700000 5.800000 5.900000 6.000000 6.100000 6.200000 6.300000 6.400000 6.500000 6.600000 6.700000 6.800000 6.900000 7.000000 7.100000 7.200000 7.300000 7.400000 7.500000 7.600000 7.700000 7.800000 7.900000 8.000000 8.100000 8.200000 8.300000 8.400000 8.500000 8.600000 8.700000 8.800000 8.900000 9.000000 9.100000 9.200000 9.300000 9.400000 9.500000 9.600000 9.700000 9.800000 9.900000 10.000000 10.100000 
Y_COORDINATES 102 double
0.000000 0.100000 0.200000 0.300000 0.400000 0.500000 0.600000 0.700000 0.800000 0.900000 1.000000 1.100000 1.200000 1.300000 1.400000 1.500000 1.600000 1.700000 1.800000 1.900000 2.000000 2.100000 2.200000 2.300000 2.400000 2.500000 2.600000 2.700000 2.800000 2.900000 3.000000 3.100000 3.200000 3.300000 3.400000 3.500000 3.600000 3.700000 3.800000 3.900000 4.000000 4.100000 4.200000 4.300000 4.400000 4.500000 4.600000 4.700000 4.800000 4.900000 5.000000 5.100000 5.200000 5.300000 5.400000 5.500000 5.600000 5.700000 5.800000 5.900000 6.000000 6.100000 6.200000 6.300000 6.400000 6.500000 6.600000 6.700000 6.800000 6.900000 7.000000 7.100000 7.200000 7.300000 7.400000 7.500000 7.600000 7.700000 7.800000 7.900000 8.000000 8.100000 8.200000 8.300000 8.400000 8.500000 8.600000 8.700000 8.800000 8.900000 9.000000 9.100000 9.200000 9.300000 9.400000 9.500000 9.600000 9.700000 9.800000 9.900000 10.000000 10.100000 
Z_COORDINATES 1 double
0.0
POINT_DATA 10404
VECTORS Velocity double
0.000000e+00 0.000000e+00 0.0
3.313154e-06 0.000000e+00 0.0
-1.476984e-05 0.000000e+00 0.0
-3.651147e-05 0.000000e+00 0.0
-5.151504e-05 0.000000e+00 0.0
-5.293964e-05 0.000000e+00 0.0
-3.769850e-05 0.000000e+00 0.0
-6.085244e-06 0.000000e+00 0.0
3.958399e-05 0.000000e+00 0.0
9.672398e-05 0.000000e+00 0.0
1.637390e-04 0.000000e+00 0.0
2.402451e-04 0.000000e+00 0.0
3.263824e-04 0.000000e+00 0.0
4.218503e-04 0.000000e+00 0.0
5.253572e-04 0.000000e+00 0.0
6.348066e-04 0.000000e+00 0.0
7.480381e-04 0.000000e+00 0.0
8.636147e-04 0.000000e+00 0.0
9.811769e-04 0.000000e+00 0.0
1.101186e-03 0.000000e+00 0.0
1.224256e-03 0.000000e+00 0.0
1.350475e-03 0.000000e+00 0.0
1.479088e-03 0.000000e+00 0.0
1.608651e-03 0.000000e+00 0.0
1.737522e-03 0.000000e+00 0.0
1.864389e-03 0.000000e+00 0.0
1.988563e-03 0.000000e+00 0.0
2.109937e-03 0.000000e+00 0.0
2.228691e-03 0.000000e+00 0.0
2.344930e-03 0.000000e+00 0.0
2.458447e-03 0.000000e+00 0.0
2.568688e-03 0.000000e+00 0.0
2.674904e-03 0.000000e+00 0.0
2.776367e-03 0.000000e+00 0.0
2.872534e-03 0.000000e+00 0.0
2.963095e-03 0.000000e+00 0.0
3.047896e-03 0.000000e+00 0.0
3.126814e-03 0.000000e+00 0.0
3.199626e-03 0.000000e+00 0.0
3.265961e-03 0.000000e+00 0.0
3.325316e-03 0.000000e+00 0.0
3.377141e-03 0.000000e+00 0.0
3.420932e-03 0.000000e+00 0.0
3.456296e-03 0.000000e+00 0.0
3.482980e-03 0.000000e+00 0.0
3.500848e-03 0.000000e+00 0.0
3.509835e-03 0.000000e+00 0.0
3.509903e-03 0.000000e+00 0.0
3.501025e-03 0.000000e+00 0.0
3.483173e-03 0.000000e+00 0.0
3.456327e-03 0.000000e+00 0.0
3.420487e-03 0.000000e+00 0.0
3.375711e-03 0.000000e+00 0.0
3.322127e-03 0.000000e+00 0.0
3.259942e-03 0.000000e+00 0.0
3.189441e-03 0.000000e+00 0.0
3.110969e-03 0.000000e+00 0.0
3.024922e-03 0.000000e+00 0.0
2.931732e-03 0.000000e+00 0.0
2.831861e-03 0.000000e+00 0.0
2.725798e-03 0.000000e+00 0.0
2.614061e-03 0.000000e+00 0.0
2.497202e-03 0.000000e+00 0.0
2.375810e-03 0.000000e+00 0.0
2.250510e-03 0.000000e+00 0.0
2.121963e-03 0.000000e+00 0.0
1.990860e-03 0.000000e+00 0.0
1.857912e-03 0.000000e+00 0.0
1.723846e-03 0.000000e+00 0.0
1.589393e-03 0.000000e+00 0.0
1.455287e-03 0.000000e+00 0.0
1.322252e-03 0.000000e+00 0.0
1.191010e-03 0.000000e+00 0.0
1.062270e-03 0.000000e+00 0.0
9.367340e-04 0.000000e+00 0.0
8.150865e-04 0.000000e+00 0.0
6.979949e-04 0.000000e+00 0.0
5.861031e-04 0.000000e+00 0.0
4.800258e-04 0.000000e+00 0.0
3.803435e-04 0.000000e+00 0.0
2.875970e-04 0.000000e+00 0.0
2.022828e-04 0.000000e+00 0.0
1.248475e-04 0.000000e+00 0.0
5.568363e-05 0.000000e+00 0.0
-4.876332e-06 0.000000e+00 0.0
-5.656594e-05 0.000000e+00 0.0
-9.919283e-05 0.000000e+00 0.0
-1.326487e-04 0.000000e+00 0.0
-1.569213e-04 0.000000e+00 0.0
-1.721097e-04 0.000000e+00 0.0
-1.784448e-04 0.000000e+00 0.0
-1.763169e-04 0.000000e+00 0.0
-1.663123e-04 0.000000e+00 0.0
-1.492646e-04 0.000000e+00 0.0
-1.263283e-04 0.000000e+00 0.0
-9.908346e-05 0.000000e+00 0.0
-6.968499e-05 0.000000e+00 0.0
-4.105612e-05 0.000000e+00 0.0
-1.706124e-05 0.000000e+00 0.0
-2.299919e-06 0.000000e+00 0.0
-0.000000e+00 0.000000e+00 0.0
0.000000e+00 0.000000e+00 0.0
0.000000e+00 2.313478e-05 0.0
1.734046e-05 -2.817605e-06 0.0
3.546550e-05 -1.426025e-05 0.0
4.900273e-05 -1.494084e-05 0.0
5.422394e-05 -8.601686e-06 0.0
4.922364e-05 2.746976e-06 0.0
3.237186e-05 1.648665e-05 0.0
2.119608e-06 3.009021e-05 0.0
-4.224448e-05 4.198070e-05 0.0
-9.996289e-05 5.207851e-05 0.0
-1.689573e-04 6.150194e-05 0.0
-2.467209e-04 7.158714e-05 0.0
-3.313908e-04 8.286355e-05 0.0
-4.223456e-04 9.461537e-05 0.0
-5.200158e-04 1.052523e-04 0.0
-6.250882e-04 1.132064e-04 0.0
-7.376248e-04 1.177873e-04 0.0
-8.566041e-04 1.195082e-04 0.0
-9.800992e-04 1.197498e-04 0.0
-1.105924e-03 1.200120e-04 0.0
-1.232350e-03 1.212005e-04 0.0
-1.358503e-03 1.233147e-04 0.0
-1.484306e-03 1.256352e-04 0.0
-1.610049e-03 1.272349e-04 0.0
-1.735890e-03 1.274940e-04 0.0
-1.861538e-03 1.263587e-04 0.0
-1.986241e-03 1.242587e-04 0.0
-2.109027e-03 1.217898e-04 0.0
-2.229017e-03 1.193697e-04 0.0
-2.345637e-03 1.170464e-04 0.0
-2.458645e-03 1.145302e-04 0.0
-2.567989e-03 1.113931e-04 0.0
-2.673592e-03 1.073107e-04 0.0
-2.775189e-03 1.022208e-04 0.0
-2.872277e-03 9.633686e-05 0.0
-2.964181e-03 9.003321e-05 0.0
-3.050194e-03 8.367352e-05 0.0
-3.129712e-03 7.746638e-05 0.0
-3.202312e-03 7.140518e-05 0.0
-3.267747e-03 6.530299e-05 0.0
-3.325880e-03 5.889212e-05 0.0
-3.376595e-03 5.193788e-05 0.0
-3.419724e-03 4.432083e-05 0.0
-3.455009e-03 3.606310e-05 0.0
-3.482117e-03 2.730101e-05 0.0
-3.500687e-03 1.822544e-05 0.0
-3.510387e-03 9.019067e-06 0.0
-3.510966e-03 -1.852622e-07 0.0
-3.502293e-03 -9.310327e-06 0.0
-3.484357e-03 -1.833390e-05 0.0
-3.457234e-03 -2.727717e-05 0.0
-3.421060e-03 -3.616338e-05 0.0
-3.376005e-03 -4.499133e-05 0.0
-3.322263e-03 -5.372519e-05 0.0
-3.260051e-03 -6.229895e-05 0.0
-3.189618e-03 -7.062988e-05 0.0
-3.111251e-03 -7.863439e-05 0.0
-3.025290e-03 -8.624069e-05 0.0
-2.932131e-03 -9.339524e-05 0.0
-2.832226e-03 -1.000624e-04 0.0
-2.726079e-03 -1.062193e-04 0.0
-2.614236e-03 -1.118481e-04 0.0
-2.497281e-03 -1.169293e-04 0.0
-2.375827e-03 -1.214372e-04 0.0
-2.250508e-03 -1.253398e-04 0.0
-2.121979e-03 -1.286010e-04 0.0
-1.990917e-03 -1.311850e-04 0.0
-1.858012e-03 -1.330612e-04 0.0
-1.723975e-03 -1.342074e-04 0.0
-1.589528e-03 -1.346119e-04 0.0
-1.455401e-03 -1.342730e-04 0.0
-1.322328e-03 -1.331969e-04 0.0
-1.191039e-03 -1.313941e-04 0.0
-1.062255e-03 -1.288775e-04 0.0
-9.366843e-04 -1.256618e-04 0.0
-8.150147e-04 -1.217634e-04 0.0
-6.979128e-04 -1.172013e-04 0.0
-5.860187e-04 -1.119982e-04 0.0
-4.799427e-04 -1.061815e-04 0.0
-3.802611e-04 -9.978404e-05 0.0
-2.875126e-04 -9.284450e-05 0.0
-2.021931e-04 -8.540717e-05 0.0
-1.247505e-04 -7.752180e-05 0.0
-5.557908e-05 -6.924349e-05 0.0
4.986542e-06 -6.063287e-05 0.0
5.667859e-05 -5.175664e-05 0.0
9.930410e-05 -4.268920e-05 0.0
1.327549e-04 -3.351465e-05 0.0
1.570195e-04 -2.432885e-05 0.0
1.721978e-04 -1.524283e-05 0.0
1.785217e-04 -6.388354e-06 0.0
1.763821e-04 2.075494e-06 0.0
1.663657e-04 9.952773e-06 0.0
1.493065e-04 1.699601e-05 0.0
1.263591e-04 2.288443e-05 0.0
9.910400e-05 2.719212e-05 0.0
6.969642e-05 2.934444e-05 0.0
4.106005e-05 2.857299e-05 0.0
1.706046e-05 2.393597e-05 0.0
2.298432e-06 1.469833e-05 0.0
0.000000e+00 2.234749e-06 0.0
0.000000e+00 -2.236030e-06 0.0
0.000000e+00 4.246723e-05 0.0
2.311901e-05 -2.197325e-05 0.0
4.731810e-05 -4.344617e-05 0.0
6.229074e-05 -3.312356e-05 0.0
5.685083e-05 -2.945398e-06 0.0
2.322848e-05 3.854718e-05 0.0
-4.343969e-05 8.439612e-05 0.0
-1.451072e-04 1.301472e-04 0.0
-2.810285e-04 1.739585e-04 0.0
-4.485649e-04 2.159167e-04 0.0
-6.444174e-04 2.567490e-04 0.0
-8.657385e-04 2.965853e-04 0.0
-1.110618e-03 3.344128e-04 0.0
-1.377818e-03 3.684329e-04 0.0
-1.666047e-03 3.969887e-04 0.0
-1.973306e-03 4.194383e-04 0.0
-2.296685e-03 4.364534e-04 0.0
-2.632704e-03 4.496145e-04 0.0
-2.977961e-03 4.605906e-04 0.0
-3.329694e-03 4.703880e-04 0.0
-3.685986e-03 4.790503e-04 0.0
-4.045566e-03 4.858952e-04 0.0
-4.407376e-03 4.900737e-04 0.0
-4.770163e-03 4.911018e-04 0.0
-5.132311e-03 4.890966e-04 0.0
-5.491935e-03 4.846482e-04 0.0
-5.847138e-03 4.784599e-04 0.0
-6.196263e-03 4.709882e-04 0.0
-6.538002e-03 4.622695e-04 0.0
-6.871335e-03 4.519910e-04 0.0
-7.195350e-03 4.397290e-04 0.0
-7.509059e-03 4.252076e-04 0.0
-7.811294e-03 4.084489e-04 0.0
-8.100711e-03 3.897594e-04 0.0
-8.375889e-03 3.695849e-04 0.0
-8.635463e-03 3.483214e-04 0.0
-8.878213e-03 3.261712e-04 0.0
-9.103105e-03 3.031008e-04 0.0
-9.309250e-03 2.789007e-04 0.0
-9.495835e-03 2.533054e-04 0.0
-9.662052e-03 2.261173e-04 0.0
-9.807055e-03 1.972855e-04 0.0
-9.929961e-03 1.669205e-04 0.0
-1.002988e-02 1.352524e-04 0.0
-1.010599e-02 1.025617e-04 0.0
-1.015757e-02 6.911403e-05 0.0
-1.018403e-02 3.512315e-05 0.0
-1.018499e-02 7.525783e-07 0.0
-1.016023e-02 -3.384784e-05 0.0
-1.010972e-02 -6.853416e-05 0.0
-1.003356e-02 -1.031742e-04 0.0
-9.931986e-03 -1.376135e-04 0.0
-9.805349e-03 -1.716639e-04 0.0
-9.654118e-03 -2.051110e-04 0.0
-9.478888e-03 -2.377297e-04 0.0
-9.280392e-03 -2.693013e-04 0.0
-9.059500e-03 -2.996258e-04 0.0
-8.817225e-03 -3.285265e-04 0.0
-8.554711e-03 -3.558481e-04 0.0
-8.273227e-03 -3.814500e-04 0.0
-7.974161e-03 -4.051990e-04 0.0
-7.659001e-03 -4.269631e-04 0.0
-7.329333e-03 -4.466094e-04 0.0
-6.986830e-03 -4.640059e-04 0.0
-6.633244e-03 -4.790260e-04 0.0
-6.270402e-03 -4.915544e-04 0.0
-5.900193e-03 -5.014928e-04 0.0
-5.524562e-03 -5.087637e-04 0.0
-5.145499e-03 -5.133123e-04 0.0
-4.765023e-03 -5.151059e-04 0.0
-4.385167e-03 -5.141330e-04 0.0
-4.007964e-03 -5.104006e-04 0.0
-3.635438e-03 -5.039284e-04 0.0
-3.269584e-03 -4.947488e-04 0.0
-2.912365e-03 -4.829079e-04 0.0
-2.565693e-03 -4.684667e-04 0.0
-2.231423e-03 -4.515029e-04 0.0
-1.911337e-03 -4.321114e-04 0.0
-1.607132e-03 -4.104060e-04 0.0
-1.320411e-03 -3.865188e-04 0.0
-1.052663e-03 -3.606008e-04 0.0
-8.052555e-04 -3.328222e-04 0.0
-5.794128e-04 -3.033726e-04 0.0
-3.762045e-04 -2.724627e-04 0.0
-1.965253e-04 -2.403262e-04 0.0
-4.107567e-05 -2.072232e-04 0.0
8.966121e-05 -1.734449e-04 0.0
1.954467e-04 -1.393196e-04 0.0
2.763235e-04 -1.052249e-04 0.0
3.326550e-04 -7.159280e-05 0.0
3.651783e-04 -3.892923e-05 0.0
3.750712e-04 -7.834510e-06 0.0
3.640384e-04 2.096874e-05 0.0
3.344209e-04 4.659661e-05 0.0
2.893353e-04 6.795272e-05 0.0
2.328437e-04 8.366629e-05 0.0
1.701366e-04 9.203400e-05 0.0
1.076728e-04 9.101909e-05 0.0
5.311727e-05 7.847395e-05 0.0
1.474842e-05 5.304976e-05 0.0
0.000000e+00 1.696583e-05 0.0
0.000000e+00 -1.696805e-05 0.0
0.000000e+00 5.403136e-05 0.0
1.821178e-05 -4.142361e-05 0.0
3.321524e-05 -6.161987e-05 0.0
2.930598e-05 -2.865018e-05 0.0
-8.389522e-06 3.723153e-05 0.0
-9.000233e-05 1.214167e-04 0.0
-2.210499e-04 2.135739e-04 0.0
-4.028562e-04 3.077152e-04 0.0
-6.337546e-04 4.011051e-04 0.0
-9.107208e-04 4.925698e-04 0.0
-1.230752e-03 5.809414e-04 0.0
-1.591452e-03 6.643111e-04 0.0
-1.990748e-03 7.402848e-04 0.0
-2.426163e-03 8.068680e-04 0.0
-2.894210e-03 8.633037e-04 0.0
-3.390353e-03 9.103107e-04 0.0
-3.909530e-03 9.495960e-04 0.0
-4.446921e-03 9.829605e-04 0.0
-4.998539e-03 1.011511e-03 0.0
-5.561357e-03 1.035375e-03 0.0
-6.132993e-03 1.053974e-03 0.0
-6.711200e-03 1.066620e-03 0.0
-7.293467e-03 1.073052e-03 0.0
-7.876911e-03 1.073634e-03 0.0
-8.458463e-03 1.069171e-03 0.0
-9.035189e-03 1.060516e-03 0.0
-9.604536e-03 1.048205e-03 0.0
-1.016439e-02 1.032306e-03 0.0
-1.071296e-02 1.012535e-03 0.0
-1.124850e-02 9.885299e-04 0.0
-1.176917e-02 9.601196e-04 0.0
-1.227293e-02 9.274555e-04 0.0
-1.275757e-02 8.909667e-04 0.0
-1.322091e-02 8.511849e-04 0.0
-1.366088e-02 8.085428e-04 0.0
-1.407564e-02 7.632401e-04 0.0
-1.446357e-02 7.152257e-04 0.0
-1.482318e-02 6.642860e-04 0.0
-1.515303e-02 6.101850e-04 0.0
-1.545170e-02 5.527932e-04 0.0
-1.571769e-02 4.921579e-04 0.0
-1.594949e-02 4.285024e-04 0.0
-1.614565e-02 3.621694e-04 0.0
-1.630483e-02 2.935436e-04 0.0
-1.642586e-02 2.229882e-04 0.0
-1.650777e-02 1.508167e-04 0.0
-1.654981e-02 7.730501e-05 0.0
-1.655145e-02 2.734148e-06 0.0
-1.651239e-02 -7.255167e-05 0.0
-1.643254e-02 -1.481524e-04 0.0
-1.631201e-02 -2.236571e-04 0.0
-1.615111e-02 -2.986321e-04 0.0
-1.595036e-02 -3.726285e-04 0.0
-1.571050e-02 -4.451981e-04 0.0
-1.543248e-02 -5.159091e-04 0.0
-1.511748e-02 -5.843557e-04 0.0
-1.476691e-02 -6.501598e-04 0.0
-1.438237e-02 -7.129670e-04 0.0
-1.396567e-02 -7.724386e-04 0.0
-1.351880e-02 -8.282458e-04 0.0
-1.304391e-02 -8.800654e-04 0.0
-1.254334e-02 -9.275807e-04 0.0
-1.201956e-02 -9.704866e-04 0.0
-1.147519e-02 -1.008497e-03 0.0
-1.091298e-02 -1.041350e-03 0.0
-1.033581e-02 -1.068820e-03 0.0
-9.746647e-03 -1.090715e-03 0.0
-9.148551e-03 -1.106886e-03 0.0
-8.544650e-03 -1.117219e-03 0.0
-7.938111e-03 -1.121641e-03 0.0
-7.332127e-03 -1.120117e-03 0.0
-6.729888e-03 -1.112649e-03 0.0
-6.134568e-03 -1.099269e-03 0.0
-5.549304e-03 -1.080042e-03 0.0
-4.977177e-03 -1.055065e-03 0.0
-4.421197e-03 -1.024475e-03 0.0
-3.884278e-03 -9.884442e-04 0.0
-3.369222e-03 -9.471830e-04 0.0
-2.878696e-03 -9.009418e-04 0.0
-2.415212e-03 -8.500098e-04 0.0
-1.981105e-03 -7.947161e-04 0.0
-1.578507e-03 -7.354310e-04 0.0
-1.209326e-03 -6.725684e-04 0.0
-8.752177e-04 -6.065891e-04 0.0
-5.775577e-04 -5.380065e-04 0.0
-3.174093e-04 -4.673929e-04 0.0
-9.548614e-05 -3.953891e-04 0.0
8.789074e-05 -3.227165e-04 0.0
2.328399e-04 -2.501929e-04 0.0
3.399886e-04 -1.787594e-04 0.0
4.105415e-04 -1.094996e-04 0.0
4.463703e-04 -4.368084e-05 0.0
4.501220e-04 1.719926e-05 0.0
4.253464e-04 7.135411e-05 0.0
3.766407e-04 1.166400e-04 0.0
3.098029e-04 1.504858e-04 0.0
2.319632e-04 1.698555e-04 0.0
1.516424e-04 1.713219e-04 0.0
7.866789e-05 1.514307e-04 0.0
2.398783e-05 1.077123e-04 0.0
0.000000e+00 4.093613e-05 0.0
0.000000e+00 -4.093640e-05 0.0
0.000000e+00 5.515195e-05 0.0
7.545469e-06 -5.204615e-05 0.0
2.515170e-06 -5.618780e-05 0.0
-3.498680e-05 1.144696e-05 0.0
-1.205888e-04 1.241187e-04 0.0
-2.640515e-04 2.627482e-04 0.0
-4.697987e-04 4.146190e-04 0.0
-7.382044e-04 5.719907e-04 0.0
-1.067490e-03 7.300382e-04 0.0
-1.455380e-03 8.849364e-04 0.0
-1.899828e-03 1.032844e-03 0.0
-2.398742e-03 1.169999e-03 0.0
-2.949184e-03 1.293507e-03 0.0
-3.546759e-03 1.402100e-03 0.0
-4.185685e-03 1.496278e-03 0.0
-4.859508e-03 1.577700e-03 0.0
-5.562072e-03 1.648186e-03 0.0
-6.288213e-03 1.708872e-03 0.0
-7.033872e-03 1.759926e-03 0.0
-7.795673e-03 1.800863e-03 0.0
-8.570310e-03 1.831176e-03 0.0
-9.354094e-03 1.850868e-03 0.0
-1.014290e-02 1.860609e-03 0.0
-1.093242e-02 1.861492e-03 0.0
-1.171863e-02 1.854582e-03 0.0
-1.249801e-02 1.840546e-03 0.0
-1.326761e-02 1.819536e-03 0.0
-1.402485e-02 1.791347e-03 0.0
-1.476720e-02 1.755733e-03 0.0
-1.549199e-02 1.712680e-03 0.0
-1.619629e-02 1.662520e-03 0.0
-1.687706e-02 1.605848e-03 0.0
-1.753131e-02 1.543310e-03 0.0
-1.815628e-02 1.475395e-03 0.0
-1.874950e-02 1.402314e-03 0.0
-1.930875e-02 1.324009e-03 0.0
-1.983200e-02 1.240280e-03 0.0
-2.031721e-02 1.150940e-03 0.0
-2.076234e-02 1.055952e-03 0.0
-2.116527e-02 9.554849e-04 0.0
-2.152388e-02 8.498928e-04 0.0
-2.183611e-02 7.396437e-04 0.0
-2.210010e-02 6.252335e-04 0.0
-2.231419e-02 5.071277e-04 0.0
-2.247699e-02 3.857443e-04 0.0
-2.258734e-02 2.614814e-04 0.0
-2.264436e-02 1.347686e-04 0.0
-2.264737e-02 6.126665e-06 0.0
-2.259594e-02 -1.237842e-04 0.0
-2.248992e-02 -2.542037e-04 0.0
-2.232942e-02 -3.843647e-04 0.0
-2.211482e-02 -5.135016e-04 0.0
-2.184682e-02 -6.408664e-04 0.0
-2.152641e-02 -7.657403e-04 0.0
-2.115489e-02 -8.874390e-04 0.0
-2.073385e-02 -1.005310e-03 0.0
-2.026515e-02 -1.118723e-03 0.0
-1.975093e-02 -1.227068e-03 0.0
-1.919357e-02 -1.329740e-03 0.0
-1.859568e-02 -1.426148e-03 0.0
-1.796011e-02 -1.515715e-03 0.0
-1.728993e-02 -1.597886e-03 0.0
-1.658841e-02 -1.672141e-03 0.0
-1.585903e-02 -1.738001e-03 0.0
-1.510543e-02 -1.795039e-03 0.0
-1.433140e-02 -1.842883e-03 0.0
-1.354091e-02 -1.881221e-03 0.0
-1.273799e-02 -1.909798e-03 0.0
-1.192677e-02 -1.928419e-03 0.0
-1.111146e-02 -1.936949e-03 0.0
-1.029628e-02 -1.935315e-03 0.0
-9.485437e-03 -1.923512e-03 0.0
-8.683150e-03 -1.901587e-03 0.0
-7.893573e-03 -1.869650e-03 0.0
-7.120793e-03 -1.827872e-03 0.0
-6.368801e-03 -1.776487e-03 0.0
-5.641464e-03 -1.715794e-03 0.0
-4.942498e-03 -1.646158e-03 0.0
-4.275438e-03 -1.568010e-03 0.0
-3.643611e-03 -1.481847e-03 0.0
-3.050105e-03 -1.388236e-03 0.0
-2.497739e-03 -1.287817e-03 0.0
-1.989026e-03 -1.181303e-03 0.0
-1.526146e-03 -1.069493e-03 0.0
-1.110898e-03 -9.532774e-04 0.0
-7.446664e-04 -8.336470e-04 0.0
-4.283661e-04 -7.117101e-04 0.0
-1.623922e-04 -5.887097e-04 0.0
5.344459e-05 -4.660482e-04 0.0
2.199852e-04 -3.453184e-04 0.0
3.388147e-04 -2.283477e-04 0.0
4.123558e-04 -1.172409e-04 0.0
4.439789e-04 -1.444293e-05 0.0
4.381238e-04 7.719009e-05 0.0
4.004269e-04 1.543182e-04 0.0
3.378411e-04 2.130534e-04 0.0
2.587332e-04 2.489454e-04 0.0
1.729475e-04 2.570901e-04 0.0
9.187597e-05 2.324850e-04 0.0
2.877095e-05 1.708001e-04 0.0
0.000000e+00 6.968983e-05 0.0
0.000000e+00 -6.968469e-05 0.0
0.000000e+00 4.603520e-05 0.0
-4.567343e-06 -4.909296e-05 0.0
-3.777364e-05 -2.046684e-05 0.0
-1.199137e-04 9.494340e-05 0.0
-2.644937e-04 2.664770e-04 0.0
-4.789930e-04 4.721920e-04 0.0
-7.661700e-04 6.972214e-04 0.0
-1.125996e-03 9.312140e-04 0.0
-1.557468e-03 1.166094e-03 0.0
-2.059470e-03 1.394762e-03 0.0
-2.630513e-03 1.611004e-03 0.0
-3.267859e-03 1.810163e-03 0.0
-3.966851e-03 1.989800e-03 0.0
-4.720994e-03 2.149712e-03 0.0
-5.522824e-03 2.291175e-03 0.0
-6.365065e-03 2.415796e-03 0.0
-7.241480e-03 2.524578e-03 0.0
-8.147042e-03 2.617611e-03 0.0
-9.077467e-03 2.694419e-03 0.0
-1.002850e-02 2.754621e-03 0.0
-1.099543e-02 2.798468e-03 0.0
-1.197297e-02 2.826953e-03 0.0
-1.295568e-02 2.841498e-03 0.0
-1.393841e-02 2.843442e-03 0.0
-1.491665e-02 2.833640e-03 0.0
-1.588657e-02 2.812380e-03 0.0
-1.684477e-02 2.779592e-03 0.0
-1.778791e-02 2.735194e-03 0.0
-1.871251e-02 2.679383e-03 0.0
-1.961478e-02 2.612722e-03 0.0
-2.049087e-02 2.536016e-03 0.0
-2.133698e-02 2.450069e-03 0.0
-2.214965e-02 2.355457e-03 0.0
-2.292576e-02 2.252426e-03 0.0
-2.366253e-02 2.140934e-03 0.0
-2.435733e-02 2.020813e-03 0.0
-2.500757e-02 1.891948e-03 0.0
-2.561058e-02 1.754412e-03 0.0
-2.616365e-02 1.608515e-03 0.0
-2.666403e-02 1.454754e-03 0.0
-2.710911e-02 1.293730e-03 0.0
-2.749645e-02 1.126052e-03 0.0
-2.782391e-02 9.522862e-04 0.0
-2.808963e-02 7.729554e-04 0.0
-2.829201e-02 5.885795e-04 0.0
-2.842973e-02 3.997422e-04 0.0
-2.850172e-02 2.071516e-04 0.0
-2.850713e-02 1.168343e-05 0.0
-2.844543e-02 -1.856015e-04 0.0
-2.831638e-02 -3.835291e-04 0.0
-2.812011e-02 -5.809458e-04 0.0
-2.785712e-02 -7.767340e-04 0.0
-2.752827e-02 -9.698203e-04 0.0
-2.713479e-02 -1.159174e-03 0.0
-2.667830e-02 -1.343799e-03 0.0
-2.616072e-02 -1.522724e-03 0.0
-2.558433e-02 -1.694988e-03 0.0
-2.495172e-02 -1.859644e-03 0.0
-2.426575e-02 -2.015756e-03 0.0
-2.352960e-02 -2.162412e-03 0.0
-2.274674e-02 -2.298732e-03 0.0
-2.192089e-02 -2.423888e-03 0.0
-2.105604e-02 -2.537108e-03 0.0
-2.015642e-02 -2.637690e-03 0.0
-1.922648e-02 -2.725005e-03 0.0
-1.827085e-02 -2.798504e-03 0.0
-1.729433e-02 -2.857717e-03 0.0
-1.630186e-02 -2.902255e-03 0.0
-1.529846e-02 -2.931814e-03 0.0
-1.428924e-02 -2.946182e-03 0.0
-1.327934e-02 -2.945238e-03 0.0
-1.227393e-02 -2.928964e-03 0.0
-1.127811e-02 -2.897430e-03 0.0
-1.029699e-02 -2.850801e-03 0.0
-9.335545e-03 -2.789335e-03 0.0
-8.398656e-03 -2.713388e-03 0.0
-7.491049e-03 -2.623410e-03 0.0
-6.617264e-03 -2.519953e-03 0.0
-5.781621e-03 -2.403666e-03 0.0
-4.988185e-03 -2.275302e-03 0.0
-4.240727e-03 -2.135718e-03 0.0
-3.542686e-03 -1.985883e-03 0.0
-2.897131e-03 -1.826884e-03 0.0
-2.306716e-03 -1.659933e-03 0.0
-1.773634e-03 -1.486383e-03 0.0
-1.299566e-03 -1.307736e-03 0.0
-8.856263e-04 -1.125670e-03 0.0
-5.322981e-04 -9.420574e-04 0.0
-2.393653e-04 -7.590005e-04 0.0
-5.834258e-06 -5.788692e-04 0.0
1.701491e-04 -4.043510e-04 0.0
2.913990e-04 -2.385105e-04 0.0
3.617956e-04 -8.485882e-05 0.0
3.863897e-04 5.257745e-05 0.0
3.715123e-04 1.691779e-04 0.0
3.248727e-04 2.596761e-04 0.0
2.556546e-04 3.181467e-04 0.0
1.746322e-04 3.380961e-04 0.0
9.439621e-05 3.127045e-04 0.0
2.993171e-05 2.352481e-04 0.0
0.000000e+00 9.960491e-05 0.0
0.000000e+00 -9.959104e-05 0.0
0.000000e+00 2.700159e-05 0.0
-1.708776e-05 -3.130771e-05 0.0
-8.445853e-05 4.835710e-05 0.0
-2.184000e-04 2.267608e-04 0.0
-4.284025e-04 4.713218e-04 0.0
-7.190975e-04 7.580370e-04 0.0
-1.092072e-03 1.069358e-03 0.0
-1.547668e-03 1.391409e-03 0.0
-2.085897e-03 1.712444e-03 0.0
-2.706182e-03 2.022566e-03 0.0
-3.406412e-03 2.314298e-03 0.0
-4.182168e-03 2.583151e-03 0.0
-5.026767e-03 2.827524e-03 0.0
-5.932184e-03 3.047784e-03 0.0
-6.890356e-03 3.244947e-03 0.0
-7.894184e-03 3.419611e-03 0.0
-8.937791e-03 3.571581e-03 0.0
-1.001607e-02 3.700224e-03 0.0
-1.112393e-02 3.805158e-03 0.0
-1.225572e-02 3.886792e-03 0.0
-1.340519e-02 3.946398e-03 0.0
-1.456583e-02 3.985719e-03 0.0
-1.573147e-02 4.006395e-03 0.0
-1.689661e-02 4.009525e-03 0.0
-1.805653e-02 3.995584e-03 0.0
-1.920698e-02 3.964683e-03 0.0
-2.034381e-02 3.916954e-03 0.0
-2.146268e-02 3.852850e-03 0.0
-2.255901e-02 3.773212e-03 0.0
-2.362811e-02 3.679101e-03 0.0
-2.466544e-02 3.571520e-03 0.0
-2.566683e-02 3.451175e-03 0.0
-2.662852e-02 3.318382e-03 0.0
-2.754712e-02 3.173151e-03 0.0
-2.841943e-02 3.015371e-03 0.0
-2.924227e-02 2.845023e-03 0.0
-3.001237e-02 2.662314e-03 0.0
-3.072640e-02 2.467705e-03 0.0
-3.138104e-02 2.261849e-03 0.0
-3.197309e-02 2.045480e-03 0.0
-3.249959e-02 1.819322e-03 0.0
-3.295787e-02 1.584039e-03 0.0
-3.334558e-02 1.340252e-03 0.0
-3.366066e-02 1.088602e-03 0.0
-3.390132e-02 8.298244e-04 0.0
-3.406601e-02 5.648142e-04 0.0
-3.415345e-02 2.946655e-04 0.0
-3.416263e-02 2.067715e-05 0.0
-3.409291e-02 -2.556595e-04 0.0
-3.394403e-02 -5.327472e-04 0.0
-3.371615e-02 -8.090417e-04 0.0
-3.340988e-02 -1.083056e-03 0.0
-3.302626e-02 -1.353352e-03 0.0
-3.256673e-02 -1.618531e-03 0.0
-3.203314e-02 -1.877210e-03 0.0
-3.142773e-02 -2.128019e-03 0.0
-3.075311e-02 -2.369597e-03 0.0
-3.001224e-02 -2.600597e-03 0.0
-2.920845e-02 -2.819701e-03 0.0
-2.834540e-02 -3.025636e-03 0.0
-2.742710e-02 -3.217190e-03 0.0
-2.645787e-02 -3.393224e-03 0.0
-2.544235e-02 -3.552683e-03 0.0
-2.438544e-02 -3.694607e-03 0.0
-2.329229e-02 -3.818128e-03 0.0
-2.216828e-02 -3.922480e-03 0.0
-2.101898e-02 -4.007002e-03 0.0
-1.985009e-02 -4.071143e-03 0.0
-1.866745e-02 -4.114470e-03 0.0
-1.747699e-02 -4.136675e-03 0.0
-1.628468e-02 -4.137584e-03 0.0
-1.509651e-02 -4.117163e-03 0.0
-1.391846e-02 -4.075508e-03 0.0
-1.275644e-02 -4.012845e-03 0.0
-1.161625e-02 -3.929532e-03 0.0
-1.050359e-02 -3.826060e-03 0.0
-9.423961e-03 -3.703054e-03 0.0
-8.382654e-03 -3.561278e-03 0.0
-7.384707e-03 -3.401636e-03 0.0
-6.434863e-03 -3.225173e-03 0.0
-5.537521e-03 -3.033088e-03 0.0
-4.696697e-03 -2.826734e-03 0.0
-3.915977e-03 -2.607630e-03 0.0
-3.198464e-03 -2.377470e-03 0.0
-2.546727e-03 -2.138142e-03 0.0
-1.962743e-03 -1.891741e-03 0.0
-1.447838e-03 -1.640596e-03 0.0
-1.002614e-03 -1.387301e-03 0.0
-6.268856e-04 -1.134750e-03 0.0
-3.195918e-04 -8.861834e-04 0.0
-7.871754e-05 -6.452449e-04 0.0
9.879793e-05 -4.160445e-04 0.0
2.171517e-04 -2.032300e-04 0.0
2.817818e-04 -1.206892e-05 0.0
2.994567e-04 1.514875e-04 0.0
2.783701e-04 2.807475e-04 0.0
2.282472e-04 3.682543e-04 0.0
1.605078e-04 4.058201e-04 0.0
8.857209e-05 3.846245e-04 0.0
2.847461e-05 2.953296e-04 0.0
0.000000e+00 1.280635e-04 0.0
0.000000e+00 -1.280383e-04 0.0
0.000000e+00 -2.935475e-06 0.0
-3.067189e-05 3.677691e-07 0.0
-1.357359e-04 1.514293e-04 0.0
-3.247794e-04 4.106904e-04 0.0
-6.029062e-04 7.445052e-04 0.0
-9.725040e-04 1.126688e-03 0.0
-1.434810e-03 1.536313e-03 0.0
-1.990746e-03 1.955747e-03 0.0
-2.640602e-03 2.370233e-03 0.0
-3.382995e-03 2.768374e-03 0.0
-4.213981e-03 3.142645e-03 0.0
-5.127027e-03 3.489207e-03 0.0
-6.113927e-03 3.806838e-03 0.0
-7.166181e-03 4.095439e-03 0.0
-8.276100e-03 4.354799e-03 0.0
-9.437144e-03 4.584133e-03 0.0
-1.064350e-02 4.782406e-03 0.0
-1.188934e-02 4.949031e-03 0.0
-1.316819e-02 5.084416e-03 0.0
-1.447293e-02 5.189995e-03 0.0
-1.579614e-02 5.267769e-03 0.0
-1.713070e-02 5.319657e-03 0.0
-1.847024e-02 5.347012e-03 0.0
-1.980916e-02 5.350543e-03 0.0
-2.114236e-02 5.330580e-03 0.0
-2.246486e-02 5.287510e-03 0.0
-2.377148e-02 5.222084e-03 0.0
-2.505681e-02 5.135457e-03 0.0
-2.631538e-02 5.028989e-03 0.0
-2.754191e-02 4.903924e-03 0.0
-2.873154e-02 4.761140e-03 0.0
-2.987991e-02 4.601068e-03 0.0
-3.098300e-02 4.423808e-03 0.0
-3.203702e-02 4.229349e-03 0.0
-3.303818e-02 4.017798e-03 0.0
-3.398262e-02 3.789516e-03 0.0
-3.486640e-02 3.545134e-03 0.0
-3.568561e-02 3.285466e-03 0.0
-3.643649e-02 3.011383e-03 0.0
-3.711556e-02 2.723720e-03 0.0
-3.771962e-02 2.423235e-03 0.0
-3.824583e-02 2.110647e-03 0.0
-3.869164e-02 1.786710e-03 0.0
-3.905475e-02 1.452308e-03 0.0
-3.933312e-02 1.108515e-03 0.0
-3.952495e-02 7.566377e-04 0.0
-3.962876e-02 3.982046e-04 0.0
-3.964341e-02 3.494847e-05 0.0
-3.956819e-02 -3.312208e-04 0.0
-3.940282e-02 -6.982900e-04 0.0
-3.914754e-02 -1.064312e-03 0.0
-3.880306e-02 -1.427393e-03 0.0
-3.837053e-02 -1.785673e-03 0.0
-3.785158e-02 -2.137306e-03 0.0
-3.724825e-02 -2.480454e-03 0.0
-3.656301e-02 -2.813280e-03 0.0
-3.579877e-02 -3.133966e-03 0.0
-3.495882e-02 -3.440726e-03 0.0
-3.404688e-02 -3.731828e-03 0.0
-3.306706e-02 -4.005607e-03 0.0
-3.202385e-02 -4.260486e-03 0.0
-3.092212e-02 -4.494987e-03 0.0
-2.976705e-02 -4.707734e-03 0.0
-2.856416e-02 -4.897463e-03 0.0
-2.731922e-02 -5.063029e-03 0.0
-2.603827e-02 -5.203415e-03 0.0
-2.472754e-02 -5.317736e-03 0.0
-2.339345e-02 -5.405255e-03 0.0
-2.204257e-02 -5.465391e-03 0.0
-2.068155e-02 -5.497731e-03 0.0
-1.931713e-02 -5.502036e-03 0.0
-1.795607e-02 -5.478251e-03 0.0
-1.660510e-02 -5.426497e-03 0.0
-1.527090e-02 -5.347065e-03 0.0
-1.396003e-02 -5.240419e-03 0.0
-1.267891e-02 -5.107197e-03 0.0
-1.143377e-02 -4.948217e-03 0.0
-1.023059e-02 -4.764477e-03 0.0
-9.075094e-03 -4.557165e-03 0.0
-7.972640e-03 -4.327657e-03 0.0
-6.928225e-03 -4.077532e-03 0.0
-5.946412e-03 -3.808574e-03 0.0
-5.031279e-03 -3.522787e-03 0.0
-4.186368e-03 -3.222404e-03 0.0
-3.414622e-03 -2.909910e-03 0.0
-2.718326e-03 -2.588058e-03 0.0
-2.099043e-03 -2.259900e-03 0.0
-1.557542e-03 -1.928823e-03 0.0
-1.093725e-03 -1.598587e-03 0.0
-7.065517e-04 -1.273375e-03 0.0
-3.939569e-04 -9.578565e-04 0.0
-1.527673e-04 -6.572494e-04 0.0
2.138408e-05 -3.773957e-04 0.0
1.341403e-04 -1.248388e-04 0.0
1.925118e-04 9.310239e-05 0.0
2.049744e-04 2.682707e-04 0.0
1.815802e-04 3.916339e-04 0.0
1.341384e-04 4.532467e-04 0.0
7.652333e-05 4.422241e-04 0.0
2.519555e-05 3.466418e-04 0.0
0.000000e+00 1.532434e-04 0.0
0.000000e+00 -1.532057e-04 0.0
0.000000e+00 -4.581223e-05 0.0
-4.603682e-05 4.452395e-05 0.0
-1.896082e-04 2.897976e-04 0.0
-4.339935e-04 6.499935e-04 0.0
-7.808418e-04 1.090303e-03 0.0
-1.231309e-03 1.581867e-03 0.0
-1.786591e-03 2.100275e-03 0.0
-2.447448e-03 2.624945e-03 0.0
-3.213012e-03 3.139578e-03 0.0
-4.079757e-03 3.632665e-03 0.0
-5.041370e-03 4.097252e-03 0.0
-6.089644e-03 4.529767e-03 0.0
-7.215881e-03 4.928361e-03 0.0
-8.412046e-03 5.291509e-03 0.0
-9.671152e-03 5.617427e-03 0.0
-1.098685e-02 5.904343e-03 0.0
-1.235267e-02 6.151194e-03 0.0
-1.376142e-02 6.358156e-03 0.0
-1.520519e-02 6.526649e-03 0.0
-1.667574e-02 6.658805e-03 0.0
-1.816517e-02 6.756742e-03 0.0
-1.966628e-02 6.822038e-03 0.0
-2.117271e-02 6.855627e-03 0.0
-2.267853e-02 6.858093e-03 0.0
-2.417795e-02 6.830103e-03 0.0
-2.566495e-02 6.772734e-03 0.0
-2.713329e-02 6.687491e-03 0.0
-2.857671e-02 6.576065e-03 0.0
-2.998924e-02 6.439978e-03 0.0
-3.136536e-02 6.280323e-03 0.0
-3.270009e-02 6.097692e-03 0.0
-3.398884e-02 5.892319e-03 0.0
-3.522720e-02 5.664338e-03 0.0
-3.641077e-02 5.414019e-03 0.0
-3.753507e-02 5.141910e-03 0.0
-3.859556e-02 4.848828e-03 0.0
-3.958774e-02 4.535757e-03 0.0
-4.050730e-02 4.203710e-03 0.0
-4.135024e-02 3.853630e-03 0.0
-4.211286e-02 3.486367e-03 0.0
-4.279183e-02 3.102733e-03 0.0
-4.338406e-02 2.703594e-03 0.0
-4.388676e-02 2.289972e-03 0.0
-4.429734e-02 1.863117e-03 0.0
-4.461347e-02 1.424530e-03 0.0
-4.483314e-02 9.759558e-04 0.0
-4.495470e-02 5.193496e-04 0.0
-4.497691e-02 5.685144e-05 0.0
-4.489901e-02 -4.092299e-04 0.0
-4.472077e-02 -8.764545e-04 0.0
-4.444245e-02 -1.342434e-03 0.0
-4.406481e-02 -1.804806e-03 0.0
-4.358910e-02 -2.261214e-03 0.0
-4.301706e-02 -2.709300e-03 0.0
-4.235089e-02 -3.146705e-03 0.0
-4.159325e-02 -3.571084e-03 0.0
-4.074729e-02 -3.980129e-03 0.0
-3.981661e-02 -4.371590e-03 0.0
-3.880528e-02 -4.743291e-03 0.0
-3.771780e-02 -5.093152e-03 0.0
-3.655910e-02 -5.419196e-03 0.0
-3.533449e-02 -5.719560e-03 0.0
-3.404967e-02 -5.992506e-03 0.0
-3.271067e-02 -6.236426e-03 0.0
-3.132382e-02 -6.449861e-03 0.0
-2.989575e-02 -6.631505e-03 0.0
-2.843329e-02 -6.780227e-03 0.0
-2.694351e-02 -6.895083e-03 0.0
-2.543361e-02 -6.975328e-03 0.0
-2.391095e-02 -7.020426e-03 0.0
-2.238295e-02 -7.030066e-03 0.0
-2.085706e-02 -7.004162e-03 0.0
-1.934072e-02 -6.942853e-03 0.0
-1.784131e-02 -6.846496e-03 0.0
-1.636609e-02 -6.715661e-03 0.0
-1.492217e-02 -6.551145e-03 0.0
-1.351645e-02 -6.353969e-03 0.0
-1.215557e-02 -6.125389e-03 0.0
-1.084586e-02 -5.866898e-03 0.0
-9.593315e-03 -5.580235e-03 0.0