# vtk DataFile Version 3.0
Vector Field
ASCII
DATASET RECTILINEAR_GRID
DIMENSIONS 102 102 1
X_COORDINATES 102 double
0.000000 0.100000 0.200000 0.300000 0.400000 0.500000 0.600000 0.700000 0.800000 0.900000 1.000000 1.100000 1.200000 1.300000 1.400000 1.500000 1.600000 1.700000 1.800000 1.900000 2.000000 2.100000 2.200000 2.300000 2.400000 2.500000 2.600000 2.700000 2.800000 2.900000 3.000000 3.100000 3.200000 3.300000 3.400000 3.500000 3.600000 3.700000 3.800000 3.900000 4.000000 4.100000 4.200000 4.300000 4.400000 4.500000 4.600000 4.700000 4.800000 4.900000 5.000000 5.100000 5.200000 5.300000 5.400000 5.500000 5.600000 5.700000 5.800000 5.900000 6.000000 6.100000 6.200000 6.300000 6.400000 6.500000 6.600000 6.700000 6.800000 6.900000 7.000000 7.100000 7.200000 7.300000 7.400000 7.500000 7.600000 7.700000 7.800000 7.900000 8.000000 8.100000 8.200000 8.300000 8.400000 8.500000 8.600000 8.700000 8.800000 8.900000 9.000000 9.100000 9.200000 9.300000 9.400000 9.500000 9.600000 9.700000 9.800000 9.900000 10.000000 10.100000 
Y_COORDINATES 102 double
0.000000 0.100000 0.200000 0.300000 0.400000 0.500000 0.600000 0.700000 0.800000 0.900000 1.000000 1.100000 1.200000 1.300000 1.400000 1.500000 1.600000 1.700000 1.800000 1.900000 2.000000 2.100000 2.200000 2.300000 2.400000 2.500000 2.600000 2.700000 2.800000 2.900000 3.000000 3.100000 3.200000 3.300000 3.400000 3.500000 3.600000 3.700000 3.800000 3.900000 4.000000 4.100000 4.200000 4.300000 4.400000 4.500000 4.600000 4.700000 4.800000 4.900000 5.000000 5.100000 5.200000 5.300000 5.400000 5.500000 5.600000 5.700000 5.800000 5.900000 6.000000 6.100000 6.200000 6.300000 6.400000 6.500000 6.600000 6.700000 6.800000 6.900000 7.000000 7.100000 7.200000 7.300000 7.400000 7.500000 7.600000 7.700000 7.800000 7.900000 8.000000 8.100000 8.200000 8.300000 8.400000 8.500000 8.600000 8.700000 8.800000 8.900000 9.000000 9.100000 9.200000 9.300000 9.400000 9.500000 9.600000 9.700000 9.800000 9.900000 10.000000 10.100000 
Z_COORDINATES 1 double
0.0
POINT_DATA 10404
VECTORS Velocity double
0.000000e+00 0.000000e+00 0.0
-9.467444e-06 0.000000e+00 0.0
-1.902720e-05 0.000000e+00 0.0
-2.184179e-05 0.000000e+00 0.0
-1.455206e-05 0.000000e+00 0.0
3.843111e-06 0.000000e+00 0.0
3.291033e-05 0.000000e+00 0.0
7.128782e-05 0.000000e+00 0.0
1.170693e-04 0.000000e+00 0.0
1.681803e-04 0.000000e+00 0.0
2.227485e-04 0.000000e+00 0.0
2.794080e-04 0.000000e+00 0.0
3.374633e-04 0.000000e+00 0.0
3.968727e-04 0.000000e+00 0.0
4.580574e-04 0.000000e+00 0.0
5.216003e-04 0.000000e+00 0.0
5.879224e-04 0.000000e+00 0.0
6.570335e-04 0.000000e+00 0.0
7.284229e-04 0.000000e+00 0.0
8.011105e-04 0.000000e+00 0.0
8.738340e-04 0.000000e+00 0.0
9.453100e-04 0.000000e+00 0.0
1.014491e-03 0.000000e+00 0.0
1.080748e-03 0.000000e+00 0.0
1.143941e-03 0.000000e+00 0.0
1.204364e-03 0.000000e+00 0.0
1.262598e-03 0.000000e+00 0.0
1.319307e-03 0.000000e+00 0.0
1.375056e-03 0.000000e+00 0.0
1.430167e-03 0.000000e+00 0.0
1.484659e-03 0.000000e+00 0.0
1.538274e-03 0.000000e+00 0.0
1.590555e-03 0.000000e+00 0.0
1.640966e-03 0.000000e+00 0.0
1.689007e-03 0.000000e+00 0.0
1.734308e-03 0.000000e+00 0.0
1.776672e-03 0.000000e+00 0.0
1.816078e-03 0.000000e+00 0.0
1.852637e-03 0.000000e+00 0.0
1.886534e-03 0.000000e+00 0.0
1.917955e-03 0.000000e+00 0.0
1.947034e-03 0.000000e+00 0.0
1.973815e-03 0.000000e+00 0.0
1.998255e-03 0.000000e+00 0.0
2.020233e-03 0.000000e+00 0.0
2.039590e-03 0.000000e+00 0.0
2.056168e-03 0.000000e+00 0.0
2.069834e-03 0.000000e+00 0.0
2.080508e-03 0.000000e+00 0.0
2.088158e-03 0.000000e+00 0.0
2.092793e-03 0.000000e+00 0.0
2.094444e-03 0.000000e+00 0.0
2.093147e-03 0.000000e+00 0.0
2.088930e-03 0.000000e+00 0.0
2.081799e-03 0.000000e+00 0.0
2.071742e-03 0.000000e+00 0.0
2.058732e-03 0.000000e+00 0.0
2.042737e-03 0.000000e+00 0.0
2.023730e-03 0.000000e+00 0.0
2.001696e-03 0.000000e+00 0.0
1.976638e-03 0.000000e+00 0.0
1.948573e-03 0.000000e+00 0.0
1.917535e-03 0.000000e+00 0.0
1.883566e-03 0.000000e+00 0.0
1.846713e-03 0.000000e+00 0.0
1.807026e-03 0.000000e+00 0.0
1.764556e-03 0.000000e+00 0.0
1.719355e-03 0.000000e+00 0.0
1.671476e-03 0.000000e+00 0.0
1.620977e-03 0.000000e+00 0.0
1.567922e-03 0.000000e+00 0.0
1.512386e-03 0.000000e+00 0.0
1.454452e-03 0.000000e+00 0.0
1.394219e-03 0.000000e+00 0.0
1.331798e-03 0.000000e+00 0.0
1.267316e-03 0.000000e+00 0.0
1.200919e-03 0.000000e+00 0.0
1.132772e-03 0.000000e+00 0.0
1.063061e-03 0.000000e+00 0.0
9.919987e-04 0.000000e+00 0.0
9.198252e-04 0.000000e+00 0.0
8.468150e-04 0.000000e+00 0.0
7.732803e-04 0.000000e+00 0.0
6.995762e-04 0.000000e+00 0.0
6.261059e-04 0.000000e+00 0.0
5.533257e-04 0.000000e+00 0.0
4.817506e-04 0.000000e+00 0.0
4.119587e-04 0.000000e+00 0.0
3.445956e-04 0.000000e+00 0.0
2.803775e-04 0.000000e+00 0.0
2.200921e-04 0.000000e+00 0.0
1.645977e-04 0.000000e+00 0.0
1.148161e-04 0.000000e+00 0.0
7.171900e-05 0.000000e+00 0.0
3.629532e-05 0.000000e+00 0.0
9.487915e-06 0.000000e+00 0.0
-7.936497e-06 0.000000e+00 0.0
-1.565691e-05 0.000000e+00 0.0
-1.436656e-05 0.000000e+00 0.0
-6.877058e-06 0.000000e+00 0.0
-0.000000e+00 0.000000e+00 0.0
0.000000e+00 0.000000e+00 0.0
0.000000e+00 3.826485e-06 0.0
6.838854e-06 -6.146039e-06 0.0
9.718490e-06 -1.002928e-05 0.0
7.062363e-06 -6.824266e-06 0.0
-2.775256e-06 8.317331e-07 0.0
-1.972480e-05 1.122814e-05 0.0
-4.335701e-05 2.319060e-05 0.0
-7.346944e-05 3.552420e-05 0.0
-1.101926e-04 4.693786e-05 0.0
-1.538088e-04 5.622732e-05 0.0
-2.044518e-04 6.254572e-05 0.0
-2.618329e-04 6.562097e-05 0.0
-3.250967e-04 6.582771e-05 0.0
-3.928540e-04 6.408395e-05 0.0
-4.633784e-04 6.160302e-05 0.0
-5.349034e-04 5.957562e-05 0.0
-6.059309e-04 5.887413e-05 0.0
-6.754644e-04 5.985955e-05 0.0
-7.431093e-04 6.233687e-05 0.0
-8.090217e-04 6.566021e-05 0.0
-8.737327e-04 6.894617e-05 0.0
-9.379065e-04 7.132895e-05 0.0
-1.002099e-03 7.218509e-05 0.0
-1.066584e-03 7.127137e-05 0.0
-1.131275e-03 6.874922e-05 0.0
-1.195757e-03 6.510259e-05 0.0
-1.259401e-03 6.098355e-05 0.0
-1.321516e-03 5.703445e-05 0.0
-1.381504e-03 5.373601e-05 0.0
-1.438959e-03 5.131655e-05 0.0
-1.493716e-03 4.973782e-05 0.0
-1.545823e-03 4.874971e-05 0.0
-1.595478e-03 4.798982e-05 0.0
-1.642927e-03 4.709536e-05 0.0
-1.688381e-03 4.579622e-05 0.0
-1.731952e-03 4.396768e-05 0.0
-1.773630e-03 4.163527e-05 0.0
-1.813297e-03 3.893845e-05 0.0
-1.850764e-03 3.607011e-05 0.0
-1.885828e-03 3.321282e-05 0.0
-1.918312e-03 3.049007e-05 0.0
-1.948096e-03 2.794356e-05 0.0
-1.975127e-03 2.553796e-05 0.0
-1.999403e-03 2.318683e-05 0.0
-2.020950e-03 2.078810e-05 0.0
-2.039799e-03 1.825729e-05 0.0
-2.055958e-03 1.554939e-05 0.0
-2.069406e-03 1.266539e-05 0.0
-2.080092e-03 9.644659e-06 0.0
-2.087944e-03 6.548227e-06 0.0
-2.092886e-03 3.439332e-06 0.0
-2.094849e-03 3.673773e-07 0.0
-2.093781e-03 -2.640745e-06 0.0
-2.089661e-03 -5.579541e-06 0.0
-2.082487e-03 -8.466614e-06 0.0
-2.072274e-03 -1.133094e-05 0.0
-2.059043e-03 -1.420216e-05 0.0
-2.042818e-03 -1.710238e-05 0.0
-2.023618e-03 -2.004156e-05 0.0
-2.001456e-03 -2.301684e-05 0.0
-1.976344e-03 -2.601494e-05 0.0
-1.948288e-03 -2.901643e-05 0.0
-1.917300e-03 -3.200047e-05 0.0
-1.883395e-03 -3.494865e-05 0.0
-1.846597e-03 -3.784746e-05 0.0
-1.806942e-03 -4.068891e-05 0.0
-1.764471e-03 -4.346973e-05 0.0
-1.719238e-03 -4.618957e-05 0.0
-1.671304e-03 -4.884888e-05 0.0
-1.620738e-03 -5.144692e-05 0.0
-1.567614e-03 -5.398041e-05 0.0
-1.512014e-03 -5.644278e-05 0.0
-1.454028e-03 -5.882411e-05 0.0
-1.393755e-03 -6.111149e-05 0.0
-1.331306e-03 -6.328955e-05 0.0
-1.266804e-03 -6.534092e-05 0.0
-1.200392e-03 -6.724647e-05 0.0
-1.132230e-03 -6.898534e-05 0.0
-1.062503e-03 -7.053452e-05 0.0
-9.914233e-04 -7.186841e-05 0.0
-9.192310e-04 -7.295814e-05 0.0
-8.462021e-04 -7.377094e-05 0.0
-7.726506e-04 -7.426956e-05 0.0
-6.989338e-04 -7.441192e-05 0.0
-6.254567e-04 -7.415093e-05 0.0
-5.526770e-04 -7.343411e-05 0.0
-4.811108e-04 -7.220362e-05 0.0
-4.113366e-04 -7.039670e-05 0.0
-3.440000e-04 -6.794639e-05 0.0
-2.798170e-04 -6.478258e-05 0.0
-2.195747e-04 -6.083361e-05 0.0
-1.641302e-04 -5.602921e-05 0.0
-1.144046e-04 -5.030558e-05 0.0
-7.136761e-05 -4.361385e-05 0.0
-3.600584e-05 -3.593618e-05 0.0
-9.259359e-06 -2.731834e-05 0.0
8.107094e-06 -1.793802e-05 0.0
1.578009e-05 -8.244250e-06 0.0
1.445468e-05 7.544959e-07 0.0
6.935576e-06 6.948591e-06 0.0
0.000000e+00 6.365200e-06 0.0
0.000000e+00 -6.430198e-06 0.0
0.000000e+00 8.521783e-06 0.0
4.006037e-06 -1.722496e-05 0.0
2.914015e-06 -1.434761e-05 0.0
-1.240377e-05 6.087299e-06 0.0
-4.648970e-05 3.634956e-05 0.0
-1.010642e-04 7.084698e-05 0.0
-1.763560e-04 1.058664e-04 0.0
-2.718276e-04 1.387394e-04 0.0
-3.864676e-04 1.675560e-04 0.0
-5.188365e-04 1.911487e-04 0.0
-6.670370e-04 2.091473e-04 0.0
-8.287282e-04 2.219620e-04 0.0
-1.001240e-03 2.306289e-04 0.0
-1.181785e-03 2.365281e-04 0.0
-1.367714e-03 2.410407e-04 0.0
-1.556759e-03 2.452323e-04 0.0
-1.747194e-03 2.496459e-04 0.0
-1.937879e-03 2.542499e-04 0.0
-2.128183e-03 2.585425e-04 0.0
-2.317820e-03 2.617709e-04 0.0
-2.506644e-03 2.631926e-04 0.0
-2.694464e-03 2.623065e-04 0.0
-2.880919e-03 2.589912e-04 0.0
-3.065436e-03 2.535259e-04 0.0
-3.247273e-03 2.465000e-04 0.0
-3.425611e-03 2.386500e-04 0.0
-3.599669e-03 2.306753e-04 0.0
-3.768809e-03 2.230856e-04 0.0
-3.932588e-03 2.161148e-04 0.0
-4.090766e-03 2.097162e-04 0.0
-4.243266e-03 2.036290e-04 0.0
-4.390099e-03 1.974885e-04 0.0
-4.531294e-03 1.909439e-04 0.0
-4.666826e-03 1.837522e-04 0.0
-4.796587e-03 1.758259e-04 0.0
-4.920382e-03 1.672291e-04 0.0
-5.037952e-03 1.581327e-04 0.0
-5.149015e-03 1.487469e-04 0.0
-5.253303e-03 1.392563e-04 0.0
-5.350594e-03 1.297736e-04 0.0
-5.440721e-03 1.203232e-04 0.0
-5.523569e-03 1.108535e-04 0.0
-5.599055e-03 1.012690e-04 0.0
-5.667108e-03 9.146935e-05 0.0
-5.727650e-03 8.138178e-05 0.0
-5.780583e-03 7.098021e-05 0.0
-5.825786e-03 6.028694e-05 0.0
-5.863128e-03 4.936058e-05 0.0
-5.892471e-03 3.827624e-05 0.0
-5.913692e-03 2.710532e-05 0.0
-5.926682e-03 1.590054e-05 0.0
-5.931360e-03 4.689701e-06 0.0
-5.927673e-03 -6.521346e-06 0.0
-5.915592e-03 -1.773810e-05 0.0
-5.895105e-03 -2.897885e-05 0.0
-5.866212e-03 -4.026106e-05 0.0
-5.828918e-03 -5.159243e-05 0.0
-5.783232e-03 -6.296708e-05 0.0
-5.729169e-03 -7.436600e-05 0.0
-5.666748e-03 -8.576050e-05 0.0
-5.596001e-03 -9.711708e-05 0.0
-5.516971e-03 -1.084022e-04 0.0
-5.429717e-03 -1.195859e-04 0.0
-5.334314e-03 -1.306433e-04 0.0
-5.230858e-03 -1.415545e-04 0.0
-5.119460e-03 -1.523031e-04 0.0
-5.000250e-03 -1.628741e-04 0.0
-4.873374e-03 -1.732512e-04 0.0
-4.738998e-03 -1.834148e-04 0.0
-4.597306e-03 -1.933410e-04 0.0
-4.448504e-03 -2.030003e-04 0.0
-4.292818e-03 -2.123580e-04 0.0
-4.130505e-03 -2.213740e-04 0.0
-3.961852e-03 -2.300026e-04 0.0
-3.787180e-03 -2.381925e-04 0.0
-3.606856e-03 -2.458859e-04 0.0
-3.421292e-03 -2.530177e-04 0.0
-3.230956e-03 -2.595137e-04 0.0
-3.036379e-03 -2.652893e-04 0.0
-2.838165e-03 -2.702479e-04 0.0
-2.637000e-03 -2.742791e-04 0.0
-2.433662e-03 -2.772578e-04 0.0
-2.229032e-03 -2.790428e-04 0.0
-2.024108e-03 -2.794766e-04 0.0
-1.820012e-03 -2.783853e-04 0.0
-1.618005e-03 -2.755785e-04 0.0
-1.419496e-03 -2.708504e-04 0.0
-1.226048e-03 -2.639819e-04 0.0
-1.039388e-03 -2.547453e-04 0.0
-8.614002e-04 -2.429097e-04 0.0
-6.941238e-04 -2.282504e-04 0.0
-5.397304e-04 -2.105639e-04 0.0
-4.004875e-04 -1.896908e-04 0.0
-2.786903e-04 -1.655537e-04 0.0
-1.765461e-04 -1.382226e-04 0.0
-9.597941e-05 -1.080273e-04 0.0
-3.829890e-05 -7.576169e-05 0.0
-3.643576e-06 -4.304189e-05 0.0
9.894402e-06 -1.292549e-05 0.0
7.584362e-06 9.116850e-06 0.0
0.000000e+00 1.380779e-05 0.0
0.000000e+00 -1.381775e-05 0.0
0.000000e+00 7.533788e-06 0.0
-5.089924e-06 -2.153796e-05 0.0
-2.022944e-05 -1.667040e-06 0.0
-5.823090e-05 4.544623e-05 0.0
-1.244179e-04 1.073899e-04 0.0
-2.213352e-04 1.747740e-04 0.0
-3.495980e-04 2.413007e-04 0.0
-5.084268e-04 3.028267e-04 0.0
-6.959618e-04 3.568857e-04 0.0
-9.094733e-04 4.024077e-04 0.0
-1.145566e-03 4.394789e-04 0.0
-1.400438e-03 4.690470e-04 0.0
-1.670181e-03 4.925524e-04 0.0
-1.951104e-03 5.115296e-04 0.0
-2.239984e-03 5.272545e-04 0.0
-2.534231e-03 5.405115e-04 0.0
-2.831910e-03 5.515243e-04 0.0
-3.131640e-03 5.600489e-04 0.0
-3.432413e-03 5.655851e-04 0.0
-3.733385e-03 5.676338e-04 0.0
-4.033689e-03 5.659246e-04 0.0
-4.332339e-03 5.605505e-04 0.0
-4.628201e-03 5.519825e-04 0.0
-4.920060e-03 5.409731e-04 0.0
-5.206723e-03 5.283881e-04 0.0
-5.487131e-03 5.150206e-04 0.0
-5.760445e-03 5.014419e-04 0.0
-6.026074e-03 4.879240e-04 0.0
-6.283656e-03 4.744463e-04 0.0
-6.532987e-03 4.607737e-04 0.0
-6.773939e-03 4.465757e-04 0.0
-7.006375e-03 4.315470e-04 0.0
-7.230093e-03 4.154989e-04 0.0
-7.444804e-03 3.983986e-04 0.0
-7.650145e-03 3.803573e-04 0.0
-7.845712e-03 3.615770e-04 0.0
-8.031109e-03 3.422809e-04 0.0
-8.205981e-03 3.226493e-04 0.0
-8.370034e-03 3.027804e-04 0.0
-8.523038e-03 2.826828e-04 0.0
-8.664810e-03 2.622950e-04 0.0
-8.795193e-03 2.415233e-04 0.0
-8.914030e-03 2.202808e-04 0.0
-9.021147e-03 1.985178e-04 0.0
-9.116353e-03 1.762350e-04 0.0
-9.199441e-03 1.534804e-04 0.0
-9.270201e-03 1.303322e-04 0.0
-9.328431e-03 1.068782e-04 0.0
-9.373954e-03 8.319578e-05 0.0
-9.406619e-03 5.934006e-05 0.0
-9.426307e-03 3.534068e-05 0.0
-9.432925e-03 1.120765e-05 0.0
-9.426409e-03 -1.305696e-05 0.0
-9.406710e-03 -3.744575e-05 0.0
-9.373796e-03 -6.195088e-05 0.0
-9.327645e-03 -8.655481e-05 0.0
-9.268245e-03 -1.112269e-04 0.0
-9.195599e-03 -1.359250e-04 0.0
-9.109724e-03 -1.605990e-04 0.0
-9.010658e-03 -1.851964e-04 0.0
-8.898458e-03 -2.096663e-04 0.0
-8.773210e-03 -2.339619e-04 0.0
-8.635020e-03 -2.580414e-04 0.0
-8.484022e-03 -2.818668e-04 0.0
-8.320373e-03 -3.054014e-04 0.0
-8.144254e-03 -3.286075e-04 0.0
-7.955873e-03 -3.514438e-04 0.0
-7.755461e-03 -3.738634e-04 0.0
-7.543281e-03 -3.958127e-04 0.0
-7.319623e-03 -4.172308e-04 0.0
-7.084816e-03 -4.380492e-04 0.0
-6.839226e-03 -4.581914e-04 0.0
-6.583265e-03 -4.775722e-04 0.0
-6.317396e-03 -4.960961e-04 0.0
-6.042142e-03 -5.136558e-04 0.0
-5.758090e-03 -5.301296e-04 0.0
-5.465905e-03 -5.453786e-04 0.0
-5.166337e-03 -5.592435e-04 0.0
-4.860235e-03 -5.715422e-04 0.0
-4.548560e-03 -5.820663e-04 0.0
-4.232397e-03 -5.905791e-04 0.0
-3.912976e-03 -5.968135e-04 0.0
-3.591681e-03 -6.004706e-04 0.0
-3.270071e-03 -6.012195e-04 0.0
-2.949892e-03 -5.986981e-04 0.0
-2.633091e-03 -5.925136e-04 0.0
-2.321829e-03 -5.822469e-04 0.0
-2.018488e-03 -5.674590e-04 0.0
-1.725670e-03 -5.477019e-04 0.0
-1.446185e-03 -5.225333e-04 0.0
-1.183034e-03 -4.915404e-04 0.0
-9.393633e-04 -4.543744e-04 0.0
-7.183909e-04 -4.108028e-04 0.0
-5.232927e-04 -3.607910e-04 0.0
-3.570222e-04 -3.046307e-04 0.0
-2.220394e-04 -2.431481e-04 0.0
-1.198975e-04 -1.780409e-04 0.0
-5.065687e-05 -1.124192e-04 0.0
-1.208071e-05 -5.163767e-05 0.0
1.390285e-06 -4.490075e-06 0.0
0.000000e+00 1.506201e-05 0.0
0.000000e+00 -1.501247e-05 0.0
0.000000e+00 -1.104788e-06 0.0
-1.505899e-05 -1.553410e-05 0.0
-4.883514e-05 3.338317e-05 0.0
-1.149773e-04 1.163558e-04 0.0
-2.182192e-04 2.174718e-04 0.0
-3.609558e-04 3.243634e-04 0.0
-5.435495e-04 4.286647e-04 0.0
-7.646296e-04 5.250836e-04 0.0
-1.021400e-03 6.107542e-04 0.0
-1.309993e-03 6.846886e-04 0.0
-1.625877e-03 7.472504e-04 0.0
-1.964292e-03 7.996220e-04 0.0
-2.320662e-03 8.432960e-04 0.0
-2.690917e-03 8.796499e-04 0.0
-3.071668e-03 9.096642e-04 0.0
-3.460227e-03 9.338217e-04 0.0
-3.854493e-03 9.521785e-04 0.0
-4.252743e-03 9.645592e-04 0.0
-4.653412e-03 9.708016e-04 0.0
-5.054921e-03 9.709694e-04 0.0
-5.455583e-03 9.654739e-04 0.0
-5.853621e-03 9.550764e-04 0.0
-6.247251e-03 9.407792e-04 0.0
-6.634813e-03 9.236500e-04 0.0
-7.014892e-03 9.046353e-04 0.0
-7.386386e-03 8.844161e-04 0.0
-7.748520e-03 8.633433e-04 0.0
-8.100785e-03 8.414595e-04 0.0
-8.442844e-03 8.185917e-04 0.0
-8.774422e-03 7.944797e-04 0.0
-9.095213e-03 7.688995e-04 0.0
-9.404826e-03 7.417491e-04 0.0
-9.702775e-03 7.130785e-04 0.0
-9.988513e-03 6.830662e-04 0.0
-1.026148e-02 6.519581e-04 0.0
-1.052115e-02 6.199958e-04 0.0
-1.076707e-02 5.873570e-04 0.0
-1.099889e-02 5.541259e-04 0.0
-1.121632e-02 5.202959e-04 0.0
-1.141911e-02 4.857997e-04 0.0
-1.160705e-02 4.505511e-04 0.0
-1.177989e-02 4.144848e-04 0.0
-1.193737e-02 3.775819e-04 0.0
-1.207922e-02 3.398766e-04 0.0
-1.220512e-02 3.014466e-04 0.0
-1.231480e-02 2.623921e-04 0.0
-1.240798e-02 2.228137e-04 0.0
-1.248444e-02 1.827947e-04 0.0
-1.254396e-02 1.423927e-04 0.0
-1.258641e-02 1.016407e-04 0.0
-1.261164e-02 6.055589e-05 0.0
-1.261955e-02 1.915260e-05 0.0
-1.261007e-02 -2.254432e-05 0.0
-1.258311e-02 -6.449063e-05 0.0
-1.253862e-02 -1.066338e-04 0.0
-1.247655e-02 -1.489105e-04 0.0
-1.239688e-02 -1.912487e-04 0.0
-1.229962e-02 -2.335720e-04 0.0
-1.218479e-02 -2.758042e-04 0.0
-1.205245e-02 -3.178723e-04 0.0
-1.190270e-02 -3.597084e-04 0.0
-1.173565e-02 -4.012487e-04 0.0
-1.155146e-02 -4.424313e-04 0.0
-1.135032e-02 -4.831936e-04 0.0
-1.113243e-02 -5.234691e-04 0.0
-1.089805e-02 -5.631852e-04 0.0
-1.064744e-02 -6.022616e-04 0.0
-1.038093e-02 -6.406095e-04 0.0
-1.009886e-02 -6.781310e-04 0.0
-9.801615e-03 -7.147188e-04 0.0
-9.489652e-03 -7.502552e-04 0.0
-9.163463e-03 -7.846107e-04 0.0
-8.823605e-03 -8.176415e-04 0.0
-8.470706e-03 -8.491866e-04 0.0
-8.105471e-03 -8.790635e-04 0.0
-7.728693e-03 -9.070644e-04 0.0
-7.341264e-03 -9.329513e-04 0.0
-6.944190e-03 -9.564521e-04 0.0
-6.538607e-03 -9.772553e-04 0.0
-6.125793e-03 -9.950071e-04 0.0
-5.707191e-03 -1.009307e-03 0.0
-5.284424e-03 -1.019707e-03 0.0
-4.859316e-03 -1.025706e-03 0.0
-4.433909e-03 -1.026757e-03 0.0
-4.010476e-03 -1.022262e-03 0.0
-3.591543e-03 -1.011580e-03 0.0
-3.179891e-03 -9.940337e-04 0.0
-2.778562e-03 -9.689243e-04 0.0
-2.390851e-03 -9.355492e-04 0.0
-2.020289e-03 -8.932326e-04 0.0
-1.670599e-03 -8.413665e-04 0.0
-1.345637e-03 -7.794708e-04 0.0
-1.049293e-03 -7.072807e-04 0.0
-7.853410e-04 -6.248750e-04 0.0
-5.572331e-04 -5.328685e-04 0.0
-3.678097e-04 -4.327016e-04 0.0
-2.189022e-04 -3.270770e-04 0.0
-1.108402e-04 -2.206094e-04 0.0
-4.186228e-05 -1.207434e-04 0.0
-7.502324e-06 -3.897791e-05 0.0
0.000000e+00 7.431528e-06 0.0
0.000000e+00 -7.317849e-06 0.0
0.000000e+00 -1.756560e-05 0.0
-2.354102e-05 1.974829e-06 0.0
-7.786548e-05 9.248585e-05 0.0
-1.749620e-04 2.203155e-04 0.0
-3.180169e-04 3.673424e-04 0.0
-5.083942e-04 5.193474e-04 0.0
-7.455250e-04 6.666549e-04 0.0
-1.027052e-03 8.032666e-04 0.0
-1.349158e-03 9.260645e-04 0.0
-1.707030e-03 1.034039e-03 0.0
-2.095395e-03 1.127550e-03 0.0
-2.509032e-03 1.207655e-03 0.0
-2.943173e-03 1.275570e-03 0.0
-3.393730e-03 1.332304e-03 0.0
-3.857341e-03 1.378501e-03 0.0
-4.331242e-03 1.414478e-03 0.0
-4.813052e-03 1.440389e-03 0.0
-5.300535e-03 1.456446e-03 0.0
-5.791417e-03 1.463112e-03 0.0
-6.283316e-03 1.461201e-03 0.0
-6.773776e-03 1.451857e-03 0.0
-7.260387e-03 1.436424e-03 0.0
-7.740946e-03 1.416262e-03 0.0
-8.213592e-03 1.392548e-03 0.0
-8.676883e-03 1.366142e-03 0.0
-9.129788e-03 1.337532e-03 0.0
-9.571604e-03 1.306874e-03 0.0
-1.000183e-02 1.274102e-03 0.0
-1.042003e-02 1.239066e-03 0.0
-1.082573e-02 1.201663e-03 0.0
-1.121834e-02 1.161914e-03 0.0
-1.159718e-02 1.119982e-03 0.0
-1.196153e-02 1.076141e-03 0.0
-1.231064e-02 1.030702e-03 0.0
-1.264387e-02 9.839383e-04 0.0
-1.296066e-02 9.360369e-04 0.0
-1.326057e-02 8.870741e-04 0.0
-1.354324e-02 8.370344e-04 0.0
-1.380838e-02 7.858495e-04 0.0
-1.405569e-02 7.334467e-04 0.0
-1.428486e-02 6.797877e-04 0.0
-1.449555e-02 6.248898e-04 0.0
-1.468738e-02 5.688250e-04 0.0
-1.485998e-02 5.117037e-04 0.0
-1.501298e-02 4.536500e-04 0.0
-1.514604e-02 3.947784e-04 0.0
-1.525887e-02 3.351791e-04 0.0
-1.535122e-02 2.749136e-04 0.0
-1.542290e-02 2.140203e-04 0.0
-1.547374e-02 1.525270e-04 0.0
-1.550359e-02 9.046444e-05 0.0
-1.551232e-02 2.787905e-05 0.0
-1.549982e-02 -3.515889e-05 0.0
-1.546599e-02 -9.855462e-05 0.0
-1.541075e-02 -1.622057e-04 0.0
-1.533405e-02 -2.260051e-04 0.0
-1.523585e-02 -2.898453e-04 0.0
-1.511617e-02 -3.536220e-04 0.0
-1.497506e-02 -4.172366e-04 0.0
-1.481260e-02 -4.805955e-04 0.0
-1.462891e-02 -5.436084e-04 0.0
-1.442416e-02 -6.061847e-04 0.0
-1.419853e-02 -6.682309e-04 0.0
-1.395226e-02 -7.296467e-04 0.0
-1.368561e-02 -7.903236e-04 0.0
-1.339887e-02 -8.501435e-04 0.0
-1.309240e-02 -9.089784e-04 0.0
-1.276657e-02 -9.666902e-04 0.0
-1.242182e-02 -1.023130e-03 0.0
-1.205863e-02 -1.078136e-03 0.0
-1.167757e-02 -1.131535e-03 0.0
-1.127924e-02 -1.183131e-03 0.0
-1.086434e-02 -1.232710e-03 0.0
-1.043365e-02 -1.280031e-03 0.0
-9.988032e-03 -1.324816e-03 0.0
-9.528469e-03 -1.366753e-03 0.0
-9.056057e-03 -1.405483e-03 0.0
-8.572030e-03 -1.440595e-03 0.0
-8.077778e-03 -1.471625e-03 0.0
-7.574860e-03 -1.498044e-03 0.0
-7.065028e-03 -1.519259e-03 0.0
-6.550249e-03 -1.534609e-03 0.0
-6.032721e-03 -1.543361e-03 0.0
-5.514893e-03 -1.544714e-03 0.0
-4.999483e-03 -1.537803e-03 0.0
-4.489489e-03 -1.521707e-03 0.0
-3.988193e-03 -1.495463e-03 0.0
-3.499165e-03 -1.458086e-03 0.0
-3.026244e-03 -1.408604e-03 0.0
-2.573507e-03 -1.346100e-03 0.0
-2.145223e-03 -1.269779e-03 0.0
-1.745772e-03 -1.179047e-03 0.0
-1.379533e-03 -1.073643e-03 0.0
-1.050726e-03 -9.538025e-04 0.0
-7.632059e-04 -8.205068e-04 0.0
-5.201983e-04 -6.758281e-04 0.0
-3.239696e-04 -5.234231e-04 0.0
-1.754763e-04 -3.692203e-04 0.0
-7.401665e-05 -2.223206e-04 0.0
-1.700339e-05 -9.610897e-05 0.0
0.000000e+00 -9.690010e-06 0.0
0.000000e+00 9.874828e-06 0.0
0.000000e+00 -4.152033e-05 0.0
-2.981500e-05 3.069237e-05 0.0
-1.052532e-04 1.749980e-04 0.0
-2.343749e-04 3.564885e-04 0.0
-4.181901e-04 5.559499e-04 0.0
-6.563554e-04 7.584347e-04 0.0
-9.468476e-04 9.537056e-04 0.0
-1.286061e-03 1.135447e-03 0.0
-1.669178e-03 1.300353e-03 0.0
-2.090699e-03 1.447218e-03 0.0
-2.544998e-03 1.576097e-03 0.0
-3.026795e-03 1.687619e-03 0.0
-3.531439e-03 1.782518e-03 0.0
-4.054985e-03 1.861391e-03 0.0
-4.594090e-03 1.924676e-03 0.0
-5.145783e-03 1.972775e-03 0.0
-5.707219e-03 2.006245e-03 0.0
-6.275494e-03 2.025956e-03 0.0
-6.847566e-03 2.033165e-03 0.0
-7.420317e-03 2.029464e-03 0.0
-7.990696e-03 2.016620e-03 0.0
-8.555915e-03 1.996370e-03 0.0
-9.113610e-03 1.970212e-03 0.0
-9.661924e-03 1.939268e-03 0.0
-1.019950e-02 1.904236e-03 0.0
-1.072538e-02 1.865452e-03 0.0
-1.123886e-02 1.823012e-03 0.0
-1.173929e-02 1.776929e-03 0.0
-1.222603e-02 1.727262e-03 0.0
-1.269829e-02 1.674193e-03 0.0
-1.315519e-02 1.618038e-03 0.0
-1.359583e-02 1.559194e-03 0.0
-1.401930e-02 1.498064e-03 0.0
-1.442480e-02 1.434979e-03 0.0
-1.481166e-02 1.370152e-03 0.0
-1.517936e-02 1.303667e-03 0.0
-1.552746e-02 1.235513e-03 0.0
-1.585559e-02 1.165629e-03 0.0
-1.616338e-02 1.093964e-03 0.0
-1.645044e-02 1.020513e-03 0.0
-1.671636e-02 9.453325e-04 0.0
-1.696068e-02 8.685354e-04 0.0
-1.718294e-02 7.902660e-04 0.0
-1.738269e-02 7.106733e-04 0.0
-1.755955e-02 6.298872e-04 0.0
-1.771316e-02 5.480065e-04 0.0
-1.784323e-02 4.650992e-04 0.0
-1.794951e-02 3.812122e-04 0.0
-1.803178e-02 2.963872e-04 0.0
-1.808986e-02 2.106751e-04 0.0
-1.812357e-02 1.241480e-04 0.0
-1.813274e-02 3.690428e-05 0.0
-1.811725e-02 -5.093058e-05 0.0
-1.807696e-02 -1.392114e-04 0.0
-1.801178e-02 -2.277921e-04 0.0
-1.792166e-02 -3.165306e-04 0.0
-1.780657e-02 -4.052912e-04 0.0
-1.766654e-02 -4.939454e-04 0.0
-1.750164e-02 -5.823701e-04 0.0
-1.731199e-02 -6.704443e-04 0.0
-1.709772e-02 -7.580446e-04 0.0
-1.685904e-02 -8.450419e-04 0.0
-1.659615e-02 -9.312985e-04 0.0
-1.630935e-02 -1.016666e-03 0.0
-1.599892e-02 -1.100986e-03 0.0
-1.566522e-02 -1.184088e-03 0.0
-1.530865e-02 -1.265793e-03 0.0
-1.492967e-02 -1.345907e-03 0.0
-1.452879e-02 -1.424226e-03 0.0
-1.410659e-02 -1.500529e-03 0.0
-1.366372e-02 -1.574573e-03 0.0
-1.320091e-02 -1.646090e-03 0.0
-1.271897e-02 -1.714781e-03 0.0
-1.221880e-02 -1.780308e-03 0.0
-1.170144e-02 -1.842286e-03 0.0
-1.116802e-02 -1.900277e-03 0.0
-1.061983e-02 -1.953785e-03 0.0
-1.005829e-02 -2.002243e-03 0.0
-9.485019e-03 -2.045008e-03 0.0
-8.901821e-03 -2.081359e-03 0.0
-8.310714e-03 -2.110486e-03 0.0
-7.713957e-03 -2.131490e-03 0.0
-7.114064e-03 -2.143381e-03 0.0
-6.513825e-03 -2.145082e-03 0.0
-5.916320e-03 -2.135438e-03 0.0
-5.324931e-03 -2.113226e-03 0.0
-4.743346e-03 -2.077177e-03 0.0
-4.175547e-03 -2.026010e-03 0.0
-3.625796e-03 -1.958477e-03 0.0
-3.098594e-03 -1.873421e-03 0.0
-2.598625e-03 -1.769862e-03 0.0
-2.130672e-03 -1.647111e-03 0.0
-1.699502e-03 -1.504921e-03 0.0
-1.309714e-03 -1.343696e-03 0.0
-9.655588e-04 -1.164766e-03 0.0
-6.707175e-04 -9.707746e-04 0.0
-4.280660e-04 -7.661794e-04 0.0
-2.394638e-04 -5.579276e-04 0.0
-1.056188e-04 -3.562714e-04 0.0
-2.614949e-05 -1.756843e-04 0.0
0.000000e+00 -3.594591e-05 0.0
0.000000e+00 3.620861e-05 0.0
0.000000e+00 -7.273065e-05 0.0
-3.422519e-05 6.935319e-05 0.0
-1.306697e-04 2.789596e-04 0.0
-2.916383e-04 5.227451e-04 0.0
-5.156119e-04 7.812825e-04 0.0
-8.001351e-04 1.039811e-03 0.0
-1.141465e-03 1.288110e-03 0.0
-1.534700e-03 1.519788e-03 0.0
-1.974180e-03 1.731320e-03 0.0
-2.454010e-03 1.921110e-03 0.0
-2.968532e-03 2.088673e-03 0.0
-3.512646e-03 2.234050e-03 0.0
-4.081923e-03 2.357470e-03 0.0
-4.672517e-03 2.459257e-03 0.0
-5.280940e-03 2.539891e-03 0.0
-5.903810e-03 2.600164e-03 0.0
-6.537653e-03 2.641294e-03 0.0
-7.178832e-03 2.664964e-03 0.0
-7.823609e-03 2.673231e-03 0.0
-8.468317e-03 2.668339e-03 0.0
-9.109579e-03 2.652472e-03 0.0
-9.744496e-03 2.627530e-03 0.0
-1.037075e-02 2.594983e-03 0.0
-1.098660e-02 2.555825e-03 0.0
-1.159078e-02 2.510648e-03 0.0
-1.218230e-02 2.459780e-03 0.0
-1.276030e-02 2.403454e-03 0.0
-1.332389e-02 2.341945e-03 0.0
-1.387210e-02 2.275644e-03 0.0
-1.440386e-02 2.205055e-03 0.0
-1.491805e-02 2.130736e-03 0.0
-1.541362e-02 2.053215e-03 0.0
-1.588962e-02 1.972908e-03 0.0
-1.634527e-02 1.890081e-03 0.0
-1.677993e-02 1.804849e-03 0.0
-1.719308e-02 1.717225e-03 0.0
-1.758426e-02 1.627172e-03 0.0
-1.795303e-02 1.534673e-03 0.0
-1.829891e-02 1.439762e-03 0.0
-1.862140e-02 1.342541e-03 0.0
-1.891996e-02 1.243164e-03 0.0
-1.919406e-02 1.141811e-03 0.0
-1.944320e-02 1.038657e-03 0.0
-1.966692e-02 9.338466e-04 0.0
-1.986482e-02 8.274909e-04 0.0
-2.003655e-02 7.196671e-04 0.0
-2.018181e-02 6.104345e-04 0.0
-2.030033e-02 4.998525e-04 0.0
-2.039188e-02 3.879957e-04 0.0
-2.045622e-02 2.749646e-04 0.0
-2.049316e-02 1.608887e-04 0.0
-2.050249e-02 4.592371e-05 0.0
-2.048405e-02 -6.975390e-05 0.0
-2.043772e-02 -1.859581e-04 0.0
-2.036339e-02 -3.025097e-04 0.0
-2.026101e-02 -4.192390e-04 0.0
-2.013059e-02 -5.359845e-04 0.0
-1.997216e-02 -6.525897e-04 0.0
-1.978580e-02 -7.688990e-04 0.0
-1.957166e-02 -8.847523e-04 0.0
-1.932989e-02 -9.999816e-04 0.0
-1.906072e-02 -1.114408e-03 0.0
-1.876440e-02 -1.227842e-03 0.0
-1.844122e-02 -1.340080e-03 0.0
-1.809154e-02 -1.450911e-03 0.0
-1.771575e-02 -1.560109e-03 0.0
-1.731433e-02 -1.667440e-03 0.0
-1.688777e-02 -1.772654e-03 0.0
-1.643668e-02 -1.875482e-03 0.0
-1.596172e-02 -1.975637e-03 0.0
-1.546361e-02 -2.072798e-03 0.0
-1.494319e-02 -2.166613e-03 0.0
-1.440138e-02 -2.256687e-03 0.0
-1.383921e-02 -2.342571e-03 0.0
-1.325783e-02 -2.423759e-03 0.0
-1.265853e-02 -2.499677e-03 0.0
-1.204275e-02 -2.569672e-03 0.0
-1.141209e-02 -2.633006e-03 0.0
-1.076837e-02 -2.688846e-03 0.0
-1.011359e-02 -2.736257e-03 0.0
-9.449998e-03 -2.774196e-03 0.0
-8.780106e-03 -2.801507e-03 0.0
-8.106686e-03 -2.816927e-03 0.0
-7.432809e-03 -2.819084e-03 0.0
-6.761853e-03 -2.806518e-03 0.0
-6.097510e-03 -2.777688e-03 0.0
-5.443787e-03 -2.731014e-03 0.0
-4.804997e-03 -2.664910e-03 0.0
-4.185733e-03 -2.577846e-03 0.0
-3.590829e-03 -2.468424e-03 0.0
-3.025301e-03 -2.335484e-03 0.0
-2.494264e-03 -2.178239e-03 0.0
-2.002824e-03 -1.996451e-03 0.0
-1.555947e-03 -1.790661e-03 0.0
-1.158310e-03 -1.562494e-03 0.0
-8.141348e-04 -1.315041e-03 0.0
-5.270464e-04 -1.053359e-03 0.0
-2.999773e-04 -7.850890e-04 0.0
-1.351927e-04 -5.211488e-04 0.0
-3.453362e-05 -2.764367e-04 0.0
0.000000e+00 -7.057297e-05 0.0
0.000000e+00 7.091784e-05 0.0
0.000000e+00 -1.111963e-04 0.0
-3.769287e-05 1.161320e-04 0.0
-1.545901e-04 4.018486e-04 0.0
-3.462217e-04 7.164593e-04 0.0
-6.084391e-04 1.040989e-03 0.0
-9.365653e-04 1.361468e-03 0.0
-1.325148e-03 1.668034e-03 0.0
-1.768141e-03 1.954299e-03 0.0
-2.259298e-03 2.216436e-03 0.0
-2.792586e-03 2.452310e-03 0.0
-3.362499e-03 2.660801e-03 0.0
-3.964174e-03 2.841385e-03 0.0
-4.593310e-03 2.993952e-03 0.0
-5.245955e-03 3.118819e-03 0.0
-5.918246e-03 3.216822e-03 0.0
-6.606202e-03 3.289397e-03 0.0
-7.305648e-03 3.338570e-03 0.0
-8.012279e-03 3.366834e-03 0.0
-8.721855e-03 3.376911e-03 0.0
-9.430431e-03 3.371473e-03 0.0
-1.013457e-02 3.352885e-03 0.0
-1.083148e-02 3.323040e-03 0.0
-1.151900e-02 3.283315e-03 0.0
-1.219547e-02 3.234638e-03 0.0
-1.285962e-02 3.177648e-03 0.0
-1.351029e-02 3.112868e-03 0.0
-1.414635e-02 3.040850e-03 0.0
-1.476658e-02 2.962244e-03 0.0
-1.536970e-02 2.877791e-03 0.0
-1.595441e-02 2.788251e-03 0.0
-1.651948e-02 2.694313e-03 0.0
-1.706383e-02 2.596516e-03 0.0
-1.758656e-02 2.495210e-03 0.0
-1.808691e-02 2.390573e-03 0.0
-1.856427e-02 2.282663e-03 0.0
-1.901809e-02 2.171495e-03 0.0
-1.944782e-02 2.057099e-03 0.0
-1.985288e-02 1.939561e-03 0.0
-2.023270e-02 1.819036e-03 0.0
-2.058665e-02 1.695724e-03 0.0
-2.091414e-02 1.569839e-03 0.0
-2.121460e-02 1.441582e-03 0.0
-2.148752e-02 1.311117e-03 0.0
-2.173244e-02 1.178568e-03 0.0
-2.194897e-02 1.044024e-03 0.0
-2.213674e-02 9.075622e-04 0.0
-2.229545e-02 7.692634e-04 0.0
-2.242479e-02 6.292293e-04 0.0
-2.252448e-02 4.875912e-04 0.0
-2.259426e-02 3.445110e-04 0.0
-2.263389e-02 2.001762e-04 0.0
-2.264316e-02 5.479214e-05 0.0
-2.262189e-02 -9.142566e-05 0.0
-2.256995e-02 -2.382612e-04 0.0
-2.248725e-02 -3.855091e-04 0.0
-2.237376e-02 -5.329723e-04 0.0
-2.222947e-02 -6.804582e-04 0.0
-2.205445e-02 -8.277728e-04 0.0
-2.184880e-02 -9.747162e-04 0.0
-2.161265e-02 -1.121078e-03 0.0
-2.134620e-02 -1.266637e-03 0.0
-2.104967e-02 -1.411158e-03 0.0
-2.072335e-02 -1.554394e-03 0.0
-2.036758e-02 -1.696089e-03 0.0
-1.998273e-02 -1.835975e-03 0.0
-1.956926e-02 -1.973771e-03 0.0
-1.912768e-02 -2.109184e-03 0.0
-1.865857e-02 -2.241900e-03 0.0
-1.816258e-02 -2.371583e-03 0.0
-1.764044e-02 -2.497866e-03 0.0
-1.709298e-02 -2.620346e-03 0.0
-1.652110e-02 -2.738574e-03 0.0
-1.592582e-02 -2.852046e-03 0.0
-1.530828e-02 -2.960197e-03 0.0
-1.466974e-02 -3.062386e-03 0.0
-1.401163e-02 -3.157891e-03 0.0
-1.333551e-02 -3.245894e-03 0.0