# vtk DataFile Version 3.0
Vector Field
ASCII
DATASET RECTILINEAR_GRID
DIMENSIONS 102 102 1
X_COORDINATES 102 double
0.000000 0.100000 0.200000 0.300000 0.400000 0.500000 0.600000 0.700000 0.800000 0.900000 1.000000 1.100000 1.200000 1.300000 1.400000 1.500000 1.600000 1.700000 1.800000 1.900000 2.000000 2.100000 2.200000 2.300000 2.400000 2.500000 2.600000 2.700000 2.800000 2.900000 3.000000 3.100000 3.200000 3.300000 3.400000 3.500000 3.600000 3.700000 3.800000 3.900000 4.000000 4.100000 4.200000 4.300000 4.400000 4.500000 4.600000 4.700000 4.800000 4.900000 5.000000 5.100000 5.200000 5.300000 5.400000 5.500000 5.600000 5.700000 5.800000 5.900000 6.000000 6.100000 6.200000 6.300000 6.400000 6.500000 6.600000 6.700000 6.800000 6.900000 7.000000 7.100000 7.200000 7.300000 7.400000 7.500000 7.600000 7.700000 7.800000 7.900000 8.000000 8.100000 8.200000 8.300000 8.400000 8.500000 8.600000 8.700000 8.800000 8.900000 9.000000 9.100000 9.200000 9.300000 9.400000 9.500000 9.600000 9.700000 9.800000 9.900000 10.000000 10.100000 
Y_COORDINATES 102 double
0.000000 0.100000 0.200000 0.300000 0.400000 0.500000 0.600000 0.700000 0.800000 0.900000 1.000000 1.100000 1.200000 1.300000 1.400000 1.500000 1.600000 1.700000 1.800000 1.900000 2.000000 2.100000 2.200000 2.300000 2.400000 2.500000 2.600000 2.700000 2.800000 2.900000 3.000000 3.100000 3.200000 3.300000 3.400000 3.500000 3.600000 3.700000 3.800000 3.900000 4.000000 4.100000 4.200000 4.300000 4.400000 4.500000 4.600000 4.700000 4.800000 4.900000 5.000000 5.100000 5.200000 5.300000 5.400000 5.500000 5.600000 5.700000 5.800000 5.900000 6.000000 6.100000 6.200000 6.300000 6.400000 6.500000 6.600000 6.700000 6.800000 6.900000 7.000000 7.100000 7.200000 7.300000 7.400000 7.500000 7.600000 7.700000 7.800000 7.900000 8.000000 8.100000 8.200000 8.300000 8.400000 8.500000 8.600000 8.700000 8.800000 8.900000 9.000000 9.100000 9.200000 9.300000 9.400000 9.500000 9.600000 9.700000 9.800000 9.900000 10.000000 10.100000 
Z_COORDINATES 1 double
0.0
POINT_DATA 10404
VECTORS Velocity double
0.000000e+00 0.000000e+00 0.0
-4.670303e-06 0.000000e+00 0.0
-1.216395e-05 0.000000e+00 0.0
-2.716544e-05 0.000000e+00 0.0
-4.201116e-05 0.000000e+00 0.0
-4.952372e-05 0.000000e+00 0.0
-4.328456e-05 0.000000e+00 0.0
-1.904507e-05 0.000000e+00 0.0
2.434470e-05 0.000000e+00 0.0
8.512660e-05 0.000000e+00 0.0
1.598227e-04 0.000000e+00 0.0
2.447709e-04 0.000000e+00 0.0
3.372916e-04 0.000000e+00 0.0
4.360864e-04 0.000000e+00 0.0
5.409162e-04 0.000000e+00 0.0
6.519222e-04 0.000000e+00 0.0
7.690119e-04 0.000000e+00 0.0
8.915725e-04 0.000000e+00 0.0
1.018540e-03 0.000000e+00 0.0
1.148674e-03 0.000000e+00 0.0
1.280834e-03 0.000000e+00 0.0
1.414136e-03 0.000000e+00 0.0
1.547949e-03 0.000000e+00 0.0
1.681786e-03 0.000000e+00 0.0
1.815189e-03 0.000000e+00 0.0
1.947653e-03 0.000000e+00 0.0
2.078621e-03 0.000000e+00 0.0
2.207514e-03 0.000000e+00 0.0
2.333777e-03 0.000000e+00 0.0
2.456910e-03 0.000000e+00 0.0
2.576464e-03 0.000000e+00 0.0
2.692027e-03 0.000000e+00 0.0
2.803199e-03 0.000000e+00 0.0
2.909575e-03 0.000000e+00 0.0
3.010737e-03 0.000000e+00 0.0
3.106255e-03 0.000000e+00 0.0
3.195700e-03 0.000000e+00 0.0
3.278651e-03 0.000000e+00 0.0
3.354698e-03 0.000000e+00 0.0
3.423453e-03 0.000000e+00 0.0
3.484541e-03 0.000000e+00 0.0
3.537609e-03 0.000000e+00 0.0
3.582319e-03 0.000000e+00 0.0
3.618357e-03 0.000000e+00 0.0
3.645430e-03 0.000000e+00 0.0
3.663280e-03 0.000000e+00 0.0
3.671689e-03 0.000000e+00 0.0
3.670487e-03 0.000000e+00 0.0
3.659584e-03 0.000000e+00 0.0
3.638959e-03 0.000000e+00 0.0
3.608651e-03 0.000000e+00 0.0
3.568755e-03 0.000000e+00 0.0
3.519416e-03 0.000000e+00 0.0
3.460832e-03 0.000000e+00 0.0
3.393252e-03 0.000000e+00 0.0
3.316976e-03 0.000000e+00 0.0
3.232354e-03 0.000000e+00 0.0
3.139786e-03 0.000000e+00 0.0
3.039719e-03 0.000000e+00 0.0
2.932645e-03 0.000000e+00 0.0
2.819102e-03 0.000000e+00 0.0
2.699667e-03 0.000000e+00 0.0
2.574956e-03 0.000000e+00 0.0
2.445621e-03 0.000000e+00 0.0
2.312344e-03 0.000000e+00 0.0
2.175835e-03 0.000000e+00 0.0
2.036828e-03 0.000000e+00 0.0
1.896077e-03 0.000000e+00 0.0
1.754348e-03 0.000000e+00 0.0
1.612418e-03 0.000000e+00 0.0
1.471067e-03 0.000000e+00 0.0
1.331069e-03 0.000000e+00 0.0
1.193198e-03 0.000000e+00 0.0
1.058212e-03 0.000000e+00 0.0
9.268577e-04 0.000000e+00 0.0
7.998600e-04 0.000000e+00 0.0
6.779206e-04 0.000000e+00 0.0
5.617125e-04 0.000000e+00 0.0
4.518748e-04 0.000000e+00 0.0
3.490087e-04 0.000000e+00 0.0
2.536720e-04 0.000000e+00 0.0
1.663742e-04 0.000000e+00 0.0
8.757135e-05 0.000000e+00 0.0
1.765990e-05 0.000000e+00 0.0
-4.302930e-05 0.000000e+00 0.0
-9.423830e-05 0.000000e+00 0.0
-1.357918e-04 0.000000e+00 0.0
-1.676067e-04 0.000000e+00 0.0
-1.897056e-04 0.000000e+00 0.0
-2.022337e-04 0.000000e+00 0.0
-2.054809e-04 0.000000e+00 0.0
-1.999108e-04 0.000000e+00 0.0
-1.862009e-04 0.000000e+00 0.0
-1.652974e-04 0.000000e+00 0.0
-1.384930e-04 0.000000e+00 0.0
-1.075381e-04 0.000000e+00 0.0
-7.479472e-05 0.000000e+00 0.0
-4.343283e-05 0.000000e+00 0.0
-1.758753e-05 0.000000e+00 0.0
-2.073815e-06 0.000000e+00 0.0
-0.000000e+00 0.000000e+00 0.0
0.000000e+00 0.000000e+00 0.0
0.000000e+00 1.607638e-05 0.0
-1.121281e-05 -3.309607e-05 0.0
2.436372e-05 -2.633672e-05 0.0
5.724051e-05 -9.336585e-06 0.0
7.478255e-05 7.305867e-06 0.0
7.169706e-05 1.884639e-05 0.0
4.863677e-05 2.565432e-05 0.0
9.464204e-06 3.097845e-05 0.0
-4.154064e-05 3.815877e-05 0.0
-1.015819e-04 4.879478e-05 0.0
-1.698783e-04 6.232724e-05 0.0
-2.470328e-04 7.679521e-05 0.0
-3.339077e-04 9.006201e-05 0.0
-4.307042e-04 1.007855e-04 0.0
-5.366315e-04 1.087430e-04 0.0
-6.501506e-04 1.145494e-04 0.0
-7.694975e-04 1.190910e-04 0.0
-8.931496e-04 1.230331e-04 0.0
-1.020035e-03 1.266114e-04 0.0
-1.149472e-03 1.297084e-04 0.0
-1.280966e-03 1.320769e-04 0.0
-1.414009e-03 1.335479e-04 0.0
-1.547986e-03 1.341230e-04 0.0
-1.682186e-03 1.339450e-04 0.0
-1.815883e-03 1.332014e-04 0.0
-1.948416e-03 1.320335e-04 0.0
-2.079226e-03 1.304928e-04 0.0
-2.207845e-03 1.285512e-04 0.0
-2.333859e-03 1.261437e-04 0.0
-2.456863e-03 1.232147e-04 0.0
-2.576429e-03 1.197439e-04 0.0
-2.692106e-03 1.157498e-04 0.0
-2.803428e-03 1.112743e-04 0.0
-2.909929e-03 1.063629e-04 0.0
-3.011159e-03 1.010493e-04 0.0
-3.106687e-03 9.534955e-05 0.0
-3.196104e-03 8.926490e-05 0.0
-3.279013e-03 8.278943e-05 0.0
-3.355027e-03 7.591808e-05 0.0
-3.423766e-03 6.865222e-05 0.0
-3.484857e-03 6.100159e-05 0.0
-3.537938e-03 5.298352e-05 0.0
-3.582664e-03 4.462070e-05 0.0
-3.618714e-03 3.593925e-05 0.0
-3.645796e-03 2.696800e-05 0.0
-3.663649e-03 1.773947e-05 0.0
-3.672056e-03 8.292649e-06 0.0
-3.670852e-03 -1.321549e-06 0.0
-3.659946e-03 -1.102836e-05 0.0
-3.639315e-03 -2.075492e-05 0.0
-3.609001e-03 -3.044055e-05 0.0
-3.569094e-03 -4.002944e-05 0.0
-3.519741e-03 -4.946841e-05 0.0
-3.461142e-03 -5.870619e-05 0.0
-3.393545e-03 -6.769298e-05 0.0
-3.317253e-03 -7.638001e-05 0.0
-3.232616e-03 -8.471907e-05 0.0
-3.140036e-03 -9.266227e-05 0.0
-3.039957e-03 -1.001621e-04 0.0
-2.932872e-03 -1.071717e-04 0.0
-2.819318e-03 -1.136460e-04 0.0
-2.699869e-03 -1.195420e-04 0.0
-2.575143e-03 -1.248199e-04 0.0
-2.445789e-03 -1.294438e-04 0.0
-2.312491e-03 -1.333821e-04 0.0
-2.175960e-03 -1.366076e-04 0.0
-2.036932e-03 -1.390977e-04 0.0
-1.896160e-03 -1.408343e-04 0.0
-1.754412e-03 -1.418040e-04 0.0
-1.612465e-03 -1.419988e-04 0.0
-1.471097e-03 -1.414158e-04 0.0
-1.331085e-03 -1.400571e-04 0.0
-1.193200e-03 -1.379285e-04 0.0
-1.058202e-03 -1.350402e-04 0.0
-9.268350e-04 -1.314071e-04 0.0
-7.998265e-04 -1.270485e-04 0.0
-6.778775e-04 -1.219885e-04 0.0
-5.616610e-04 -1.162559e-04 0.0
-4.518163e-04 -1.098840e-04 0.0
-3.489441e-04 -1.029110e-04 0.0
-2.536023e-04 -9.537976e-05 0.0
-1.663002e-04 -8.733838e-05 0.0
-8.749361e-05 -7.884037e-05 0.0
-1.757928e-05 -6.994517e-05 0.0
4.311179e-05 -6.071864e-05 0.0
9.432142e-05 -5.123396e-05 0.0
1.358740e-04 -4.157404e-05 0.0
1.676865e-04 -3.183157e-05 0.0
1.897814e-04 -2.211232e-05 0.0
2.023039e-04 -1.253896e-05 0.0
2.055442e-04 -3.256275e-06 0.0
1.999662e-04 5.561922e-06 0.0
1.862477e-04 1.370215e-05 0.0
1.653351e-04 2.089571e-05 0.0
1.385218e-04 2.679599e-05 0.0
1.075585e-04 3.094566e-05 0.0
7.480769e-05 3.273276e-05 0.0
4.343986e-05 3.134954e-05 0.0
1.759090e-05 2.583063e-05 0.0
2.075995e-06 1.549633e-05 0.0
0.000000e+00 2.057426e-06 0.0
0.000000e+00 -2.063385e-06 0.0
0.000000e+00 4.940625e-05 0.0
1.469918e-05 -3.822915e-05 0.0
5.604267e-05 -4.463155e-05 0.0
8.181301e-05 -2.468975e-05 0.0
7.861376e-05 6.282731e-06 0.0
4.069496e-05 4.246279e-05 0.0
-3.266421e-05 8.234711e-05 0.0
-1.400104e-04 1.260712e-04 0.0
-2.797134e-04 1.731474e-04 0.0
-4.507109e-04 2.217163e-04 0.0
-6.522601e-04 2.690629e-04 0.0
-8.832915e-04 3.126635e-04 0.0
-1.141926e-03 3.510140e-04 0.0
-1.425427e-03 3.838478e-04 0.0
-1.730534e-03 4.117823e-04 0.0
-2.053930e-03 4.357206e-04 0.0
-2.392593e-03 4.563581e-04 0.0
-2.743922e-03 4.739879e-04 0.0
-3.105655e-03 4.885888e-04 0.0
-3.475711e-03 5.000481e-04 0.0
-3.852050e-03 5.083546e-04 0.0
-4.232632e-03 5.136708e-04 0.0
-4.615443e-03 5.162847e-04 0.0
-4.998565e-03 5.165047e-04 0.0
-5.380217e-03 5.145675e-04 0.0
-5.758773e-03 5.106042e-04 0.0
-6.132729e-03 5.046588e-04 0.0
-6.500665e-03 4.967343e-04 0.0
-6.861203e-03 4.868387e-04 0.0
-7.212983e-03 4.750095e-04 0.0
-7.554662e-03 4.613135e-04 0.0
-7.884916e-03 4.458315e-04 0.0
-8.202449e-03 4.286394e-04 0.0
-8.506003e-03 4.097956e-04 0.0
-8.794353e-03 3.893380e-04 0.0
-9.066307e-03 3.672900e-04 0.0
-9.320702e-03 3.436695e-04 0.0
-9.556402e-03 3.184984e-04 0.0
-9.772298e-03 2.918088e-04 0.0
-9.967313e-03 2.636459e-04 0.0
-1.014041e-02 2.340675e-04 0.0
-1.029061e-02 2.031438e-04 0.0
-1.041697e-02 1.709565e-04 0.0
-1.051866e-02 1.376001e-04 0.0
-1.059491e-02 1.031849e-04 0.0
-1.064504e-02 6.784201e-05 0.0
-1.066850e-02 3.172923e-05 0.0
-1.066490e-02 -4.958308e-06 0.0
-1.063400e-02 -4.197148e-05 0.0
-1.057573e-02 -7.906103e-05 0.0
-1.049019e-02 -1.160039e-04 0.0
-1.037765e-02 -1.525910e-04 0.0
-1.023851e-02 -1.886216e-04 0.0
-1.007332e-02 -2.238997e-04 0.0
-9.882792e-03 -2.582322e-04 0.0
-9.667754e-03 -2.914288e-04 0.0
-9.429189e-03 -3.233009e-04 0.0
-9.168211e-03 -3.536633e-04 0.0
-8.886067e-03 -3.823351e-04 0.0
-8.584128e-03 -4.091415e-04 0.0
-8.263889e-03 -4.339159e-04 0.0
-7.926955e-03 -4.565015e-04 0.0
-7.575043e-03 -4.767536e-04 0.0
-7.209962e-03 -4.945400e-04 0.0
-6.833611e-03 -5.097429e-04 0.0
-6.447967e-03 -5.222593e-04 0.0
-6.055069e-03 -5.320021e-04 0.0
-5.657009e-03 -5.389008e-04 0.0
-5.255918e-03 -5.429030e-04 0.0
-4.853951e-03 -5.439750e-04 0.0
-4.453273e-03 -5.421041e-04 0.0
-4.056045e-03 -5.372961e-04 0.0
-3.664413e-03 -5.295729e-04 0.0
-3.280492e-03 -5.189736e-04 0.0
-2.906357e-03 -5.055545e-04 0.0
-2.544028e-03 -4.893900e-04 0.0
-2.195457e-03 -4.705721e-04 0.0
-1.862513e-03 -4.492111e-04 0.0
-1.546971e-03 -4.254357e-04 0.0
-1.250497e-03 -3.993934e-04 0.0
-9.746328e-04 -3.712508e-04 0.0
-7.207807e-04 -3.411950e-04 0.0
-4.901892e-04 -3.094346e-04 0.0
-2.839346e-04 -2.762011e-04 0.0
-1.029019e-04 -2.417521e-04 0.0
5.223748e-05 -2.063739e-04 0.0
1.810485e-04 -1.703862e-04 0.0
2.833676e-04 -1.341525e-04 0.0
3.593367e-04 -9.808419e-05 0.0
4.094482e-04 -6.265426e-05 0.0
4.346024e-04 -2.841507e-05 0.0
4.361788e-04 3.980540e-06 0.0
4.161270e-04 3.374865e-05 0.0
3.770831e-04 5.993431e-05 0.0
3.225146e-04 8.135926e-05 0.0
2.568945e-04 9.656082e-05 0.0
1.858830e-04 1.037393e-04 0.0
1.164517e-04 1.007762e-04 0.0
5.676754e-05 8.550991e-05 0.0
1.547639e-05 5.678272e-05 0.0
0.000000e+00 1.752909e-05 0.0
0.000000e+00 -1.753301e-05 0.0
0.000000e+00 7.218865e-05 0.0
2.838296e-05 -4.165508e-05 0.0
5.281717e-05 -5.822153e-05 0.0
4.938609e-05 -2.570965e-05 0.0
6.078503e-06 3.517164e-05 0.0
-8.266001e-05 1.150636e-04 0.0
-2.192119e-04 2.078909e-04 0.0
-4.048486e-04 3.086118e-04 0.0
-6.404267e-04 4.121283e-04 0.0
-9.260841e-04 5.135061e-04 0.0
-1.260650e-03 6.087756e-04 0.0
-1.641367e-03 6.955508e-04 0.0
-2.064149e-03 7.730623e-04 0.0
-2.524203e-03 8.416558e-04 0.0
-3.016692e-03 9.020923e-04 0.0
-3.537158e-03 9.550050e-04 0.0
-4.081619e-03 1.000691e-03 0.0
-4.646435e-03 1.039205e-03 0.0
-5.228115e-03 1.070573e-03 0.0
-5.823184e-03 1.094976e-03 0.0
-6.428184e-03 1.112790e-03 0.0
-7.039744e-03 1.124515e-03 0.0
-7.654674e-03 1.130652e-03 0.0
-8.270017e-03 1.131608e-03 0.0
-8.883037e-03 1.127660e-03 0.0
-9.491178e-03 1.118986e-03 0.0
-1.009200e-02 1.105719e-03 0.0
-1.068314e-02 1.087989e-03 0.0
-1.126229e-02 1.065944e-03 0.0
-1.182720e-02 1.039750e-03 0.0
-1.237566e-02 1.009567e-03 0.0
-1.290555e-02 9.755372e-04 0.0
-1.341480e-02 9.377737e-04 0.0
-1.390142e-02 8.963611e-04 0.0
-1.436346e-02 8.513668e-04 0.0
-1.479901e-02 8.028528e-04 0.0
-1.520623e-02 7.508868e-04 0.0
-1.558330e-02 6.955499e-04 0.0
-1.592847e-02 6.369399e-04 0.0
-1.624003e-02 5.751729e-04 0.0
-1.651639e-02 5.103843e-04 0.0
-1.675600e-02 4.427306e-04 0.0
-1.695747e-02 3.723938e-04 0.0
-1.711948e-02 2.995863e-04 0.0
-1.724088e-02 2.245580e-04 0.0
-1.732068e-02 1.476038e-04 0.0
-1.735806e-02 6.907239e-05 0.0
-1.735244e-02 -1.062175e-05 0.0
-1.730347e-02 -9.098066e-05 0.0
-1.721106e-02 -1.714991e-04 0.0
-1.707537e-02 -2.517075e-04 0.0
-1.689680e-02 -3.311584e-04 0.0
-1.667601e-02 -4.094170e-04 0.0
-1.641386e-02 -4.860568e-04 0.0
-1.611144e-02 -5.606568e-04 0.0
-1.577009e-02 -6.328012e-04 0.0
-1.539134e-02 -7.020807e-04 0.0
-1.497694e-02 -7.680948e-04 0.0
-1.452886e-02 -8.304547e-04 0.0
-1.404924e-02 -8.887872e-04 0.0
-1.354045e-02 -9.427375e-04 0.0
-1.300499e-02 -9.919724e-04 0.0
-1.244558e-02 -1.036183e-03 0.0
-1.186504e-02 -1.075086e-03 0.0
-1.126635e-02 -1.108430e-03 0.0
-1.065263e-02 -1.135990e-03 0.0
-1.002706e-02 -1.157580e-03 0.0
-9.392924e-03 -1.173044e-03 0.0
-8.753568e-03 -1.182270e-03 0.0
-8.112372e-03 -1.185183e-03 0.0
-7.472738e-03 -1.181752e-03 0.0
-6.838061e-03 -1.171987e-03 0.0
-6.211711e-03 -1.155936e-03 0.0
-5.597017e-03 -1.133681e-03 0.0
-4.997239e-03 -1.105345e-03 0.0
-4.415553e-03 -1.071087e-03 0.0
-3.855027e-03 -1.031108e-03 0.0
-3.318599e-03 -9.856473e-04 0.0
-2.809056e-03 -9.349852e-04 0.0
-2.329011e-03 -8.794434e-04 0.0
-1.880877e-03 -8.193865e-04 0.0
-1.466849e-03 -7.552242e-04 0.0
-1.088871e-03 -6.874134e-04 0.0
-7.486095e-04 -6.164626e-04 0.0
-4.474253e-04 -5.429370e-04 0.0
-1.863353e-04 -4.674655e-04 0.0
3.402616e-05 -3.907505e-04 0.0
2.134504e-04 -3.135807e-04 0.0
3.522147e-04 -2.368533e-04 0.0
4.511467e-04 -1.615916e-04 0.0
5.117010e-04 -8.897496e-05 0.0
5.360546e-04 -2.037855e-05 0.0
5.272202e-04 4.257776e-05 0.0
4.891790e-04 9.797056e-05 0.0
4.270289e-04 1.435048e-04 0.0
3.471373e-04 1.764480e-04 0.0
2.572644e-04 1.936078e-04 0.0
1.665959e-04 1.914405e-04 0.0
8.560925e-05 1.664920e-04 0.0
2.581104e-05 1.165765e-04 0.0
0.000000e+00 4.333573e-05 0.0
0.000000e+00 -4.333557e-05 0.0
0.000000e+00 7.752250e-05 0.0
2.808753e-05 -4.234825e-05 0.0
2.126196e-05 -5.539535e-05 0.0
-2.413431e-05 5.037992e-06 0.0
-1.184829e-04 1.133260e-04 0.0
-2.680940e-04 2.543390e-04 0.0
-4.777079e-04 4.158342e-04 0.0
-7.510908e-04 5.871633e-04 0.0
-1.090518e-03 7.592486e-04 0.0
-1.496023e-03 9.251476e-04 0.0
-1.965140e-03 1.080434e-03 0.0
-2.493340e-03 1.222994e-03 0.0
-3.074936e-03 1.352303e-03 0.0
-3.703993e-03 1.468562e-03 0.0
-4.374913e-03 1.572047e-03 0.0
-5.082569e-03 1.662853e-03 0.0
-5.822154e-03 1.740968e-03 0.0
-6.588947e-03 1.806476e-03 0.0
-7.378177e-03 1.859712e-03 0.0
-8.185053e-03 1.901266e-03 0.0
-9.004880e-03 1.931880e-03 0.0
-9.833199e-03 1.952293e-03 0.0
-1.066585e-02 1.963136e-03 0.0
-1.149899e-02 1.964897e-03 0.0
-1.232897e-02 1.957948e-03 0.0
-1.315233e-02 1.942611e-03 0.0
-1.396571e-02 1.919199e-03 0.0
-1.476584e-02 1.888033e-03 0.0
-1.554954e-02 1.849432e-03 0.0
-1.631371e-02 1.803691e-03 0.0
-1.705541e-02 1.751065e-03 0.0
-1.777174e-02 1.691760e-03 0.0
-1.845996e-02 1.625944e-03 0.0
-1.911736e-02 1.553758e-03 0.0
-1.974132e-02 1.475334e-03 0.0
-2.032928e-02 1.390808e-03 0.0
-2.087875e-02 1.300329e-03 0.0
-2.138731e-02 1.204064e-03 0.0
-2.185262e-02 1.102203e-03 0.0
-2.227244e-02 9.949592e-04 0.0
-2.264467e-02 8.825756e-04 0.0
-2.296729e-02 7.653330e-04 0.0
-2.323848e-02 6.435581e-04 0.0
-2.345657e-02 5.176319e-04 0.0
-2.362005e-02 3.879995e-04 0.0
-2.372767e-02 2.551785e-04 0.0
-2.377841e-02 1.197686e-04 0.0
-2.377153e-02 -1.753560e-05 0.0
-2.370661e-02 -1.559280e-04 0.0
-2.358353e-02 -2.945815e-04 0.0
-2.340252e-02 -4.327088e-04 0.0
-2.316413e-02 -5.695482e-04 0.0
-2.286920e-02 -7.043541e-04 0.0
-2.251888e-02 -8.363921e-04 0.0
-2.211462e-02 -9.649370e-04 0.0
-2.165819e-02 -1.089274e-03 0.0
-2.115160e-02 -1.208702e-03 0.0
-2.059720e-02 -1.322539e-03 0.0
-1.999756e-02 -1.430122e-03 0.0
-1.935555e-02 -1.530818e-03 0.0
-1.867428e-02 -1.624025e-03 0.0
-1.795708e-02 -1.709177e-03 0.0
-1.720752e-02 -1.785748e-03 0.0
-1.642935e-02 -1.853256e-03 0.0
-1.562652e-02 -1.911267e-03 0.0
-1.480312e-02 -1.959401e-03 0.0
-1.396337e-02 -1.997334e-03 0.0
-1.311163e-02 -2.024803e-03 0.0
-1.225230e-02 -2.041610e-03 0.0
-1.138988e-02 -2.047627e-03 0.0
-1.052885e-02 -2.042797e-03 0.0
-9.673714e-03 -2.027133e-03 0.0
-8.828949e-03 -2.000714e-03 0.0
-7.998961e-03 -1.963680e-03 0.0
-7.188076e-03 -1.916240e-03 0.0
-6.400504e-03 -1.858667e-03 0.0
-5.640316e-03 -1.791303e-03 0.0
-4.911406e-03 -1.714561e-03 0.0
-4.217472e-03 -1.628922e-03 0.0
-3.561973e-03 -1.534942e-03 0.0
-2.948109e-03 -1.433250e-03 0.0
-2.378779e-03 -1.324554e-03 0.0
-1.856550e-03 -1.209643e-03 0.0
-1.383615e-03 -1.089398e-03 0.0
-9.617583e-04 -9.647970e-04 0.0
-5.923019e-04 -8.369260e-04 0.0
-2.760598e-04 -7.069978e-04 0.0
-1.327697e-05 -5.763694e-04 0.0
1.964333e-04 -4.465697e-04 0.0
3.541695e-04 -3.193338e-04 0.0
4.618351e-04 -1.966461e-04 0.0
5.222363e-04 -8.078468e-05 0.0
5.391972e-04 2.561249e-05 0.0
5.176859e-04 1.194777e-04 0.0
4.639415e-04 1.972456e-04 0.0
3.855904e-04 2.547954e-04 0.0
2.917354e-04 2.874592e-04 0.0
1.929978e-04 2.901743e-04 0.0
1.015645e-04 2.579212e-04 0.0
3.148780e-05 1.866491e-04 0.0
0.000000e+00 7.481957e-05 0.0
0.000000e+00 -7.481345e-05 0.0
0.000000e+00 6.473866e-05 0.0
1.529292e-05 -3.910236e-05 0.0
-2.837344e-05 -2.668867e-05 0.0
-1.216198e-04 8.132677e-05 0.0
-2.739345e-04 2.549385e-04 0.0
-4.929646e-04 4.721749e-04 0.0
-7.853349e-04 7.145988e-04 0.0
-1.155907e-03 9.669427e-04 0.0
-1.606732e-03 1.217504e-03 0.0
-2.136587e-03 1.458332e-03 0.0
-2.741402e-03 1.684788e-03 0.0
-3.415322e-03 1.894580e-03 0.0
-4.151850e-03 2.086674e-03 0.0
-4.944620e-03 2.260482e-03 0.0
-5.787655e-03 2.415516e-03 0.0
-6.675233e-03 2.551408e-03 0.0
-7.601637e-03 2.668089e-03 0.0
-8.561007e-03 2.765902e-03 0.0
-9.547383e-03 2.845572e-03 0.0
-1.055486e-02 2.908044e-03 0.0
-1.157776e-02 2.954298e-03 0.0
-1.261077e-02 2.985211e-03 0.0
-1.364890e-02 3.001520e-03 0.0
-1.468746e-02 3.003847e-03 0.0
-1.572195e-02 2.992753e-03 0.0
-1.674801e-02 2.968789e-03 0.0
-1.776141e-02 2.932505e-03 0.0
-1.875803e-02 2.884433e-03 0.0
-1.973391e-02 2.825060e-03 0.0
-2.068522e-02 2.754806e-03 0.0
-2.160829e-02 2.674024e-03 0.0
-2.249957e-02 2.583007e-03 0.0
-2.335562e-02 2.482008e-03 0.0
-2.417312e-02 2.371263e-03 0.0
-2.494880e-02 2.251003e-03 0.0
-2.567949e-02 2.121470e-03 0.0
-2.636213e-02 1.982919e-03 0.0
-2.699374e-02 1.835627e-03 0.0
-2.757147e-02 1.679898e-03 0.0
-2.809261e-02 1.516071e-03 0.0
-2.855459e-02 1.344534e-03 0.0
-2.895502e-02 1.165730e-03 0.0
-2.929168e-02 9.801766e-04 0.0
-2.956257e-02 7.884718e-04 0.0
-2.976593e-02 5.913047e-04 0.0
-2.990027e-02 3.894650e-04 0.0
-2.996438e-02 1.838526e-04 0.0
-2.995742e-02 -2.450817e-05 0.0
-2.987889e-02 -2.344525e-04 0.0
-2.972869e-02 -4.447733e-04 0.0
-2.950709e-02 -6.543017e-04 0.0
-2.921475e-02 -8.618947e-04 0.0
-2.885270e-02 -1.066427e-03 0.0
-2.842233e-02 -1.266789e-03 0.0
-2.792543e-02 -1.461885e-03 0.0
-2.736411e-02 -1.650638e-03 0.0
-2.674086e-02 -1.831994e-03 0.0
-2.605850e-02 -2.004929e-03 0.0
-2.532018e-02 -2.168453e-03 0.0
-2.452939e-02 -2.321614e-03 0.0
-2.368991e-02 -2.463511e-03 0.0
-2.280579e-02 -2.593292e-03 0.0
-2.188138e-02 -2.710166e-03 0.0
-2.092123e-02 -2.813407e-03 0.0
-1.993015e-02 -2.902361e-03 0.0
-1.891311e-02 -2.976454e-03 0.0
-1.787526e-02 -3.035198e-03 0.0
-1.682189e-02 -3.078194e-03 0.0
-1.575837e-02 -3.105142e-03 0.0
-1.469017e-02 -3.115844e-03 0.0
-1.362277e-02 -3.110209e-03 0.0
-1.256166e-02 -3.088252e-03 0.0
-1.151230e-02 -3.050086e-03 0.0
-1.048007e-02 -2.995919e-03 0.0
-9.470257e-03 -2.926062e-03 0.0
-8.488002e-03 -2.840926e-03 0.0
-7.538281e-03 -2.741027e-03 0.0
-6.625857e-03 -2.626986e-03 0.0
-5.755248e-03 -2.499531e-03 0.0
-4.930688e-03 -2.359503e-03 0.0
-4.156084e-03 -2.207854e-03 0.0
-3.434982e-03 -2.045658e-03 0.0
-2.770514e-03 -1.874113e-03 0.0
-2.165362e-03 -1.694555e-03 0.0
-1.621698e-03 -1.508466e-03 0.0
-1.141138e-03 -1.317492e-03 0.0
-7.246781e-04 -1.123465e-03 0.0
-3.726274e-04 -9.284266e-04 0.0
-8.453748e-05 -7.346655e-04 0.0
1.408807e-04 -5.447571e-04 0.0
3.058436e-04 -3.616133e-04 0.0
4.136075e-04 -1.885522e-04 0.0
4.685673e-04 -2.935054e-05 0.0
4.763684e-04 1.116738e-04 0.0
4.440138e-04 2.295976e-04 0.0
3.799591e-04 3.188471e-04 0.0
2.942042e-04 3.732111e-04 0.0
1.984009e-04 3.859742e-04 0.0
1.060835e-04 3.502351e-04 0.0
3.327879e-05 2.594503e-04 0.0
0.000000e+00 1.080949e-04 0.0
0.000000e+00 -1.080815e-04 0.0
0.000000e+00 3.683084e-05 0.0
-6.127582e-06 -2.872539e-05 0.0
-8.680386e-05 3.565691e-05 0.0
-2.304276e-04 2.127888e-04 0.0
-4.461988e-04 4.687102e-04 0.0
-7.426302e-04 7.751061e-04 0.0
-1.126721e-03 1.108692e-03 0.0
-1.602585e-03 1.451257e-03 0.0
-2.170661e-03 1.789741e-03 0.0
-2.827953e-03 2.115613e-03 0.0
-3.569068e-03 2.423691e-03 0.0
-4.387485e-03 2.710809e-03 0.0
-5.276496e-03 2.974816e-03 0.0
-6.229590e-03 3.214082e-03 0.0
-7.240394e-03 3.427445e-03 0.0
-8.302435e-03 3.614335e-03 0.0
-9.408995e-03 3.774844e-03 0.0
-1.055315e-02 3.909640e-03 0.0
-1.172795e-02 4.019750e-03 0.0
-1.292664e-02 4.106320e-03 0.0
-1.414279e-02 4.170451e-03 0.0
-1.537037e-02 4.213127e-03 0.0
-1.660361e-02 4.235242e-03 0.0
-1.783703e-02 4.237638e-03 0.0
-1.906527e-02 4.221146e-03 0.0
-2.028315e-02 4.186593e-03 0.0
-2.148564e-02 4.134775e-03 0.0
-2.266788e-02 4.066427e-03 0.0
-2.382520e-02 3.982192e-03 0.0
-2.495311e-02 3.882620e-03 0.0
-2.604728e-02 3.768183e-03 0.0
-2.710355e-02 3.639292e-03 0.0
-2.811786e-02 3.496326e-03 0.0
-2.908625e-02 3.339648e-03 0.0
-3.000489e-02 3.169618e-03 0.0
-3.087007e-02 2.986605e-03 0.0
-3.167818e-02 2.790992e-03 0.0
-3.242578e-02 2.583185e-03 0.0
-3.310953e-02 2.363631e-03 0.0
-3.372632e-02 2.132828e-03 0.0
-3.427316e-02 1.891342e-03 0.0
-3.474731e-02 1.639825e-03 0.0
-3.514621e-02 1.379024e-03 0.0
-3.546759e-02 1.109795e-03 0.0
-3.570945e-02 8.331127e-04 0.0
-3.587008e-02 5.500781e-04 0.0
-3.594816e-02 2.619331e-04 0.0
-3.594273e-02 -2.992511e-05 0.0
-3.585324e-02 -3.239269e-04 0.0
-3.567958e-02 -6.184311e-04 0.0
-3.542206e-02 -9.118297e-04 0.0
-3.508145e-02 -1.202539e-03 0.0
-3.465892e-02 -1.488996e-03 0.0
-3.415611e-02 -1.769657e-03 0.0
-3.357504e-02 -2.043001e-03 0.0
-3.291818e-02 -2.307535e-03 0.0
-3.218840e-02 -2.561799e-03 0.0
-3.138897e-02 -2.804375e-03 0.0
-3.052353e-02 -3.033889e-03 0.0
-2.959612e-02 -3.249025e-03 0.0
-2.861109e-02 -3.448529e-03 0.0
-2.757317e-02 -3.631218e-03 0.0
-2.648735e-02 -3.795991e-03 0.0
-2.535893e-02 -3.941839e-03 0.0
-2.419346e-02 -4.067850e-03 0.0
-2.299671e-02 -4.173225e-03 0.0
-2.177465e-02 -4.257282e-03 0.0
-2.053339e-02 -4.319466e-03 0.0
-1.927919e-02 -4.359354e-03 0.0
-1.801838e-02 -4.376663e-03 0.0
-1.675735e-02 -4.371256e-03 0.0
-1.550246e-02 -4.343148e-03 0.0
-1.426007e-02 -4.292485e-03 0.0
-1.303644e-02 -4.219553e-03 0.0
-1.183772e-02 -4.124778e-03 0.0
-1.066992e-02 -4.008729e-03 0.0
-9.538832e-03 -3.872118e-03 0.0
-8.450008e-03 -3.715809e-03 0.0
-7.408724e-03 -3.540816e-03 0.0
-6.419922e-03 -3.348306e-03 0.0
-5.488168e-03 -3.139610e-03 0.0
-4.617607e-03 -2.916224e-03 0.0
-3.811904e-03 -2.679822e-03 0.0
-3.074201e-03 -2.432265e-03 0.0
-2.407052e-03 -2.175622e-03 0.0
-1.812368e-03 -1.912183e-03 0.0
-1.291349e-03 -1.644491e-03 0.0
-8.444117e-04 -1.375369e-03 0.0
-4.711166e-04 -1.107965e-03 0.0
-1.700823e-04 -8.457949e-04 0.0
6.110390e-05 -5.928021e-04 0.0
2.259720e-04 -3.534224e-04 0.0
3.292783e-04 -1.326589e-04 0.0
3.770979e-04 6.385225e-05 0.0
3.769210e-04 2.297725e-04 0.0
3.377415e-04 3.580242e-04 0.0
2.701677e-04 4.407824e-04 0.0
1.865898e-04 4.695493e-04 0.0
1.015093e-04 4.353126e-04 0.0
3.220791e-05 3.287489e-04 0.0
0.000000e+00 1.403000e-04 0.0
0.000000e+00 -1.402784e-04 0.0
0.000000e+00 -2.573074e-06 0.0
-3.080110e-05 -6.573179e-06 0.0
-1.467421e-04 1.372683e-04 0.0
-3.426459e-04 4.047882e-04 0.0
-6.271721e-04 7.586349e-04 0.0
-1.008240e-03 1.165937e-03 0.0
-1.491321e-03 1.600549e-03 0.0
-2.078279e-03 2.042860e-03 0.0
-2.767302e-03 2.479102e-03 0.0
-3.553784e-03 2.899995e-03 0.0
-4.431571e-03 3.299218e-03 0.0
-5.393972e-03 3.672203e-03 0.0
-6.434246e-03 4.015483e-03 0.0
-7.545616e-03 4.326528e-03 0.0
-8.721076e-03 4.603796e-03 0.0
-9.953258e-03 4.846746e-03 0.0
-1.123448e-02 5.055694e-03 0.0
-1.255693e-02 5.231527e-03 0.0
-1.391293e-02 5.375407e-03 0.0
-1.529511e-02 5.488557e-03 0.0
-1.669640e-02 5.572158e-03 0.0
-1.811010e-02 5.627351e-03 0.0
-1.952971e-02 5.655267e-03 0.0
-2.094894e-02 5.657047e-03 0.0
-2.236167e-02 5.633822e-03 0.0
-2.376198e-02 5.586698e-03 0.0
-2.514413e-02 5.516700e-03 0.0
-2.650262e-02 5.424747e-03 0.0
-2.783215e-02 5.311642e-03 0.0
-2.912762e-02 5.178087e-03 0.0
-3.038411e-02 5.024701e-03 0.0
-3.159685e-02 4.852054e-03 0.0
-3.276121e-02 4.660680e-03 0.0
-3.387268e-02 4.451095e-03 0.0
-3.492690e-02 4.223807e-03 0.0
-3.591966e-02 3.979329e-03 0.0
-3.684688e-02 3.718189e-03 0.0
-3.770467e-02 3.440952e-03 0.0
-3.848929e-02 3.148234e-03 0.0
-3.919723e-02 2.840726e-03 0.0
-3.982516e-02 2.519214e-03 0.0
-4.036999e-02 2.184590e-03 0.0
-4.082890e-02 1.837869e-03 0.0
-4.119934e-02 1.480196e-03 0.0
-4.147910e-02 1.112862e-03 0.0
-4.166633e-02 7.373158e-04 0.0
-4.175955e-02 3.551780e-04 0.0
-4.175772e-02 -3.174058e-05 0.0
-4.166022e-02 -4.214226e-04 0.0
-4.146692e-02 -8.117426e-04 0.0
-4.117819e-02 -1.200603e-03 0.0
-4.079486e-02 -1.585930e-03 0.0
-4.031824e-02 -1.965673e-03 0.0
-3.975014e-02 -2.337808e-03 0.0
-3.909283e-02 -2.700342e-03 0.0
-3.834906e-02 -3.051317e-03 0.0
-3.752204e-02 -3.388820e-03 0.0
-3.661543e-02 -3.710987e-03 0.0
-3.563329e-02 -4.016016e-03 0.0
-3.458014e-02 -4.302174e-03 0.0
-3.346086e-02 -4.567811e-03 0.0
-3.228072e-02 -4.811369e-03 0.0
-3.104533e-02 -5.031398e-03 0.0
-2.976063e-02 -5.226567e-03 0.0
-2.843282e-02 -5.395677e-03 0.0
-2.706839e-02 -5.537672e-03 0.0
-2.567404e-02 -5.651650e-03 0.0
-2.425664e-02 -5.736873e-03 0.0
-2.282323e-02 -5.792776e-03 0.0
-2.138092e-02 -5.818977e-03 0.0
-1.993691e-02 -5.815280e-03 0.0
-1.849837e-02 -5.781690e-03 0.0
-1.707247e-02 -5.718390e-03 0.0
-1.566628e-02 -5.625746e-03 0.0
-1.428675e-02 -5.504308e-03 0.0
-1.294066e-02 -5.354817e-03 0.0
-1.163458e-02 -5.178207e-03 0.0
-1.037478e-02 -4.975606e-03 0.0
-9.167251e-03 -4.748346e-03 0.0
-8.017598e-03 -4.497963e-03 0.0
-6.931007e-03 -4.226207e-03 0.0
-5.912191e-03 -3.935047e-03 0.0
-4.965332e-03 -3.626688e-03 0.0
-4.094024e-03 -3.303582e-03 0.0
-3.301206e-03 -2.968447e-03 0.0
-2.589104e-03 -2.624291e-03 0.0
-1.959157e-03 -2.274443e-03 0.0
-1.411942e-03 -1.922587e-03 0.0
-9.471032e-04 -1.572806e-03 0.0
-5.632643e-04 -1.229635e-03 0.0
-2.579467e-04 -8.981209e-04 0.0
-2.748211e-05 -5.838881e-04 0.0
1.330725e-04 -2.932147e-04 0.0
2.300248e-04 -3.310131e-05 0.0
2.711414e-04 1.886544e-04 0.0
2.657409e-04 3.634228e-04 0.0
2.248144e-04 4.817071e-04 0.0
1.612213e-04 5.331399e-04 0.0
9.003208e-05 5.064996e-04 0.0
2.910754e-05 3.896713e-04 0.0
0.000000e+00 1.694055e-04 0.0
0.000000e+00 -1.693753e-04 0.0
0.000000e+00 -5.137399e-05 0.0
-5.379324e-05 3.180116e-05 0.0
-2.039185e-04 2.811652e-04 0.0
-4.546443e-04 6.590545e-04 0.0
-8.129443e-04 1.125599e-03 0.0
-1.284328e-03 1.645675e-03 0.0
-1.871225e-03 2.192061e-03 0.0
-2.572566e-03 2.744614e-03 0.0
-3.384413e-03 3.288848e-03 0.0
-4.301064e-03 3.814267e-03 0.0
-5.316033e-03 4.312978e-03 0.0
-6.422560e-03 4.778893e-03 0.0
-7.613655e-03 5.207442e-03 0.0
-8.881953e-03 5.595544e-03 0.0
-1.021960e-02 5.941549e-03 0.0
-1.161831e-02 6.245025e-03 0.0
-1.306960e-02 6.506406e-03 0.0
-1.456504e-02 6.726630e-03 0.0
-1.609640e-02 6.906866e-03 0.0
-1.765577e-02 7.048374e-03 0.0
-1.923553e-02 7.152468e-03 0.0
-2.082828e-02 7.220527e-03 0.0
-2.242683e-02 7.253987e-03 0.0
-2.402415e-02 7.254311e-03 0.0
-2.561345e-02 7.222927e-03 0.0
-2.718816e-02 7.161188e-03 0.0
-2.874193e-02 7.070329e-03 0.0
-3.026870e-02 6.951454e-03 0.0
-3.176260e-02 6.805545e-03 0.0
-3.321797e-02 6.633482e-03 0.0
-3.462932e-02 6.436074e-03 0.0
-3.599134e-02 6.214071e-03 0.0
-3.729886e-02 5.968184e-03 0.0
-3.854688e-02 5.699097e-03 0.0
-3.973057e-02 5.407479e-03 0.0
-4.084525e-02 5.094003e-03 0.0
-4.188644e-02 4.759368e-03 0.0
-4.284984e-02 4.404321e-03 0.0
-4.373134e-02 4.029686e-03 0.0
-4.452706e-02 3.636379e-03 0.0
-4.523335e-02 3.225433e-03 0.0
-4.584682e-02 2.798011e-03 0.0
-4.636440e-02 2.355418e-03 0.0
-4.678333e-02 1.899118e-03 0.0
-4.710119e-02 1.430746e-03 0.0
-4.731597e-02 9.521309e-04 0.0
-4.742608e-02 4.653081e-04 0.0
-4.743037e-02 -2.745983e-05 0.0
-4.732815e-02 -5.236695e-04 0.0
-4.711928e-02 -1.020668e-03 0.0
-4.680412e-02 -1.515826e-03 0.0
-4.638357e-02 -2.006540e-03 0.0
-4.585906e-02 -2.490233e-03 0.0
-4.523253e-02 -2.964360e-03 0.0
-4.450647e-02 -3.426412e-03 0.0
-4.368386e-02 -3.873923e-03 0.0
-4.276819e-02 -4.304479e-03 0.0
-4.176344e-02 -4.715727e-03 0.0
-4.067407e-02 -5.105388e-03 0.0
-3.950498e-02 -5.471272e-03 0.0
-3.826152e-02 -5.811288e-03 0.0
-3.694944e-02 -6.123468e-03 0.0
-3.557489e-02 -6.405973e-03 0.0
-3.414436e-02 -6.657119e-03 0.0
-3.266467e-02 -6.875385e-03 0.0
-3.114293e-02 -7.059429e-03 0.0
-2.958648e-02 -7.208101e-03 0.0
-2.800291e-02 -7.320458e-03 0.0
-2.639992e-02 -7.395770e-03 0.0
-2.478537e-02 -7.433536e-03 0.0
-2.316716e-02 -7.433490e-03 0.0
-2.155324e-02 -7.395615e-03 0.0
-1.995151e-02 -7.320127e-03 0.0
-1.836978e-02 -7.207474e-03 0.0
-1.681575e-02 -7.058338e-03 0.0
-1.529693e-02 -6.873641e-03 0.0
-1.382059e-02 -6.654553e-03 0.0
-1.239371e-02 -6.402490e-03 0.0
-1.102294e-02 -6.119126e-03 0.0
-9.714511e-03 -5.806396e-03 0.0