# vtk DataFile Version 3.0
Vector Field
ASCII
DATASET RECTILINEAR_GRID
DIMENSIONS 102 102 1
X_COORDINATES 102 double
0.000000 0.100000 0.200000 0.300000 0.400000 0.500000 0.600000 0.700000 0.800000 0.900000 1.000000 1.100000 1.200000 1.300000 1.400000 1.500000 1.600000 1.700000 1.800000 1.900000 2.000000 2.100000 2.200000 2.300000 2.400000 2.500000 2.600000 2.700000 2.800000 2.900000 3.000000 3.100000 3.200000 3.300000 3.400000 3.500000 3.600000 3.700000 3.800000 3.900000 4.000000 4.100000 4.200000 4.300000 4.400000 4.500000 4.600000 4.700000 4.800000 4.900000 5.000000 5.100000 5.200000 5.300000 5.400000 5.500000 5.600000 5.700000 5.800000 5.900000 6.000000 6.100000 6.200000 6.300000 6.400000 6.500000 6.600000 6.700000 6.800000 6.900000 7.000000 7.100000 7.200000 7.300000 7.400000 7.500000 7.600000 7.700000 7.800000 7.900000 8.000000 8.100000 8.200000 8.300000 8.400000 8.500000 8.600000 8.700000 8.800000 8.900000 9.000000 9.100000 9.200000 9.300000 9.400000 9.500000 9.600000 9.700000 9.800000 9.900000 10.000000 10.100000 
Y_COORDINATES 102 double
0.000000 0.100000 0.200000 0.300000 0.400000 0.500000 0.600000 0.700000 0.800000 0.900000 1.000000 1.100000 1.200000 1.300000 1.400000 1.500000 1.600000 1.700000 1.800000 1.900000 2.000000 2.100000 2.200000 2.300000 2.400000 2.500000 2.600000 2.700000 2.800000 2.900000 3.000000 3.100000 3.200000 3.300000 3.400000 3.500000 3.600000 3.700000 3.800000 3.900000 4.000000 4.100000 4.200000 4.300000 4.400000 4.500000 4.600000 4.700000 4.800000 4.900000 5.000000 5.100000 5.200000 5.300000 5.400000 5.500000 5.600000 5.700000 5.800000 5.900000 6.000000 6.100000 6.200000 6.300000 6.400000 6.500000 6.600000 6.700000 6.800000 6.900000 7.000000 7.100000 7.200000 7.300000 7.400000 7.500000 7.600000 7.700000 7.800000 7.900000 8.000000 8.100000 8.200000 8.300000 8.400000 8.500000 8.600000 8.700000 8.800000 8.900000 9.000000 9.100000 9.200000 9.300000 9.400000 9.500000 9.600000 9.700000 9.800000 9.900000 10.000000 10.100000 
Z_COORDINATES 1 double
0.0
POINT_DATA 10404
VECTORS Velocity double
0.000000e+00 0.000000e+00 0.0
2.752425e-06 0.000000e+00 0.0
-6.991010e-06 0.000000e+00 0.0
-9.210725e-06 0.000000e+00 0.0
-3.507161e-07 0.000000e+00 0.0
2.061426e-05 0.000000e+00 0.0
5.319887e-05 0.000000e+00 0.0
9.598533e-05 0.000000e+00 0.0
1.470336e-04 0.000000e+00 0.0
2.042253e-04 0.000000e+00 0.0
2.655378e-04 0.000000e+00 0.0
3.292309e-04 0.000000e+00 0.0
3.939499e-04 0.000000e+00 0.0
4.587614e-04 0.000000e+00 0.0
5.231420e-04 0.000000e+00 0.0
5.869301e-04 0.000000e+00 0.0
6.502440e-04 0.000000e+00 0.0
7.133684e-04 0.000000e+00 0.0
7.766229e-04 0.000000e+00 0.0
8.402336e-04 0.000000e+00 0.0
9.042354e-04 0.000000e+00 0.0
9.684286e-04 0.000000e+00 0.0
1.032396e-03 0.000000e+00 0.0
1.095572e-03 0.000000e+00 0.0
1.157344e-03 0.000000e+00 0.0
1.217154e-03 0.000000e+00 0.0
1.274583e-03 0.000000e+00 0.0
1.329400e-03 0.000000e+00 0.0
1.381571e-03 0.000000e+00 0.0
1.431237e-03 0.000000e+00 0.0
1.478659e-03 0.000000e+00 0.0
1.524159e-03 0.000000e+00 0.0
1.568043e-03 0.000000e+00 0.0
1.610540e-03 0.000000e+00 0.0
1.651759e-03 0.000000e+00 0.0
1.691661e-03 0.000000e+00 0.0
1.730073e-03 0.000000e+00 0.0
1.766712e-03 0.000000e+00 0.0
1.801245e-03 0.000000e+00 0.0
1.833343e-03 0.000000e+00 0.0
1.862738e-03 0.000000e+00 0.0
1.889263e-03 0.000000e+00 0.0
1.912864e-03 0.000000e+00 0.0
1.933593e-03 0.000000e+00 0.0
1.951578e-03 0.000000e+00 0.0
1.966987e-03 0.000000e+00 0.0
1.979980e-03 0.000000e+00 0.0
1.990681e-03 0.000000e+00 0.0
1.999152e-03 0.000000e+00 0.0
2.005388e-03 0.000000e+00 0.0
2.009325e-03 0.000000e+00 0.0
2.010858e-03 0.000000e+00 0.0
2.009863e-03 0.000000e+00 0.0
2.006225e-03 0.000000e+00 0.0
1.999854e-03 0.000000e+00 0.0
1.990689e-03 0.000000e+00 0.0
1.978711e-03 0.000000e+00 0.0
1.963931e-03 0.000000e+00 0.0
1.946388e-03 0.000000e+00 0.0
1.926136e-03 0.000000e+00 0.0
1.903233e-03 0.000000e+00 0.0
1.877735e-03 0.000000e+00 0.0
1.849692e-03 0.000000e+00 0.0
1.819146e-03 0.000000e+00 0.0
1.786130e-03 0.000000e+00 0.0
1.750676e-03 0.000000e+00 0.0
1.712813e-03 0.000000e+00 0.0
1.672569e-03 0.000000e+00 0.0
1.629977e-03 0.000000e+00 0.0
1.585074e-03 0.000000e+00 0.0
1.537898e-03 0.000000e+00 0.0
1.488496e-03 0.000000e+00 0.0
1.436918e-03 0.000000e+00 0.0
1.383221e-03 0.000000e+00 0.0
1.327470e-03 0.000000e+00 0.0
1.269739e-03 0.000000e+00 0.0
1.210113e-03 0.000000e+00 0.0
1.148685e-03 0.000000e+00 0.0
1.085562e-03 0.000000e+00 0.0
1.020867e-03 0.000000e+00 0.0
9.547392e-04 0.000000e+00 0.0
8.873409e-04 0.000000e+00 0.0
8.188640e-04 0.000000e+00 0.0
7.495368e-04 0.000000e+00 0.0
6.796336e-04 0.000000e+00 0.0
6.094850e-04 0.000000e+00 0.0
5.394892e-04 0.000000e+00 0.0
4.701237e-04 0.000000e+00 0.0
4.019583e-04 0.000000e+00 0.0
3.356665e-04 0.000000e+00 0.0
2.720364e-04 0.000000e+00 0.0
2.119787e-04 0.000000e+00 0.0
1.565320e-04 0.000000e+00 0.0
1.068592e-04 0.000000e+00 0.0
6.422933e-05 0.000000e+00 0.0
2.996909e-05 0.000000e+00 0.0
5.349078e-06 0.000000e+00 0.0
-8.665541e-06 0.000000e+00 0.0
-1.199643e-05 0.000000e+00 0.0
-6.761067e-06 0.000000e+00 0.0
-0.000000e+00 0.000000e+00 0.0
0.000000e+00 0.000000e+00 0.0
0.000000e+00 1.592293e-05 0.0
1.363561e-05 -1.165114e-07 0.0
1.607963e-05 -3.279144e-06 0.0
8.834653e-06 1.059813e-06 0.0
-8.821666e-06 7.670996e-06 0.0
-3.585513e-05 1.533798e-05 0.0
-7.068533e-05 2.360657e-05 0.0
-1.117847e-04 3.223836e-05 0.0
-1.579236e-04 4.095220e-05 0.0
-2.082338e-04 4.934876e-05 0.0
-2.621735e-04 5.693173e-05 0.0
-3.194338e-04 6.318339e-05 0.0
-3.798103e-04 6.766833e-05 0.0
-4.430694e-04 7.013720e-05 0.0
-5.088390e-04 7.059958e-05 0.0
-5.765520e-04 6.934099e-05 0.0
-6.454553e-04 6.687593e-05 0.0
-7.146792e-04 6.384785e-05 0.0
-7.833448e-04 6.090327e-05 0.0
-8.506777e-04 5.857193e-05 0.0
-9.161021e-04 5.717926e-05 0.0
-9.792945e-04 5.680638e-05 0.0
-1.040191e-03 5.729844e-05 0.0
-1.098953e-03 5.831419e-05 0.0
-1.155899e-03 5.940389e-05 0.0
-1.211412e-03 6.010108e-05 0.0
-1.265853e-03 6.001357e-05 0.0
-1.319474e-03 5.889884e-05 0.0
-1.372356e-03 5.671042e-05 0.0
-1.424389e-03 5.360508e-05 0.0
-1.475288e-03 4.990805e-05 0.0
-1.524646e-03 4.604189e-05 0.0
-1.572013e-03 4.243439e-05 0.0
-1.616984e-03 3.942691e-05 0.0
-1.659269e-03 3.720504e-05 0.0
-1.698736e-03 3.576736e-05 0.0
-1.735417e-03 3.493852e-05 0.0
-1.769473e-03 3.442078e-05 0.0
-1.801140e-03 3.386882e-05 0.0
-1.830659e-03 3.296808e-05 0.0
-1.858220e-03 3.149785e-05 0.0
-1.883920e-03 2.936622e-05 0.0
-1.907747e-03 2.661265e-05 0.0
-1.929595e-03 2.338223e-05 0.0
-1.949292e-03 1.988155e-05 0.0
-1.966636e-03 1.632918e-05 0.0
-1.981433e-03 1.291210e-05 0.0
-1.993528e-03 9.756388e-06 0.0
-2.002821e-03 6.915633e-06 0.0
-2.009267e-03 4.375764e-06 0.0
-2.012873e-03 2.071941e-06 0.0
-2.013682e-03 -8.835558e-08 0.0
-2.011753e-03 -2.201597e-06 0.0
-2.007152e-03 -4.349510e-06 0.0
-1.999934e-03 -6.591749e-06 0.0
-1.990139e-03 -8.960042e-06 0.0
-1.977787e-03 -1.145986e-05 0.0
-1.962884e-03 -1.407624e-05 0.0
-1.945425e-03 -1.678109e-05 0.0
-1.925403e-03 -1.954021e-05 0.0
-1.902807e-03 -2.231870e-05 0.0
-1.877634e-03 -2.508469e-05 0.0
-1.849886e-03 -2.781155e-05 0.0
-1.819572e-03 -3.047915e-05 0.0
-1.786710e-03 -3.307447e-05 0.0
-1.751326e-03 -3.559177e-05 0.0
-1.713457e-03 -3.803216e-05 0.0
-1.673146e-03 -4.040252e-05 0.0
-1.630443e-03 -4.271349e-05 0.0
-1.585403e-03 -4.497702e-05 0.0
-1.538087e-03 -4.720354e-05 0.0
-1.488556e-03 -4.939956e-05 0.0
-1.436874e-03 -5.156603e-05 0.0
-1.383104e-03 -5.369771e-05 0.0
-1.327313e-03 -5.578370e-05 0.0
-1.269569e-03 -5.780873e-05 0.0
-1.209948e-03 -5.975480e-05 0.0
-1.148532e-03 -6.160271e-05 0.0
-1.085419e-03 -6.333304e-05 0.0
-1.020721e-03 -6.492631e-05 0.0
-9.545744e-04 -6.636227e-05 0.0
-8.871398e-04 -6.761841e-05 0.0
-8.186114e-04 -6.866798e-05 0.0
-7.492229e-04 -6.947782e-05 0.0
-6.792553e-04 -7.000629e-05 0.0
-6.090462e-04 -7.020133e-05 0.0
-5.390001e-04 -6.999905e-05 0.0
-4.695994e-04 -6.932273e-05 0.0
-4.014166e-04 -6.808233e-05 0.0
-3.351263e-04 -6.617506e-05 0.0
-2.715160e-04 -6.348657e-05 0.0
-2.114948e-04 -5.989330e-05 0.0
-1.560987e-04 -5.526699e-05 0.0
-1.064878e-04 -4.948306e-05 0.0
-6.392699e-05 -4.243484e-05 0.0
-2.973710e-05 -3.406358e-05 0.0
-5.187144e-06 -2.442405e-05 0.0
8.764550e-06 -1.382698e-05 0.0
1.205035e-05 -3.161216e-06 0.0
6.801323e-06 5.373839e-06 0.0
0.000000e+00 6.926323e-06 0.0
0.000000e+00 -7.122267e-06 0.0
0.000000e+00 1.635176e-05 0.0
7.221858e-06 -8.067960e-06 0.0
-9.005721e-07 -2.006536e-06 0.0
-2.831426e-05 2.227938e-05 0.0
-7.854483e-05 5.352748e-05 0.0
-1.516578e-04 8.657174e-05 0.0
-2.460035e-04 1.187229e-04 0.0
-3.591984e-04 1.485317e-04 0.0
-4.886827e-04 1.751496e-04 0.0
-6.320049e-04 1.980182e-04 0.0
-7.869309e-04 2.167564e-04 0.0
-9.514441e-04 2.311589e-04 0.0
-1.123687e-03 2.412431e-04 0.0
-1.301895e-03 2.472928e-04 0.0
-1.484351e-03 2.498610e-04 0.0
-1.669387e-03 2.497155e-04 0.0
-1.855424e-03 2.477337e-04 0.0
-2.041036e-03 2.447731e-04 0.0
-2.225014e-03 2.415480e-04 0.0
-2.406417e-03 2.385412e-04 0.0
-2.584584e-03 2.359631e-04 0.0
-2.759121e-03 2.337612e-04 0.0
-2.929859e-03 2.316717e-04 0.0
-3.096785e-03 2.293022e-04 0.0
-3.259966e-03 2.262277e-04 0.0
-3.419470e-03 2.220884e-04 0.0
-3.575297e-03 2.166711e-04 0.0
-3.727326e-03 2.099597e-04 0.0
-3.875300e-03 2.021443e-04 0.0
-4.018844e-03 1.935842e-04 0.0
-4.157506e-03 1.847322e-04 0.0
-4.290827e-03 1.760361e-04 0.0
-4.418404e-03 1.678426e-04 0.0
-4.539944e-03 1.603270e-04 0.0
-4.655286e-03 1.534642e-04 0.0
-4.764396e-03 1.470495e-04 0.0
-4.867326e-03 1.407587e-04 0.0
-4.964170e-03 1.342313e-04 0.0
-5.055007e-03 1.271538e-04 0.0
-5.139860e-03 1.193236e-04 0.0
-5.218676e-03 1.106800e-04 0.0
-5.291323e-03 1.013000e-04 0.0
-5.357614e-03 9.136413e-05 0.0
-5.417325e-03 8.110616e-05 0.0
-5.470239e-03 7.075923e-05 0.0
-5.516158e-03 6.051212e-05 0.0
-5.554934e-03 5.048260e-05 0.0
-5.586463e-03 4.071056e-05 0.0
-5.610687e-03 3.116806e-05 0.0
-5.627585e-03 2.178059e-05 0.0
-5.637155e-03 1.245279e-05 0.0
-5.639410e-03 3.092577e-06 0.0
-5.634361e-03 -6.370048e-06 0.0
-5.622018e-03 -1.597405e-05 0.0
-5.602387e-03 -2.573199e-05 0.0
-5.575468e-03 -3.563172e-05 0.0
-5.541261e-03 -4.564250e-05 0.0
-5.499766e-03 -5.572261e-05 0.0
-5.450991e-03 -6.582616e-05 0.0
-5.394954e-03 -7.590821e-05 0.0
-5.331683e-03 -8.592812e-05 0.0
-5.261217e-03 -9.585148e-05 0.0
-5.183608e-03 -1.056512e-04 0.0
-5.098922e-03 -1.153081e-04 0.0
-5.007238e-03 -1.248105e-04 0.0
-4.908647e-03 -1.341536e-04 0.0
-4.803254e-03 -1.433378e-04 0.0
-4.691176e-03 -1.523661e-04 0.0
-4.572539e-03 -1.612410e-04 0.0
-4.447479e-03 -1.699618e-04 0.0
-4.316142e-03 -1.785220e-04 0.0
-4.178680e-03 -1.869078e-04 0.0
-4.035256e-03 -1.950985e-04 0.0
-3.886044e-03 -2.030666e-04 0.0
-3.731232e-03 -2.107794e-04 0.0
-3.571027e-03 -2.182004e-04 0.0
-3.405659e-03 -2.252896e-04 0.0
-3.235389e-03 -2.320029e-04 0.0
-3.060514e-03 -2.382906e-04 0.0
-2.881380e-03 -2.440944e-04 0.0
-2.698386e-03 -2.493429e-04 0.0
-2.512008e-03 -2.539474e-04 0.0
-2.322803e-03 -2.577968e-04 0.0
-2.131438e-03 -2.607527e-04 0.0
-1.938705e-03 -2.626454e-04 0.0
-1.745547e-03 -2.632699e-04 0.0
-1.553082e-03 -2.623841e-04 0.0
-1.362630e-03 -2.597070e-04 0.0
-1.175738e-03 -2.549194e-04 0.0
-9.942008e-04 -2.476683e-04 0.0
-8.200796e-04 -2.375738e-04 0.0
-6.557030e-04 -2.242428e-04 0.0
-5.036563e-04 -2.072917e-04 0.0
-3.667359e-04 -1.863843e-04 0.0
-2.478546e-04 -1.612973e-04 0.0
-1.498621e-04 -1.320355e-04 0.0
-7.522119e-05 -9.904543e-05 0.0
-2.542349e-05 -6.360355e-05 0.0
-3.803485e-09 -2.855886e-05 0.0
5.092305e-06 3.005085e-07 0.0
0.000000e+00 1.204165e-05 0.0
0.000000e+00 -1.224929e-05 0.0
0.000000e+00 8.088915e-06 0.0
-4.828095e-06 -9.061215e-06 0.0
-3.228254e-05 1.937048e-05 0.0
-8.846438e-05 7.430435e-05 0.0
-1.768772e-04 1.402618e-04 0.0
-2.977978e-04 2.083581e-04 0.0
-4.495328e-04 2.734948e-04 0.0
-6.292973e-04 3.327779e-04 0.0
-8.338125e-04 3.846293e-04 0.0
-1.059664e-03 4.282764e-04 0.0
-1.303481e-03 4.634961e-04 0.0
-1.562011e-03 4.905018e-04 0.0
-1.832130e-03 5.098882e-04 0.0
-2.110866e-03 5.225723e-04 0.0
-2.395428e-03 5.297010e-04 0.0
-2.683266e-03 5.325227e-04 0.0
-2.972134e-03 5.322432e-04 0.0
-3.260146e-03 5.298950e-04 0.0
-3.545797e-03 5.262444e-04 0.0
-3.827966e-03 5.217505e-04 0.0
-4.105868e-03 5.165736e-04 0.0
-4.378997e-03 5.106288e-04 0.0
-4.647042e-03 5.036693e-04 0.0
-4.909798e-03 4.953885e-04 0.0
-5.167077e-03 4.855219e-04 0.0
-5.418639e-03 4.739352e-04 0.0
-5.664144e-03 4.606798e-04 0.0
-5.903136e-03 4.460035e-04 0.0
-6.135070e-03 4.303131e-04 0.0
-6.359365e-03 4.140955e-04 0.0
-6.575468e-03 3.978162e-04 0.0
-6.782921e-03 3.818215e-04 0.0
-6.981395e-03 3.662708e-04 0.0
-7.170706e-03 3.511142e-04 0.0
-7.350787e-03 3.361220e-04 0.0
-7.521638e-03 3.209543e-04 0.0
-7.683273e-03 3.052509e-04 0.0
-7.835665e-03 2.887171e-04 0.0
-7.978714e-03 2.711845e-04 0.0
-8.112238e-03 2.526358e-04 0.0
-8.235985e-03 2.331911e-04 0.0
-8.349666e-03 2.130664e-04 0.0
-8.452981e-03 1.925171e-04 0.0
-8.545658e-03 1.717831e-04 0.0
-8.627474e-03 1.510471e-04 0.0
-8.698257e-03 1.304134e-04 0.0
-8.757893e-03 1.099068e-04 0.0
-8.806308e-03 8.948858e-05 0.0
-8.843459e-03 6.908114e-05 0.0
-8.869315e-03 4.859517e-05 0.0
-8.883850e-03 2.795274e-05 0.0
-8.887038e-03 7.103057e-06 0.0
-8.878847e-03 -1.396939e-05 0.0
-8.859249e-03 -3.524709e-05 0.0
-8.828217e-03 -5.669251e-05 0.0
-8.785732e-03 -7.825374e-05 0.0
-8.731787e-03 -9.987138e-05 0.0
-8.666389e-03 -1.214845e-04 0.0
-8.589564e-03 -1.430349e-04 0.0
-8.501351e-03 -1.644703e-04 0.0
-8.401812e-03 -1.857454e-04 0.0
-8.291025e-03 -2.068231e-04 0.0
-8.169086e-03 -2.276743e-04 0.0
-8.036109e-03 -2.482774e-04 0.0
-7.892228e-03 -2.686167e-04 0.0
-7.737591e-03 -2.886799e-04 0.0
-7.572364e-03 -3.084555e-04 0.0
-7.396726e-03 -3.279294e-04 0.0
-7.210870e-03 -3.470817e-04 0.0
-7.015002e-03 -3.658854e-04 0.0
-6.809345e-03 -3.843056e-04 0.0
-6.594133e-03 -4.022999e-04 0.0
-6.369624e-03 -4.198195e-04 0.0
-6.136095e-03 -4.368103e-04 0.0
-5.893852e-03 -4.532140e-04 0.0
-5.643233e-03 -4.689665e-04 0.0
-5.384618e-03 -4.839961e-04 0.0
-5.118434e-03 -4.982193e-04 0.0
-4.845168e-03 -5.115351e-04 0.0
-4.565379e-03 -5.238180e-04 0.0
-4.279716e-03 -5.349106e-04 0.0
-3.988938e-03 -5.446150e-04 0.0
-3.693938e-03 -5.526847e-04 0.0
-3.395768e-03 -5.588175e-04 0.0
-3.095674e-03 -5.626481e-04 0.0
-2.795128e-03 -5.637432e-04 0.0
-2.495857e-03 -5.615987e-04 0.0
-2.199885e-03 -5.556390e-04 0.0
-1.909555e-03 -5.452215e-04 0.0
-1.627558e-03 -5.296478e-04 0.0
-1.356935e-03 -5.081839e-04 0.0
-1.101075e-03 -4.800934e-04 0.0
-8.636667e-04 -4.446923e-04 0.0
-6.486089e-04 -4.014330e-04 0.0
-4.598516e-04 -3.500422e-04 0.0
-3.011294e-04 -2.907431e-04 0.0
-1.755349e-04 -2.246242e-04 0.0
-8.487643e-05 -1.542441e-04 0.0
-2.876267e-05 -8.465330e-05 0.0
-3.376789e-06 -2.506552e-05 0.0
0.000000e+00 8.684707e-06 0.0
0.000000e+00 -8.888632e-06 0.0
0.000000e+00 -9.434581e-06 0.0
-1.861645e-05 2.574288e-07 0.0
-6.854822e-05 6.508580e-05 0.0
-1.568460e-04 1.609423e-04 0.0
-2.856156e-04 2.699072e-04 0.0
-4.545673e-04 3.802857e-04 0.0
-6.616802e-04 4.849221e-04 0.0
-9.037999e-04 5.795778e-04 0.0
-1.177116e-03 6.619622e-04 0.0
-1.477493e-03 7.311082e-04 0.0
-1.800672e-03 7.869933e-04 0.0
-2.142407e-03 8.302999e-04 0.0
-2.498568e-03 8.622289e-04 0.0
-2.865247e-03 8.843208e-04 0.0
-3.238861e-03 8.982669e-04 0.0
-3.616252e-03 9.057273e-04 0.0
-3.994747e-03 9.081747e-04 0.0
-4.372180e-03 9.067869e-04 0.0
-4.746874e-03 9.023970e-04 0.0
-5.117578e-03 8.954999e-04 0.0
-5.483382e-03 8.863034e-04 0.0
-5.843622e-03 8.748129e-04 0.0
-6.197772e-03 8.609357e-04 0.0
-6.545349e-03 8.445875e-04 0.0
-6.885835e-03 8.257851e-04 0.0
-7.218628e-03 8.047063e-04 0.0
-7.543039e-03 7.817029e-04 0.0
-7.858321e-03 7.572622e-04 0.0
-8.163730e-03 7.319264e-04 0.0
-8.458598e-03 7.061896e-04 0.0
-8.742395e-03 6.804016e-04 0.0
-9.014757e-03 6.547055e-04 0.0
-9.275482e-03 6.290260e-04 0.0
-9.524487e-03 6.031100e-04 0.0
-9.761738e-03 5.766078e-04 0.0
-9.987186e-03 5.491698e-04 0.0
-1.020071e-02 5.205332e-04 0.0
-1.040210e-02 4.905779e-04 0.0
-1.059103e-02 4.593416e-04 0.0
-1.076714e-02 4.269959e-04 0.0
-1.093002e-02 3.937947e-04 0.0
-1.107929e-02 3.600136e-04 0.0
-1.121462e-02 3.258945e-04 0.0
-1.133576e-02 2.916082e-04 0.0
-1.144251e-02 2.572409e-04 0.0
-1.153475e-02 2.228002e-04 0.0
-1.161240e-02 1.882375e-04 0.0
-1.167539e-02 1.534763e-04 0.0
-1.172366e-02 1.184399e-04 0.0
-1.175716e-02 8.307189e-05 0.0
-1.177581e-02 4.734879e-05 0.0
-1.177954e-02 1.128331e-05 0.0
-1.176828e-02 -2.507798e-05 0.0
-1.174197e-02 -6.166453e-05 0.0
-1.170056e-02 -9.839740e-05 0.0
-1.164403e-02 -1.351951e-04 0.0
-1.157237e-02 -1.719783e-04 0.0
-1.148560e-02 -2.086731e-04 0.0
-1.138376e-02 -2.452129e-04 0.0
-1.126693e-02 -2.815395e-04 0.0
-1.113521e-02 -3.176030e-04 0.0
-1.098869e-02 -3.533616e-04 0.0
-1.082752e-02 -3.887798e-04 0.0
-1.065187e-02 -4.238262e-04 0.0
-1.046190e-02 -4.584708e-04 0.0
-1.025781e-02 -4.926812e-04 0.0
-1.003983e-02 -5.264198e-04 0.0
-9.808174e-03 -5.596416e-04 0.0
-9.563101e-03 -5.922930e-04 0.0
-9.304877e-03 -6.243127e-04 0.0
-9.033792e-03 -6.556325e-04 0.0
-8.750161e-03 -6.861794e-04 0.0
-8.454328e-03 -7.158761e-04 0.0
-8.146669e-03 -7.446411e-04 0.0
-7.827602e-03 -7.723865e-04 0.0
-7.497590e-03 -7.990135e-04 0.0
-7.157149e-03 -8.244068e-04 0.0
-6.806859e-03 -8.484260e-04 0.0
-6.447379e-03 -8.708963e-04 0.0
-6.079464e-03 -8.915979e-04 0.0
-5.703984e-03 -9.102548e-04 0.0
-5.321951e-03 -9.265231e-04 0.0
-4.934552e-03 -9.399800e-04 0.0
-4.543176e-03 -9.501127e-04 0.0
-4.149459e-03 -9.563094e-04 0.0
-3.755314e-03 -9.578528e-04 0.0
-3.362978e-03 -9.539174e-04 0.0
-2.975039e-03 -9.435716e-04 0.0
-2.594474e-03 -9.257885e-04 0.0
-2.224659e-03 -8.994683e-04 0.0
-1.869370e-03 -8.634768e-04 0.0
-1.532761e-03 -8.167057e-04 0.0
-1.219286e-03 -7.581655e-04 0.0
-9.335892e-04 -6.871250e-04 0.0
-6.802969e-04 -6.033234e-04 0.0
-4.637359e-04 -5.072909e-04 0.0
-2.875077e-04 -4.008364e-04 0.0
-1.539480e-04 -2.877857e-04 0.0
-6.347054e-05 -1.751116e-04 0.0
-1.389555e-05 -7.462120e-05 0.0
0.000000e+00 -5.191883e-06 0.0
0.000000e+00 5.009357e-06 0.0
0.000000e+00 -3.522503e-05 0.0
-3.123859e-05 2.073010e-05 0.0
-1.039092e-04 1.359384e-04 0.0
-2.248656e-04 2.826777e-04 0.0
-3.940885e-04 4.420145e-04 0.0
-6.101330e-04 6.005164e-04 0.0
-8.702859e-04 7.495651e-04 0.0
-1.170859e-03 8.839034e-04 0.0
-1.507487e-03 1.000710e-03 0.0
-1.875379e-03 1.098930e-03 0.0
-2.269527e-03 1.178799e-03 0.0
-2.684892e-03 1.241474e-03 0.0
-3.116587e-03 1.288714e-03 0.0
-3.560052e-03 1.322595e-03 0.0
-4.011200e-03 1.345247e-03 0.0
-4.466515e-03 1.358652e-03 0.0
-4.923092e-03 1.364498e-03 0.0
-5.378618e-03 1.364109e-03 0.0
-5.831297e-03 1.358436e-03 0.0
-6.279757e-03 1.348103e-03 0.0
-6.722928e-03 1.333484e-03 0.0
-7.159925e-03 1.314811e-03 0.0
-7.589937e-03 1.292281e-03 0.0
-8.012137e-03 1.266151e-03 0.0
-8.425639e-03 1.236802e-03 0.0
-8.829490e-03 1.204754e-03 0.0
-9.222709e-03 1.170627e-03 0.0
-9.604359e-03 1.135056e-03 0.0
-9.973624e-03 1.098591e-03 0.0
-1.032988e-02 1.061605e-03 0.0
-1.067270e-02 1.024234e-03 0.0
-1.100186e-02 9.863854e-04 0.0
-1.131725e-02 9.477868e-04 0.0
-1.161883e-02 9.080849e-04 0.0
-1.190648e-02 8.669483e-04 0.0
-1.218002e-02 8.241554e-04 0.0
-1.243911e-02 7.796443e-04 0.0
-1.268334e-02 7.335170e-04 0.0
-1.291221e-02 6.860028e-04 0.0
-1.312520e-02 6.373975e-04 0.0
-1.332185e-02 5.879971e-04 0.0
-1.350177e-02 5.380435e-04 0.0
-1.366466e-02 4.876930e-04 0.0
-1.381032e-02 4.370111e-04 0.0
-1.393860e-02 3.859873e-04 0.0
-1.404940e-02 3.345642e-04 0.0
-1.414264e-02 2.826696e-04 0.0
-1.421823e-02 2.302434e-04 0.0
-1.427608e-02 1.772563e-04 0.0
-1.431608e-02 1.237176e-04 0.0
-1.433810e-02 6.967424e-05 0.0
-1.434204e-02 1.520400e-05 0.0
-1.432780e-02 -3.959271e-05 0.0
-1.429530e-02 -9.460523e-05 0.0
-1.424448e-02 -1.497260e-04 0.0
-1.417533e-02 -2.048542e-04 0.0
-1.408784e-02 -2.598975e-04 0.0
-1.398207e-02 -3.147734e-04 0.0
-1.385807e-02 -3.694085e-04 0.0
-1.371594e-02 -4.237381e-04 0.0
-1.355580e-02 -4.777046e-04 0.0
-1.337781e-02 -5.312552e-04 0.0
-1.318213e-02 -5.843387e-04 0.0
-1.296896e-02 -6.369017e-04 0.0
-1.273851e-02 -6.888858e-04 0.0
-1.249101e-02 -7.402245e-04 0.0
-1.222673e-02 -7.908420e-04 0.0
-1.194594e-02 -8.406541e-04 0.0
-1.164893e-02 -8.895692e-04 0.0
-1.133603e-02 -9.374910e-04 0.0
-1.100760e-02 -9.843201e-04 0.0
-1.066403e-02 -1.029955e-03 0.0
-1.030574e-02 -1.074291e-03 0.0
-9.933214e-03 -1.117217e-03 0.0
-9.546957e-03 -1.158609e-03 0.0
-9.147549e-03 -1.198323e-03 0.0
-8.735629e-03 -1.236184e-03 0.0
-8.311914e-03 -1.271978e-03 0.0
-7.877215e-03 -1.305432e-03 0.0
-7.432456e-03 -1.336210e-03 0.0
-6.978700e-03 -1.363889e-03 0.0
-6.517182e-03 -1.387952e-03 0.0
-6.049336e-03 -1.407768e-03 0.0
-5.576841e-03 -1.422579e-03 0.0
-5.101652e-03 -1.431491e-03 0.0
-4.626051e-03 -1.433464e-03 0.0
-4.152676e-03 -1.427311e-03 0.0
-3.684566e-03 -1.411705e-03 0.0
-3.225178e-03 -1.385198e-03 0.0
-2.778405e-03 -1.346258e-03 0.0
-2.348562e-03 -1.293330e-03 0.0
-1.940347e-03 -1.224925e-03 0.0
-1.558758e-03 -1.139751e-03 0.0
-1.208961e-03 -1.036913e-03 0.0
-8.960874e-04 -9.161811e-04 0.0
-6.249727e-04 -7.783885e-04 0.0
-3.998009e-04 -6.259878e-04 0.0
-2.237279e-04 -4.638373e-04 0.0
-9.851365e-05 -3.003042e-04 0.0
-2.432698e-05 -1.487864e-04 0.0
0.000000e+00 -2.949804e-05 0.0
0.000000e+00 2.935417e-05 0.0
0.000000e+00 -6.812849e-05 0.0
-4.153089e-05 5.197843e-05 0.0
-1.356947e-04 2.307004e-04 0.0
-2.880822e-04 4.378232e-04 0.0
-4.963107e-04 6.543281e-04 0.0
-7.574333e-04 8.660245e-04 0.0
-1.067735e-03 1.063487e-03 0.0
-1.422769e-03 1.240880e-03 0.0
-1.817491e-03 1.395132e-03 0.0
-2.246435e-03 1.525259e-03 0.0
-2.703927e-03 1.631810e-03 0.0
-3.184311e-03 1.716383e-03 0.0
-3.682186e-03 1.781202e-03 0.0
-4.192604e-03 1.828755e-03 0.0
-4.711221e-03 1.861503e-03 0.0
-5.234363e-03 1.881679e-03 0.0
-5.759029e-03 1.891174e-03 0.0
-6.282823e-03 1.891496e-03 0.0
-6.803849e-03 1.883796e-03 0.0
-7.320583e-03 1.868940e-03 0.0
-7.831740e-03 1.847600e-03 0.0
-8.336145e-03 1.820366e-03 0.0
-8.832643e-03 1.787839e-03 0.0
-9.320037e-03 1.750696e-03 0.0
-9.797089e-03 1.709706e-03 0.0
-1.026256e-02 1.665688e-03 0.0
-1.071529e-02 1.619430e-03 0.0
-1.115430e-02 1.571583e-03 0.0
-1.157883e-02 1.522572e-03 0.0
-1.198838e-02 1.472557e-03 0.0
-1.238268e-02 1.421442e-03 0.0
-1.276158e-02 1.368949e-03 0.0
-1.312501e-02 1.314731e-03 0.0
-1.347282e-02 1.258483e-03 0.0
-1.380473e-02 1.200030e-03 0.0
-1.412034e-02 1.139376e-03 0.0
-1.441910e-02 1.076693e-03 0.0
-1.470043e-02 1.012273e-03 0.0
-1.496371e-02 9.464558e-04 0.0
-1.520839e-02 8.795601e-04 0.0
-1.543402e-02 8.118282e-04 0.0
-1.564027e-02 7.434022e-04 0.0
-1.582688e-02 6.743272e-04 0.0
-1.599371e-02 6.045757e-04 0.0
-1.614062e-02 5.340837e-04 0.0
-1.626751e-02 4.627853e-04 0.0
-1.637427e-02 3.906405e-04 0.0
-1.646075e-02 3.176500e-04 0.0
-1.652681e-02 2.438592e-04 0.0
-1.657230e-02 1.693524e-04 0.0
-1.659705e-02 9.424257e-05 0.0
-1.660092e-02 1.866027e-05 0.0
-1.658382e-02 -5.725594e-05 0.0
-1.654564e-02 -1.333699e-04 0.0
-1.648635e-02 -2.095567e-04 0.0
-1.640593e-02 -2.857037e-04 0.0
-1.630440e-02 -3.617103e-04 0.0
-1.618183e-02 -4.374862e-04 0.0
-1.603831e-02 -5.129497e-04 0.0
-1.587394e-02 -5.880248e-04 0.0
-1.568889e-02 -6.626378e-04 0.0
-1.548333e-02 -7.367133e-04 0.0
-1.525744e-02 -8.101703e-04 0.0
-1.501146e-02 -8.829191e-04 0.0
-1.474561e-02 -9.548600e-04 0.0
-1.446017e-02 -1.025883e-03 0.0
-1.415543e-02 -1.095870e-03 0.0
-1.383170e-02 -1.164697e-03 0.0
-1.348933e-02 -1.232238e-03 0.0
-1.312869e-02 -1.298366e-03 0.0
-1.275021e-02 -1.362955e-03 0.0
-1.235435e-02 -1.425877e-03 0.0
-1.194162e-02 -1.486997e-03 0.0
-1.151256e-02 -1.546168e-03 0.0
-1.106779e-02 -1.603219e-03 0.0
-1.060798e-02 -1.657946e-03 0.0
-1.013387e-02 -1.710101e-03 0.0
-9.646297e-03 -1.759374e-03 0.0
-9.146207e-03 -1.805383e-03 0.0
-8.634666e-03 -1.847650e-03 0.0
-8.112906e-03 -1.885590e-03 0.0
-7.582345e-03 -1.918490e-03 0.0
-7.044630e-03 -1.945489e-03 0.0
-6.501673e-03 -1.965562e-03 0.0
-5.955697e-03 -1.977507e-03 0.0
-5.409269e-03 -1.979935e-03 0.0
-4.865349e-03 -1.971272e-03 0.0
-4.327315e-03 -1.949772e-03 0.0
-3.798993e-03 -1.913545e-03 0.0
-3.284655e-03 -1.860610e-03 0.0
-2.789009e-03 -1.788979e-03 0.0
-2.317153e-03 -1.696775e-03 0.0
-1.874486e-03 -1.582404e-03 0.0
-1.466586e-03 -1.444793e-03 0.0
-1.099029e-03 -1.283713e-03 0.0
-7.771742e-04 -1.100218e-03 0.0
-5.059129e-04 -8.972216e-04 0.0
-2.894501e-04 -6.802729e-04 0.0
-1.311803e-04 -4.585474e-04 0.0
-3.381569e-05 -2.461252e-04 0.0
0.000000e+00 -6.328857e-05 0.0
0.000000e+00 6.319931e-05 0.0
0.000000e+00 -1.073194e-04 0.0
-4.923305e-05 9.298260e-05 0.0
-1.630129e-04 3.470997e-04 0.0
-3.446439e-04 6.234603e-04 0.0
-5.894432e-04 9.034813e-04 0.0
-8.928119e-04 1.173005e-03 0.0
-1.249814e-03 1.422416e-03 0.0
-1.655044e-03 1.645760e-03 0.0
-2.102648e-03 1.840021e-03 0.0
-2.586463e-03 2.004445e-03 0.0
-3.100232e-03 2.139927e-03 0.0
-3.637856e-03 2.248446e-03 0.0
-4.193632e-03 2.332586e-03 0.0
-4.762443e-03 2.395139e-03 0.0
-5.339864e-03 2.438821e-03 0.0
-5.922191e-03 2.466097e-03 0.0
-6.506390e-03 2.479087e-03 0.0
-7.089997e-03 2.479559e-03 0.0
-7.670992e-03 2.468970e-03 0.0
-8.247646e-03 2.448549e-03 0.0
-8.818395e-03 2.419393e-03 0.0
-9.381725e-03 2.382557e-03 0.0
-9.936109e-03 2.339121e-03 0.0
-1.048001e-02 2.290195e-03 0.0
-1.101190e-02 2.236885e-03 0.0
-1.153040e-02 2.180202e-03 0.0
-1.203432e-02 2.120959e-03 0.0
-1.252275e-02 2.059691e-03 0.0
-1.299510e-02 1.996615e-03 0.0
-1.345101e-02 1.931666e-03 0.0
-1.389030e-02 1.864585e-03 0.0
-1.431284e-02 1.795046e-03 0.0
-1.471842e-02 1.722780e-03 0.0
-1.510672e-02 1.647671e-03 0.0
-1.547722e-02 1.569792e-03 0.0
-1.582930e-02 1.489388e-03 0.0
-1.616227e-02 1.406816e-03 0.0
-1.647543e-02 1.322463e-03 0.0
-1.676816e-02 1.236670e-03 0.0
-1.703996e-02 1.149684e-03 0.0
-1.729043e-02 1.061633e-03 0.0
-1.751931e-02 9.725471e-04 0.0
-1.772641e-02 8.823844e-04 0.0
-1.791157e-02 7.910778e-04 0.0
-1.807466e-02 6.985709e-04 0.0
-1.821552e-02 6.048460e-04 0.0
-1.833397e-02 5.099355e-04 0.0
-1.842983e-02 4.139220e-04 0.0
-1.850290e-02 3.169283e-04 0.0
-1.855298e-02 2.191041e-04 0.0
-1.857989e-02 1.206123e-04 0.0
-1.858349e-02 2.161851e-05 0.0
-1.856366e-02 -7.771617e-05 0.0
-1.852034e-02 -1.772419e-04 0.0
-1.845347e-02 -2.768241e-04 0.0
-1.836307e-02 -3.763426e-04 0.0
-1.824918e-02 -4.756885e-04 0.0
-1.811188e-02 -5.747606e-04 0.0
-1.795127e-02 -6.734617e-04 0.0
-1.776749e-02 -7.716937e-04 0.0
-1.756070e-02 -8.693529e-04 0.0
-1.733110e-02 -9.663265e-04 0.0
-1.707889e-02 -1.062490e-03 0.0
-1.680432e-02 -1.157707e-03 0.0
-1.650765e-02 -1.251830e-03 0.0
-1.618916e-02 -1.344706e-03 0.0
-1.584917e-02 -1.436178e-03 0.0
-1.548805e-02 -1.526090e-03 0.0
-1.510619e-02 -1.614287e-03 0.0
-1.470403e-02 -1.700617e-03 0.0
-1.428204e-02 -1.784929e-03 0.0
-1.384074e-02 -1.867063e-03 0.0
-1.338071e-02 -1.946847e-03 0.0
-1.290258e-02 -2.024086e-03 0.0
-1.240703e-02 -2.098550e-03 0.0
-1.189481e-02 -2.169963e-03 0.0
-1.136677e-02 -2.237985e-03 0.0
-1.082383e-02 -2.302203e-03 0.0
-1.026704e-02 -2.362106e-03 0.0
-9.697604e-03 -2.417068e-03 0.0
-9.116888e-03 -2.466326e-03 0.0
-8.526466e-03 -2.508957e-03 0.0
-7.928159e-03 -2.543856e-03 0.0
-7.324071e-03 -2.569716e-03 0.0
-6.716630e-03 -2.585010e-03 0.0
-6.108635e-03 -2.587983e-03 0.0
-5.503287e-03 -2.576660e-03 0.0
-4.904226e-03 -2.548858e-03 0.0
-4.315549e-03 -2.502232e-03 0.0
-3.741813e-03 -2.434343e-03 0.0
-3.188022e-03 -2.342755e-03 0.0
-2.659578e-03 -2.225195e-03 0.0
-2.162209e-03 -2.079743e-03 0.0
-1.701856e-03 -1.905112e-03 0.0
-1.284535e-03 -1.700997e-03 0.0
-9.161813e-04 -1.468536e-03 0.0
-6.024912e-04 -1.210876e-03 0.0
-3.488409e-04 -9.338893e-04 0.0
-1.603304e-04 -6.470252e-04 0.0
-4.208836e-05 -3.643354e-04 0.0
0.000000e+00 -1.053457e-04 0.0
0.000000e+00 1.053240e-04 0.0
0.000000e+00 -1.523370e-04 0.0
-5.458466e-05 1.423931e-04 0.0
-1.859433e-04 4.824182e-04 0.0
-3.942009e-04 8.360993e-04 0.0
-6.725826e-04 1.185568e-03 0.0
-1.014815e-03 1.517293e-03 0.0
-1.414617e-03 1.821996e-03 0.0
-1.865493e-03 2.094010e-03 0.0
-2.360713e-03 2.330637e-03 0.0
-2.893437e-03 2.531477e-03 0.0
-3.456935e-03 2.697775e-03 0.0
-4.044822e-03 2.831829e-03 0.0
-4.651266e-03 2.936498e-03 0.0
-5.271125e-03 3.014820e-03 0.0
-5.899995e-03 3.069752e-03 0.0
-6.534189e-03 3.104016e-03 0.0
-7.170647e-03 3.120033e-03 0.0
-7.806810e-03 3.119928e-03 0.0
-8.440475e-03 3.105584e-03 0.0
-9.069653e-03 3.078710e-03 0.0
-9.692446e-03 3.040931e-03 0.0
-1.030698e-02 2.993834e-03 0.0
-1.091139e-02 2.938981e-03 0.0
-1.150387e-02 2.877858e-03 0.0
-1.208277e-02 2.811790e-03 0.0
-1.264670e-02 2.741832e-03 0.0
-1.319458e-02 2.668693e-03 0.0
-1.372568e-02 2.592707e-03 0.0
-1.423957e-02 2.513886e-03 0.0
-1.473597e-02 2.432023e-03 0.0
-1.521471e-02 2.346841e-03 0.0
-1.567550e-02 2.258128e-03 0.0
-1.611793e-02 2.165835e-03 0.0
-1.654143e-02 2.070112e-03 0.0
-1.694528e-02 1.971280e-03 0.0
-1.732869e-02 1.869763e-03 0.0
-1.769089e-02 1.765994e-03 0.0
-1.803121e-02 1.660342e-03 0.0
-1.834909e-02 1.553055e-03 0.0
-1.864411e-02 1.444258e-03 0.0
-1.891595e-02 1.333966e-03 0.0
-1.916440e-02 1.222131e-03 0.0
-1.938927e-02 1.108686e-03 0.0
-1.959037e-02 9.935901e-04 0.0
-1.976752e-02 8.768487e-04 0.0
-1.992048e-02 7.585276e-04 0.0
-2.004903e-02 6.387464e-04 0.0
-2.015292e-02 5.176663e-04 0.0
-2.023193e-02 3.954729e-04 0.0
-2.028582e-02 2.723620e-04 0.0
-2.031443e-02 1.485270e-04 0.0
-2.031761e-02 2.415244e-05 0.0
-2.029526e-02 -1.005899e-04 0.0
-2.024731e-02 -2.255437e-04 0.0
-2.017375e-02 -3.505680e-04 0.0
-2.007460e-02 -4.755335e-04 0.0
-1.994991e-02 -6.003176e-04 0.0
-1.979977e-02 -7.247986e-04 0.0
-1.962430e-02 -8.488504e-04 0.0
-1.942365e-02 -9.723372e-04 0.0
-1.919798e-02 -1.095111e-03 0.0
-1.894750e-02 -1.217008e-03 0.0
-1.867243e-02 -1.337855e-03 0.0
-1.837302e-02 -1.457466e-03 0.0
-1.804955e-02 -1.575653e-03 0.0
-1.770235e-02 -1.692224e-03 0.0
-1.733175e-02 -1.806993e-03 0.0
-1.693818e-02 -1.919780e-03 0.0
-1.652205e-02 -2.030405e-03 0.0
-1.608387e-02 -2.138691e-03 0.0
-1.562416e-02 -2.244453e-03 0.0
-1.514350e-02 -2.347492e-03 0.0
-1.464251e-02 -2.447589e-03 0.0
-1.412189e-02 -2.544486e-03 0.0
-1.358237e-02 -2.637884e-03 0.0
-1.302479e-02 -2.727421e-03 0.0
-1.245005e-02 -2.812660e-03 0.0