# vtk DataFile Version 3.0
Vector Field
ASCII
DATASET RECTILINEAR_GRID
DIMENSIONS 102 102 1
X_COORDINATES 102 double
0.000000 0.100000 0.200000 0.300000 0.400000 0.500000 0.600000 0.700000 0.800000 0.900000 1.000000 1.100000 1.200000 1.300000 1.400000 1.500000 1.600000 1.700000 1.800000 1.900000 2.000000 2.100000 2.200000 2.300000 2.400000 2.500000 2.600000 2.700000 2.800000 2.900000 3.000000 3.100000 3.200000 3.300000 3.400000 3.500000 3.600000 3.700000 3.800000 3.900000 4.000000 4.100000 4.200000 4.300000 4.400000 4.500000 4.600000 4.700000 4.800000 4.900000 5.000000 5.100000 5.200000 5.300000 5.400000 5.500000 5.600000 5.700000 5.800000 5.900000 6.000000 6.100000 6.200000 6.300000 6.400000 6.500000 6.600000 6.700000 6.800000 6.900000 7.000000 7.100000 7.200000 7.300000 7.400000 7.500000 7.600000 7.700000 7.800000 7.900000 8.000000 8.100000 8.200000 8.300000 8.400000 8.500000 8.600000 8.700000 8.800000 8.900000 9.000000 9.100000 9.200000 9.300000 9.400000 9.500000 9.600000 9.700000 9.800000 9.900000 10.000000 10.100000 
Y_COORDINATES 102 double
0.000000 0.100000 0.200000 0.300000 0.400000 0.500000 0.600000 0.700000 0.800000 0.900000 1.000000 1.100000 1.200000 1.300000 1.400000 1.500000 1.600000 1.700000 1.800000 1.900000 2.000000 2.100000 2.200000 2.300000 2.400000 2.500000 2.600000 2.700000 2.800000 2.900000 3.000000 3.100000 3.200000 3.300000 3.400000 3.500000 3.600000 3.700000 3.800000 3.900000 4.000000 4.100000 4.200000 4.300000 4.400000 4.500000 4.600000 4.700000 4.800000 4.900000 5.000000 5.100000 5.200000 5.300000 5.400000 5.500000 5.600000 5.700000 5.800000 5.900000 6.000000 6.100000 6.200000 6.300000 6.400000 6.500000 6.600000 6.700000 6.800000 6.900000 7.000000 7.100000 7.200000 7.300000 7.400000 7.500000 7.600000 7.700000 7.800000 7.900000 8.000000 8.100000 8.200000 8.300000 8.400000 8.500000 8.600000 8.700000 8.800000 8.900000 9.000000 9.100000 9.200000 9.300000 9.400000 9.500000 9.600000 9.700000 9.800000 9.900000 10.000000 10.100000 
Z_COORDINATES 1 double
0.0
POINT_DATA 10404
VECTORS Velocity double
0.000000e+00 0.000000e+00 0.0
-3.400131e-05 0.000000e+00 0.0
-4.237228e-05 0.000000e+00 0.0
-3.823688e-05 0.000000e+00 0.0
-2.373570e-05 0.000000e+00 0.0
-2.728454e-06 0.000000e+00 0.0
2.182108e-05 0.000000e+00 0.0
4.914976e-05 0.000000e+00 0.0
8.048548e-05 0.000000e+00 0.0
1.178545e-04 0.000000e+00 0.0
1.627436e-04 0.000000e+00 0.0
2.153151e-04 0.000000e+00 0.0
2.744408e-04 0.000000e+00 0.0
3.383591e-04 0.000000e+00 0.0
4.054838e-04 0.000000e+00 0.0
4.749204e-04 0.000000e+00 0.0
5.464904e-04 0.000000e+00 0.0
6.203608e-04 0.000000e+00 0.0
6.965652e-04 0.000000e+00 0.0
7.746994e-04 0.000000e+00 0.0
8.539258e-04 0.000000e+00 0.0
9.332306e-04 0.000000e+00 0.0
1.011753e-03 0.000000e+00 0.0
1.089003e-03 0.000000e+00 0.0
1.164876e-03 0.000000e+00 0.0
1.239495e-03 0.000000e+00 0.0
1.312990e-03 0.000000e+00 0.0
1.385342e-03 0.000000e+00 0.0
1.456353e-03 0.000000e+00 0.0
1.525724e-03 0.000000e+00 0.0
1.593189e-03 0.000000e+00 0.0
1.658601e-03 0.000000e+00 0.0
1.721943e-03 0.000000e+00 0.0
1.783258e-03 0.000000e+00 0.0
1.842544e-03 0.000000e+00 0.0
1.899669e-03 0.000000e+00 0.0
1.954349e-03 0.000000e+00 0.0
2.006203e-03 0.000000e+00 0.0
2.054848e-03 0.000000e+00 0.0
2.099988e-03 0.000000e+00 0.0
2.141485e-03 0.000000e+00 0.0
2.179350e-03 0.000000e+00 0.0
2.213702e-03 0.000000e+00 0.0
2.244685e-03 0.000000e+00 0.0
2.272395e-03 0.000000e+00 0.0
2.296826e-03 0.000000e+00 0.0
2.317867e-03 0.000000e+00 0.0
2.335322e-03 0.000000e+00 0.0
2.348962e-03 0.000000e+00 0.0
2.358571e-03 0.000000e+00 0.0
2.363986e-03 0.000000e+00 0.0
2.365117e-03 0.000000e+00 0.0
2.361943e-03 0.000000e+00 0.0
2.354497e-03 0.000000e+00 0.0
2.342836e-03 0.000000e+00 0.0
2.327014e-03 0.000000e+00 0.0
2.307072e-03 0.000000e+00 0.0
2.283031e-03 0.000000e+00 0.0
2.254898e-03 0.000000e+00 0.0
2.222674e-03 0.000000e+00 0.0
2.186371e-03 0.000000e+00 0.0
2.146018e-03 0.000000e+00 0.0
2.101669e-03 0.000000e+00 0.0
2.053408e-03 0.000000e+00 0.0
2.001344e-03 0.000000e+00 0.0
1.945613e-03 0.000000e+00 0.0
1.886370e-03 0.000000e+00 0.0
1.823787e-03 0.000000e+00 0.0
1.758052e-03 0.000000e+00 0.0
1.689365e-03 0.000000e+00 0.0
1.617940e-03 0.000000e+00 0.0
1.544005e-03 0.000000e+00 0.0
1.467806e-03 0.000000e+00 0.0
1.389607e-03 0.000000e+00 0.0
1.309694e-03 0.000000e+00 0.0
1.228376e-03 0.000000e+00 0.0
1.145987e-03 0.000000e+00 0.0
1.062885e-03 0.000000e+00 0.0
9.794505e-04 0.000000e+00 0.0
8.960903e-04 0.000000e+00 0.0
8.132316e-04 0.000000e+00 0.0
7.313235e-04 0.000000e+00 0.0
6.508365e-04 0.000000e+00 0.0
5.722613e-04 0.000000e+00 0.0
4.961086e-04 0.000000e+00 0.0
4.229080e-04 0.000000e+00 0.0
3.532076e-04 0.000000e+00 0.0
2.875722e-04 0.000000e+00 0.0
2.265811e-04 0.000000e+00 0.0
1.708242e-04 0.000000e+00 0.0
1.208951e-04 0.000000e+00 0.0
7.738117e-05 0.000000e+00 0.0
4.084707e-05 0.000000e+00 0.0
1.180744e-05 0.000000e+00 0.0
-9.318506e-06 0.000000e+00 0.0
-2.228785e-05 0.000000e+00 0.0
-2.717750e-05 0.000000e+00 0.0
-2.464429e-05 0.000000e+00 0.0
-1.640602e-05 0.000000e+00 0.0
-6.051689e-06 0.000000e+00 0.0
-0.000000e+00 0.000000e+00 0.0
0.000000e+00 0.000000e+00 0.0
0.000000e+00 -2.120624e-05 0.0
7.286681e-06 -5.432012e-06 0.0
1.687342e-06 -1.964848e-05 0.0
1.279247e-06 -2.212711e-05 0.0
2.015692e-06 -1.234581e-05 0.0
-7.820946e-07 3.555246e-06 0.0
-1.167399e-05 2.003482e-05 0.0
-3.353346e-05 3.338754e-05 0.0
-6.676576e-05 4.251003e-05 0.0
-1.096869e-04 4.842440e-05 0.0
-1.597178e-04 5.300253e-05 0.0
-2.146642e-04 5.766524e-05 0.0
-2.734407e-04 6.270275e-05 0.0
-3.360055e-04 6.741688e-05 0.0
-4.027308e-04 7.081556e-05 0.0
-4.736794e-04 7.235233e-05 0.0
-5.482115e-04 7.228232e-05 0.0
-6.250792e-04 7.149928e-05 0.0
-7.028705e-04 7.102950e-05 0.0
-7.805015e-04 7.151544e-05 0.0
-8.574829e-04 7.297012e-05 0.0
-9.338612e-04 7.488770e-05 0.0
-1.009923e-03 7.659017e-05 0.0
-1.085859e-03 7.758687e-05 0.0
-1.161575e-03 7.775629e-05 0.0
-1.236703e-03 7.729028e-05 0.0
-1.310782e-03 7.647840e-05 0.0
-1.383457e-03 7.548296e-05 0.0
-1.454590e-03 7.423534e-05 0.0
-1.524222e-03 7.249722e-05 0.0
-1.592434e-03 7.003490e-05 0.0
-1.659180e-03 6.679895e-05 0.0
-1.724195e-03 6.300924e-05 0.0
-1.787013e-03 5.910247e-05 0.0
-1.847089e-03 5.557066e-05 0.0
-1.903958e-03 5.276910e-05 0.0
-1.957366e-03 5.078008e-05 0.0
-2.007310e-03 4.938670e-05 0.0
-2.053989e-03 4.816012e-05 0.0
-2.097683e-03 4.661697e-05 0.0
-2.138619e-03 4.438151e-05 0.0
-2.176876e-03 4.129374e-05 0.0
-2.212344e-03 3.743279e-05 0.0
-2.244757e-03 3.305991e-05 0.0
-2.273772e-03 2.851269e-05 0.0
-2.299050e-03 2.409320e-05 0.0
-2.320332e-03 1.998670e-05 0.0
-2.337473e-03 1.623066e-05 0.0
-2.350437e-03 1.273365e-05 0.0
-2.359264e-03 9.328181e-06 0.0
-2.364024e-03 5.834978e-06 0.0
-2.364775e-03 2.117552e-06 0.0
-2.361541e-03 -1.884821e-06 0.0
-2.354304e-03 -6.153412e-06 0.0
-2.343011e-03 -1.061446e-05 0.0
-2.327589e-03 -1.516465e-05 0.0
-2.307969e-03 -1.970004e-05 0.0
-2.284106e-03 -2.413906e-05 0.0
-2.255987e-03 -2.843462e-05 0.0
-2.223640e-03 -3.257496e-05 0.0
-2.187125e-03 -3.657571e-05 0.0
-2.146531e-03 -4.046738e-05 0.0
-2.101965e-03 -4.428202e-05 0.0
-2.053546e-03 -4.804251e-05 0.0
-2.001400e-03 -5.175593e-05 0.0
-1.945657e-03 -5.541154e-05 0.0
-1.886455e-03 -5.898277e-05 0.0
-1.823941e-03 -6.243184e-05 0.0
-1.758273e-03 -6.571581e-05 0.0
-1.689630e-03 -6.879234e-05 0.0
-1.618211e-03 -7.162432e-05 0.0
-1.544242e-03 -7.418253e-05 0.0
-1.467971e-03 -7.644618e-05 0.0
-1.389676e-03 -7.840174e-05 0.0
-1.309655e-03 -8.004042e-05 0.0
-1.228233e-03 -8.135519e-05 0.0
-1.145755e-03 -8.233796e-05 0.0
-1.062587e-03 -8.297735e-05 0.0
-9.791131e-04 -8.325761e-05 0.0
-8.957382e-04 -8.315850e-05 0.0
-8.128851e-04 -8.265601e-05 0.0
-7.309964e-04 -8.172315e-05 0.0
-6.505360e-04 -8.033172e-05 0.0
-5.719888e-04 -7.845386e-05 0.0
-4.958614e-04 -7.606334e-05 0.0
-4.226815e-04 -7.313658e-05 0.0
-3.529973e-04 -6.965327e-05 0.0
-2.873752e-04 -6.559661e-05 0.0
-2.263964e-04 -6.095367e-05 0.0
-1.706525e-04 -5.571628e-05 0.0
-1.207386e-04 -4.988279e-05 0.0
-7.724286e-05 -4.346145e-05 0.0
-4.073015e-05 -3.647652e-05 0.0
-1.171427e-05 -2.897867e-05 0.0
9.387123e-06 -2.106387e-05 0.0
2.233180e-05 -1.290814e-05 0.0
2.719794e-05 -4.830607e-06 0.0
2.464399e-05 2.587790e-06 0.0
1.638971e-05 8.287124e-06 0.0
6.030186e-06 1.039258e-05 0.0
0.000000e+00 6.063225e-06 0.0
0.000000e+00 -6.081454e-06 0.0
0.000000e+00 -1.103929e-05 0.0
-1.115238e-06 -2.960787e-05 0.0
3.870256e-06 -3.272171e-05 0.0
3.417347e-06 -1.583764e-05 0.0
-1.100369e-05 1.534114e-05 0.0
-4.556398e-05 5.121554e-05 0.0
-1.034163e-04 8.575005e-05 0.0
-1.847815e-04 1.164004e-04 0.0
-2.877595e-04 1.432627e-04 0.0
-4.095670e-04 1.675826e-04 0.0
-5.476478e-04 1.903560e-04 0.0
-7.002225e-04 2.116187e-04 0.0
-8.661858e-04 2.305773e-04 0.0
-1.044599e-03 2.462807e-04 0.0
-1.234180e-03 2.583147e-04 0.0
-1.433097e-03 2.671005e-04 0.0
-1.639146e-03 2.736791e-04 0.0
-1.850154e-03 2.791791e-04 0.0
-2.064359e-03 2.843055e-04 0.0
-2.280561e-03 2.891217e-04 0.0
-2.498017e-03 2.931907e-04 0.0
-2.716172e-03 2.959381e-04 0.0
-2.934405e-03 2.970024e-04 0.0
-3.151917e-03 2.963908e-04 0.0
-3.367786e-03 2.943960e-04 0.0
-3.581123e-03 2.913652e-04 0.0
-3.791220e-03 2.874824e-04 0.0
-3.997593e-03 2.826875e-04 0.0
-4.199911e-03 2.767656e-04 0.0
-4.397856e-03 2.695364e-04 0.0
-4.590995e-03 2.610320e-04 0.0
-4.778719e-03 2.515611e-04 0.0
-4.960298e-03 2.416302e-04 0.0
-5.134987e-03 2.317621e-04 0.0
-5.302165e-03 2.223001e-04 0.0
-5.461412e-03 2.132852e-04 0.0
-5.612523e-03 2.044549e-04 0.0
-5.755439e-03 1.953546e-04 0.0
-5.890142e-03 1.855099e-04 0.0
-6.016552e-03 1.745890e-04 0.0
-6.134462e-03 1.624962e-04 0.0
-6.243529e-03 1.493759e-04 0.0
-6.343313e-03 1.355361e-04 0.0
-6.433342e-03 1.213323e-04 0.0
-6.513182e-03 1.070564e-04 0.0
-6.582478e-03 9.286494e-05 0.0
-6.640973e-03 7.876311e-05 0.0
-6.688493e-03 6.463746e-05 0.0
-6.724918e-03 5.031780e-05 0.0
-6.750148e-03 3.564375e-05 0.0
-6.764079e-03 2.051568e-05 0.0
-6.766589e-03 4.919852e-06 0.0
-6.757548e-03 -1.107192e-05 0.0
-6.736829e-03 -2.732904e-05 0.0
-6.704324e-03 -4.370784e-05 0.0
-6.659956e-03 -6.007662e-05 0.0
-6.603693e-03 -7.633393e-05 0.0
-6.535552e-03 -9.241585e-05 0.0
-6.455605e-03 -1.082922e-04 0.0
-6.363969e-03 -1.239553e-04 0.0
-6.260806e-03 -1.394052e-04 0.0
-6.146315e-03 -1.546364e-04 0.0
-6.020731e-03 -1.696276e-04 0.0
-5.884325e-03 -1.843369e-04 0.0
-5.737399e-03 -1.987022e-04 0.0
-5.580298e-03 -2.126445e-04 0.0
-5.413406e-03 -2.260743e-04 0.0
-5.237156e-03 -2.388983e-04 0.0
-5.052033e-03 -2.510253e-04 0.0
-4.858575e-03 -2.623699e-04 0.0
-4.657379e-03 -2.728549e-04 0.0
-4.449101e-03 -2.824102e-04 0.0
-4.234456e-03 -2.909715e-04 0.0
-4.014217e-03 -2.984765e-04 0.0
-3.789218e-03 -3.048620e-04 0.0
-3.560348e-03 -3.100614e-04 0.0
-3.328553e-03 -3.140027e-04 0.0
-3.094840e-03 -3.166084e-04 0.0
-2.860269e-03 -3.177963e-04 0.0
-2.625958e-03 -3.174809e-04 0.0
-2.393084e-03 -3.155757e-04 0.0
-2.162878e-03 -3.119942e-04 0.0
-1.936630e-03 -3.066520e-04 0.0
-1.715684e-03 -2.994692e-04 0.0
-1.501433e-03 -2.903714e-04 0.0
-1.295321e-03 -2.792920e-04 0.0
-1.098832e-03 -2.661734e-04 0.0
-9.134775e-04 -2.509700e-04 0.0
-7.407917e-04 -2.336514e-04 0.0
-5.823063e-04 -2.142096e-04 0.0
-4.395274e-04 -1.926682e-04 0.0
-3.138969e-04 -1.690987e-04 0.0
-2.067364e-04 -1.436448e-04 0.0
-1.191613e-04 -1.165619e-04 0.0
-5.195288e-05 -8.828085e-05 0.0
-5.357555e-06 -5.951229e-05 0.0
2.121879e-05 -3.141495e-05 0.0
2.966576e-05 -5.867721e-06 0.0
2.382898e-05 1.411696e-05 0.0
1.037951e-05 2.383481e-05 0.0
0.000000e+00 1.643576e-05 0.0
0.000000e+00 -1.646894e-05 0.0
0.000000e+00 4.036965e-06 0.0
-1.117815e-05 -4.112217e-05 0.0
-8.922932e-06 -2.917486e-05 0.0
-2.362962e-05 1.139938e-05 0.0
-6.528136e-05 6.861281e-05 0.0
-1.394300e-04 1.313095e-04 0.0
-2.474134e-04 1.935101e-04 0.0
-3.876695e-04 2.530112e-04 0.0
-5.574012e-04 3.095138e-04 0.0
-7.539160e-04 3.629769e-04 0.0
-9.751989e-04 4.127604e-04 0.0
-1.219721e-03 4.576750e-04 0.0
-1.485853e-03 4.965966e-04 0.0
-1.771374e-03 5.291032e-04 0.0
-2.073376e-03 5.557043e-04 0.0
-2.388595e-03 5.775641e-04 0.0
-2.713932e-03 5.959270e-04 0.0
-3.046854e-03 6.115974e-04 0.0
-3.385502e-03 6.247383e-04 0.0
-3.728492e-03 6.350368e-04 0.0
-4.074587e-03 6.420790e-04 0.0
-4.422433e-03 6.456895e-04 0.0
-4.770497e-03 6.460599e-04 0.0
-5.117180e-03 6.436348e-04 0.0
-5.461023e-03 6.388689e-04 0.0
-5.800848e-03 6.320168e-04 0.0
-6.135768e-03 6.230776e-04 0.0
-6.465065e-03 6.119104e-04 0.0
-6.788016e-03 5.984378e-04 0.0
-7.103763e-03 5.828149e-04 0.0
-7.411289e-03 5.654709e-04 0.0
-7.709505e-03 5.470011e-04 0.0
-7.997394e-03 5.279684e-04 0.0
-8.274141e-03 5.087092e-04 0.0
-8.539187e-03 4.892309e-04 0.0
-8.792193e-03 4.692402e-04 0.0
-9.032932e-03 4.482810e-04 0.0
-9.261163e-03 4.259176e-04 0.0
-9.476534e-03 4.018914e-04 0.0
-9.678541e-03 3.761948e-04 0.0
-9.866557e-03 3.490504e-04 0.0
-1.003990e-02 3.208151e-04 0.0
-1.019792e-02 2.918565e-04 0.0
-1.034004e-02 2.624472e-04 0.0
-1.046581e-02 2.327084e-04 0.0
-1.057490e-02 2.026121e-04 0.0
-1.066703e-02 1.720291e-04 0.0
-1.074196e-02 1.407989e-04 0.0
-1.079946e-02 1.087957e-04 0.0
-1.083928e-02 7.597231e-05 0.0
-1.086112e-02 4.237494e-05 0.0
-1.086473e-02 8.132573e-06 0.0
-1.084985e-02 -2.656883e-05 0.0
-1.081629e-02 -6.152699e-05 0.0
-1.076393e-02 -9.656880e-05 0.0
-1.069269e-02 -1.315611e-04 0.0
-1.060260e-02 -1.664108e-04 0.0
-1.049374e-02 -2.010545e-04 0.0
-1.036624e-02 -2.354438e-04 0.0
-1.022030e-02 -2.695288e-04 0.0
-1.005616e-02 -3.032446e-04 0.0
-9.874132e-03 -3.365031e-04 0.0
-9.674552e-03 -3.691911e-04 0.0
-9.457831e-03 -4.011723e-04 0.0
-9.224443e-03 -4.322939e-04 0.0
-8.974931e-03 -4.623932e-04 0.0
-8.709912e-03 -4.913052e-04 0.0
-8.430088e-03 -5.188674e-04 0.0
-8.136244e-03 -5.449230e-04 0.0
-7.829250e-03 -5.693215e-04 0.0
-7.510066e-03 -5.919168e-04 0.0
-7.179736e-03 -6.125646e-04 0.0
-6.839396e-03 -6.311188e-04 0.0
-6.490265e-03 -6.474285e-04 0.0
-6.133652e-03 -6.613360e-04 0.0
-5.770953e-03 -6.726762e-04 0.0
-5.403654e-03 -6.812772e-04 0.0
-5.033328e-03 -6.869622e-04 0.0
-4.661640e-03 -6.895523e-04 0.0
-4.290343e-03 -6.888693e-04 0.0
-3.921280e-03 -6.847390e-04 0.0
-3.556377e-03 -6.769913e-04 0.0
-3.197646e-03 -6.654636e-04 0.0
-2.847174e-03 -6.500029e-04 0.0
-2.507121e-03 -6.304691e-04 0.0
-2.179704e-03 -6.067385e-04 0.0
-1.867190e-03 -5.787082e-04 0.0
-1.571870e-03 -5.463043e-04 0.0
-1.296043e-03 -5.094917e-04 0.0
-1.041976e-03 -4.682904e-04 0.0
-8.118607e-04 -4.227984e-04 0.0
-6.077491e-04 -3.732258e-04 0.0
-4.314636e-04 -3.199457e-04 0.0
-2.844694e-04 -2.635706e-04 0.0
-1.676955e-04 -2.050686e-04 0.0
-8.128142e-05 -1.459392e-04 0.0
-2.423175e-05 -8.847674e-05 0.0
6.043320e-06 -3.615529e-05 0.0
1.432054e-05 5.827567e-06 0.0
8.330989e-06 2.981170e-05 0.0
0.000000e+00 2.475405e-05 0.0
0.000000e+00 -2.478703e-05 0.0
0.000000e+00 1.529688e-05 0.0
-1.565237e-05 -3.732856e-05 0.0
-2.650881e-05 -5.044778e-06 0.0
-6.710343e-05 6.365020e-05 0.0
-1.455866e-04 1.522755e-04 0.0
-2.651332e-04 2.493587e-04 0.0
-4.252482e-04 3.486605e-04 0.0
-6.237177e-04 4.470090e-04 0.0
-8.581887e-04 5.423167e-04 0.0
-1.126845e-03 6.325100e-04 0.0
-1.428185e-03 7.154413e-04 0.0
-1.760352e-03 7.894069e-04 0.0
-2.120602e-03 8.536932e-04 0.0
-2.505265e-03 9.087133e-04 0.0
-2.910198e-03 9.556402e-04 0.0
-3.331443e-03 9.957685e-04 0.0
-3.765708e-03 1.029968e-03 0.0
-4.210473e-03 1.058491e-03 0.0
-4.663740e-03 1.081156e-03 0.0
-5.123630e-03 1.097736e-03 0.0
-5.588100e-03 1.108284e-03 0.0
-6.054894e-03 1.113228e-03 0.0
-6.521716e-03 1.113222e-03 0.0
-6.986485e-03 1.108881e-03 0.0
-7.447493e-03 1.100579e-03 0.0
-7.903400e-03 1.088422e-03 0.0
-8.353067e-03 1.072391e-03 0.0
-8.795346e-03 1.052558e-03 0.0
-9.228940e-03 1.029247e-03 0.0
-9.652399e-03 1.003050e-03 0.0
-1.006424e-02 9.746813e-04 0.0
-1.046314e-02 9.447687e-04 0.0
-1.084804e-02 9.136583e-04 0.0
-1.121821e-02 8.813397e-04 0.0
-1.157318e-02 8.475077e-04 0.0
-1.191254e-02 8.117284e-04 0.0
-1.223585e-02 7.736334e-04 0.0
-1.254251e-02 7.330660e-04 0.0
-1.283171e-02 6.901310e-04 0.0
-1.310257e-02 6.451452e-04 0.0
-1.335414e-02 5.985213e-04 0.0
-1.358559e-02 5.506385e-04 0.0
-1.379620e-02 5.017460e-04 0.0
-1.398543e-02 4.519261e-04 0.0
-1.415283e-02 4.011180e-04 0.0
-1.429805e-02 3.491824e-04 0.0
-1.442073e-02 2.959780e-04 0.0
-1.452052e-02 2.414257e-04 0.0
-1.459698e-02 1.855422e-04 0.0
-1.464971e-02 1.284427e-04 0.0
-1.467828e-02 7.031913e-05 0.0
-1.468231e-02 1.140732e-05 0.0
-1.466150e-02 -4.804408e-05 0.0
-1.461565e-02 -1.078080e-04 0.0
-1.454462e-02 -1.677081e-04 0.0
-1.444841e-02 -2.276099e-04 0.0
-1.432706e-02 -2.874042e-04 0.0
-1.418071e-02 -3.469871e-04 0.0
-1.400953e-02 -4.062423e-04 0.0
-1.381378e-02 -4.650286e-04 0.0
-1.359377e-02 -5.231740e-04 0.0
-1.334988e-02 -5.804766e-04 0.0
-1.308257e-02 -6.367101e-04 0.0
-1.279237e-02 -6.916317e-04 0.0
-1.247993e-02 -7.449904e-04 0.0
-1.214598e-02 -7.965334e-04 0.0
-1.179136e-02 -8.460105e-04 0.0
-1.141703e-02 -8.931752e-04 0.0
-1.102406e-02 -9.377836e-04 0.0
-1.061360e-02 -9.795919e-04 0.0
-1.018695e-02 -1.018352e-03 0.0
-9.745506e-03 -1.053809e-03 0.0
-9.290768e-03 -1.085699e-03 0.0
-8.824357e-03 -1.113746e-03 0.0
-8.348005e-03 -1.137665e-03 0.0
-7.863560e-03 -1.157162e-03 0.0
-7.372989e-03 -1.171940e-03 0.0
-6.878373e-03 -1.181699e-03 0.0
-6.381914e-03 -1.186143e-03 0.0
-5.885928e-03 -1.184981e-03 0.0
-5.392843e-03 -1.177932e-03 0.0
-4.905194e-03 -1.164724e-03 0.0
-4.425620e-03 -1.145099e-03 0.0
-3.956847e-03 -1.118818e-03 0.0
-3.501682e-03 -1.085662e-03 0.0
-3.062996e-03 -1.045446e-03 0.0
-2.643701e-03 -9.980224e-04 0.0
-2.246724e-03 -9.433010e-04 0.0
-1.874971e-03 -8.812653e-04 0.0
-1.531283e-03 -8.120013e-04 0.0
-1.218366e-03 -7.357368e-04 0.0
-9.387174e-04 -6.528959e-04 0.0
-6.945043e-04 -5.641779e-04 0.0
-4.874213e-04 -4.706707e-04 0.0
-3.184926e-04 -3.740135e-04 0.0
-1.878161e-04 -2.766313e-04 0.0
-9.424512e-05 -1.820638e-04 0.0
-3.499762e-05 -9.542008e-05 0.0
-5.188899e-06 -2.399953e-05 0.0
2.758499e-06 2.184548e-05 0.0
0.000000e+00 2.749365e-05 0.0
0.000000e+00 -2.751613e-05 0.0
0.000000e+00 1.627603e-05 0.0
-1.664060e-05 -2.015423e-05 0.0
-4.832810e-05 3.984836e-05 0.0
-1.217839e-04 1.431346e-04 0.0
-2.416538e-04 2.706661e-04 0.0
-4.085722e-04 4.107623e-04 0.0
-6.210756e-04 5.559905e-04 0.0
-8.773399e-04 7.010788e-04 0.0
-1.175970e-03 8.415759e-04 0.0
-1.515788e-03 9.736030e-04 0.0
-1.895096e-03 1.094258e-03 0.0
-2.311051e-03 1.202061e-03 0.0
-2.759611e-03 1.296985e-03 0.0
-3.236047e-03 1.379978e-03 0.0
-3.735707e-03 1.452235e-03 0.0
-4.254611e-03 1.514594e-03 0.0
-4.789603e-03 1.567331e-03 0.0
-5.338096e-03 1.610355e-03 0.0
-5.897627e-03 1.643601e-03 0.0
-6.465533e-03 1.667346e-03 0.0
-7.038899e-03 1.682273e-03 0.0
-7.614764e-03 1.689282e-03 0.0
-8.190408e-03 1.689198e-03 0.0
-8.763552e-03 1.682571e-03 0.0
-9.332345e-03 1.669663e-03 0.0
-9.895181e-03 1.650623e-03 0.0
-1.045046e-02 1.625717e-03 0.0
-1.099644e-02 1.595482e-03 0.0
-1.153122e-02 1.560706e-03 0.0
-1.205293e-02 1.522266e-03 0.0
-1.255990e-02 1.480884e-03 0.0
-1.305079e-02 1.436950e-03 0.0
-1.352468e-02 1.390465e-03 0.0
-1.398089e-02 1.341139e-03 0.0
-1.441884e-02 1.288589e-03 0.0
-1.483789e-02 1.232540e-03 0.0
-1.523717e-02 1.172962e-03 0.0
-1.561563e-02 1.110092e-03 0.0
-1.597212e-02 1.044357e-03 0.0
-1.630545e-02 9.762375e-04 0.0
-1.661459e-02 9.061301e-04 0.0
-1.689868e-02 8.342650e-04 0.0
-1.715705e-02 7.606899e-04 0.0
-1.738915e-02 6.853163e-04 0.0
-1.759454e-02 6.080014e-04 0.0
-1.777274e-02 5.286312e-04 0.0
-1.792324e-02 4.471804e-04 0.0
-1.804550e-02 3.637362e-04 0.0
-1.813894e-02 2.784872e-04 0.0
-1.820300e-02 1.916908e-04 0.0
-1.823716e-02 1.036338e-04 0.0
-1.824101e-02 1.459980e-05 0.0
-1.821424e-02 -7.514627e-05 0.0
-1.815666e-02 -1.653745e-04 0.0
-1.806817e-02 -2.558981e-04 0.0
-1.794878e-02 -3.465497e-04 0.0
-1.779855e-02 -4.371574e-04 0.0
-1.761765e-02 -5.275254e-04 0.0
-1.740629e-02 -6.174232e-04 0.0
-1.716475e-02 -7.065821e-04 0.0
-1.689340e-02 -7.946999e-04 0.0
-1.659270e-02 -8.814490e-04 0.0
-1.626323e-02 -9.664862e-04 0.0
-1.590565e-02 -1.049461e-03 0.0
-1.552076e-02 -1.130023e-03 0.0
-1.510950e-02 -1.207820e-03 0.0
-1.467291e-02 -1.282503e-03 0.0
-1.421219e-02 -1.353720e-03 0.0
-1.372863e-02 -1.421109e-03 0.0
-1.322370e-02 -1.484302e-03 0.0
-1.269895e-02 -1.542915e-03 0.0
-1.215610e-02 -1.596548e-03 0.0
-1.159698e-02 -1.644787e-03 0.0
-1.102356e-02 -1.687206e-03 0.0
-1.043797e-02 -1.723368e-03 0.0
-9.842447e-03 -1.752833e-03 0.0
-9.239394e-03 -1.775158e-03 0.0
-8.631347e-03 -1.789907e-03 0.0
-8.020982e-03 -1.796648e-03 0.0
-7.411112e-03 -1.794962e-03 0.0
-6.804679e-03 -1.784446e-03 0.0
-6.204746e-03 -1.764713e-03 0.0
-5.614488e-03 -1.735394e-03 0.0
-5.037179e-03 -1.696154e-03 0.0
-4.476172e-03 -1.646692e-03 0.0
-3.934882e-03 -1.586760e-03 0.0
-3.416753e-03 -1.516177e-03 0.0
-2.925229e-03 -1.434853e-03 0.0
-2.463703e-03 -1.342819e-03 0.0
-2.035464e-03 -1.240267e-03 0.0
-1.643621e-03 -1.127604e-03 0.0
-1.291008e-03 -1.005531e-03 0.0
-9.800605e-04 -8.751446e-04 0.0
-7.126685e-04 -7.380811e-04 0.0
-4.899851e-04 -5.967163e-04 0.0
-3.121981e-04 -4.544388e-04 0.0
-1.782689e-04 -3.160157e-04 0.0
-8.563503e-05 -1.880790e-04 0.0
-2.988864e-05 -7.977248e-05 0.0
-4.418712e-06 -3.651130e-06 0.0
0.000000e+00 2.304839e-05 0.0
0.000000e+00 -2.305591e-05 0.0
0.000000e+00 3.435790e-06 0.0
-1.755948e-05 6.480053e-06 0.0
-7.434484e-05 1.046673e-04 0.0
-1.831684e-04 2.517960e-04 0.0
-3.451306e-04 4.276271e-04 0.0
-5.591879e-04 6.195964e-04 0.0
-8.238670e-04 8.182248e-04 0.0
-1.138113e-03 1.015778e-03 0.0
-1.501099e-03 1.205827e-03 0.0
-1.911435e-03 1.383550e-03 0.0
-2.366457e-03 1.546087e-03 0.0
-2.862088e-03 1.692479e-03 0.0
-3.393336e-03 1.823080e-03 0.0
-3.955110e-03 1.938720e-03 0.0
-4.542891e-03 2.040029e-03 0.0
-5.152962e-03 2.127182e-03 0.0
-5.782182e-03 2.200085e-03 0.0
-6.427545e-03 2.258761e-03 0.0
-7.085833e-03 2.303663e-03 0.0
-7.753552e-03 2.335702e-03 0.0
-8.427143e-03 2.356023e-03 0.0
-9.103291e-03 2.365688e-03 0.0
-9.779142e-03 2.365460e-03 0.0
-1.045230e-02 2.355808e-03 0.0
-1.112066e-02 2.337098e-03 0.0
-1.178211e-02 2.309833e-03 0.0
-1.243445e-02 2.274795e-03 0.0
-1.307536e-02 2.233011e-03 0.0
-1.370253e-02 2.185549e-03 0.0
-1.431396e-02 2.133269e-03 0.0
-1.490802e-02 2.076643e-03 0.0
-1.548352e-02 2.015723e-03 0.0
-1.603958e-02 1.950276e-03 0.0
-1.657539e-02 1.880003e-03 0.0
-1.709007e-02 1.804752e-03 0.0
-1.758252e-02 1.724641e-03 0.0
-1.805142e-02 1.640059e-03 0.0
-1.849537e-02 1.551558e-03 0.0
-1.891299e-02 1.459696e-03 0.0
-1.930304e-02 1.364898e-03 0.0
-1.966452e-02 1.267390e-03 0.0
-1.999661e-02 1.167196e-03 0.0
-2.029867e-02 1.064212e-03 0.0
-2.057009e-02 9.583026e-04 0.0
-2.081031e-02 8.493892e-04 0.0
-2.101866e-02 7.375060e-04 0.0
-2.119445e-02 6.228127e-04 0.0
-2.133698e-02 5.055715e-04 0.0
-2.144553e-02 3.861038e-04 0.0
-2.151946e-02 2.647458e-04 0.0
-2.155825e-02 1.418160e-04 0.0
-2.156148e-02 1.760332e-05 0.0
-2.152886e-02 -1.076250e-04 0.0
-2.146020e-02 -2.336201e-04 0.0
-2.135543e-02 -3.601458e-04 0.0
-2.121456e-02 -4.869511e-04 0.0
-2.103765e-02 -6.137503e-04 0.0
-2.082486e-02 -7.402136e-04 0.0
-2.057643e-02 -8.659675e-04 0.0
-2.029267e-02 -9.906019e-04 0.0
-1.997401e-02 -1.113681e-03 0.0
-1.962101e-02 -1.234756e-03 0.0
-1.923435e-02 -1.353370e-03 0.0
-1.881483e-02 -1.469066e-03 0.0
-1.836343e-02 -1.581384e-03 0.0
-1.788123e-02 -1.689859e-03 0.0
-1.736949e-02 -1.794017e-03 0.0
-1.682959e-02 -1.893370e-03 0.0
-1.626308e-02 -1.987411e-03 0.0
-1.567163e-02 -2.075610e-03 0.0
-1.505707e-02 -2.157418e-03 0.0
-1.442139e-02 -2.232267e-03 0.0
-1.376672e-02 -2.299572e-03 0.0
-1.309536e-02 -2.358737e-03 0.0
-1.240977e-02 -2.409161e-03 0.0
-1.171255e-02 -2.450243e-03 0.0
-1.100650e-02 -2.481383e-03 0.0
-1.029456e-02 -2.501993e-03 0.0
-9.579817e-03 -2.511494e-03 0.0
-8.865527e-03 -2.509325e-03 0.0
-8.155077e-03 -2.494945e-03 0.0
-7.451986e-03 -2.467837e-03 0.0
-6.759890e-03 -2.427517e-03 0.0
-6.082525e-03 -2.373545e-03 0.0
-5.423708e-03 -2.305538e-03 0.0
-4.787304e-03 -2.223194e-03 0.0
-4.177203e-03 -2.126310e-03 0.0
-3.597269e-03 -2.014818e-03 0.0
-3.051294e-03 -1.888822e-03 0.0
-2.542931e-03 -1.748655e-03 0.0
-2.075614e-03 -1.594944e-03 0.0
-1.652459e-03 -1.428708e-03 0.0
-1.276144e-03 -1.251481e-03 0.0
-9.487704e-04 -1.065479e-03 0.0
-6.716924e-04 -8.738221e-04 0.0
-4.453331e-04 -6.808286e-04 0.0
-2.689883e-04 -4.923938e-04 0.0
-1.406302e-04 -3.164731e-04 0.0
-5.672939e-05 -1.637101e-04 0.0
-1.212513e-05 -4.829170e-05 0.0
0.000000e+00 1.088737e-05 0.0
0.000000e+00 -1.087960e-05 0.0
0.000000e+00 -2.358135e-05 0.0
-2.108726e-05 3.921873e-05 0.0
-1.036443e-04 1.889931e-04 0.0
-2.469580e-04 3.914097e-04 0.0
-4.496188e-04 6.256771e-04 0.0
-7.099512e-04 8.776251e-04 0.0
-1.026854e-03 1.135547e-03 0.0
-1.399593e-03 1.389788e-03 0.0
-1.826969e-03 1.632933e-03 0.0
-2.306520e-03 1.860111e-03 0.0
-2.834293e-03 2.068865e-03 0.0
-3.405272e-03 2.258487e-03 0.0
-4.014168e-03 2.429083e-03 0.0
-4.656126e-03 2.580798e-03 0.0
-5.326996e-03 2.713510e-03 0.0
-6.023157e-03 2.826968e-03 0.0
-6.741104e-03 2.921170e-03 0.0
-7.477111e-03 2.996646e-03 0.0
-8.227172e-03 3.054466e-03 0.0
-8.987205e-03 3.095978e-03 0.0
-9.753369e-03 3.122468e-03 0.0
-1.052228e-02 3.134930e-03 0.0
-1.129099e-02 3.134070e-03 0.0
-1.205688e-02 3.120508e-03 0.0
-1.281731e-02 3.095021e-03 0.0
-1.356959e-02 3.058676e-03 0.0
-1.431093e-02 3.012766e-03 0.0
-1.503864e-02 2.958587e-03 0.0
-1.575035e-02 2.897172e-03 0.0
-1.644415e-02 2.829119e-03 0.0
-1.711857e-02 2.754579e-03 0.0
-1.777247e-02 2.673420e-03 0.0
-1.840478e-02 2.585469e-03 0.0
-1.901434e-02 2.490733e-03 0.0
-1.959979e-02 2.389505e-03 0.0
-2.015958e-02 2.282343e-03 0.0
-2.069205e-02 2.169933e-03 0.0
-2.119563e-02 2.052926e-03 0.0
-2.166891e-02 1.931792e-03 0.0
-2.211074e-02 1.806765e-03 0.0
-2.252016e-02 1.677867e-03 0.0
-2.289639e-02 1.544997e-03 0.0
-2.323869e-02 1.408044e-03 0.0
-2.354634e-02 1.266976e-03 0.0
-2.381853e-02 1.121891e-03 0.0
-2.405442e-02 9.730245e-04 0.0
-2.425316e-02 8.207076e-04 0.0
-2.441390e-02 6.653219e-04 0.0
-2.453590e-02 5.072487e-04 0.0
-2.461851e-02 3.468392e-04 0.0
-2.466119e-02 1.844067e-04 0.0
-2.466356e-02 2.024185e-05 0.0
-2.462533e-02 -1.453595e-04 0.0
-2.454632e-02 -3.120835e-04 0.0
-2.442643e-02 -4.795907e-04 0.0
-2.426565e-02 -6.474972e-04 0.0
-2.406404e-02 -8.153676e-04 0.0
-2.382174e-02 -9.827180e-04 0.0
-2.353900e-02 -1.149027e-03 0.0
-2.321621e-02 -1.313749e-03 0.0
-2.285385e-02 -1.476325e-03 0.0
-2.245259e-02 -1.636191e-03 0.0
-2.201320e-02 -1.792777e-03 0.0
-2.153664e-02 -1.945508e-03 0.0
-2.102401e-02 -2.093798e-03 0.0
-2.047658e-02 -2.237042e-03 0.0
-1.989575e-02 -2.374611e-03 0.0
-1.928310e-02 -2.505849e-03 0.0
-1.864036e-02 -2.630072e-03 0.0
-1.796943e-02 -2.746568e-03 0.0
-1.727237e-02 -2.854601e-03 0.0
-1.655140e-02 -2.953418e-03 0.0
-1.580894e-02 -3.042251e-03 0.0
-1.504758e-02 -3.120326e-03 0.0
-1.427009e-02 -3.186866e-03 0.0
-1.347940e-02 -3.241099e-03 0.0
-1.267866e-02 -3.282258e-03 0.0
-1.187116e-02 -3.309588e-03 0.0
-1.106037e-02 -3.322348e-03 0.0
-1.024991e-02 -3.319821e-03 0.0
-9.443573e-03 -3.301317e-03 0.0
-8.645258e-03 -3.266181e-03 0.0
-7.859000e-03 -3.213805e-03 0.0
-7.088931e-03 -3.143647e-03 0.0
-6.339258e-03 -3.055246e-03 0.0
-5.614232e-03 -2.948254e-03 0.0
-4.918113e-03 -2.822461e-03 0.0
-4.255119e-03 -2.677840e-03 0.0
-3.629375e-03 -2.514591e-03 0.0
-3.044843e-03 -2.333211e-03 0.0
-2.505240e-03 -2.134573e-03 0.0
-2.013942e-03 -1.920035e-03 0.0
-1.573875e-03 -1.691581e-03 0.0
-1.187391e-03 -1.452000e-03 0.0
-8.561316e-04 -1.205124e-03 0.0
-5.808860e-04 -9.561191e-04 0.0
-3.614645e-04 -7.118619e-04 0.0
-1.965944e-04 -4.813917e-04 0.0
-8.386696e-05 -2.764854e-04 0.0
-1.978847e-05 -1.124170e-04 0.0
0.000000e+00 -8.947401e-06 0.0
0.000000e+00 8.969284e-06 0.0
0.000000e+00 -6.266015e-05 0.0
-2.789181e-05 7.659844e-05 0.0
-1.342336e-04 2.930623e-04 0.0
-3.095258e-04 5.630172e-04 0.0
-5.510797e-04 8.653588e-04 0.0
-8.571023e-04 1.184179e-03 0.0
-1.226465e-03 1.506184e-03 0.0
-1.657797e-03 1.820892e-03 0.0
-2.148624e-03 2.120899e-03 0.0
-2.695037e-03 2.401728e-03 0.0
-3.292046e-03 2.661123e-03 0.0
-3.934307e-03 2.898044e-03 0.0
-4.616792e-03 3.111817e-03 0.0
-5.335067e-03 3.301750e-03 0.0
-6.085134e-03 3.467230e-03 0.0
-6.863054e-03 3.608057e-03 0.0
-7.664640e-03 3.724703e-03 0.0
-8.485418e-03 3.818285e-03 0.0
-9.320845e-03 3.890275e-03 0.0
-1.016662e-02 3.942132e-03 0.0
-1.101887e-02 3.975058e-03 0.0
-1.187418e-02 3.990003e-03 0.0
-1.272938e-02 3.987860e-03 0.0
-1.358133e-02 3.969707e-03 0.0
-1.442681e-02 3.936921e-03 0.0
-1.526256e-02 3.891091e-03 0.0
-1.608548e-02 3.833772e-03 0.0
-1.689286e-02 3.766204e-03 0.0
-1.768247e-02 3.689151e-03 0.0
-1.845257e-02 3.602911e-03 0.0
-1.920173e-02 3.507506e-03 0.0
-1.992860e-02 3.402935e-03 0.0
-2.063173e-02 3.289401e-03 0.0
-2.130944e-02 3.167403e-03 0.0
-2.195992e-02 3.037688e-03 0.0
-2.258129e-02 2.901095e-03 0.0
-2.317179e-02 2.758379e-03 0.0
-2.372985e-02 2.610070e-03 0.0
-2.425417e-02 2.456432e-03 0.0
-2.474367e-02 2.297507e-03 0.0
-2.519741e-02 2.133223e-03 0.0
-2.561450e-02 1.963512e-03 0.0
-2.599404e-02 1.788405e-03 0.0
-2.633507e-02 1.608075e-03 0.0
-2.663659e-02 1.422831e-03 0.0
-2.689761e-02 1.233073e-03 0.0
-2.711715e-02 1.039235e-03 0.0
-2.729434e-02 8.417394e-04 0.0
-2.742843e-02 6.409647e-04 0.0
-2.751877e-02 4.372482e-04 0.0
-2.756488e-02 2.309061e-04 0.0
-2.756635e-02 2.226698e-05 0.0
-2.752288e-02 -1.882916e-04 0.0
-2.743426e-02 -4.003352e-04 0.0
-2.730035e-02 -6.133756e-04 0.0
-2.712110e-02 -8.268674e-04 0.0
-2.689655e-02 -1.040215e-03 0.0
-2.662686e-02 -1.252784e-03 0.0
-2.631232e-02 -1.463921e-03 0.0
-2.595335e-02 -1.672958e-03 0.0
-2.555055e-02 -1.879219e-03 0.0
-2.510466e-02 -2.082025e-03 0.0
-2.461657e-02 -2.280680e-03 0.0
-2.408736e-02 -2.474469e-03 0.0
-2.351826e-02 -2.662651e-03 0.0
-2.291066e-02 -2.844447e-03 0.0
-2.226612e-02 -3.019046e-03 0.0
-2.158637e-02 -3.185599e-03 0.0
-2.087333e-02 -3.343224e-03 0.0
-2.012908e-02 -3.491011e-03 0.0
-1.935589e-02 -3.628029e-03 0.0
-1.855624e-02 -3.753330e-03 0.0
-1.773278e-02 -3.865957e-03 0.0
-1.688836e-02 -3.964948e-03 0.0
-1.602605e-02 -4.049344e-03 0.0
-1.514907e-02 -4.118186e-03 0.0
-1.426088e-02 -4.170528e-03 0.0