# vtk DataFile Version 3.0
Vector Field
ASCII
DATASET RECTILINEAR_GRID
DIMENSIONS 102 102 1
X_COORDINATES 102 double
0.000000 0.100000 0.200000 0.300000 0.400000 0.500000 0.600000 0.700000 0.800000 0.900000 1.000000 1.100000 1.200000 1.300000 1.400000 1.500000 1.600000 1.700000 1.800000 1.900000 2.000000 2.100000 2.200000 2.300000 2.400000 2.500000 2.600000 2.700000 2.800000 2.900000 3.000000 3.100000 3.200000 3.300000 3.400000 3.500000 3.600000 3.700000 3.800000 3.900000 4.000000 4.100000 4.200000 4.300000 4.400000 4.500000 4.600000 4.700000 4.800000 4.900000 5.000000 5.100000 5.200000 5.300000 5.400000 5.500000 5.600000 5.700000 5.800000 5.900000 6.000000 6.100000 6.200000 6.300000 6.400000 6.500000 6.600000 6.700000 6.800000 6.900000 7.000000 7.100000 7.200000 7.300000 7.400000 7.500000 7.600000 7.700000 7.800000 7.900000 8.000000 8.100000 8.200000 8.300000 8.400000 8.500000 8.600000 8.700000 8.800000 8.900000 9.000000 9.100000 9.200000 9.300000 9.400000 9.500000 9.600000 9.700000 9.800000 9.900000 10.000000 10.100000 
Y_COORDINATES 102 double
0.000000 0.100000 0.200000 0.300000 0.400000 0.500000 0.600000 0.700000 0.800000 0.900000 1.000000 1.100000 1.200000 1.300000 1.400000 1.500000 1.600000 1.700000 1.800000 1.900000 2.000000 2.100000 2.200000 2.300000 2.400000 2.500000 2.600000 2.700000 2.800000 2.900000 3.000000 3.100000 3.200000 3.300000 3.400000 3.500000 3.600000 3.700000 3.800000 3.900000 4.000000 4.100000 4.200000 4.300000 4.400000 4.500000 4.600000 4.700000 4.800000 4.900000 5.000000 5.100000 5.200000 5.300000 5.400000 5.500000 5.600000 5.700000 5.800000 5.900000 6.000000 6.100000 6.200000 6.300000 6.400000 6.500000 6.600000 6.700000 6.800000 6.900000 7.000000 7.100000 7.200000 7.300000 7.400000 7.500000 7.600000 7.700000 7.800000 7.900000 8.000000 8.100000 8.200000 8.300000 8.400000 8.500000 8.600000 8.700000 8.800000 8.900000 9.000000 9.100000 9.200000 9.300000 9.400000 9.500000 9.600000 9.700000 9.800000 9.900000 10.000000 10.100000 
Z_COORDINATES 1 double
0.0
POINT_DATA 10404
VECTORS Velocity double
0.000000e+00 0.000000e+00 0.0
8.706424e-06 0.000000e+00 0.0
-7.129841e-06 0.000000e+00 0.0
-2.949099e-05 0.000000e+00 0.0
-4.734820e-05 0.000000e+00 0.0
-5.242472e-05 0.000000e+00 0.0
-3.986048e-05 0.000000e+00 0.0
-8.614633e-06 0.000000e+00 0.0
3.922183e-05 0.000000e+00 0.0
9.995017e-05 0.000000e+00 0.0
1.699436e-04 0.000000e+00 0.0
2.468120e-04 0.000000e+00 0.0
3.297238e-04 0.000000e+00 0.0
4.189770e-04 0.000000e+00 0.0
5.152025e-04 0.000000e+00 0.0
6.186340e-04 0.000000e+00 0.0
7.287369e-04 0.000000e+00 0.0
8.442621e-04 0.000000e+00 0.0
9.635949e-04 0.000000e+00 0.0
1.085183e-03 0.000000e+00 0.0
1.207855e-03 0.000000e+00 0.0
1.330924e-03 0.000000e+00 0.0
1.454102e-03 0.000000e+00 0.0
1.577288e-03 0.000000e+00 0.0
1.700346e-03 0.000000e+00 0.0
1.822965e-03 0.000000e+00 0.0
1.944613e-03 0.000000e+00 0.0
2.064608e-03 0.000000e+00 0.0
2.182230e-03 0.000000e+00 0.0
2.296834e-03 0.000000e+00 0.0
2.407924e-03 0.000000e+00 0.0
2.515155e-03 0.000000e+00 0.0
2.618277e-03 0.000000e+00 0.0
2.717061e-03 0.000000e+00 0.0
2.811230e-03 0.000000e+00 0.0
2.900422e-03 0.000000e+00 0.0
2.984202e-03 0.000000e+00 0.0
3.062100e-03 0.000000e+00 0.0
3.133661e-03 0.000000e+00 0.0
3.198484e-03 0.000000e+00 0.0
3.256235e-03 0.000000e+00 0.0
3.306636e-03 0.000000e+00 0.0
3.349445e-03 0.000000e+00 0.0
3.384423e-03 0.000000e+00 0.0
3.411331e-03 0.000000e+00 0.0
3.429924e-03 0.000000e+00 0.0
3.439971e-03 0.000000e+00 0.0
3.441277e-03 0.000000e+00 0.0
3.433711e-03 0.000000e+00 0.0
3.417229e-03 0.000000e+00 0.0
3.391851e-03 0.000000e+00 0.0
3.357658e-03 0.000000e+00 0.0
3.314781e-03 0.000000e+00 0.0
3.263392e-03 0.000000e+00 0.0
3.203702e-03 0.000000e+00 0.0
3.135962e-03 0.000000e+00 0.0
3.060466e-03 0.000000e+00 0.0
2.977552e-03 0.000000e+00 0.0
2.887607e-03 0.000000e+00 0.0
2.791063e-03 0.000000e+00 0.0
2.688395e-03 0.000000e+00 0.0
2.580119e-03 0.000000e+00 0.0
2.466785e-03 0.000000e+00 0.0
2.348974e-03 0.000000e+00 0.0
2.227295e-03 0.000000e+00 0.0
2.102381e-03 0.000000e+00 0.0
1.974887e-03 0.000000e+00 0.0
1.845490e-03 0.000000e+00 0.0
1.714881e-03 0.000000e+00 0.0
1.583762e-03 0.000000e+00 0.0
1.452843e-03 0.000000e+00 0.0
1.322835e-03 0.000000e+00 0.0
1.194444e-03 0.000000e+00 0.0
1.068369e-03 0.000000e+00 0.0
9.452976e-04 0.000000e+00 0.0
8.259004e-04 0.000000e+00 0.0
7.108294e-04 0.000000e+00 0.0
6.007129e-04 0.000000e+00 0.0
4.961512e-04 0.000000e+00 0.0
3.977127e-04 0.000000e+00 0.0
3.059293e-04 0.000000e+00 0.0
2.212920e-04 0.000000e+00 0.0
1.442457e-04 0.000000e+00 0.0
7.518381e-05 0.000000e+00 0.0
1.444323e-05 0.000000e+00 0.0
-3.770257e-05 0.000000e+00 0.0
-8.105083e-05 0.000000e+00 0.0
-1.154795e-04 0.000000e+00 0.0
-1.409581e-04 0.000000e+00 0.0
-1.575628e-04 0.000000e+00 0.0
-1.654957e-04 0.000000e+00 0.0
-1.651109e-04 0.000000e+00 0.0
-1.569501e-04 0.000000e+00 0.0
-1.417925e-04 0.000000e+00 0.0
-1.207256e-04 0.000000e+00 0.0
-9.524860e-05 0.000000e+00 0.0
-6.741954e-05 0.000000e+00 0.0
-4.005018e-05 0.000000e+00 0.0
-1.688883e-05 0.000000e+00 0.0
-2.445467e-06 0.000000e+00 0.0
-0.000000e+00 0.000000e+00 0.0
0.000000e+00 0.000000e+00 0.0
0.000000e+00 2.814847e-05 0.0
1.878109e-05 -9.997966e-07 0.0
4.442980e-05 -4.787667e-06 0.0
5.895229e-05 -4.094157e-06 0.0
5.868925e-05 -3.229950e-06 0.0
4.500687e-05 -4.701088e-07 0.0
2.093285e-05 6.415138e-06 0.0
-1.145499e-05 1.834979e-05 0.0
-5.199392e-05 3.419022e-05 0.0
-1.020062e-04 5.132965e-05 0.0
-1.631434e-04 6.695723e-05 0.0
-2.362658e-04 7.920541e-05 0.0
-3.208794e-04 8.767847e-05 0.0
-4.152643e-04 9.326078e-05 0.0
-5.170859e-04 9.744630e-05 0.0
-6.241225e-04 1.015795e-04 0.0
-7.347844e-04 1.063418e-04 0.0
-8.482657e-04 1.116340e-04 0.0
-9.643605e-04 1.168080e-04 0.0
-1.083098e-03 1.210701e-04 0.0
-1.204388e-03 1.238551e-04 0.0
-1.327809e-03 1.250281e-04 0.0
-1.452589e-03 1.248711e-04 0.0
-1.577749e-03 1.239043e-04 0.0
-1.702306e-03 1.226454e-04 0.0
-1.825455e-03 1.214135e-04 0.0
-1.946656e-03 1.202476e-04 0.0
-2.065605e-03 1.189503e-04 0.0
-2.182131e-03 1.172201e-04 0.0
-2.296055e-03 1.148021e-04 0.0
-2.407089e-03 1.115937e-04 0.0
-2.514801e-03 1.076674e-04 0.0
-2.618652e-03 1.032160e-04 0.0
-2.718070e-03 9.845585e-05 0.0
-2.812531e-03 9.353541e-05 0.0
-2.901611e-03 8.848795e-05 0.0
-2.984984e-03 8.324010e-05 0.0
-3.062388e-03 7.766323e-05 0.0
-3.133573e-03 7.163823e-05 0.0
-3.198260e-03 6.510457e-05 0.0
-3.256121e-03 5.807670e-05 0.0
-3.306794e-03 5.062796e-05 0.0
-3.349907e-03 4.285570e-05 0.0
-3.385114e-03 3.484603e-05 0.0
-3.412116e-03 2.665267e-05 0.0
-3.430674e-03 1.829527e-05 0.0
-3.440606e-03 9.774012e-06 0.0
-3.441779e-03 1.092183e-06 0.0
-3.434115e-03 -7.719357e-06 0.0
-3.417589e-03 -1.660113e-05 0.0
-3.392216e-03 -2.548977e-05 0.0
-3.358052e-03 -3.431750e-05 0.0
-3.315199e-03 -4.301910e-05 0.0
-3.263808e-03 -5.153822e-05 0.0
-3.204088e-03 -5.982951e-05 0.0
-3.136300e-03 -6.785629e-05 0.0
-3.060752e-03 -7.558549e-05 0.0
-2.977799e-03 -8.298251e-05 0.0
-2.887834e-03 -9.000808e-05 0.0
-2.791290e-03 -9.661783e-05 0.0
-2.688633e-03 -1.027645e-04 0.0
-2.580368e-03 -1.084015e-04 0.0
-2.467035e-03 -1.134858e-04 0.0
-2.349211e-03 -1.179808e-04 0.0
-2.227504e-03 -1.218562e-04 0.0
-2.102553e-03 -1.250883e-04 0.0
-1.975018e-03 -1.276576e-04 0.0
-1.845582e-03 -1.295488e-04 0.0
-1.714939e-03 -1.307491e-04 0.0
-1.583794e-03 -1.312491e-04 0.0
-1.452855e-03 -1.310430e-04 0.0
-1.322830e-03 -1.301299e-04 0.0
-1.194424e-03 -1.285121e-04 0.0
-1.068334e-03 -1.261963e-04 0.0
-9.452476e-04 -1.231936e-04 0.0
-8.258363e-04 -1.195195e-04 0.0
-7.107527e-04 -1.151935e-04 0.0
-6.006254e-04 -1.102393e-04 0.0
-4.960552e-04 -1.046847e-04 0.0
-3.976103e-04 -9.856160e-05 0.0
-3.058223e-04 -9.190617e-05 0.0
-2.211815e-04 -8.475928e-05 0.0
-1.441325e-04 -7.716684e-05 0.0
-7.506918e-05 -6.918009e-05 0.0
-1.432840e-05 -6.085615e-05 0.0
3.781597e-05 -5.225857e-05 0.0
8.116093e-05 -4.345840e-05 0.0
1.155843e-04 -3.453659e-05 0.0
1.410557e-04 -2.558492e-05 0.0
1.576515e-04 -1.670995e-05 0.0
1.655740e-04 -8.037619e-06 0.0
1.651778e-04 2.800071e-07 0.0
1.570050e-04 8.055447e-06 0.0
1.418352e-04 1.505138e-05 0.0
1.207564e-04 2.095923e-05 0.0
9.526840e-05 2.536738e-05 0.0
6.742993e-05 2.771690e-05 0.0
4.005335e-05 2.725382e-05 0.0
1.688729e-05 2.304254e-05 0.0
2.441726e-06 1.432168e-05 0.0
0.000000e+00 2.317797e-06 0.0
0.000000e+00 -2.305455e-06 0.0
0.000000e+00 4.872682e-05 0.0
3.136698e-05 -1.083456e-05 0.0
5.496159e-05 -3.144282e-05 0.0
6.389313e-05 -2.614729e-05 0.0
5.030152e-05 -4.695700e-06 0.0
1.063215e-05 2.935549e-05 0.0
-5.700910e-05 7.270954e-05 0.0
-1.541808e-04 1.215204e-04 0.0
-2.822263e-04 1.714887e-04 0.0
-4.417435e-04 2.187560e-04 0.0
-6.320437e-04 2.608143e-04 0.0
-8.510108e-04 2.968861e-04 0.0
-1.095439e-03 3.276406e-04 0.0
-1.361661e-03 3.544645e-04 0.0
-1.646184e-03 3.786670e-04 0.0
-1.946091e-03 4.009451e-04 0.0
-2.259124e-03 4.212555e-04 0.0
-2.583510e-03 4.390398e-04 0.0
-2.917665e-03 4.536232e-04 0.0
-3.259931e-03 4.645801e-04 0.0
-3.608446e-03 4.719231e-04 0.0
-3.961168e-03 4.760761e-04 0.0
-4.316002e-03 4.776826e-04 0.0
-4.670970e-03 4.773575e-04 0.0
-5.024330e-03 4.754905e-04 0.0
-5.374618e-03 4.721748e-04 0.0
-5.720593e-03 4.672634e-04 0.0
-6.061134e-03 4.605101e-04 0.0
-6.395120e-03 4.517249e-04 0.0
-6.721361e-03 4.408748e-04 0.0
-7.038583e-03 4.280982e-04 0.0
-7.345466e-03 4.136396e-04 0.0
-7.640717e-03 3.977466e-04 0.0
-7.923118e-03 3.805802e-04 0.0
-8.191560e-03 3.621755e-04 0.0
-8.445022e-03 3.424614e-04 0.0
-8.682539e-03 3.213216e-04 0.0
-8.903156e-03 2.986640e-04 0.0
-9.105901e-03 2.744680e-04 0.0
-9.289789e-03 2.487955e-04 0.0
-9.453839e-03 2.217682e-04 0.0
-9.597107e-03 1.935293e-04 0.0
-9.718716e-03 1.642093e-04 0.0
-9.817876e-03 1.339093e-04 0.0
-9.893892e-03 1.027060e-04 0.0
-9.946167e-03 7.067218e-05 0.0
-9.974203e-03 3.790190e-05 0.0
-9.977611e-03 4.533790e-06 0.0
-9.956136e-03 -2.923135e-05 0.0
-9.909668e-03 -6.315252e-05 0.0
-9.838241e-03 -9.700775e-05 0.0
-9.742029e-03 -1.305918e-04 0.0
-9.621351e-03 -1.637164e-04 0.0
-9.476660e-03 -1.962074e-04 0.0
-9.308548e-03 -2.279005e-04 0.0
-9.117736e-03 -2.586341e-04 0.0
-8.905069e-03 -2.882449e-04 0.0
-8.671514e-03 -3.165658e-04 0.0
-8.418153e-03 -3.434273e-04 0.0
-8.146185e-03 -3.686615e-04 0.0
-7.856920e-03 -3.921069e-04 0.0
-7.551775e-03 -4.136124e-04 0.0
-7.232267e-03 -4.330403e-04 0.0
-6.900009e-03 -4.502671e-04 0.0
-6.556697e-03 -4.651836e-04 0.0
-6.204100e-03 -4.776937e-04 0.0
-5.844053e-03 -4.877146e-04 0.0
-5.478438e-03 -4.951765e-04 0.0
-5.109182e-03 -5.000240e-04 0.0
-4.738238e-03 -5.022174e-04 0.0
-4.367573e-03 -5.017344e-04 0.0
-3.999159e-03 -4.985719e-04 0.0
-3.634958e-03 -4.927412e-04 0.0
-3.276915e-03 -4.842692e-04 0.0
-2.926941e-03 -4.731985e-04 0.0
-2.586905e-03 -4.595875e-04 0.0
-2.258621e-03 -4.435106e-04 0.0
-1.943835e-03 -4.250584e-04 0.0
-1.644215e-03 -4.043380e-04 0.0
-1.361335e-03 -3.814735e-04 0.0
-1.096665e-03 -3.566062e-04 0.0
-8.515563e-04 -3.298961e-04 0.0
-6.272277e-04 -3.015223e-04 0.0
-4.247494e-04 -2.716847e-04 0.0
-2.450260e-04 -2.406060e-04 0.0
-8.877670e-05 -2.085348e-04 0.0
4.348660e-05 -1.757496e-04 0.0
1.514854e-04 -1.425642e-04 0.0
2.352097e-04 -1.093390e-04 0.0
2.949571e-04 -7.648764e-05 0.0
3.313830e-04 -4.449432e-05 0.0
3.455663e-04 -1.393425e-05 0.0
3.390920e-04 1.449863e-05 0.0
3.141589e-04 3.995326e-05 0.0
2.737163e-04 6.137051e-05 0.0
2.216324e-04 7.741992e-05 0.0
1.628804e-04 8.643725e-05 0.0
1.036893e-04 8.641307e-05 0.0
5.150633e-05 7.519368e-05 0.0
1.445721e-05 5.133914e-05 0.0
0.000000e+00 1.674351e-05 0.0
0.000000e+00 -1.672656e-05 0.0
0.000000e+00 5.830073e-05 0.0
2.768192e-05 -2.693455e-05 0.0
3.532181e-05 -5.236747e-05 0.0
2.238336e-05 -2.775785e-05 0.0
-2.137036e-05 3.041307e-05 0.0
-1.031476e-04 1.113491e-04 0.0
-2.284729e-04 2.054837e-04 0.0
-4.012256e-04 3.044725e-04 0.0
-6.232101e-04 4.016897e-04 0.0
-8.938699e-04 4.927881e-04 0.0
-1.210489e-03 5.757954e-04 0.0
-1.568869e-03 6.506140e-04 0.0
-1.964214e-03 7.181382e-04 0.0
-2.391902e-03 7.793640e-04 0.0
-2.847899e-03 8.348049e-04 0.0
-3.328809e-03 8.843448e-04 0.0
-3.831634e-03 9.274538e-04 0.0
-4.353467e-03 9.635736e-04 0.0
-4.891257e-03 9.924584e-04 0.0
-5.441735e-03 1.014332e-03 0.0
-6.001506e-03 1.029829e-03 0.0
-6.567234e-03 1.039777e-03 0.0
-7.135820e-03 1.044939e-03 0.0
-7.704513e-03 1.045826e-03 0.0
-8.270907e-03 1.042629e-03 0.0
-8.832849e-03 1.035305e-03 0.0
-9.388304e-03 1.023722e-03 0.0
-9.935238e-03 1.007814e-03 0.0
-1.047156e-02 9.876776e-04 0.0
-1.099511e-02 9.635642e-04 0.0
-1.150376e-02 9.358057e-04 0.0
-1.199546e-02 9.047063e-04 0.0
-1.246829e-02 8.704585e-04 0.0
-1.292046e-02 8.331162e-04 0.0
-1.335031e-02 7.926297e-04 0.0
-1.375620e-02 7.489175e-04 0.0
-1.413652e-02 7.019379e-04 0.0
-1.448963e-02 6.517331e-04 0.0
-1.481390e-02 5.984314e-04 0.0
-1.510774e-02 5.422184e-04 0.0
-1.536963e-02 4.832962e-04 0.0
-1.559815e-02 4.218525e-04 0.0
-1.579202e-02 3.580518e-04 0.0
-1.595007e-02 2.920481e-04 0.0
-1.607125e-02 2.240121e-04 0.0
-1.615465e-02 1.541581e-04 0.0
-1.619952e-02 8.276498e-05 0.0
-1.620524e-02 1.018659e-05 0.0
-1.617144e-02 -6.314233e-05 0.0
-1.609794e-02 -1.367444e-04 0.0
-1.598481e-02 -2.101825e-04 0.0
-1.583235e-02 -2.830507e-04 0.0
-1.564106e-02 -3.549648e-04 0.0
-1.541166e-02 -4.255521e-04 0.0
-1.514508e-02 -4.944429e-04 0.0
-1.484246e-02 -5.612659e-04 0.0
-1.450510e-02 -6.256473e-04 0.0
-1.413453e-02 -6.872147e-04 0.0
-1.373244e-02 -7.456028e-04 0.0
-1.330072e-02 -8.004598e-04 0.0
-1.284144e-02 -8.514525e-04 0.0
-1.235682e-02 -8.982698e-04 0.0
-1.184925e-02 -9.406244e-04 0.0
-1.132127e-02 -9.782535e-04 0.0
-1.077554e-02 -1.010919e-03 0.0
-1.021483e-02 -1.038410e-03 0.0
-9.642015e-03 -1.060540e-03 0.0
-9.060055e-03 -1.077157e-03 0.0
-8.471965e-03 -1.088139e-03 0.0
-7.880811e-03 -1.093400e-03 0.0
-7.289685e-03 -1.092891e-03 0.0
-6.701682e-03 -1.086604e-03 0.0
-6.119890e-03 -1.074565e-03 0.0
-5.547363e-03 -1.056829e-03 0.0
-4.987105e-03 -1.033489e-03 0.0
-4.442055e-03 -1.004670e-03 0.0
-3.915062e-03 -9.705357e-04 0.0
-3.408870e-03 -9.312816e-04 0.0
-2.926096e-03 -8.871421e-04 0.0
-2.469208e-03 -8.383885e-04 0.0
-2.040510e-03 -7.853310e-04 0.0
-1.642111e-03 -7.283199e-04 0.0
-1.275911e-03 -6.677484e-04 0.0
-9.435660e-04 -6.040554e-04 0.0
-6.464686e-04 -5.377305e-04 0.0
-3.857113e-04 -4.693202e-04 0.0
-1.620533e-04 -3.994368e-04 0.0
2.412245e-05 -3.287698e-04 0.0
1.728549e-04 -2.581016e-04 0.0
2.846682e-04 -1.883314e-04 0.0
3.606427e-04 -1.204992e-04 0.0
4.025001e-04 -5.582204e-05 0.0
4.127095e-04 4.258876e-06 0.0
3.946129e-04 5.801935e-05 0.0
3.525694e-04 1.033834e-04 0.0
2.921094e-04 1.378493e-04 0.0
2.200725e-04 1.584430e-04 0.0
1.446806e-04 1.617737e-04 0.0
7.547684e-05 1.443661e-04 0.0
2.317118e-05 1.036136e-04 0.0
0.000000e+00 3.988365e-05 0.0
0.000000e+00 -3.985818e-05 0.0
0.000000e+00 5.492179e-05 0.0
1.162281e-05 -4.122929e-05 0.0
-3.535438e-06 -5.299739e-05 0.0
-4.769662e-05 7.385145e-06 0.0
-1.331551e-04 1.166122e-04 0.0
-2.698004e-04 2.564778e-04 0.0
-4.651111e-04 4.119873e-04 0.0
-7.234467e-04 5.715551e-04 0.0
-1.045695e-03 7.272622e-04 0.0
-1.429623e-03 8.746409e-04 0.0
-1.870842e-03 1.011881e-03 0.0
-2.363998e-03 1.138702e-03 0.0
-2.903756e-03 1.255281e-03 0.0
-3.485336e-03 1.361567e-03 0.0
-4.104538e-03 1.457075e-03 0.0
-4.757470e-03 1.541089e-03 0.0
-5.440181e-03 1.613030e-03 0.0
-6.148427e-03 1.672763e-03 0.0
-6.877651e-03 1.720711e-03 0.0
-7.623154e-03 1.757743e-03 0.0
-8.380345e-03 1.784916e-03 0.0
-9.144979e-03 1.803193e-03 0.0
-9.913265e-03 1.813247e-03 0.0
-1.068184e-02 1.815420e-03 0.0
-1.144765e-02 1.809810e-03 0.0
-1.220776e-02 1.796447e-03 0.0
-1.295922e-02 1.775449e-03 0.0
-1.369903e-02 1.747094e-03 0.0
-1.442416e-02 1.711806e-03 0.0
-1.513164e-02 1.670053e-03 0.0
-1.581863e-02 1.622239e-03 0.0
-1.648250e-02 1.568618e-03 0.0
-1.712081e-02 1.509291e-03 0.0
-1.773124e-02 1.444253e-03 0.0
-1.831151e-02 1.373480e-03 0.0
-1.885937e-02 1.297006e-03 0.0
-1.937255e-02 1.214955e-03 0.0
-1.984877e-02 1.127543e-03 0.0
-2.028584e-02 1.035031e-03 0.0
-2.068167e-02 9.376925e-04 0.0
-2.103430e-02 8.357805e-04 0.0
-2.134194e-02 7.295310e-04 0.0
-2.160292e-02 6.191855e-04 0.0
-2.181576e-02 5.050246e-04 0.0
-2.197908e-02 3.873970e-04 0.0
-2.209169e-02 2.667376e-04 0.0
-2.215261e-02 1.435720e-04 0.0
-2.216107e-02 1.851476e-05 0.0
-2.211657e-02 -1.077305e-04 0.0
-2.201893e-02 -2.344116e-04 0.0
-2.186825e-02 -3.608248e-04 0.0
-2.166494e-02 -4.862977e-04 0.0
-2.140967e-02 -6.101740e-04 0.0
-2.110339e-02 -7.318014e-04 0.0
-2.074733e-02 -8.505263e-04 0.0
-2.034297e-02 -9.656952e-04 0.0
-1.989206e-02 -1.076660e-03 0.0
-1.939658e-02 -1.182784e-03 0.0
-1.885881e-02 -1.283454e-03 0.0
-1.828124e-02 -1.378080e-03 0.0
-1.766661e-02 -1.466106e-03 0.0
-1.701788e-02 -1.547007e-03 0.0
-1.633821e-02 -1.620294e-03 0.0
-1.563094e-02 -1.685516e-03 0.0
-1.489960e-02 -1.742263e-03 0.0
-1.414786e-02 -1.790167e-03 0.0
-1.337951e-02 -1.828911e-03 0.0
-1.259847e-02 -1.858230e-03 0.0
-1.180872e-02 -1.877917e-03 0.0
-1.101433e-02 -1.887823e-03 0.0
-1.021939e-02 -1.887866e-03 0.0
-9.427997e-03 -1.878026e-03 0.0
-8.644249e-03 -1.858344e-03 0.0
-7.872193e-03 -1.828917e-03 0.0
-7.115812e-03 -1.789901e-03 0.0
-6.379001e-03 -1.741512e-03 0.0
-5.665539e-03 -1.684027e-03 0.0
-4.979062e-03 -1.617786e-03 0.0
-4.323038e-03 -1.543192e-03 0.0
-3.700737e-03 -1.460714e-03 0.0
-3.115205e-03 -1.370887e-03 0.0
-2.569231e-03 -1.274319e-03 0.0
-2.065317e-03 -1.171689e-03 0.0
-1.605642e-03 -1.063758e-03 0.0
-1.192027e-03 -9.513742e-04 0.0
-8.258918e-04 -8.354845e-04 0.0
-5.082110e-04 -7.171474e-04 0.0
-2.394592e-04 -5.975516e-04 0.0
-1.955083e-05 -4.780397e-04 0.0
1.522273e-04 -3.601391e-04 0.0
2.773001e-04 -2.456015e-04 0.0
3.579023e-04 -1.364537e-04 0.0
3.971836e-04 -3.505186e-05 0.0
3.993296e-04 5.584356e-05 0.0
3.696907e-04 1.329925e-04 0.0
3.149032e-04 1.926067e-04 0.0
2.429945e-04 2.303210e-04 0.0
1.634572e-04 2.412802e-04 0.0
8.733071e-05 2.204619e-04 0.0
2.751537e-05 1.633983e-04 0.0
0.000000e+00 6.736853e-05 0.0
0.000000e+00 -6.733189e-05 0.0
0.000000e+00 4.038366e-05 0.0
-9.217824e-06 -4.654203e-05 0.0
-5.008976e-05 -2.313776e-05 0.0
-1.324452e-04 8.952677e-05 0.0
-2.696345e-04 2.623236e-04 0.0
-4.724375e-04 4.710417e-04 0.0
-7.481525e-04 6.969706e-04 0.0
-1.099890e-03 9.267057e-04 0.0
-1.526786e-03 1.151685e-03 0.0
-2.025046e-03 1.367113e-03 0.0
-2.589360e-03 1.570548e-03 0.0
-3.214132e-03 1.760597e-03 0.0
-3.894175e-03 1.936056e-03 0.0
-4.624813e-03 2.095616e-03 0.0
-5.401573e-03 2.238014e-03 0.0
-6.219782e-03 2.362370e-03 0.0
-7.074296e-03 2.468466e-03 0.0
-7.959501e-03 2.556803e-03 0.0
-8.869541e-03 2.628427e-03 0.0
-9.798653e-03 2.684610e-03 0.0
-1.074146e-02 2.726527e-03 0.0
-1.169314e-02 2.755045e-03 0.0
-1.264935e-02 2.770686e-03 0.0
-1.360614e-02 2.773737e-03 0.0
-1.455967e-02 2.764430e-03 0.0
-1.550613e-02 2.743104e-03 0.0
-1.644161e-02 2.710274e-03 0.0
-1.736221e-02 2.666585e-03 0.0
-1.826411e-02 2.612698e-03 0.0
-1.914371e-02 2.549160e-03 0.0
-1.999764e-02 2.476336e-03 0.0
-2.082278e-02 2.394410e-03 0.0
-2.161615e-02 2.303457e-03 0.0
-2.237486e-02 2.203539e-03 0.0
-2.309600e-02 2.094789e-03 0.0
-2.377669e-02 1.977438e-03 0.0
-2.441403e-02 1.851804e-03 0.0
-2.500524e-02 1.718241e-03 0.0
-2.554765e-02 1.577103e-03 0.0
-2.603877e-02 1.428716e-03 0.0
-2.647628e-02 1.273393e-03 0.0
-2.685803e-02 1.111469e-03 0.0
-2.718204e-02 9.433394e-04 0.0
-2.744646e-02 7.694915e-04 0.0
-2.764966e-02 5.905204e-04 0.0
-2.779019e-02 4.071284e-04 0.0
-2.786686e-02 2.201171e-04 0.0
-2.787881e-02 3.038385e-05 0.0
-2.782547e-02 -1.610724e-04 0.0
-2.770663e-02 -3.531826e-04 0.0
-2.752246e-02 -5.449176e-04 0.0
-2.727342e-02 -7.352685e-04 0.0
-2.696035e-02 -9.232323e-04 0.0
-2.658440e-02 -1.107806e-03 0.0
-2.614702e-02 -1.287989e-03 0.0
-2.565004e-02 -1.462791e-03 0.0
-2.509556e-02 -1.631237e-03 0.0
-2.448604e-02 -1.792383e-03 0.0
-2.382422e-02 -1.945313e-03 0.0
-2.311315e-02 -2.089155e-03 0.0
-2.235618e-02 -2.223074e-03 0.0
-2.155689e-02 -2.346282e-03 0.0
-2.071914e-02 -2.458041e-03 0.0
-1.984700e-02 -2.557666e-03 0.0
-1.894474e-02 -2.644536e-03 0.0
-1.801684e-02 -2.718097e-03 0.0
-1.706791e-02 -2.777868e-03 0.0
-1.610273e-02 -2.823450e-03 0.0
-1.512615e-02 -2.854531e-03 0.0
-1.414311e-02 -2.870886e-03 0.0
-1.315863e-02 -2.872386e-03 0.0
-1.217769e-02 -2.858997e-03 0.0
-1.120529e-02 -2.830776e-03 0.0
-1.024637e-02 -2.787865e-03 0.0
-9.305798e-03 -2.730500e-03 0.0
-8.388333e-03 -2.659004e-03 0.0
-7.498589e-03 -2.573796e-03 0.0
-6.641010e-03 -2.475389e-03 0.0
-5.819831e-03 -2.364394e-03 0.0
-5.039048e-03 -2.241521e-03 0.0
-4.302378e-03 -2.107582e-03 0.0
-3.613225e-03 -1.963499e-03 0.0
-2.974637e-03 -1.810304e-03 0.0
-2.389271e-03 -1.649153e-03 0.0
-1.859338e-03 -1.481336e-03 0.0
-1.386564e-03 -1.308288e-03 0.0
-9.721281e-04 -1.131613e-03 0.0
-6.166068e-04 -9.531018e-04 0.0
-3.199047e-04 -7.747705e-04 0.0
-8.117900e-05 -5.988933e-04 0.0
1.012447e-04 -4.280537e-04 0.0
2.299631e-04 -2.652006e-04 0.0
3.086061e-04 -1.137235e-04 0.0
3.419389e-04 2.248162e-05 0.0
3.359730e-04 1.389291e-04 0.0
2.980671e-04 2.304832e-04 0.0
2.370268e-04 2.913313e-04 0.0
1.632258e-04 3.150511e-04 0.0
8.883009e-05 2.948276e-04 0.0
2.835594e-05 2.238425e-04 0.0
0.000000e+00 9.569463e-05 0.0
0.000000e+00 -9.564500e-05 0.0
0.000000e+00 1.716269e-05 0.0
-2.895709e-05 -3.709913e-05 0.0
-9.747567e-05 4.305523e-05 0.0
-2.241721e-04 2.237276e-04 0.0
-4.217531e-04 4.715643e-04 0.0
-6.997540e-04 7.586141e-04 0.0
-1.063426e-03 1.064238e-03 0.0
-1.513589e-03 1.374172e-03 0.0
-2.047532e-03 1.679238e-03 0.0
-2.660476e-03 1.973674e-03 0.0
-3.346966e-03 2.253572e-03 0.0
-4.101732e-03 2.515814e-03 0.0
-4.919896e-03 2.757646e-03 0.0
-5.796680e-03 2.976744e-03 0.0
-6.726971e-03 3.171518e-03 0.0
-7.705015e-03 3.341342e-03 0.0
-8.724411e-03 3.486559e-03 0.0
-9.778368e-03 3.608234e-03 0.0
-1.086011e-02 3.707757e-03 0.0
-1.196323e-02 3.786471e-03 0.0
-1.308190e-02 3.845423e-03 0.0
-1.421085e-02 3.885324e-03 0.0
-1.534520e-02 3.906667e-03 0.0
-1.648027e-02 3.909917e-03 0.0
-1.761135e-02 3.895668e-03 0.0
-1.873369e-02 3.864707e-03 0.0
-1.984254e-02 3.817945e-03 0.0
-2.093326e-02 3.756281e-03 0.0
-2.200145e-02 3.680461e-03 0.0
-2.304303e-02 3.591006e-03 0.0
-2.405417e-02 3.488232e-03 0.0
-2.503125e-02 3.372333e-03 0.0
-2.597072e-02 3.243496e-03 0.0
-2.686906e-02 3.101982e-03 0.0
-2.772276e-02 2.948154e-03 0.0
-2.852832e-02 2.782451e-03 0.0
-2.928238e-02 2.605337e-03 0.0
-2.998170e-02 2.417256e-03 0.0
-3.062326e-02 2.218616e-03 0.0
-3.120421e-02 2.009815e-03 0.0
-3.172190e-02 1.791286e-03 0.0
-3.217383e-02 1.563539e-03 0.0
-3.255767e-02 1.327200e-03 0.0
-3.287131e-02 1.083022e-03 0.0
-3.311282e-02 8.318769e-04 0.0
-3.328057e-02 5.747506e-04 0.0
-3.337324e-02 3.127325e-04 0.0
-3.338985e-02 4.702375e-05 0.0
-3.332979e-02 -2.210456e-04 0.0
-3.319284e-02 -4.900349e-04 0.0
-3.297917e-02 -7.585252e-04 0.0
-3.268935e-02 -1.025104e-03 0.0
-3.232429e-02 -1.288360e-03 0.0
-3.188532e-02 -1.546887e-03 0.0
-3.137414e-02 -1.799291e-03 0.0
-3.079284e-02 -2.044201e-03 0.0
-3.014386e-02 -2.280276e-03 0.0
-2.943005e-02 -2.506215e-03 0.0
-2.865461e-02 -2.720757e-03 0.0
-2.782105e-02 -2.922692e-03 0.0
-2.693325e-02 -3.110860e-03 0.0
-2.599536e-02 -3.284162e-03 0.0
-2.501184e-02 -3.441566e-03 0.0
-2.398741e-02 -3.582119e-03 0.0
-2.292703e-02 -3.704953e-03 0.0
-2.183586e-02 -3.809296e-03 0.0
-2.071928e-02 -3.894482e-03 0.0
-1.958281e-02 -3.959955e-03 0.0
-1.843210e-02 -4.005277e-03 0.0
-1.727289e-02 -4.030131e-03 0.0
-1.611097e-02 -4.034330e-03 0.0
-1.495218e-02 -4.017820e-03 0.0
-1.380231e-02 -3.980673e-03 0.0
-1.266711e-02 -3.923084e-03 0.0
-1.155226e-02 -3.845375e-03 0.0
-1.046330e-02 -3.747996e-03 0.0
-9.405589e-03 -3.631526e-03 0.0
-8.384322e-03 -3.496679e-03 0.0
-7.404433e-03 -3.344306e-03 0.0
-6.470582e-03 -3.175397e-03 0.0
-5.587104e-03 -2.991087e-03 0.0
-4.757971e-03 -2.792660e-03 0.0
-3.986740e-03 -2.581563e-03 0.0
-3.276511e-03 -2.359411e-03 0.0
-2.629872e-03 -2.128003e-03 0.0
-2.048846e-03 -1.889343e-03 0.0
-1.534828e-03 -1.645659e-03 0.0
-1.088523e-03 -1.399434e-03 0.0
-7.098745e-04 -1.153446e-03 0.0
-3.979875e-04 -9.108077e-04 0.0
-1.510448e-04 -6.750240e-04 0.0
3.378220e-05 -4.500553e-04 0.0
1.604216e-04 -2.403910e-04 0.0
2.340034e-04 -5.112862e-05 0.0
2.609529e-04 1.119510e-04 0.0
2.490870e-04 2.423204e-04 0.0
2.077192e-04 3.326696e-04 0.0
1.478231e-04 3.749178e-04 0.0
8.232524e-05 3.602961e-04 0.0
2.668998e-05 2.794486e-04 0.0
0.000000e+00 1.223555e-04 0.0
0.000000e+00 -1.222917e-04 0.0
0.000000e+00 -1.376510e-05 0.0
-4.430272e-05 -9.580625e-06 0.0
-1.429661e-04 1.476412e-04 0.0
-3.196179e-04 4.114336e-04 0.0
-5.843702e-04 7.459580e-04 0.0
-9.436821e-04 1.121771e-03 0.0
-1.399669e-03 1.517555e-03 0.0
-1.950685e-03 1.918453e-03 0.0
-2.592656e-03 2.314214e-03 0.0
-3.320501e-03 2.697401e-03 0.0
-4.129090e-03 3.062123e-03 0.0
-5.013540e-03 3.403441e-03 0.0
-5.968964e-03 3.717352e-03 0.0
-6.990021e-03 4.001023e-03 0.0
-8.070582e-03 4.252981e-03 0.0
-9.203703e-03 4.473059e-03 0.0
-1.038190e-02 4.662073e-03 0.0
-1.159757e-02 4.821352e-03 0.0
-1.284344e-02 4.952282e-03 0.0
-1.411278e-02 5.056021e-03 0.0
-1.539944e-02 5.133432e-03 0.0
-1.669768e-02 5.185198e-03 0.0
-1.800195e-02 5.212018e-03 0.0
-1.930671e-02 5.214765e-03 0.0
-2.060637e-02 5.194516e-03 0.0
-2.189536e-02 5.152479e-03 0.0
-2.316825e-02 5.089830e-03 0.0
-2.441988e-02 5.007557e-03 0.0
-2.564545e-02 4.906389e-03 0.0
-2.684045e-02 4.786821e-03 0.0
-2.800058e-02 4.649215e-03 0.0
-2.912164e-02 4.493923e-03 0.0
-3.019949e-02 4.321372e-03 0.0
-3.122999e-02 4.132083e-03 0.0
-3.220907e-02 3.926642e-03 0.0
-3.313276e-02 3.705637e-03 0.0
-3.399731e-02 3.469618e-03 0.0
-3.479913e-02 3.219088e-03 0.0
-3.553487e-02 2.954537e-03 0.0
-3.620134e-02 2.676500e-03 0.0
-3.679555e-02 2.385606e-03 0.0
-3.731465e-02 2.082616e-03 0.0
-3.775602e-02 1.768431e-03 0.0
-3.811724e-02 1.444086e-03 0.0
-3.839621e-02 1.110735e-03 0.0
-3.859113e-02 7.696512e-04 0.0
-3.870056e-02 4.222286e-04 0.0
-3.872343e-02 7.000822e-05 0.0
-3.865908e-02 -2.852987e-04 0.0
-3.850726e-02 -6.418192e-04 0.0
-3.826813e-02 -9.976853e-04 0.0
-3.794231e-02 -1.351030e-03 0.0
-3.753081e-02 -1.699991e-03 0.0
-3.703510e-02 -2.042722e-03 0.0
-3.645708e-02 -2.377401e-03 0.0
-3.579910e-02 -2.702238e-03 0.0
-3.506390e-02 -3.015484e-03 0.0
-3.425466e-02 -3.315435e-03 0.0
-3.337495e-02 -3.600435e-03 0.0
-3.242874e-02 -3.868889e-03 0.0
-3.142033e-02 -4.119266e-03 0.0
-3.035439e-02 -4.350114e-03 0.0
-2.923591e-02 -4.560072e-03 0.0
-2.807018e-02 -4.747882e-03 0.0
-2.686277e-02 -4.912403e-03 0.0
-2.561948e-02 -5.052618e-03 0.0
-2.434635e-02 -5.167648e-03 0.0
-2.304958e-02 -5.256755e-03 0.0
-2.173553e-02 -5.319358e-03 0.0
-2.041065e-02 -5.355033e-03 0.0
-1.908149e-02 -5.363522e-03 0.0
-1.775460e-02 -5.344741e-03 0.0
-1.643652e-02 -5.298777e-03 0.0
-1.513374e-02 -5.225880e-03 0.0
-1.385268e-02 -5.126467e-03 0.0
-1.259957e-02 -5.001123e-03 0.0
-1.138051e-02 -4.850608e-03 0.0
-1.020136e-02 -4.675859e-03 0.0
-9.067696e-03 -4.477994e-03 0.0
-7.984805e-03 -4.258315e-03 0.0
-6.957601e-03 -4.018319e-03 0.0
-5.990589e-03 -3.759700e-03 0.0
-5.087814e-03 -3.484366e-03 0.0
-4.252806e-03 -3.194446e-03 0.0
-3.488525e-03 -2.892312e-03 0.0
-2.797298e-03 -2.580597e-03 0.0
-2.180760e-03 -2.262223e-03 0.0
-1.639783e-03 -1.940437e-03 0.0
-1.174408e-03 -1.618848e-03 0.0
-7.837630e-04 -1.301479e-03 0.0
-4.659911e-04 -9.928228e-04 0.0
-2.181619e-04 -6.979115e-04 0.0
-3.619057e-05 -4.223897e-04 0.0
8.524728e-05 -1.725941e-04 0.0
1.528018e-04 4.436878e-05 0.0
1.745496e-04 2.205449e-04 0.0
1.601019e-04 3.470887e-04 0.0
1.207810e-04 4.142101e-04 0.0
6.990893e-05 4.111398e-04 0.0
2.329813e-05 3.260311e-04 0.0
0.000000e+00 1.456254e-04 0.0
0.000000e+00 -1.455468e-04 0.0
0.000000e+00 -5.352716e-05 0.0
-5.486852e-05 3.649171e-05 0.0
-1.868390e-04 2.899957e-04 0.0
-4.179517e-04 6.522151e-04 0.0
-7.541284e-04 1.086350e-03 0.0
-1.197738e-03 1.563026e-03 0.0
-1.747613e-03 2.060720e-03 0.0
-2.400127e-03 2.563692e-03 0.0
-3.150513e-03 3.060039e-03 0.0
-3.993816e-03 3.540233e-03 0.0
-4.925220e-03 3.996392e-03 0.0
-5.939817e-03 4.422147e-03 0.0
-7.032154e-03 4.812821e-03 0.0
-8.195873e-03 5.165568e-03 0.0
-9.423661e-03 5.479268e-03 0.0
-1.070752e-02 5.754133e-03 0.0
-1.203924e-02 5.991148e-03 0.0
-1.341084e-02 6.191545e-03 0.0
-1.481482e-02 6.356451e-03 0.0
-1.624425e-02 6.486785e-03 0.0
-1.769260e-02 6.583365e-03 0.0
-1.915350e-02 6.647092e-03 0.0
-2.062059e-02 6.679099e-03 0.0
-2.208750e-02 6.680768e-03 0.0
-2.354784e-02 6.653614e-03 0.0
-2.499544e-02 6.599115e-03 0.0
-2.642442e-02 6.518536e-03 0.0
-2.782927e-02 6.412854e-03 0.0
-2.920480e-02 6.282790e-03 0.0
-3.054607e-02 6.128924e-03 0.0
-3.184822e-02 5.951816e-03 0.0
-3.310647e-02 5.752100e-03 0.0
-3.431606e-02 5.530490e-03 0.0
-3.547233e-02 5.287744e-03 0.0
-3.657076e-02 5.024595e-03 0.0
-3.760704e-02 4.741718e-03 0.0
-3.857708e-02 4.439722e-03 0.0
-3.947698e-02 4.119205e-03 0.0
-4.030306e-02 3.780809e-03 0.0
-4.105177e-02 3.425287e-03 0.0
-4.171977e-02 3.053531e-03 0.0
-4.230390e-02 2.666584e-03 0.0
-4.280126e-02 2.265627e-03 0.0
-4.320922e-02 1.851969e-03 0.0
-4.352551e-02 1.427047e-03 0.0
-4.374819e-02 9.924337e-04 0.0
-4.387570e-02 5.498683e-04 0.0
-4.390688e-02 1.012802e-04 0.0
-4.384098e-02 -3.511849e-04 0.0
-4.367769e-02 -8.051700e-04 0.0
-4.341719e-02 -1.258317e-03 0.0
-4.306009e-02 -1.708271e-03 0.0
-4.260752e-02 -2.152693e-03 0.0
-4.206105e-02 -2.589267e-03 0.0
-4.142277e-02 -3.015708e-03 0.0
-4.069523e-02 -3.429771e-03 0.0
-3.988143e-02 -3.829251e-03 0.0
-3.898484e-02 -4.211993e-03 0.0
-3.800936e-02 -4.575903e-03 0.0
-3.695929e-02 -4.918954e-03 0.0
-3.583937e-02 -5.239206e-03 0.0
-3.465470e-02 -5.534819e-03 0.0
-3.341074e-02 -5.804070e-03 0.0
-3.211329e-02 -6.045369e-03 0.0
-3.076847e-02 -6.257267e-03 0.0
-2.938264e-02 -6.438477e-03 0.0
-2.796244e-02 -6.587879e-03 0.0
-2.651468e-02 -6.704535e-03 0.0
-2.504637e-02 -6.787694e-03 0.0
-2.356462e-02 -6.836809e-03 0.0
-2.207663e-02 -6.851539e-03 0.0
-2.058963e-02 -6.831761e-03 0.0
-1.911086e-02 -6.777573e-03 0.0
-1.764749e-02 -6.689278e-03 0.0
-1.620658e-02 -6.567392e-03 0.0
-1.479508e-02 -6.412646e-03 0.0
-1.341973e-02 -6.225993e-03 0.0
-1.208700e-02 -6.008610e-03 0.0
-1.080312e-02 -5.761904e-03 0.0