# vtk DataFile Version 3.0
Vector Field
ASCII
DATASET RECTILINEAR_GRID
DIMENSIONS 102 102 1
X_COORDINATES 102 double
0.000000 0.100000 0.200000 0.300000 0.400000 0.500000 0.600000 0.700000 0.800000 0.900000 1.000000 1.100000 1.200000 1.300000 1.400000 1.500000 1.600000 1.700000 1.800000 1.900000 2.000000 2.100000 2.200000 2.300000 2.400000 2.500000 2.600000 2.700000 2.800000 2.900000 3.000000 3.100000 3.200000 3.300000 3.400000 3.500000 3.600000 3.700000 3.800000 3.900000 4.000000 4.100000 4.200000 4.300000 4.400000 4.500000 4.600000 4.700000 4.800000 4.900000 5.000000 5.100000 5.200000 5.300000 5.400000 5.500000 5.600000 5.700000 5.800000 5.900000 6.000000 6.100000 6.200000 6.300000 6.400000 6.500000 6.600000 6.700000 6.800000 6.900000 7.000000 7.100000 7.200000 7.300000 7.400000 7.500000 7.600000 7.700000 7.800000 7.900000 8.000000 8.100000 8.200000 8.300000 8.400000 8.500000 8.600000 8.700000 8.800000 8.900000 9.000000 9.100000 9.200000 9.300000 9.400000 9.500000 9.600000 9.700000 9.800000 9.900000 10.000000 10.100000 
Y_COORDINATES 102 double
0.000000 0.100000 0.200000 0.300000 0.400000 0.500000 0.600000 0.700000 0.800000 0.900000 1.000000 1.100000 1.200000 1.300000 1.400000 1.500000 1.600000 1.700000 1.800000 1.900000 2.000000 2.100000 2.200000 2.300000 2.400000 2.500000 2.600000 2.700000 2.800000 2.900000 3.000000 3.100000 3.200000 3.300000 3.400000 3.500000 3.600000 3.700000 3.800000 3.900000 4.000000 4.100000 4.200000 4.300000 4.400000 4.500000 4.600000 4.700000 4.800000 4.900000 5.000000 5.100000 5.200000 5.300000 5.400000 5.500000 5.600000 5.700000 5.800000 5.900000 6.000000 6.100000 6.200000 6.300000 6.400000 6.500000 6.600000 6.700000 6.800000 6.900000 7.000000 7.100000 7.200000 7.300000 7.400000 7.500000 7.600000 7.700000 7.800000 7.900000 8.000000 8.100000 8.200000 8.300000 8.400000 8.500000 8.600000 8.700000 8.800000 8.900000 9.000000 9.100000 9.200000 9.300000 9.400000 9.500000 9.600000 9.700000 9.800000 9.900000 10.000000 10.100000 
Z_COORDINATES 1 double
0.0
POINT_DATA 10404
VECTORS Velocity double
0.000000e+00 0.000000e+00 0.0
1.371569e-05 0.000000e+00 0.0
-1.662353e-05 0.000000e+00 0.0
-4.707739e-05 0.000000e+00 0.0
-6.520046e-05 0.000000e+00 0.0
-6.474742e-05 0.000000e+00 0.0
-4.474311e-05 0.000000e+00 0.0
-7.605839e-06 0.000000e+00 0.0
4.295188e-05 0.000000e+00 0.0
1.035993e-04 0.000000e+00 0.0
1.722692e-04 0.000000e+00 0.0
2.482543e-04 0.000000e+00 0.0
3.317803e-04 0.000000e+00 0.0
4.233769e-04 0.000000e+00 0.0
5.233091e-04 0.000000e+00 0.0
6.312216e-04 0.000000e+00 0.0
7.460589e-04 0.000000e+00 0.0
8.662412e-04 0.000000e+00 0.0
9.900088e-04 0.000000e+00 0.0
1.115799e-03 0.000000e+00 0.0
1.242514e-03 0.000000e+00 0.0
1.369591e-03 0.000000e+00 0.0
1.496867e-03 0.000000e+00 0.0
1.624325e-03 0.000000e+00 0.0
1.751837e-03 0.000000e+00 0.0
1.879017e-03 0.000000e+00 0.0
2.005215e-03 0.000000e+00 0.0
2.129630e-03 0.000000e+00 0.0
2.251468e-03 0.000000e+00 0.0
2.370064e-03 0.000000e+00 0.0
2.484938e-03 0.000000e+00 0.0
2.595763e-03 0.000000e+00 0.0
2.702294e-03 0.000000e+00 0.0
2.804285e-03 0.000000e+00 0.0
2.901436e-03 0.000000e+00 0.0
2.993371e-03 0.000000e+00 0.0
3.079659e-03 0.000000e+00 0.0
3.159840e-03 0.000000e+00 0.0
3.233464e-03 0.000000e+00 0.0
3.300110e-03 0.000000e+00 0.0
3.359400e-03 0.000000e+00 0.0
3.410999e-03 0.000000e+00 0.0
3.454604e-03 0.000000e+00 0.0
3.489944e-03 0.000000e+00 0.0
3.516766e-03 0.000000e+00 0.0
3.534840e-03 0.000000e+00 0.0
3.543965e-03 0.000000e+00 0.0
3.543972e-03 0.000000e+00 0.0
3.534757e-03 0.000000e+00 0.0
3.516280e-03 0.000000e+00 0.0
3.488560e-03 0.000000e+00 0.0
3.451672e-03 0.000000e+00 0.0
3.405744e-03 0.000000e+00 0.0
3.350957e-03 0.000000e+00 0.0
3.287542e-03 0.000000e+00 0.0
3.215780e-03 0.000000e+00 0.0
3.135999e-03 0.000000e+00 0.0
3.048571e-03 0.000000e+00 0.0
2.953912e-03 0.000000e+00 0.0
2.852480e-03 0.000000e+00 0.0
2.744777e-03 0.000000e+00 0.0
2.631343e-03 0.000000e+00 0.0
2.512756e-03 0.000000e+00 0.0
2.389629e-03 0.000000e+00 0.0
2.262605e-03 0.000000e+00 0.0
2.132357e-03 0.000000e+00 0.0
1.999579e-03 0.000000e+00 0.0
1.864984e-03 0.000000e+00 0.0
1.729300e-03 0.000000e+00 0.0
1.593264e-03 0.000000e+00 0.0
1.457617e-03 0.000000e+00 0.0
1.323097e-03 0.000000e+00 0.0
1.190439e-03 0.000000e+00 0.0
1.060370e-03 0.000000e+00 0.0
9.336030e-04 0.000000e+00 0.0
8.108345e-04 0.000000e+00 0.0
6.927390e-04 0.000000e+00 0.0
5.799650e-04 0.000000e+00 0.0
4.731304e-04 0.000000e+00 0.0
3.728176e-04 0.000000e+00 0.0
2.795695e-04 0.000000e+00 0.0
1.938841e-04 0.000000e+00 0.0
1.162098e-04 0.000000e+00 0.0
4.694012e-05 0.000000e+00 0.0
-1.359240e-05 0.000000e+00 0.0
-6.512285e-05 0.000000e+00 0.0
-1.074626e-04 0.000000e+00 0.0
-1.405091e-04 0.000000e+00 0.0
-1.642582e-04 0.000000e+00 0.0
-1.788199e-04 0.000000e+00 0.0
-1.844389e-04 0.000000e+00 0.0
-1.815224e-04 0.000000e+00 0.0
-1.706773e-04 0.000000e+00 0.0
-1.527623e-04 0.000000e+00 0.0
-1.289624e-04 0.000000e+00 0.0
-1.008950e-04 0.000000e+00 0.0
-7.075994e-05 0.000000e+00 0.0
-4.153344e-05 0.000000e+00 0.0
-1.713852e-05 0.000000e+00 0.0
-2.221916e-06 0.000000e+00 0.0
-0.000000e+00 0.000000e+00 0.0
0.000000e+00 0.000000e+00 0.0
0.000000e+00 3.448432e-05 0.0
2.881140e-05 8.564469e-06 0.0
5.161614e-05 -1.001000e-06 0.0
6.221672e-05 -5.146466e-06 0.0
5.943545e-05 -7.625954e-06 0.0
4.535212e-05 -5.855851e-06 0.0
2.228580e-05 1.942075e-06 0.0
-8.854543e-06 1.568575e-05 0.0
-4.875483e-05 3.345176e-05 0.0
-9.900207e-05 5.232482e-05 0.0
-1.611360e-04 6.947136e-05 0.0
-2.358830e-04 8.298721e-05 0.0
-3.227827e-04 9.229988e-05 0.0
-4.202464e-04 9.809038e-05 0.0
-5.259658e-04 1.018312e-04 0.0
-6.375067e-04 1.051310e-04 0.0
-7.528758e-04 1.091252e-04 0.0
-8.708624e-04 1.141279e-04 0.0
-9.910495e-04 1.196523e-04 0.0
-1.113527e-03 1.247503e-04 0.0
-1.238464e-03 1.284920e-04 0.0
-1.365735e-03 1.303622e-04 0.0
-1.494752e-03 1.304175e-04 0.0
-1.624536e-03 1.291752e-04 0.0
-1.753953e-03 1.273312e-04 0.0
-1.881975e-03 1.254589e-04 0.0
-2.007852e-03 1.238207e-04 0.0
-2.131151e-03 1.223438e-04 0.0
-2.251659e-03 1.207335e-04 0.0
-2.369237e-03 1.186429e-04 0.0
-2.483691e-03 1.158181e-04 0.0
-2.594698e-03 1.121695e-04 0.0
-2.701812e-03 1.077623e-04 0.0
-2.804503e-03 1.027556e-04 0.0
-2.902226e-03 9.732663e-05 0.0
-2.994469e-03 9.161134e-05 0.0
-3.080784e-03 8.567723e-05 0.0
-3.160781e-03 7.952551e-05 0.0
-3.234121e-03 7.311291e-05 0.0
-3.300491e-03 6.637979e-05 0.0
-3.359584e-03 5.927476e-05 0.0
-3.411098e-03 5.177039e-05 0.0
-3.454722e-03 4.386889e-05 0.0
-3.490150e-03 3.559944e-05 0.0
-3.517090e-03 2.701051e-05 0.0
-3.535274e-03 1.816061e-05 0.0
-3.544470e-03 9.110966e-06 0.0
-3.544504e-03 -7.650996e-08 0.0
-3.535273e-03 -9.331708e-06 0.0
-3.516754e-03 -1.859038e-05 0.0
-3.488982e-03 -2.780668e-05 0.0
-3.452046e-03 -3.694027e-05 0.0
-3.406084e-03 -4.594981e-05 0.0
-3.351278e-03 -5.479024e-05 0.0
-3.287856e-03 -6.341253e-05 0.0
-3.216093e-03 -7.176517e-05 0.0
-3.136311e-03 -7.979615e-05 0.0
-3.048876e-03 -8.745490e-05 0.0
-2.954202e-03 -9.469361e-05 0.0
-2.852751e-03 -1.014678e-04 0.0
-2.745023e-03 -1.077364e-04 0.0
-2.631563e-03 -1.134612e-04 0.0
-2.512951e-03 -1.186071e-04 0.0
-2.389800e-03 -1.231410e-04 0.0
-2.262756e-03 -1.270327e-04 0.0
-2.132489e-03 -1.302551e-04 0.0
-1.999693e-03 -1.327842e-04 0.0
-1.865081e-03 -1.346004e-04 0.0
-1.729379e-03 -1.356887e-04 0.0
-1.593324e-03 -1.360394e-04 0.0
-1.457656e-03 -1.356487e-04 0.0
-1.323117e-03 -1.345180e-04 0.0
-1.190442e-03 -1.326527e-04 0.0
-1.060358e-03 -1.300618e-04 0.0
-9.335774e-04 -1.267586e-04 0.0
-8.107978e-04 -1.227602e-04 0.0
-6.926931e-04 -1.180878e-04 0.0
-5.799110e-04 -1.127670e-04 0.0
-4.730689e-04 -1.068276e-04 0.0
-3.727489e-04 -1.003043e-04 0.0
-2.794937e-04 -9.323666e-05 0.0
-1.938015e-04 -8.566927e-05 0.0
-1.161213e-04 -7.765206e-05 0.0
-4.684705e-05 -6.924054e-05 0.0
1.368816e-05 -6.049629e-05 0.0
6.521910e-05 -5.148749e-05 0.0
1.075570e-04 -4.229082e-05 0.0
1.405995e-04 -3.299259e-05 0.0
1.643428e-04 -2.369128e-05 0.0
1.788970e-04 -1.450078e-05 0.0
1.845073e-04 -5.555781e-06 0.0
1.815812e-04 2.981435e-06 0.0
1.707259e-04 1.091123e-05 0.0
1.528005e-04 1.798166e-05 0.0
1.289904e-04 2.386663e-05 0.0
1.009131e-04 2.813366e-05 0.0
7.076910e-05 3.020023e-05 0.0
4.153510e-05 2.928963e-05 0.0
1.713500e-05 2.445522e-05 0.0
2.216953e-06 1.497302e-05 0.0
0.000000e+00 2.271907e-06 0.0
0.000000e+00 -2.266929e-06 0.0
0.000000e+00 4.251559e-05 0.0
3.700450e-05 -5.914896e-06 0.0
5.870380e-05 -3.334600e-05 0.0
6.759334e-05 -3.180997e-05 0.0
5.508358e-05 -1.098290e-05 0.0
1.661813e-05 2.465031e-05 0.0
-5.067211e-05 7.072079e-05 0.0
-1.488600e-04 1.225247e-04 0.0
-2.793291e-04 1.754015e-04 0.0
-4.425318e-04 2.254240e-04 0.0
-6.377400e-04 2.699965e-04 0.0
-8.629770e-04 3.081122e-04 0.0
-1.115204e-03 3.401955e-04 0.0
-1.390741e-03 3.675918e-04 0.0
-1.685802e-03 3.918729e-04 0.0
-1.996996e-03 4.141944e-04 0.0
-2.321614e-03 4.349239e-04 0.0
-2.657631e-03 4.536524e-04 0.0
-3.003462e-03 4.695365e-04 0.0
-3.357615e-03 4.817807e-04 0.0
-3.718411e-03 4.900293e-04 0.0
-4.083881e-03 4.945056e-04 0.0
-4.451854e-03 4.958794e-04 0.0
-4.820156e-03 4.949650e-04 0.0
-5.186802e-03 4.924148e-04 0.0
-5.550111e-03 4.885420e-04 0.0
-5.908694e-03 4.833138e-04 0.0
-6.261359e-03 4.764796e-04 0.0
-6.606986e-03 4.677479e-04 0.0
-6.944428e-03 4.569291e-04 0.0
-7.272465e-03 4.439985e-04 0.0
-7.589817e-03 4.290774e-04 0.0
-7.895177e-03 4.123665e-04 0.0
-8.187260e-03 3.940701e-04 0.0
-8.464832e-03 3.743408e-04 0.0
-8.726727e-03 3.532582e-04 0.0
-8.971840e-03 3.308367e-04 0.0
-9.199118e-03 3.070511e-04 0.0
-9.407547e-03 2.818673e-04 0.0
-9.596140e-03 2.552671e-04 0.0
-9.763939e-03 2.272645e-04 0.0
-9.910018e-03 1.979109e-04 0.0
-1.003349e-02 1.672927e-04 0.0
-1.013354e-02 1.355237e-04 0.0
-1.020942e-02 1.027364e-04 0.0
-1.026046e-02 6.907673e-05 0.0
-1.028612e-02 3.470307e-05 0.0
-1.028602e-02 -2.063179e-07 0.0
-1.025989e-02 -3.543593e-05 0.0
-1.020768e-02 -7.076246e-05 0.0
-1.012945e-02 -1.059873e-04 0.0
-1.002544e-02 -1.409205e-04 0.0
-9.896003e-03 -1.753732e-04 0.0
-9.741643e-03 -2.091558e-04 0.0
-9.562994e-03 -2.420782e-04 0.0
-9.360827e-03 -2.739523e-04 0.0
-9.136045e-03 -3.045942e-04 0.0
-8.889684e-03 -3.338253e-04 0.0
-8.622904e-03 -3.614742e-04 0.0
-8.336989e-03 -3.873767e-04 0.0
-8.033340e-03 -4.113767e-04 0.0
-7.713466e-03 -4.333265e-04 0.0
-7.378979e-03 -4.530880e-04 0.0
-7.031583e-03 -4.705336e-04 0.0
-6.673068e-03 -4.855473e-04 0.0
-6.305298e-03 -4.980268e-04 0.0
-5.930199e-03 -5.078841e-04 0.0
-5.549752e-03 -5.150479e-04 0.0
-5.165975e-03 -5.194636e-04 0.0
-4.780917e-03 -5.210956e-04 0.0
-4.396636e-03 -5.199274e-04 0.0
-4.015192e-03 -5.159616e-04 0.0
-3.638630e-03 -5.092154e-04 0.0
-3.268973e-03 -4.997216e-04 0.0
-2.908206e-03 -4.875293e-04 0.0
-2.558267e-03 -4.727039e-04 0.0
-2.221030e-03 -4.553277e-04 0.0
-1.898297e-03 -4.355004e-04 0.0
-1.591782e-03 -4.133393e-04 0.0
-1.303099e-03 -3.889797e-04 0.0
-1.033750e-03 -3.625756e-04 0.0
-7.851048e-04 -3.343002e-04 0.0
-5.583944e-04 -3.043467e-04 0.0
-3.546878e-04 -2.729306e-04 0.0
-1.748766e-04 -2.402910e-04 0.0
-1.965396e-05 -2.066942e-04 0.0
1.105087e-04 -1.724383e-04 0.0
2.153904e-04 -1.378598e-04 0.0
2.950565e-04 -1.033435e-04 0.0
3.499003e-04 -6.933098e-05 0.0
3.806960e-04 -3.633800e-05 0.0
3.886671e-04 -4.976177e-06 0.0
3.755732e-04 2.401865e-05 0.0
3.438211e-04 4.974740e-05 0.0
2.966050e-04 7.109641e-05 0.0
2.380765e-04 8.667560e-05 0.0
1.735287e-04 9.476139e-05 0.0
1.095318e-04 9.329968e-05 0.0
5.386007e-05 8.014010e-05 0.0
1.487217e-05 5.397413e-05 0.0
0.000000e+00 1.715739e-05 0.0
0.000000e+00 -1.715313e-05 0.0
0.000000e+00 4.565969e-05 0.0
2.883235e-05 -2.847565e-05 0.0
3.604650e-05 -5.872649e-05 0.0
2.492594e-05 -3.588009e-05 0.0
-1.665011e-05 2.406362e-05 0.0
-9.745570e-05 1.086046e-04 0.0
-2.238416e-04 2.071448e-04 0.0
-3.998432e-04 3.108079e-04 0.0
-6.271415e-04 4.127539e-04 0.0
-9.051383e-04 5.084178e-04 0.0
-1.231243e-03 5.954878e-04 0.0
-1.601379e-03 6.735455e-04 0.0
-2.010645e-03 7.434103e-04 0.0
-2.454009e-03 8.063421e-04 0.0
-2.926878e-03 8.633253e-04 0.0
-3.425368e-03 9.146541e-04 0.0
-3.946259e-03 9.599253e-04 0.0
-4.486683e-03 9.983765e-04 0.0
-5.043757e-03 1.029365e-03 0.0
-5.614332e-03 1.052742e-03 0.0
-6.194970e-03 1.068969e-03 0.0
-6.782111e-03 1.078941e-03 0.0
-7.372336e-03 1.083664e-03 0.0
-7.962572e-03 1.083937e-03 0.0
-8.550163e-03 1.080177e-03 0.0
-9.132811e-03 1.072443e-03 0.0
-9.708421e-03 1.060579e-03 0.0
-1.027496e-02 1.044400e-03 0.0
-1.083034e-02 1.023835e-03 0.0
-1.137245e-02 9.989733e-04 0.0
-1.189911e-02 9.700377e-04 0.0
-1.240819e-02 9.373073e-04 0.0
-1.289763e-02 9.010426e-04 0.0
-1.336548e-02 8.614352e-04 0.0
-1.380987e-02 8.185947e-04 0.0
-1.422902e-02 7.725647e-04 0.0
-1.462121e-02 7.233538e-04 0.0
-1.498477e-02 6.709696e-04 0.0
-1.531807e-02 6.154448e-04 0.0
-1.561951e-02 5.568536e-04 0.0
-1.588755e-02 4.953162e-04 0.0
-1.612074e-02 4.309962e-04 0.0
-1.631770e-02 3.640940e-04 0.0
-1.647717e-02 2.948388e-04 0.0
-1.659804e-02 2.234855e-04 0.0
-1.667933e-02 1.503156e-04 0.0
-1.672028e-02 7.564555e-05 0.0
-1.672029e-02 -1.584987e-07 0.0
-1.667901e-02 -7.665862e-05 0.0
-1.659634e-02 -1.533893e-04 0.0
-1.647239e-02 -2.299122e-04 0.0
-1.630750e-02 -3.058024e-04 0.0
-1.610225e-02 -3.806418e-04 0.0
-1.585741e-02 -4.540173e-04 0.0
-1.557399e-02 -5.255220e-04 0.0
-1.525320e-02 -5.947564e-04 0.0
-1.489647e-02 -6.613304e-04 0.0
-1.450543e-02 -7.248644e-04 0.0
-1.408191e-02 -7.849912e-04 0.0
-1.362792e-02 -8.413571e-04 0.0
-1.314566e-02 -8.936245e-04 0.0
-1.263751e-02 -9.414737e-04 0.0
-1.210600e-02 -9.846057e-04 0.0
-1.155379e-02 -1.022745e-03 0.0
-1.098370e-02 -1.055644e-03 0.0
-1.039864e-02 -1.083083e-03 0.0
-9.801654e-03 -1.104875e-03 0.0
-9.195835e-03 -1.120867e-03 0.0
-8.584357e-03 -1.130943e-03 0.0
-7.970430e-03 -1.135023e-03 0.0
-7.357290e-03 -1.133070e-03 0.0
-6.748170e-03 -1.125085e-03 0.0
-6.146287e-03 -1.111104e-03 0.0
-5.554819e-03 -1.091196e-03 0.0
-4.976886e-03 -1.065466e-03 0.0
-4.415535e-03 -1.034058e-03 0.0
-3.873711e-03 -9.971497e-04 0.0
-3.354246e-03 -9.549597e-04 0.0
-2.859832e-03 -9.077442e-04 0.0
-2.392999e-03 -8.557990e-04 0.0
-1.956099e-03 -7.994606e-04 0.0
-1.551275e-03 -7.391077e-04 0.0
-1.180442e-03 -6.751639e-04 0.0
-8.452555e-04 -6.081011e-04 0.0
-5.470874e-04 -5.384445e-04 0.0
-2.869886e-04 -4.667795e-04 0.0
-6.565342e-05 -3.937606e-04 0.0
1.166238e-04 -3.201244e-04 0.0
2.599981e-04 -2.467054e-04 0.0
3.651431e-04 -1.744635e-04 0.0
4.333204e-04 -1.045026e-04 0.0
4.664706e-04 -3.811341e-05 0.0
4.673224e-04 2.317986e-05 0.0
4.395216e-04 7.756129e-05 0.0
3.877759e-04 1.228552e-04 0.0
3.180080e-04 1.564565e-04 0.0
2.374856e-04 1.752966e-04 0.0
1.548740e-04 1.759238e-04 0.0
8.014215e-05 1.548845e-04 0.0
2.435767e-05 1.097712e-04 0.0
0.000000e+00 4.152779e-05 0.0
0.000000e+00 -4.152069e-05 0.0
0.000000e+00 4.323135e-05 0.0
8.976749e-06 -4.793451e-05 0.0
-4.637885e-06 -6.194057e-05 0.0
-4.623469e-05 -1.157814e-06 0.0
-1.302130e-04 1.118425e-04 0.0
-2.677406e-04 2.572131e-04 0.0
-4.666461e-04 4.191782e-04 0.0
-7.312261e-04 5.857369e-04 0.0
-1.062359e-03 7.485759e-04 0.0
-1.457985e-03 9.027220e-04 0.0
-1.913878e-03 1.045903e-03 0.0
-2.424566e-03 1.177666e-03 0.0
-2.984243e-03 1.298407e-03 0.0
-3.587465e-03 1.408528e-03 0.0
-4.229477e-03 1.507948e-03 0.0
-4.906138e-03 1.596053e-03 0.0
-5.613564e-03 1.672020e-03 0.0
-6.347711e-03 1.735283e-03 0.0
-7.104136e-03 1.785882e-03 0.0
-7.878020e-03 1.824527e-03 0.0
-8.664436e-03 1.852383e-03 0.0
-9.458688e-03 1.870699e-03 0.0
-1.025656e-02 1.880471e-03 0.0
-1.105437e-02 1.882279e-03 0.0
-1.184890e-02 1.876319e-03 0.0
-1.263714e-02 1.862580e-03 0.0
-1.341616e-02 1.841040e-03 0.0
-1.418297e-02 1.811804e-03 0.0
-1.493451e-02 1.775133e-03 0.0
-1.566775e-02 1.731404e-03 0.0
-1.637969e-02 1.681021e-03 0.0
-1.706751e-02 1.624340e-03 0.0
-1.772850e-02 1.561623e-03 0.0
-1.836013e-02 1.493036e-03 0.0
-1.895993e-02 1.418672e-03 0.0
-1.952555e-02 1.338594e-03 0.0
-2.005467e-02 1.252870e-03 0.0
-2.054503e-02 1.161600e-03 0.0
-2.099441e-02 1.064934e-03 0.0
-2.140068e-02 9.630754e-04 0.0
-2.176179e-02 8.562778e-04 0.0
-2.207583e-02 7.448400e-04 0.0
-2.234100e-02 6.290990e-04 0.0
-2.255570e-02 5.094294e-04 0.0
-2.271850e-02 3.862475e-04 0.0
-2.282818e-02 2.600216e-04 0.0
-2.288376e-02 1.312868e-04 0.0
-2.288452e-02 6.637131e-07 0.0
-2.283002e-02 -1.311202e-04 0.0
-2.272010e-02 -2.632874e-04 0.0
-2.255493e-02 -3.950893e-04 0.0
-2.233497e-02 -5.257962e-04 0.0
-2.206095e-02 -6.546922e-04 0.0
-2.173392e-02 -7.810737e-04 0.0
-2.135520e-02 -9.042494e-04 0.0
-2.092642e-02 -1.023541e-03 0.0
-2.044947e-02 -1.138284e-03 0.0
-1.992649e-02 -1.247833e-03 0.0
-1.935991e-02 -1.351557e-03 0.0
-1.875241e-02 -1.448854e-03 0.0
-1.810690e-02 -1.539144e-03 0.0
-1.742649e-02 -1.621880e-03 0.0
-1.671455e-02 -1.696553e-03 0.0
-1.597461e-02 -1.762693e-03 0.0
-1.521038e-02 -1.819879e-03 0.0
-1.442574e-02 -1.867736e-03 0.0
-1.362467e-02 -1.905946e-03 0.0
-1.281129e-02 -1.934247e-03 0.0
-1.198980e-02 -1.952441e-03 0.0
-1.116444e-02 -1.960388e-03 0.0
-1.033949e-02 -1.958021e-03 0.0
-9.519250e-03 -1.945336e-03 0.0
-8.707969e-03 -1.922391e-03 0.0
-7.909865e-03 -1.889304e-03 0.0
-7.129077e-03 -1.846256e-03 0.0
-6.369641e-03 -1.793490e-03 0.0
-5.635467e-03 -1.731315e-03 0.0
-4.930308e-03 -1.660106e-03 0.0
-4.257733e-03 -1.580305e-03 0.0
-3.621094e-03 -1.492421e-03 0.0
-3.023503e-03 -1.397036e-03 0.0
-2.467793e-03 -1.294802e-03 0.0
-1.956489e-03 -1.186454e-03 0.0
-1.491769e-03 -1.072808e-03 0.0
-1.075430e-03 -9.547723e-04 0.0
-7.088377e-04 -8.333608e-04 0.0
-3.928831e-04 -7.097043e-04 0.0
-1.279257e-04 -5.850707e-04 0.0
8.627044e-05 -4.608902e-04 0.0
2.506044e-04 -3.387857e-04 0.0
3.667341e-04 -2.206202e-04 0.0
4.371685e-04 -1.085356e-04 0.0
4.653795e-04 -5.018729e-06 0.0
4.559244e-04 8.702884e-05 0.0
4.145723e-04 1.642196e-04 0.0
3.484241e-04 2.226170e-04 0.0
2.660075e-04 2.577254e-04 0.0
1.773356e-04 2.646076e-04 0.0
9.397321e-05 2.382588e-04 0.0
2.934445e-05 1.744120e-04 0.0
0.000000e+00 7.088434e-05 0.0
0.000000e+00 -7.087157e-05 0.0
0.000000e+00 3.528146e-05 0.0
-1.374782e-05 -5.569838e-05 0.0
-5.206777e-05 -3.269259e-05 0.0
-1.326202e-04 8.233009e-05 0.0
-2.703552e-04 2.608070e-04 0.0
-4.767624e-04 4.772900e-04 0.0
-7.592167e-04 7.123402e-04 0.0
-1.120858e-03 9.519221e-04 0.0
-1.561023e-03 1.186760e-03 0.0
-2.076127e-03 1.411404e-03 0.0
-2.660777e-03 1.623092e-03 0.0
-3.308894e-03 1.820543e-03 0.0
-4.014576e-03 2.002951e-03 0.0
-4.772522e-03 2.169367e-03 0.0
-5.577977e-03 2.318586e-03 0.0
-6.426334e-03 2.449435e-03 0.0
-7.312678e-03 2.561217e-03 0.0
-8.231517e-03 2.654026e-03 0.0
-9.176844e-03 2.728758e-03 0.0
-1.014248e-02 2.786825e-03 0.0
-1.112248e-02 2.829734e-03 0.0
-1.211148e-02 2.858708e-03 0.0
-1.310478e-02 2.874527e-03 0.0
-1.409816e-02 2.877573e-03 0.0
-1.508775e-02 2.868021e-03 0.0
-1.606971e-02 2.846059e-03 0.0
-1.704015e-02 2.812016e-03 0.0
-1.799512e-02 2.766383e-03 0.0
-1.893069e-02 2.709747e-03 0.0
-1.984306e-02 2.642692e-03 0.0
-2.072857e-02 2.565716e-03 0.0
-2.158379e-02 2.479194e-03 0.0
-2.240548e-02 2.383382e-03 0.0
-2.319052e-02 2.278455e-03 0.0
-2.393591e-02 2.164552e-03 0.0
-2.463870e-02 2.041823e-03 0.0
-2.529601e-02 1.910455e-03 0.0
-2.590502e-02 1.770688e-03 0.0
-2.646301e-02 1.622822e-03 0.0
-2.696734e-02 1.467212e-03 0.0
-2.741555e-02 1.304260e-03 0.0
-2.780530e-02 1.134418e-03 0.0
-2.813448e-02 9.581812e-04 0.0
-2.840117e-02 7.761041e-04 0.0
-2.860368e-02 5.888091e-04 0.0
-2.874059e-02 3.970047e-04 0.0
-2.881074e-02 2.015034e-04 0.0
-2.881327e-02 3.239488e-06 0.0
-2.874767e-02 -1.967143e-04 0.0
-2.861376e-02 -3.972120e-04 0.0
-2.841175e-02 -5.971383e-04 0.0
-2.814218e-02 -7.954019e-04 0.0
-2.780597e-02 -9.909313e-04 0.0
-2.740439e-02 -1.182673e-03 0.0
-2.693905e-02 -1.369589e-03 0.0
-2.641192e-02 -1.550662e-03 0.0
-2.582530e-02 -1.724891e-03 0.0
-2.518183e-02 -1.891303e-03 0.0
-2.448443e-02 -2.048950e-03 0.0
-2.373637e-02 -2.196920e-03 0.0
-2.294118e-02 -2.334343e-03 0.0
-2.210268e-02 -2.460397e-03 0.0
-2.122492e-02 -2.574316e-03 0.0
-2.031223e-02 -2.675396e-03 0.0
-1.936911e-02 -2.763001e-03 0.0
-1.840028e-02 -2.836572e-03 0.0
-1.741060e-02 -2.895627e-03 0.0
-1.640509e-02 -2.939772e-03 0.0
-1.538883e-02 -2.968702e-03 0.0
-1.436702e-02 -2.982206e-03 0.0
-1.334488e-02 -2.980172e-03 0.0
-1.232763e-02 -2.962593e-03 0.0
-1.132047e-02 -2.929551e-03 0.0
-1.032855e-02 -2.881220e-03 0.0
-9.356929e-03 -2.817872e-03 0.0
-8.410534e-03 -2.739874e-03 0.0
-7.494144e-03 -2.647691e-03 0.0
-6.612346e-03 -2.541889e-03 0.0
-5.769500e-03 -2.423135e-03 0.0
-4.969705e-03 -2.292201e-03 0.0
-4.216760e-03 -2.149967e-03 0.0
-3.514127e-03 -1.997424e-03 0.0
-2.864884e-03 -1.835686e-03 0.0
-2.271690e-03 -1.665992e-03 0.0
-1.736731e-03 -1.489723e-03 0.0
-1.261669e-03 -1.308413e-03 0.0
-8.475905e-04 -1.123774e-03 0.0
-4.949364e-04 -9.377146e-04 0.0
-2.034371e-04 -7.523789e-04 0.0
2.796927e-05 -5.701810e-04 0.0
2.012185e-04 -3.938581e-04 0.0
3.192245e-04 -2.265302e-04 0.0
3.859825e-04 -7.176517e-05 0.0
4.066754e-04 6.634763e-05 0.0
3.877827e-04 1.831239e-04 0.0
3.371778e-04 2.732335e-04 0.0
2.642233e-04 3.306916e-04 0.0
1.798840e-04 3.489581e-04 0.0
9.695664e-05 3.211975e-04 0.0
3.065142e-05 2.407287e-04 0.0
0.000000e+00 1.015473e-04 0.0
0.000000e+00 -1.015269e-04 0.0
0.000000e+00 2.053600e-05 0.0
-3.355454e-05 -4.612402e-05 0.0
-9.992367e-05 3.460064e-05 0.0
-2.267873e-04 2.196274e-04 0.0
-4.277219e-04 4.754600e-04 0.0
-7.125738e-04 7.731575e-04 0.0
-1.086719e-03 1.091101e-03 0.0
-1.551215e-03 1.414041e-03 0.0
-2.103594e-03 1.731908e-03 0.0
-2.739034e-03 2.038408e-03 0.0
-3.451616e-03 2.329592e-03 0.0
-4.235338e-03 2.602630e-03 0.0
-5.084657e-03 2.855052e-03 0.0
-5.994475e-03 3.084523e-03 0.0
-6.959737e-03 3.289087e-03 0.0
-7.974930e-03 3.467573e-03 0.0
-9.033786e-03 3.619869e-03 0.0
-1.012935e-02 3.746878e-03 0.0
-1.125438e-02 3.850158e-03 0.0
-1.240183e-02 3.931418e-03 0.0
-1.356522e-02 3.992099e-03 0.0
-1.473883e-02 4.033191e-03 0.0
-1.591751e-02 4.055282e-03 0.0
-1.709645e-02 4.058773e-03 0.0
-1.827094e-02 4.044091e-03 0.0
-1.943621e-02 4.011829e-03 0.0
-2.058745e-02 3.962752e-03 0.0
-2.171986e-02 3.897711e-03 0.0
-2.282880e-02 3.817522e-03 0.0
-2.390983e-02 3.722881e-03 0.0
-2.495878e-02 3.614323e-03 0.0
-2.597168e-02 3.492239e-03 0.0
-2.694476e-02 3.356920e-03 0.0
-2.787437e-02 3.208617e-03 0.0
-2.875693e-02 3.047585e-03 0.0
-2.958896e-02 2.874120e-03 0.0
-3.036703e-02 2.688571e-03 0.0
-3.108783e-02 2.491349e-03 0.0
-3.174816e-02 2.282917e-03 0.0
-3.234498e-02 2.063790e-03 0.0
-3.287543e-02 1.834533e-03 0.0
-3.333686e-02 1.595765e-03 0.0
-3.372685e-02 1.348174e-03 0.0
-3.404321e-02 1.092532e-03 0.0
-3.428403e-02 8.297175e-04 0.0
-3.444768e-02 5.607312e-04 0.0
-3.453285e-02 2.867152e-04 0.0
-3.453858e-02 8.965029e-06 0.0
-3.446427e-02 -2.710578e-04 0.0
-3.430973e-02 -5.517937e-04 0.0
-3.407519e-02 -8.317150e-04 0.0
-3.376130e-02 -1.109320e-03 0.0
-3.336912e-02 -1.383130e-03 0.0
-3.290010e-02 -1.651687e-03 0.0
-3.235613e-02 -1.913552e-03 0.0
-3.173947e-02 -2.167310e-03 0.0
-3.105279e-02 -2.411570e-03 0.0
-3.029912e-02 -2.644976e-03 0.0
-2.948186e-02 -2.866213e-03 0.0
-2.860478e-02 -3.074012e-03 0.0
-2.767198e-02 -3.267165e-03 0.0
-2.668785e-02 -3.444533e-03 0.0
-2.565713e-02 -3.605051e-03 0.0
-2.458479e-02 -3.747744e-03 0.0
-2.347607e-02 -3.871727e-03 0.0
-2.233642e-02 -3.976222e-03 0.0
-2.117150e-02 -4.060557e-03 0.0
-1.998710e-02 -4.124179e-03 0.0
-1.878915e-02 -4.166660e-03 0.0
-1.758366e-02 -4.187701e-03 0.0
-1.637670e-02 -4.187136e-03 0.0
-1.517435e-02 -4.164947e-03 0.0
-1.398266e-02 -4.121242e-03 0.0
-1.280761e-02 -4.056261e-03 0.0
-1.165509e-02 -3.970377e-03 0.0
-1.053086e-02 -3.864096e-03 0.0
-9.440468e-03 -3.738064e-03 0.0
-8.389277e-03 -3.593066e-03 0.0
-7.382369e-03 -3.430031e-03 0.0
-6.424527e-03 -3.250033e-03 0.0
-5.520184e-03 -3.054300e-03 0.0
-4.673384e-03 -2.844217e-03 0.0
-3.887725e-03 -2.621338e-03 0.0
-3.166316e-03 -2.387394e-03 0.0
-2.511719e-03 -2.144312e-03 0.0
-1.925895e-03 -1.894230e-03 0.0
-1.410135e-03 -1.639524e-03 0.0
-9.650009e-04 -1.382839e-03 0.0
-5.902456e-04 -1.127124e-03 0.0
-2.847357e-04 -8.756808e-04 0.0
-4.636589e-05 -6.322176e-04 0.0
1.280305e-04 -4.009160e-04 0.0
2.427754e-04 -1.864994e-04 0.0
3.034490e-04 5.685086e-06 0.0
3.169793e-04 1.696047e-04 0.0
2.917362e-04 2.984876e-04 0.0
2.376389e-04 3.848001e-04 0.0
1.663187e-04 4.202890e-04 0.0
9.143265e-05 3.960944e-04 0.0
2.928684e-05 3.028855e-04 0.0
0.000000e+00 1.308451e-04 0.0
0.000000e+00 -1.308158e-04 0.0
0.000000e+00 -3.818980e-06 0.0
-4.797988e-05 -1.678192e-05 0.0
-1.460492e-04 1.418319e-04 0.0
-3.254790e-04 4.124811e-04 0.0
-5.967805e-04 7.580458e-04 0.0
-9.666636e-04 1.147979e-03 0.0
-1.437551e-03 1.559615e-03 0.0
-2.008075e-03 1.976902e-03 0.0
-2.674150e-03 2.388796e-03 0.0
-3.430248e-03 2.787603e-03 0.0
-4.270508e-03 3.167563e-03 0.0
-5.189363e-03 3.523905e-03 0.0
-6.181583e-03 3.852515e-03 0.0
-7.241878e-03 4.150098e-03 0.0
-8.364362e-03 4.414544e-03 0.0
-9.542230e-03 4.645160e-03 0.0
-1.076782e-02 4.842566e-03 0.0
-1.203305e-02 5.008255e-03 0.0
-1.332992e-02 5.144006e-03 0.0
-1.465101e-02 5.251403e-03 0.0
-1.598962e-02 5.331605e-03 0.0
-1.733968e-02 5.385401e-03 0.0
-1.869550e-02 5.413418e-03 0.0
-2.005149e-02 5.416348e-03 0.0
-2.140203e-02 5.395072e-03 0.0
-2.274145e-02 5.350660e-03 0.0
-2.406414e-02 5.284264e-03 0.0
-2.536464e-02 5.196982e-03 0.0
-2.663773e-02 5.089757e-03 0.0
-2.787850e-02 4.963338e-03 0.0
-2.908229e-02 4.818298e-03 0.0
-3.024463e-02 4.655091e-03 0.0
-3.136122e-02 4.474114e-03 0.0
-3.242789e-02 4.275762e-03 0.0
-3.344052e-02 4.060466e-03 0.0
-3.439509e-02 3.828706e-03 0.0
-3.528771e-02 3.581018e-03 0.0
-3.611461e-02 3.317987e-03 0.0
-3.687219e-02 3.040246e-03 0.0
-3.755705e-02 2.748477e-03 0.0
-3.816601e-02 2.443420e-03 0.0
-3.869611e-02 2.125892e-03 0.0
-3.914466e-02 1.796808e-03 0.0
-3.950924e-02 1.457206e-03 0.0
-3.978771e-02 1.108266e-03 0.0
-3.997828e-02 7.513261e-04 0.0
-4.007947e-02 3.878988e-04 0.0
-4.009023e-02 1.967646e-05 0.0
-4.000987e-02 -3.514582e-04 0.0
-3.983821e-02 -7.234946e-04 0.0
-3.957550e-02 -1.094452e-03 0.0
-3.922246e-02 -1.462375e-03 0.0
-3.878026e-02 -1.825329e-03 0.0
-3.825053e-02 -2.181401e-03 0.0
-3.763538e-02 -2.528700e-03 0.0
-3.693732e-02 -2.865364e-03 0.0
-3.615933e-02 -3.189564e-03 0.0
-3.530481e-02 -3.499513e-03 0.0
-3.437756e-02 -3.793482e-03 0.0
-3.338178e-02 -4.069805e-03 0.0
-3.232207e-02 -4.326894e-03 0.0
-3.120336e-02 -4.563251e-03 0.0
-3.003094e-02 -4.777478e-03 0.0
-2.881040e-02 -4.968287e-03 0.0
-2.754762e-02 -5.134517e-03 0.0
-2.624871e-02 -5.275135e-03 0.0
-2.492002e-02 -5.389255e-03 0.0
-2.356807e-02 -5.476142e-03 0.0
-2.219951e-02 -5.535223e-03 0.0
-2.082112e-02 -5.566094e-03 0.0
-1.943973e-02 -5.568529e-03 0.0
-1.806219e-02 -5.542488e-03 0.0
-1.669531e-02 -5.488107e-03 0.0
-1.534587e-02 -5.405691e-03 0.0
-1.402051e-02 -5.295724e-03 0.0
-1.272572e-02 -5.158867e-03 0.0
-1.146781e-02 -4.995964e-03 0.0
-1.025283e-02 -4.808042e-03 0.0
-9.086527e-03 -4.596321e-03 0.0
-7.974338e-03 -4.362216e-03 0.0
-6.921291e-03 -4.107342e-03 0.0
-5.931979e-03 -3.833525e-03 0.0
-5.010499e-03 -3.542812e-03 0.0
-4.160400e-03 -3.237487e-03 0.0
-3.384622e-03 -2.920083e-03 0.0
-2.685433e-03 -2.593411e-03 0.0
-2.064364e-03 -2.260585e-03 0.0
-1.522139e-03 -1.925056e-03 0.0
-1.058601e-03 -1.590654e-03 0.0
-6.726309e-04 -1.261641e-03 0.0
-3.620706e-04 -9.427683e-04 0.0
-1.236349e-04 -6.393418e-04 0.0
4.717298e-05 -3.572970e-04 0.0
1.561437e-04 -1.032749e-04 0.0
2.104549e-04 1.153041e-04 0.0
2.187692e-04 2.901840e-04 0.0
1.913448e-04 4.122353e-04 0.0
1.402209e-04 4.714230e-04 0.0
7.953497e-05 4.567908e-04 0.0
2.605448e-05 3.563765e-04 0.0
0.000000e+00 1.569101e-04 0.0
0.000000e+00 -1.568712e-04 0.0
0.000000e+00 -4.122385e-05 0.0
-5.743553e-05 3.192737e-05 0.0
-1.909545e-04 2.884659e-04 0.0
-4.276983e-04 6.608710e-04 0.0
-7.739366e-04 1.109834e-03 0.0
-1.232409e-03 1.604537e-03 0.0
-1.802279e-03 2.121896e-03 0.0
-2.479939e-03 2.645059e-03 0.0
-3.260180e-03 3.161594e-03 0.0
-4.137305e-03 3.661896e-03 0.0
-5.105797e-03 4.138087e-03 0.0
-6.160398e-03 4.583557e-03 0.0
-7.295702e-03 4.993042e-03 0.0
-8.505600e-03 5.362943e-03 0.0
-9.782924e-03 5.691517e-03 0.0
-1.111950e-02 5.978712e-03 0.0
-1.250657e-02 6.225652e-03 0.0
-1.393540e-02 6.433964e-03 0.0
-1.539775e-02 6.605217e-03 0.0
-1.688609e-02 6.740646e-03 0.0
-1.839351e-02 6.841178e-03 0.0
-1.991344e-02 6.907639e-03 0.0
-2.143948e-02 6.940975e-03 0.0
-2.296515e-02 6.942367e-03 0.0
-2.448397e-02 6.913202e-03 0.0
-2.598953e-02 6.854960e-03 0.0
-2.747557e-02 6.769053e-03 0.0
-2.893616e-02 6.656716e-03 0.0
-3.036564e-02 6.518958e-03 0.0
-3.175865e-02 6.356586e-03 0.0
-3.311006e-02 6.170262e-03 0.0
-3.441494e-02 5.960575e-03 0.0
-3.566846e-02 5.728097e-03 0.0
-3.686590e-02 5.473424e-03 0.0
-3.800266e-02 5.197196e-03 0.0
-3.907425e-02 4.900092e-03 0.0
-4.007635e-02 4.582835e-03 0.0
-4.100480e-02 4.246185e-03 0.0
-4.185565e-02 3.890945e-03 0.0
-4.262519e-02 3.517975e-03 0.0
-4.330994e-02 3.128219e-03 0.0
-4.390668e-02 2.722725e-03 0.0
-4.441246e-02 2.302679e-03 0.0
-4.482461e-02 1.869426e-03 0.0
-4.514082e-02 1.424486e-03 0.0
-4.535909e-02 9.695716e-04 0.0
-4.547783e-02 5.065905e-04 0.0
-4.549586e-02 3.765822e-05 0.0
-4.541246e-02 -4.348953e-04 0.0
-4.522740e-02 -9.085742e-04 0.0
-4.494095e-02 -1.380906e-03 0.0
-4.455388e-02 -1.849440e-03 0.0
-4.406746e-02 -2.311741e-03 0.0
-4.348346e-02 -2.765398e-03 0.0
-4.280414e-02 -3.208021e-03 0.0
-4.203226e-02 -3.637256e-03 0.0
-4.117105e-02 -4.050793e-03 0.0
-4.022420e-02 -4.446377e-03 0.0
-3.919588e-02 -4.821820e-03 0.0
-3.809068e-02 -5.175022e-03 0.0
-3.691361e-02 -5.503975e-03 0.0
-3.567009e-02 -5.806784e-03 0.0
-3.436589e-02 -6.081682e-03 0.0
-3.300715e-02 -6.327036e-03 0.0
-3.160030e-02 -6.541371e-03 0.0
-3.015207e-02 -6.723376e-03 0.0
-2.866941e-02 -6.871918e-03 0.0
-2.715950e-02 -6.986060e-03 0.0
-2.562967e-02 -7.065062e-03 0.0
-2.408736e-02 -7.108402e-03 0.0
-2.254010e-02 -7.115777e-03 0.0
-2.099547e-02 -7.087117e-03 0.0
-1.946098e-02 -7.022580e-03 0.0
-1.794412e-02 -6.922540e-03 0.0
-1.645224e-02 -6.787595e-03 0.0
-1.499253e-02 -6.618568e-03 0.0
-1.357197e-02 -6.416515e-03 0.0
-1.219728e-02 -6.182728e-03 0.0
-1.087486e-02 -5.918742e-03 0.0