# vtk DataFile Version 3.0
Vector Field
ASCII
DATASET RECTILINEAR_GRID
DIMENSIONS 102 102 1
X_COORDINATES 102 double
0.000000 0.100000 0.200000 0.300000 0.400000 0.500000 0.600000 0.700000 0.800000 0.900000 1.000000 1.100000 1.200000 1.300000 1.400000 1.500000 1.600000 1.700000 1.800000 1.900000 2.000000 2.100000 2.200000 2.300000 2.400000 2.500000 2.600000 2.700000 2.800000 2.900000 3.000000 3.100000 3.200000 3.300000 3.400000 3.500000 3.600000 3.700000 3.800000 3.900000 4.000000 4.100000 4.200000 4.300000 4.400000 4.500000 4.600000 4.700000 4.800000 4.900000 5.000000 5.100000 5.200000 5.300000 5.400000 5.500000 5.600000 5.700000 5.800000 5.900000 6.000000 6.100000 6.200000 6.300000 6.400000 6.500000 6.600000 6.700000 6.800000 6.900000 7.000000 7.100000 7.200000 7.300000 7.400000 7.500000 7.600000 7.700000 7.800000 7.900000 8.000000 8.100000 8.200000 8.300000 8.400000 8.500000 8.600000 8.700000 8.800000 8.900000 9.000000 9.100000 9.200000 9.300000 9.400000 9.500000 9.600000 9.700000 9.800000 9.900000 10.000000 10.100000 
Y_COORDINATES 102 double
0.000000 0.100000 0.200000 0.300000 0.400000 0.500000 0.600000 0.700000 0.800000 0.900000 1.000000 1.100000 1.200000 1.300000 1.400000 1.500000 1.600000 1.700000 1.800000 1.900000 2.000000 2.100000 2.200000 2.300000 2.400000 2.500000 2.600000 2.700000 2.800000 2.900000 3.000000 3.100000 3.200000 3.300000 3.400000 3.500000 3.600000 3.700000 3.800000 3.900000 4.000000 4.100000 4.200000 4.300000 4.400000 4.500000 4.600000 4.700000 4.800000 4.900000 5.000000 5.100000 5.200000 5.300000 5.400000 5.500000 5.600000 5.700000 5.800000 5.900000 6.000000 6.100000 6.200000 6.300000 6.400000 6.500000 6.600000 6.700000 6.800000 6.900000 7.000000 7.100000 7.200000 7.300000 7.400000 7.500000 7.600000 7.700000 7.800000 7.900000 8.000000 8.100000 8.200000 8.300000 8.400000 8.500000 8.600000 8.700000 8.800000 8.900000 9.000000 9.100000 9.200000 9.300000 9.400000 9.500000 9.600000 9.700000 9.800000 9.900000 10.000000 10.100000 
Z_COORDINATES 1 double
0.0
POINT_DATA 10404
VECTORS Velocity double
0.000000e+00 0.000000e+00 0.0
-2.118179e-05 0.000000e+00 0.0
-3.319562e-05 0.000000e+00 0.0
-3.595942e-05 0.000000e+00 0.0
-2.896694e-05 0.000000e+00 0.0
-1.388173e-05 0.000000e+00 0.0
7.498413e-06 0.000000e+00 0.0
3.439981e-05 0.000000e+00 0.0
6.715239e-05 0.000000e+00 0.0
1.066305e-04 0.000000e+00 0.0
1.535629e-04 0.000000e+00 0.0
2.080881e-04 0.000000e+00 0.0
2.696853e-04 0.000000e+00 0.0
3.373932e-04 0.000000e+00 0.0
4.101168e-04 0.000000e+00 0.0
4.868495e-04 0.000000e+00 0.0
5.667386e-04 0.000000e+00 0.0
6.490358e-04 0.000000e+00 0.0
7.330280e-04 0.000000e+00 0.0
8.180290e-04 0.000000e+00 0.0
9.034475e-04 0.000000e+00 0.0
9.888861e-04 0.000000e+00 0.0
1.074196e-03 0.000000e+00 0.0
1.159436e-03 0.000000e+00 0.0
1.244743e-03 0.000000e+00 0.0
1.330158e-03 0.000000e+00 0.0
1.415487e-03 0.000000e+00 0.0
1.500265e-03 0.000000e+00 0.0
1.583813e-03 0.000000e+00 0.0
1.665390e-03 0.000000e+00 0.0
1.744355e-03 0.000000e+00 0.0
1.820299e-03 0.000000e+00 0.0
1.893084e-03 0.000000e+00 0.0
1.962803e-03 0.000000e+00 0.0
2.029675e-03 0.000000e+00 0.0
2.093905e-03 0.000000e+00 0.0
2.155572e-03 0.000000e+00 0.0
2.214568e-03 0.000000e+00 0.0
2.270588e-03 0.000000e+00 0.0
2.323200e-03 0.000000e+00 0.0
2.371924e-03 0.000000e+00 0.0
2.416340e-03 0.000000e+00 0.0
2.456144e-03 0.000000e+00 0.0
2.491184e-03 0.000000e+00 0.0
2.521437e-03 0.000000e+00 0.0
2.546955e-03 0.000000e+00 0.0
2.567807e-03 0.000000e+00 0.0
2.584018e-03 0.000000e+00 0.0
2.595543e-03 0.000000e+00 0.0
2.602262e-03 0.000000e+00 0.0
2.604003e-03 0.000000e+00 0.0
2.600584e-03 0.000000e+00 0.0
2.591850e-03 0.000000e+00 0.0
2.577699e-03 0.000000e+00 0.0
2.558089e-03 0.000000e+00 0.0
2.533047e-03 0.000000e+00 0.0
2.502658e-03 0.000000e+00 0.0
2.467050e-03 0.000000e+00 0.0
2.426378e-03 0.000000e+00 0.0
2.380812e-03 0.000000e+00 0.0
2.330522e-03 0.000000e+00 0.0
2.275674e-03 0.000000e+00 0.0
2.216430e-03 0.000000e+00 0.0
2.152952e-03 0.000000e+00 0.0
2.085413e-03 0.000000e+00 0.0
2.014007e-03 0.000000e+00 0.0
1.938959e-03 0.000000e+00 0.0
1.860534e-03 0.000000e+00 0.0
1.779035e-03 0.000000e+00 0.0
1.694807e-03 0.000000e+00 0.0
1.608223e-03 0.000000e+00 0.0
1.519683e-03 0.000000e+00 0.0
1.429600e-03 0.000000e+00 0.0
1.338395e-03 0.000000e+00 0.0
1.246496e-03 0.000000e+00 0.0
1.154332e-03 0.000000e+00 0.0
1.062338e-03 0.000000e+00 0.0
9.709556e-04 0.000000e+00 0.0
8.806338e-04 0.000000e+00 0.0
7.918343e-04 0.000000e+00 0.0
7.050294e-04 0.000000e+00 0.0
6.207011e-04 0.000000e+00 0.0
5.393381e-04 0.000000e+00 0.0
4.614329e-04 0.000000e+00 0.0
3.874770e-04 0.000000e+00 0.0
3.179580e-04 0.000000e+00 0.0
2.533552e-04 0.000000e+00 0.0
1.941356e-04 0.000000e+00 0.0
1.407499e-04 0.000000e+00 0.0
9.362605e-05 0.000000e+00 0.0
5.316074e-05 0.000000e+00 0.0
1.970642e-05 0.000000e+00 0.0
-6.448594e-06 0.000000e+00 0.0
-2.511258e-05 0.000000e+00 0.0
-3.624121e-05 0.000000e+00 0.0
-4.002180e-05 0.000000e+00 0.0
-3.701890e-05 0.000000e+00 0.0
-2.842303e-05 0.000000e+00 0.0
-1.646913e-05 0.000000e+00 0.0
-5.054206e-06 0.000000e+00 0.0
-0.000000e+00 0.000000e+00 0.0
0.000000e+00 0.000000e+00 0.0
0.000000e+00 -7.617292e-06 0.0
-1.835887e-06 -1.557003e-05 0.0
7.533833e-06 -1.775501e-05 0.0
1.766582e-05 -1.146122e-05 0.0
2.257922e-05 3.847426e-08 0.0
1.860036e-05 1.249827e-05 0.0
3.937263e-06 2.368699e-05 0.0
-2.162310e-05 3.285737e-05 0.0
-5.724337e-05 4.020850e-05 0.0
-1.016270e-04 4.629782e-05 0.0
-1.534705e-04 5.163232e-05 0.0
-2.116653e-04 5.651911e-05 0.0
-2.752833e-04 6.111555e-05 0.0
-3.434764e-04 6.553965e-05 0.0
-4.154218e-04 6.991824e-05 0.0
-4.903676e-04 7.433462e-05 0.0
-5.677420e-04 7.872606e-05 0.0
-6.472367e-04 8.282223e-05 0.0
-7.287868e-04 8.619030e-05 0.0
-8.124336e-04 8.838579e-05 0.0
-8.981249e-04 8.914324e-05 0.0
-9.855454e-04 8.851483e-05 0.0
-1.074056e-03 8.688817e-05 0.0
-1.162773e-03 8.487128e-05 0.0
-1.250745e-03 8.309072e-05 0.0
-1.337172e-03 8.198360e-05 0.0
-1.421559e-03 8.166075e-05 0.0
-1.503776e-03 8.188673e-05 0.0
-1.583988e-03 8.217661e-05 0.0
-1.662504e-03 8.196917e-05 0.0
-1.739593e-03 8.081403e-05 0.0
-1.815331e-03 7.851089e-05 0.0
-1.889523e-03 7.515956e-05 0.0
-1.961726e-03 7.111097e-05 0.0
-2.031343e-03 6.684187e-05 0.0
-2.097762e-03 6.279864e-05 0.0
-2.160488e-03 5.926305e-05 0.0
-2.219227e-03 5.628122e-05 0.0
-2.273897e-03 5.367349e-05 0.0
-2.324577e-03 5.111431e-05 0.0
-2.371410e-03 4.824901e-05 0.0
-2.414502e-03 4.480605e-05 0.0
-2.453851e-03 4.066937e-05 0.0
-2.489315e-03 3.589401e-05 0.0
-2.520635e-03 3.066827e-05 0.0
-2.547482e-03 2.524276e-05 0.0
-2.569529e-03 1.985317e-05 0.0
-2.586499e-03 1.466025e-05 0.0
-2.598207e-03 9.721249e-06 0.0
-2.604559e-03 4.994353e-06 0.0
-2.605544e-03 3.690510e-07 0.0
-2.601212e-03 -4.288888e-06 0.0
-2.591642e-03 -9.096938e-06 0.0
-2.576911e-03 -1.413450e-05 0.0
-2.557077e-03 -1.942161e-05 0.0
-2.532171e-03 -2.491625e-05 0.0
-2.502201e-03 -3.052607e-05 0.0
-2.467168e-03 -3.612973e-05 0.0
-2.427079e-03 -4.160205e-05 0.0
-2.381971e-03 -4.683724e-05 0.0
-2.331920e-03 -5.176563e-05 0.0
-2.277056e-03 -5.636039e-05 0.0
-2.217560e-03 -6.063393e-05 0.0
-2.153664e-03 -6.462554e-05 0.0
-2.085634e-03 -6.838419e-05 0.0
-2.013763e-03 -7.195127e-05 0.0
-1.938354e-03 -7.534747e-05 0.0
-1.859719e-03 -7.856649e-05 0.0
-1.778168e-03 -8.157625e-05 0.0
-1.694020e-03 -8.432607e-05 0.0
-1.607600e-03 -8.675717e-05 0.0
-1.519250e-03 -8.881329e-05 0.0
-1.429334e-03 -9.044900e-05 0.0
-1.338241e-03 -9.163404e-05 0.0
-1.246383e-03 -9.235350e-05 0.0
-1.154195e-03 -9.260469e-05 0.0
-1.062132e-03 -9.239218e-05 0.0
-9.706581e-04 -9.172245e-05 0.0
-8.802483e-04 -9.059922e-05 0.0
-7.913813e-04 -8.902150e-05 0.0
-7.045386e-04 -8.698362e-05 0.0
-6.202026e-04 -8.447672e-05 0.0
-5.388565e-04 -8.149118e-05 0.0
-4.609834e-04 -7.801910e-05 0.0
-3.870659e-04 -7.405632e-05 0.0
-3.175840e-04 -6.960373e-05 0.0
-2.530130e-04 -6.466781e-05 0.0
-1.938193e-04 -5.926068e-05 0.0
-1.404549e-04 -5.340043e-05 0.0
-9.335069e-05 -4.711176e-05 0.0
-5.290615e-05 -4.042797e-05 0.0
-1.947594e-05 -3.339507e-05 0.0
6.651183e-06 -2.607846e-05 0.0
2.528402e-05 -1.857443e-05 0.0
3.637924e-05 -1.103041e-05 0.0
4.012702e-05 -3.678304e-06 0.0
3.709499e-05 3.107064e-06 0.0
2.847380e-05 8.699570e-06 0.0
1.650528e-05 1.204942e-05 0.0
5.086528e-06 1.150117e-05 0.0
0.000000e+00 5.169379e-06 0.0
0.000000e+00 -5.267519e-06 0.0
0.000000e+00 1.640807e-06 0.0
3.806220e-06 -2.784447e-05 0.0
1.863702e-05 -2.733753e-05 0.0
2.393321e-05 -9.432276e-06 0.0
1.128877e-05 1.876356e-05 0.0
-2.379210e-05 5.061011e-05 0.0
-8.286313e-05 8.262534e-05 0.0
-1.656118e-04 1.133002e-04 0.0
-2.707665e-04 1.421538e-04 0.0
-3.966892e-04 1.690639e-04 0.0
-5.416406e-04 1.939628e-04 0.0
-7.038235e-04 2.168019e-04 0.0
-8.813592e-04 2.376127e-04 0.0
-1.072315e-03 2.565194e-04 0.0
-1.274815e-03 2.736548e-04 0.0
-1.487177e-03 2.890321e-04 0.0
-1.708000e-03 3.024643e-04 0.0
-1.936142e-03 3.136022e-04 0.0
-2.170589e-03 3.220853e-04 0.0
-2.410286e-03 3.277369e-04 0.0
-2.654007e-03 3.307051e-04 0.0
-2.900329e-03 3.314775e-04 0.0
-3.147713e-03 3.307601e-04 0.0
-3.394661e-03 3.292664e-04 0.0
-3.639881e-03 3.275030e-04 0.0
-3.882390e-03 3.256315e-04 0.0
-4.121533e-03 3.234527e-04 0.0
-4.356901e-03 3.205106e-04 0.0
-4.588191e-03 3.162752e-04 0.0
-4.815061e-03 3.103376e-04 0.0
-5.037017e-03 3.025515e-04 0.0
-5.253372e-03 2.930799e-04 0.0
-5.463278e-03 2.823370e-04 0.0
-5.665822e-03 2.708503e-04 0.0
-5.860131e-03 2.590953e-04 0.0
-6.045476e-03 2.473574e-04 0.0
-6.221309e-03 2.356653e-04 0.0
-6.387255e-03 2.238128e-04 0.0
-6.543050e-03 2.114529e-04 0.0
-6.688453e-03 1.982270e-04 0.0
-6.823173e-03 1.838836e-04 0.0
-6.946822e-03 1.683476e-04 0.0
-7.058912e-03 1.517269e-04 0.0
-7.158888e-03 1.342628e-04 0.0
-7.246181e-03 1.162472e-04 0.0
-7.320265e-03 9.794047e-05 0.0
-7.380690e-03 7.951141e-05 0.0
-7.427104e-03 6.101534e-05 0.0
-7.459250e-03 4.240815e-05 0.0
-7.476949e-03 2.358641e-05 0.0
-7.480077e-03 4.439043e-06 0.0
-7.468554e-03 -1.510264e-05 0.0
-7.442332e-03 -3.503826e-05 0.0
-7.401384e-03 -5.530665e-05 0.0
-7.345700e-03 -7.578450e-05 0.0
-7.275302e-03 -9.630193e-05 0.0
-7.190256e-03 -1.166676e-04 0.0
-7.090683e-03 -1.366960e-04 0.0
-6.976779e-03 -1.562304e-04 0.0
-6.848822e-03 -1.751569e-04 0.0
-6.707177e-03 -1.934069e-04 0.0
-6.552291e-03 -2.109487e-04 0.0
-6.384690e-03 -2.277710e-04 0.0
-6.204965e-03 -2.438640e-04 0.0
-6.013767e-03 -2.592017e-04 0.0
-5.811796e-03 -2.737314e-04 0.0
-5.599800e-03 -2.873708e-04 0.0
-5.378572e-03 -3.000129e-04 0.0
-5.148960e-03 -3.115374e-04 0.0
-4.911863e-03 -3.218224e-04 0.0
-4.668238e-03 -3.307565e-04 0.0
-4.419101e-03 -3.382456e-04 0.0
-4.165525e-03 -3.442162e-04 0.0
-3.908636e-03 -3.486135e-04 0.0
-3.649607e-03 -3.513968e-04 0.0
-3.389651e-03 -3.525341e-04 0.0
-3.130012e-03 -3.519969e-04 0.0
-2.871963e-03 -3.497568e-04 0.0
-2.616797e-03 -3.457832e-04 0.0
-2.365822e-03 -3.400448e-04 0.0
-2.120364e-03 -3.325128e-04 0.0
-1.881755e-03 -3.231643e-04 0.0
-1.651332e-03 -3.119849e-04 0.0
-1.430431e-03 -2.989719e-04 0.0
-1.220381e-03 -2.841355e-04 0.0
-1.022491e-03 -2.675000e-04 0.0
-8.380410e-04 -2.491052e-04 0.0
-6.682689e-04 -2.290087e-04 0.0
-5.143507e-04 -2.072896e-04 0.0
-3.773786e-04 -1.840552e-04 0.0
-2.583294e-04 -1.594523e-04 0.0
-1.580214e-04 -1.336832e-04 0.0
-7.705217e-05 -1.070319e-04 0.0
-1.571085e-05 -7.990267e-05 0.0
2.615207e-05 -5.288187e-05 0.0
4.931721e-05 -2.683093e-05 0.0
5.547126e-05 -3.032775e-06 0.0
4.759763e-05 1.658756e-05 0.0
3.048806e-05 2.917422e-05 0.0
1.129030e-05 3.071432e-05 0.0
0.000000e+00 1.647457e-05 0.0
0.000000e+00 -1.658332e-05 0.0
0.000000e+00 1.371648e-05 0.0
3.596665e-06 -3.271973e-05 0.0
9.347543e-06 -2.563123e-05 0.0
-4.416416e-06 1.009252e-05 0.0
-4.617105e-05 6.296514e-05 0.0
-1.203436e-04 1.240386e-04 0.0
-2.284738e-04 1.879962e-04 0.0
-3.703452e-04 2.517433e-04 0.0
-5.447792e-04 3.134174e-04 0.0
-7.500509e-04 3.718194e-04 0.0
-9.840408e-04 4.261892e-04 0.0
-1.244299e-03 4.761378e-04 0.0
-1.528155e-03 5.215687e-04 0.0
-1.832895e-03 5.625273e-04 0.0
-2.155953e-03 5.990222e-04 0.0
-2.495028e-03 6.309139e-04 0.0
-2.848064e-03 6.579325e-04 0.0
-3.213124e-03 6.798213e-04 0.0
-3.588230e-03 6.965261e-04 0.0
-3.971249e-03 7.083312e-04 0.0
-4.359895e-03 7.158663e-04 0.0
-4.751841e-03 7.199764e-04 0.0
-5.144888e-03 7.215023e-04 0.0
-5.537127e-03 7.210614e-04 0.0
-5.927027e-03 7.189075e-04 0.0
-6.313420e-03 7.149219e-04 0.0
-6.695390e-03 7.087241e-04 0.0
-7.072119e-03 6.998631e-04 0.0
-7.442728e-03 6.880168e-04 0.0
-7.806181e-03 6.731347e-04 0.0
-8.161266e-03 6.554769e-04 0.0
-8.506653e-03 6.355461e-04 0.0
-8.841005e-03 6.139379e-04 0.0
-9.163096e-03 5.911680e-04 0.0
-9.471896e-03 5.675336e-04 0.0
-9.766592e-03 5.430560e-04 0.0
-1.004655e-02 5.175163e-04 0.0
-1.031123e-02 4.905651e-04 0.0
-1.056007e-02 4.618629e-04 0.0
-1.079246e-02 4.312002e-04 0.0
-1.100765e-02 3.985621e-04 0.0
-1.120482e-02 3.641224e-04 0.0
-1.138308e-02 3.281804e-04 0.0
-1.154161e-02 2.910695e-04 0.0
-1.167963e-02 2.530713e-04 0.0
-1.179650e-02 2.143607e-04 0.0
-1.189170e-02 1.749931e-04 0.0
-1.196479e-02 1.349306e-04 0.0
-1.201543e-02 9.409166e-05 0.0
-1.204333e-02 5.240881e-05 0.0
-1.204824e-02 9.878055e-06 0.0
-1.202993e-02 -3.340776e-05 0.0
-1.198823e-02 -7.726073e-05 0.0
-1.192304e-02 -1.214392e-04 0.0
-1.183430e-02 -1.656664e-04 0.0
-1.172206e-02 -2.096569e-04 0.0
-1.158647e-02 -2.531433e-04 0.0
-1.142778e-02 -2.958959e-04 0.0
-1.124639e-02 -3.377313e-04 0.0
-1.104279e-02 -3.785090e-04 0.0
-1.081761e-02 -4.181177e-04 0.0
-1.057155e-02 -4.564560e-04 0.0
-1.030545e-02 -4.934124e-04 0.0
-1.002019e-02 -5.288502e-04 0.0
-9.716758e-03 -5.626009e-04 0.0
-9.396221e-03 -5.944659e-04 0.0
-9.059732e-03 -6.242267e-04 0.0
-8.708533e-03 -6.516583e-04 0.0
-8.343964e-03 -6.765431e-04 0.0
-7.967464e-03 -6.986819e-04 0.0
-7.580565e-03 -7.178996e-04 0.0
-7.184889e-03 -7.340460e-04 0.0
-6.782142e-03 -7.469922e-04 0.0
-6.374102e-03 -7.566257e-04 0.0
-5.962613e-03 -7.628441e-04 0.0
-5.549572e-03 -7.655515e-04 0.0
-5.136926e-03 -7.646572e-04 0.0
-4.726659e-03 -7.600769e-04 0.0
-4.320793e-03 -7.517326e-04 0.0
-3.921376e-03 -7.395575e-04 0.0
-3.530478e-03 -7.235004e-04 0.0
-3.150184e-03 -7.035290e-04 0.0
-2.782578e-03 -6.796333e-04 0.0
-2.429738e-03 -6.518270e-04 0.0
-2.093716e-03 -6.201496e-04 0.0
-1.776524e-03 -5.846696e-04 0.0
-1.480113e-03 -5.454879e-04 0.0
-1.206349e-03 -5.027455e-04 0.0
-9.569835e-04 -4.566341e-04 0.0
-7.336117e-04 -4.074124e-04 0.0
-5.376260e-04 -3.554297e-04 0.0
-3.701449e-04 -3.011599e-04 0.0
-2.319223e-04 -2.452512e-04 0.0
-1.232232e-04 -1.885980e-04 0.0
-4.365308e-05 -1.324465e-04 0.0
8.070096e-06 -7.854474e-05 0.0
3.440795e-05 -2.935941e-05 0.0
3.937901e-05 1.162913e-05 0.0
2.900343e-05 3.956305e-05 0.0
1.185179e-05 4.787923e-05 0.0
0.000000e+00 2.833896e-05 0.0
0.000000e+00 -2.846002e-05 0.0
0.000000e+00 2.172468e-05 0.0
1.112931e-06 -2.850492e-05 0.0
-1.124666e-05 -6.974070e-06 0.0
-5.329051e-05 5.462163e-05 0.0
-1.320735e-04 1.407400e-04 0.0
-2.513197e-04 2.402054e-04 0.0
-4.124688e-04 3.455222e-04 0.0
-6.155204e-04 4.516185e-04 0.0
-8.594914e-04 5.550165e-04 0.0
-1.142607e-03 6.533837e-04 0.0
-1.462414e-03 7.452826e-04 0.0
-1.815951e-03 8.299497e-04 0.0
-2.200010e-03 9.070316e-04 0.0
-2.611406e-03 9.763209e-04 0.0
-3.047136e-03 1.037584e-03 0.0
-3.504403e-03 1.090542e-03 0.0
-3.980484e-03 1.134992e-03 0.0
-4.472580e-03 1.170985e-03 0.0
-4.977713e-03 1.198948e-03 0.0
-5.492752e-03 1.219674e-03 0.0
-6.014564e-03 1.234178e-03 0.0
-6.540211e-03 1.243462e-03 0.0
-7.067131e-03 1.248287e-03 0.0
-7.593217e-03 1.249033e-03 0.0
-8.116778e-03 1.245693e-03 0.0
-8.636397e-03 1.237999e-03 0.0
-9.150743e-03 1.225619e-03 0.0
-9.658407e-03 1.208365e-03 0.0
-1.015780e-02 1.186331e-03 0.0
-1.064716e-02 1.159923e-03 0.0
-1.112464e-02 1.129771e-03 0.0
-1.158845e-02 1.096571e-03 0.0
-1.203696e-02 1.060899e-03 0.0
-1.246883e-02 1.023078e-03 0.0
-1.288299e-02 9.831315e-04 0.0
-1.327854e-02 9.408388e-04 0.0
-1.365469e-02 8.958646e-04 0.0
-1.401058e-02 8.479090e-04 0.0
-1.434528e-02 7.968294e-04 0.0
-1.465769e-02 7.426937e-04 0.0
-1.494664e-02 6.857596e-04 0.0
-1.521094e-02 6.263953e-04 0.0
-1.544946e-02 5.649785e-04 0.0
-1.566120e-02 5.018096e-04 0.0
-1.584533e-02 4.370644e-04 0.0
-1.600112e-02 3.707956e-04 0.0
-1.612800e-02 3.029727e-04 0.0
-1.622545e-02 2.335437e-04 0.0
-1.629297e-02 1.624978e-04 0.0
-1.633014e-02 8.991314e-05 0.0
-1.633653e-02 1.598224e-05 0.0
-1.631178e-02 -5.898552e-05 0.0
-1.625563e-02 -1.345970e-04 0.0
-1.616789e-02 -2.104418e-04 0.0
-1.604853e-02 -2.861192e-04 0.0
-1.589766e-02 -3.612620e-04 0.0
-1.571554e-02 -4.355493e-04 0.0
-1.550258e-02 -5.087075e-04 0.0
-1.525934e-02 -5.804991e-04 0.0
-1.498652e-02 -6.507036e-04 0.0
-1.468496e-02 -7.190952e-04 0.0
-1.435559e-02 -7.854242e-04 0.0
-1.399946e-02 -8.494055e-04 0.0
-1.361773e-02 -9.107179e-04 0.0
-1.321169e-02 -9.690119e-04 0.0
-1.278273e-02 -1.023924e-03 0.0
-1.233238e-02 -1.075093e-03 0.0
-1.186231e-02 -1.122175e-03 0.0
-1.137433e-02 -1.164851e-03 0.0
-1.087035e-02 -1.202832e-03 0.0
-1.035245e-02 -1.235857e-03 0.0
-9.822774e-03 -1.263689e-03 0.0
-9.283600e-03 -1.286107e-03 0.0
-8.737279e-03 -1.302902e-03 0.0
-8.186243e-03 -1.313877e-03 0.0
-7.632998e-03 -1.318846e-03 0.0
-7.080109e-03 -1.317638e-03 0.0
-6.530198e-03 -1.310102e-03 0.0
-5.985933e-03 -1.296112e-03 0.0
-5.450018e-03 -1.275566e-03 0.0
-4.925185e-03 -1.248396e-03 0.0
-4.414176e-03 -1.214567e-03 0.0
-3.919729e-03 -1.174080e-03 0.0
-3.444559e-03 -1.126978e-03 0.0
-2.991337e-03 -1.073345e-03 0.0
-2.562665e-03 -1.013315e-03 0.0
-2.161051e-03 -9.470832e-04 0.0
-1.788873e-03 -8.749149e-04 0.0
-1.448338e-03 -7.971694e-04 0.0
-1.141432e-03 -7.143256e-04 0.0
-8.698498e-04 -6.270200e-04 0.0
-6.349174e-04 -5.360996e-04 0.0
-4.374775e-04 -4.426948e-04 0.0
-2.777530e-04 -3.483222e-04 0.0
-1.551678e-04 -2.550271e-04 0.0
-6.812628e-05 -1.655769e-04 0.0
-1.375051e-05 -8.372461e-05 0.0
1.244278e-05 -1.455214e-05 0.0
1.691793e-05 3.509993e-05 0.0
8.642586e-06 5.616622e-05 0.0
0.000000e+00 3.699240e-05 0.0
0.000000e+00 -3.711960e-05 0.0
0.000000e+00 2.065568e-05 0.0
-3.686234e-06 -1.560261e-05 0.0
-3.915896e-05 3.165967e-05 0.0
-1.144118e-04 1.290644e-04 0.0
-2.345570e-04 2.577270e-04 0.0
-4.024468e-04 4.043473e-04 0.0
-6.193305e-04 5.592108e-04 0.0
-8.852556e-04 7.152986e-04 0.0
-1.199206e-03 8.676456e-04 0.0
-1.559183e-03 1.012914e-03 0.0
-1.962380e-03 1.149011e-03 0.0
-2.405484e-03 1.274684e-03 0.0
-2.885002e-03 1.389139e-03 0.0
-3.397492e-03 1.491780e-03 0.0
-3.939619e-03 1.582128e-03 0.0
-4.508054e-03 1.659900e-03 0.0
-5.099325e-03 1.725165e-03 0.0
-5.709725e-03 1.778440e-03 0.0
-6.335360e-03 1.820663e-03 0.0
-6.972325e-03 1.853017e-03 0.0
-7.616946e-03 1.876682e-03 0.0
-8.265984e-03 1.892584e-03 0.0
-8.916730e-03 1.901252e-03 0.0
-9.566952e-03 1.902819e-03 0.0
-1.021473e-02 1.897154e-03 0.0
-1.085823e-02 1.884076e-03 0.0
-1.149554e-02 1.863570e-03 0.0
-1.212452e-02 1.835917e-03 0.0
-1.274286e-02 1.801717e-03 0.0
-1.334818e-02 1.761776e-03 0.0
-1.393820e-02 1.716929e-03 0.0
-1.451087e-02 1.667846e-03 0.0
-1.506449e-02 1.614899e-03 0.0
-1.559771e-02 1.558131e-03 0.0
-1.610937e-02 1.497337e-03 0.0
-1.659840e-02 1.432212e-03 0.0
-1.706370e-02 1.362515e-03 0.0
-1.750399e-02 1.288192e-03 0.0
-1.791786e-02 1.209416e-03 0.0
-1.830379e-02 1.126549e-03 0.0
-1.866028e-02 1.040040e-03 0.0
-1.898592e-02 9.503186e-04 0.0
-1.927946e-02 8.577047e-04 0.0
-1.953984e-02 7.623732e-04 0.0
-1.976619e-02 6.643711e-04 0.0
-1.995773e-02 5.636752e-04 0.0
-2.011376e-02 4.602668e-04 0.0
-2.023362e-02 3.541994e-04 0.0
-2.031664e-02 2.456438e-04 0.0
-2.036220e-02 1.349041e-04 0.0
-2.036974e-02 2.240729e-05 0.0
-2.033878e-02 -9.132405e-05 0.0
-2.026899e-02 -2.057256e-04 0.0
-2.016019e-02 -3.202646e-04 0.0
-2.001241e-02 -4.344585e-04 0.0
-1.982583e-02 -5.478793e-04 0.0
-1.960084e-02 -6.601449e-04 0.0
-1.933799e-02 -7.708989e-04 0.0
-1.903799e-02 -8.797855e-04 0.0
-1.870169e-02 -9.864257e-04 0.0
-1.833008e-02 -1.090401e-03 0.0
-1.792428e-02 -1.191247e-03 0.0
-1.748554e-02 -1.288461e-03 0.0
-1.701526e-02 -1.381513e-03 0.0
-1.651500e-02 -1.469867e-03 0.0
-1.598648e-02 -1.552997e-03 0.0
-1.543160e-02 -1.630404e-03 0.0
-1.485241e-02 -1.701620e-03 0.0
-1.425116e-02 -1.766211e-03 0.0
-1.363020e-02 -1.823770e-03 0.0
-1.299207e-02 -1.873914e-03 0.0
-1.233941e-02 -1.916279e-03 0.0
-1.167497e-02 -1.950514e-03 0.0
-1.100162e-02 -1.976283e-03 0.0
-1.032231e-02 -1.993272e-03 0.0
-9.640098e-03 -2.001190e-03 0.0
-8.958093e-03 -1.999780e-03 0.0
-8.279490e-03 -1.988828e-03 0.0
-7.607536e-03 -1.968155e-03 0.0
-6.945520e-03 -1.937632e-03 0.0
-6.296753e-03 -1.897175e-03 0.0
-5.664556e-03 -1.846751e-03 0.0
-5.052229e-03 -1.786381e-03 0.0
-4.463036e-03 -1.716145e-03 0.0
-3.900175e-03 -1.636189e-03 0.0
-3.366747e-03 -1.546740e-03 0.0
-2.865722e-03 -1.448117e-03 0.0
-2.399900e-03 -1.340755e-03 0.0
-1.971858e-03 -1.225234e-03 0.0
-1.583889e-03 -1.102315e-03 0.0
-1.237931e-03 -9.729943e-04 0.0
-9.354691e-04 -8.385714e-04 0.0
-6.774241e-04 -7.007426e-04 0.0
-4.640148e-04 -5.617290e-04 0.0
-2.945905e-04 -4.244446e-04 0.0
-1.674370e-04 -2.927197e-04 0.0
-7.955944e-05 -1.715914e-04 0.0
-2.642283e-05 -6.767744e-05 0.0
-1.657553e-06 1.034551e-05 0.0
3.341564e-06 5.117727e-05 0.0
0.000000e+00 4.034332e-05 0.0
0.000000e+00 -4.046864e-05 0.0
0.000000e+00 7.477219e-06 0.0
-1.084289e-05 5.052500e-06 0.0
-7.137384e-05 9.194215e-05 0.0
-1.818201e-04 2.365161e-04 0.0
-3.453605e-04 4.174768e-04 0.0
-5.639037e-04 6.196404e-04 0.0
-8.382670e-04 8.313738e-04 0.0
-1.168186e-03 1.044058e-03 0.0
-1.552285e-03 1.251540e-03 0.0
-1.988184e-03 1.449617e-03 0.0
-2.472770e-03 1.635496e-03 0.0
-3.002539e-03 1.807291e-03 0.0
-3.573867e-03 1.963646e-03 0.0
-4.183105e-03 2.103579e-03 0.0
-4.826508e-03 2.226501e-03 0.0
-5.500100e-03 2.332332e-03 0.0
-6.199591e-03 2.421561e-03 0.0
-6.920444e-03 2.495192e-03 0.0
-7.658071e-03 2.554536e-03 0.0
-8.408108e-03 2.600927e-03 0.0
-9.166657e-03 2.635455e-03 0.0
-9.930401e-03 2.658807e-03 0.0
-1.069655e-02 2.671269e-03 0.0
-1.146269e-02 2.672866e-03 0.0
-1.222647e-02 2.663591e-03 0.0
-1.298549e-02 2.643626e-03 0.0
-1.373709e-02 2.613478e-03 0.0
-1.447841e-02 2.573977e-03 0.0
-1.520656e-02 2.526152e-03 0.0
-1.591873e-02 2.471020e-03 0.0
-1.661246e-02 2.409383e-03 0.0
-1.728566e-02 2.341697e-03 0.0
-1.793665e-02 2.268053e-03 0.0
-1.856400e-02 2.188284e-03 0.0
-1.916637e-02 2.102137e-03 0.0
-1.974235e-02 2.009454e-03 0.0
-2.029038e-02 1.910288e-03 0.0
-2.080872e-02 1.804938e-03 0.0
-2.129554e-02 1.693887e-03 0.0
-2.174900e-02 1.577680e-03 0.0
-2.216743e-02 1.456806e-03 0.0
-2.254933e-02 1.331612e-03 0.0
-2.289343e-02 1.202274e-03 0.0
-2.319866e-02 1.068834e-03 0.0
-2.346404e-02 9.312774e-04 0.0
-2.368870e-02 7.896231e-04 0.0
-2.387175e-02 6.439929e-04 0.0
-2.401231e-02 4.946557e-04 0.0
-2.410955e-02 3.420320e-04 0.0
-2.416267e-02 1.866704e-04 0.0
-2.417098e-02 2.920708e-05 0.0
-2.413397e-02 -1.296754e-04 0.0
-2.405130e-02 -2.893015e-04 0.0
-2.392284e-02 -4.490616e-04 0.0
-2.374869e-02 -6.084074e-04 0.0
-2.352913e-02 -7.668313e-04 0.0
-2.326465e-02 -9.238378e-04 0.0
-2.295589e-02 -1.078913e-03 0.0
-2.260367e-02 -1.231501e-03 0.0
-2.220894e-02 -1.380989e-03 0.0
-2.177282e-02 -1.526712e-03 0.0
-2.129659e-02 -1.667959e-03 0.0
-2.078168e-02 -1.804000e-03 0.0
-2.022973e-02 -1.934104e-03 0.0
-1.964259e-02 -2.057558e-03 0.0
-1.902228e-02 -2.173681e-03 0.0
-1.837104e-02 -2.281827e-03 0.0
-1.769130e-02 -2.381385e-03 0.0
-1.698567e-02 -2.471771e-03 0.0
-1.625693e-02 -2.552420e-03 0.0
-1.550799e-02 -2.622788e-03 0.0
-1.474192e-02 -2.682345e-03 0.0
-1.396192e-02 -2.730583e-03 0.0
-1.317131e-02 -2.767024e-03 0.0
-1.237351e-02 -2.791224e-03 0.0
-1.157206e-02 -2.802789e-03 0.0
-1.077059e-02 -2.801375e-03 0.0
-9.972792e-03 -2.786702e-03 0.0
-9.182435e-03 -2.758546e-03 0.0
-8.403322e-03 -2.716744e-03 0.0
-7.639278e-03 -2.661199e-03 0.0
-6.894123e-03 -2.591882e-03 0.0
-6.171649e-03 -2.508840e-03 0.0
-5.475592e-03 -2.412203e-03 0.0
-4.809600e-03 -2.302199e-03 0.0
-4.177198e-03 -2.179172e-03 0.0
-3.581751e-03 -2.043601e-03 0.0
-3.026410e-03 -1.896131e-03 0.0
-2.514064e-03 -1.737610e-03 0.0
-2.047267e-03 -1.569134e-03 0.0
-1.628161e-03 -1.392113e-03 0.0
-1.258382e-03 -1.208355e-03 0.0
-9.389496e-04 -1.020173e-03 0.0
-6.701416e-04 -8.305306e-04 0.0
-4.513467e-04 -6.432303e-04 0.0
-2.809074e-04 -4.631481e-04 0.0
-1.559508e-04 -2.965379e-04 0.0
-7.220006e-05 -1.514183e-04 0.0
-2.377647e-05 -3.806879e-05 0.0
-2.968594e-06 3.037801e-05 0.0
0.000000e+00 3.738259e-05 0.0
0.000000e+00 -3.749928e-05 0.0
0.000000e+00 -1.868402e-05 0.0
-2.000854e-05 3.290667e-05 0.0
-1.055298e-04 1.747671e-04 0.0
-2.513765e-04 3.785876e-04 0.0
-4.589580e-04 6.217053e-04 0.0
-7.290888e-04 8.874939e-04 0.0
-1.061794e-03 1.162943e-03 0.0
-1.456113e-03 1.438299e-03 0.0
-1.910070e-03 1.706502e-03 0.0
-2.420861e-03 1.962544e-03 0.0
-2.985147e-03 2.202863e-03 0.0
-3.599320e-03 2.424864e-03 0.0
-4.259608e-03 2.626666e-03 0.0
-4.962027e-03 2.807063e-03 0.0
-5.702258e-03 2.965576e-03 0.0
-6.475580e-03 3.102479e-03 0.0
-7.276942e-03 3.218703e-03 0.0
-8.101189e-03 3.315587e-03 0.0
-8.943356e-03 3.394556e-03 0.0
-9.798942e-03 3.456827e-03 0.0
-1.066404e-02 3.503227e-03 0.0
-1.153533e-02 3.534190e-03 0.0
-1.240986e-02 3.549902e-03 0.0
-1.328481e-02 3.550542e-03 0.0
-1.415727e-02 3.536507e-03 0.0
-1.502407e-02 3.508550e-03 0.0
-1.588184e-02 3.467764e-03 0.0
-1.672717e-02 3.415433e-03 0.0
-1.755678e-02 3.352797e-03 0.0
-1.836774e-02 3.280831e-03 0.0
-1.915759e-02 3.200112e-03 0.0
-1.992429e-02 3.110816e-03 0.0
-2.066609e-02 3.012847e-03 0.0
-2.138138e-02 2.906033e-03 0.0
-2.206843e-02 2.790322e-03 0.0
-2.272538e-02 2.665900e-03 0.0
-2.335017e-02 2.533211e-03 0.0
-2.394064e-02 2.392873e-03 0.0
-2.449468e-02 2.245543e-03 0.0
-2.501032e-02 2.091779e-03 0.0
-2.548585e-02 1.931962e-03 0.0
-2.591977e-02 1.766275e-03 0.0
-2.631079e-02 1.594764e-03 0.0
-2.665775e-02 1.417429e-03 0.0
-2.695955e-02 1.234330e-03 0.0
-2.721509e-02 1.045663e-03 0.0
-2.742327e-02 8.517966e-04 0.0
-2.758299e-02 6.532678e-04 0.0
-2.769324e-02 4.507434e-04 0.0
-2.775312e-02 2.449687e-04 0.0
-2.776190e-02 3.671886e-05 0.0
-2.771906e-02 -1.732314e-04 0.0
-2.762432e-02 -3.841397e-04 0.0
-2.747762e-02 -5.953263e-04 0.0
-2.727911e-02 -8.061439e-04 0.0
-2.702914e-02 -1.015940e-03 0.0
-2.672825e-02 -1.224023e-03 0.0
-2.637715e-02 -1.429638e-03 0.0
-2.597670e-02 -1.631963e-03 0.0
-2.552795e-02 -1.830110e-03 0.0
-2.503212e-02 -2.023149e-03 0.0
-2.449065e-02 -2.210133e-03 0.0
-2.390518e-02 -2.390117e-03 0.0
-2.327759e-02 -2.562184e-03 0.0
-2.260999e-02 -2.725449e-03 0.0
-2.190471e-02 -2.879063e-03 0.0
-2.116429e-02 -3.022206e-03 0.0
-2.039149e-02 -3.154082e-03 0.0
-1.958925e-02 -3.273916e-03 0.0
-1.876069e-02 -3.380945e-03 0.0
-1.790910e-02 -3.474428e-03 0.0
-1.703791e-02 -3.553649e-03 0.0
-1.615073e-02 -3.617933e-03 0.0
-1.525127e-02 -3.666650e-03 0.0
-1.434342e-02 -3.699231e-03 0.0
-1.343114e-02 -3.715176e-03 0.0
-1.251851e-02 -3.714056e-03 0.0
-1.160971e-02 -3.695522e-03 0.0
-1.070895e-02 -3.659296e-03 0.0
-9.820487e-03 -3.605183e-03 0.0
-8.948605e-03 -3.533069e-03 0.0
-8.097561e-03 -3.442932e-03 0.0
-7.271574e-03 -3.334852e-03 0.0
-6.474791e-03 -3.209027e-03 0.0
-5.711253e-03 -3.065788e-03 0.0
-4.984854e-03 -2.905622e-03 0.0
-4.299298e-03 -2.729203e-03 0.0
-3.658046e-03 -2.537419e-03 0.0
-3.064256e-03 -2.331424e-03 0.0
-2.520716e-03 -2.112687e-03 0.0
-2.029763e-03 -1.883070e-03 0.0
-1.593194e-03 -1.644922e-03 0.0
-1.212164e-03 -1.401196e-03 0.0
-8.870798e-04 -1.155606e-03 0.0
-6.174774e-04 -9.128237e-04 0.0
-4.019022e-04 -6.787137e-04 0.0
-2.377909e-04 -4.606409e-04 0.0
-1.213532e-04 -2.678482e-04 0.0
-4.747386e-05 -1.119407e-04 0.0
-9.644514e-06 -7.444433e-06 0.0
0.000000e+00 2.774433e-05 0.0
0.000000e+00 -2.784780e-05 0.0
0.000000e+00 -5.688874e-05 0.0
-3.039937e-05 6.795085e-05 0.0
-1.398166e-04 2.804296e-04 0.0
-3.203991e-04 5.556723e-04 0.0
-5.718605e-04 8.707037e-04 0.0
-8.936818e-04 1.208046e-03 0.0
-1.284753e-03 1.553899e-03 0.0
-1.743167e-03 1.897777e-03 0.0
-2.266271e-03 2.231876e-03 0.0
-2.850872e-03 2.550400e-03 0.0
-3.493440e-03 2.849011e-03 0.0
-4.190189e-03 3.124495e-03 0.0
-4.937019e-03 3.374654e-03 0.0
-5.729395e-03 3.598304e-03 0.0
-6.562290e-03 3.795255e-03 0.0
-7.430264e-03 3.966160e-03 0.0
-8.327706e-03 4.112235e-03 0.0
-9.249152e-03 4.234885e-03 0.0
-1.018958e-02 4.335374e-03 0.0
-1.114455e-02 4.414618e-03 0.0
-1.211023e-02 4.473169e-03 0.0
-1.308317e-02 4.511359e-03 0.0
-1.406006e-02 4.529548e-03 0.0
-1.503748e-02 4.528353e-03 0.0
-1.601179e-02 4.508786e-03 0.0
-1.697912e-02 4.472220e-03 0.0
-1.793554e-02 4.420218e-03 0.0
-1.887731e-02 4.354273e-03 0.0
-1.980107e-02 4.275569e-03 0.0
-2.070397e-02 4.184842e-03 0.0
-2.158361e-02 4.082392e-03 0.0
-2.243792e-02 3.968232e-03 0.0
-2.326495e-02 3.842307e-03 0.0
-2.406268e-02 3.704704e-03 0.0
-2.482888e-02 3.555769e-03 0.0
-2.556120e-02 3.396111e-03 0.0
-2.625715e-02 3.226500e-03 0.0
-2.691435e-02 3.047715e-03 0.0
-2.753058e-02 2.860398e-03 0.0
-2.810387e-02 2.664971e-03 0.0
-2.863251e-02 2.461636e-03 0.0
-2.911503e-02 2.250453e-03 0.0
-2.955003e-02 2.031446e-03 0.0
-2.993619e-02 1.804728e-03 0.0
-3.027217e-02 1.570572e-03 0.0
-3.055662e-02 1.329451e-03 0.0
-3.078820e-02 1.082013e-03 0.0
-3.096565e-02 8.290370e-04 0.0
-3.108785e-02 5.713661e-04 0.0
-3.115386e-02 3.098575e-04 0.0
-3.116297e-02 4.535417e-05 0.0
-3.111472e-02 -2.213151e-04 0.0
-3.100887e-02 -4.893335e-04 0.0
-3.084539e-02 -7.579024e-04 0.0
-3.062447e-02 -1.026197e-03 0.0
-3.034649e-02 -1.293332e-03 0.0
-3.001197e-02 -1.558339e-03 0.0
-2.962165e-02 -1.820170e-03 0.0
-2.917644e-02 -2.077707e-03 0.0
-2.867748e-02 -2.329789e-03 0.0
-2.812612e-02 -2.575241e-03 0.0
-2.752396e-02 -2.812898e-03 0.0
-2.687286e-02 -3.041620e-03 0.0
-2.617493e-02 -3.260299e-03 0.0
-2.543253e-02 -3.467859e-03 0.0
-2.464825e-02 -3.663247e-03 0.0
-2.382492e-02 -3.845425e-03 0.0
-2.296556e-02 -4.013372e-03 0.0
-2.207342e-02 -4.166076e-03 0.0
-2.115192e-02 -4.302552e-03 0.0
-2.020467e-02 -4.421846e-03 0.0
-1.923546e-02 -4.523048e-03 0.0
-1.824826e-02 -4.605314e-03 0.0
-1.724718e-02 -4.667865e-03 0.0
-1.623649e-02 -4.710006e-03 0.0
-1.522058e-02 -4.731127e-03 0.0
-1.420393e-02 -4.730706e-03 0.0
-1.319112e-02 -4.708316e-03 0.0