# vtk DataFile Version 3.0
Vector Field
ASCII
DATASET RECTILINEAR_GRID
DIMENSIONS 102 102 1
X_COORDINATES 102 double
0.000000 0.100000 0.200000 0.300000 0.400000 0.500000 0.600000 0.700000 0.800000 0.900000 1.000000 1.100000 1.200000 1.300000 1.400000 1.500000 1.600000 1.700000 1.800000 1.900000 2.000000 2.100000 2.200000 2.300000 2.400000 2.500000 2.600000 2.700000 2.800000 2.900000 3.000000 3.100000 3.200000 3.300000 3.400000 3.500000 3.600000 3.700000 3.800000 3.900000 4.000000 4.100000 4.200000 4.300000 4.400000 4.500000 4.600000 4.700000 4.800000 4.900000 5.000000 5.100000 5.200000 5.300000 5.400000 5.500000 5.600000 5.700000 5.800000 5.900000 6.000000 6.100000 6.200000 6.300000 6.400000 6.500000 6.600000 6.700000 6.800000 6.900000 7.000000 7.100000 7.200000 7.300000 7.400000 7.500000 7.600000 7.700000 7.800000 7.900000 8.000000 8.100000 8.200000 8.300000 8.400000 8.500000 8.600000 8.700000 8.800000 8.900000 9.000000 9.100000 9.200000 9.300000 9.400000 9.500000 9.600000 9.700000 9.800000 9.900000 10.000000 10.100000 
Y_COORDINATES 102 double
0.000000 0.100000 0.200000 0.300000 0.400000 0.500000 0.600000 0.700000 0.800000 0.900000 1.000000 1.100000 1.200000 1.300000 1.400000 1.500000 1.600000 1.700000 1.800000 1.900000 2.000000 2.100000 2.200000 2.300000 2.400000 2.500000 2.600000 2.700000 2.800000 2.900000 3.000000 3.100000 3.200000 3.300000 3.400000 3.500000 3.600000 3.700000 3.800000 3.900000 4.000000 4.100000 4.200000 4.300000 4.400000 4.500000 4.600000 4.700000 4.800000 4.900000 5.000000 5.100000 5.200000 5.300000 5.400000 5.500000 5.600000 5.700000 5.800000 5.900000 6.000000 6.100000 6.200000 6.300000 6.400000 6.500000 6.600000 6.700000 6.800000 6.900000 7.000000 7.100000 7.200000 7.300000 7.400000 7.500000 7.600000 7.700000 7.800000 7.900000 8.000000 8.100000 8.200000 8.300000 8.400000 8.500000 8.600000 8.700000 8.800000 8.900000 9.000000 9.100000 9.200000 9.300000 9.400000 9.500000 9.600000 9.700000 9.800000 9.900000 10.000000 10.100000 
Z_COORDINATES 1 double
0.0
POINT_DATA 10404
VECTORS Velocity double
0.000000e+00 0.000000e+00 0.0
-1.680019e-05 0.000000e+00 0.0
-2.960107e-05 0.000000e+00 0.0
-3.731570e-05 0.000000e+00 0.0
-3.819394e-05 0.000000e+00 0.0
-3.135334e-05 0.000000e+00 0.0
-1.550902e-05 0.000000e+00 0.0
1.118818e-05 0.000000e+00 0.0
5.027947e-05 0.000000e+00 0.0
1.020355e-04 0.000000e+00 0.0
1.651109e-04 0.000000e+00 0.0
2.370153e-04 0.000000e+00 0.0
3.150926e-04 0.000000e+00 0.0
3.974633e-04 0.000000e+00 0.0
4.834709e-04 0.000000e+00 0.0
5.734946e-04 0.000000e+00 0.0
6.683198e-04 0.000000e+00 0.0
7.684344e-04 0.000000e+00 0.0
8.735820e-04 0.000000e+00 0.0
9.827203e-04 0.000000e+00 0.0
1.094316e-03 0.000000e+00 0.0
1.206779e-03 0.000000e+00 0.0
1.318837e-03 0.000000e+00 0.0
1.429705e-03 0.000000e+00 0.0
1.539068e-03 0.000000e+00 0.0
1.646920e-03 0.000000e+00 0.0
1.753372e-03 0.000000e+00 0.0
1.858483e-03 0.000000e+00 0.0
1.962171e-03 0.000000e+00 0.0
2.064175e-03 0.000000e+00 0.0
2.164072e-03 0.000000e+00 0.0
2.261319e-03 0.000000e+00 0.0
2.355313e-03 0.000000e+00 0.0
2.445459e-03 0.000000e+00 0.0
2.531237e-03 0.000000e+00 0.0
2.612243e-03 0.000000e+00 0.0
2.688202e-03 0.000000e+00 0.0
2.758941e-03 0.000000e+00 0.0
2.824342e-03 0.000000e+00 0.0
2.884273e-03 0.000000e+00 0.0
2.938550e-03 0.000000e+00 0.0
2.986912e-03 0.000000e+00 0.0
3.029036e-03 0.000000e+00 0.0
3.064574e-03 0.000000e+00 0.0
3.093196e-03 0.000000e+00 0.0
3.114625e-03 0.000000e+00 0.0
3.128654e-03 0.000000e+00 0.0
3.135145e-03 0.000000e+00 0.0
3.134019e-03 0.000000e+00 0.0
3.125250e-03 0.000000e+00 0.0
3.108848e-03 0.000000e+00 0.0
3.084847e-03 0.000000e+00 0.0
3.053299e-03 0.000000e+00 0.0
3.014287e-03 0.000000e+00 0.0
2.967932e-03 0.000000e+00 0.0
2.914397e-03 0.000000e+00 0.0
2.853889e-03 0.000000e+00 0.0
2.786663e-03 0.000000e+00 0.0
2.713012e-03 0.000000e+00 0.0
2.633268e-03 0.000000e+00 0.0
2.547796e-03 0.000000e+00 0.0
2.456998e-03 0.000000e+00 0.0
2.361304e-03 0.000000e+00 0.0
2.261177e-03 0.000000e+00 0.0
2.157109e-03 0.000000e+00 0.0
2.049616e-03 0.000000e+00 0.0
1.939242e-03 0.000000e+00 0.0
1.826548e-03 0.000000e+00 0.0
1.712111e-03 0.000000e+00 0.0
1.596522e-03 0.000000e+00 0.0
1.480379e-03 0.000000e+00 0.0
1.364287e-03 0.000000e+00 0.0
1.248853e-03 0.000000e+00 0.0
1.134682e-03 0.000000e+00 0.0
1.022377e-03 0.000000e+00 0.0
9.125369e-04 0.000000e+00 0.0
8.057481e-04 0.000000e+00 0.0
7.025854e-04 0.000000e+00 0.0
6.036056e-04 0.000000e+00 0.0
5.093440e-04 0.000000e+00 0.0
4.203105e-04 0.000000e+00 0.0
3.369853e-04 0.000000e+00 0.0
2.598157e-04 0.000000e+00 0.0
1.892121e-04 0.000000e+00 0.0
1.255433e-04 0.000000e+00 0.0
6.913234e-05 0.000000e+00 0.0
2.024980e-05 0.000000e+00 0.0
-2.089275e-05 0.000000e+00 0.0
-5.415197e-05 0.000000e+00 0.0
-7.946479e-05 0.000000e+00 0.0
-9.686382e-05 0.000000e+00 0.0
-1.064986e-04 0.000000e+00 0.0
-1.086654e-04 0.000000e+00 0.0
-1.038496e-04 0.000000e+00 0.0
-9.278926e-05 0.000000e+00 0.0
-7.656826e-05 0.000000e+00 0.0
-5.675888e-05 0.000000e+00 0.0
-3.562634e-05 0.000000e+00 0.0
-1.637384e-05 0.000000e+00 0.0
-3.196436e-06 0.000000e+00 0.0
-0.000000e+00 0.000000e+00 0.0
0.000000e+00 0.000000e+00 0.0
0.000000e+00 2.468539e-07 0.0
6.564098e-06 -1.066707e-05 0.0
2.378070e-05 -1.403640e-05 0.0
3.817777e-05 -9.580730e-06 0.0
4.242317e-05 -2.071297e-06 0.0
3.359453e-05 5.673571e-06 0.0
1.207761e-05 1.356695e-05 0.0
-2.001725e-05 2.276793e-05 0.0
-6.053286e-05 3.420956e-05 0.0
-1.083921e-04 4.766256e-05 0.0
-1.638371e-04 6.168069e-05 0.0
-2.278783e-04 7.426559e-05 0.0
-3.013924e-04 8.378211e-05 0.0
-3.843829e-04 8.962564e-05 0.0
-4.757342e-04 9.235836e-05 0.0
-5.734877e-04 9.333800e-05 0.0
-6.754242e-04 9.409054e-05 0.0
-7.796482e-04 9.573764e-05 0.0
-8.849425e-04 9.869374e-05 0.0
-9.908135e-04 1.026823e-04 0.0
-1.097294e-03 1.069809e-04 0.0
-1.204639e-03 1.107471e-04 0.0
-1.313048e-03 1.132935e-04 0.0
-1.422486e-03 1.142475e-04 0.0
-1.532620e-03 1.135895e-04 0.0
-1.642849e-03 1.115979e-04 0.0
-1.752393e-03 1.087380e-04 0.0
-1.860413e-03 1.055274e-04 0.0
-1.966127e-03 1.024032e-04 0.0
-2.068907e-03 9.962145e-05 0.0
-2.168330e-03 9.720873e-05 0.0
-2.264176e-03 9.498180e-05 0.0
-2.356365e-03 9.262755e-05 0.0
-2.444863e-03 8.981654e-05 0.0
-2.529582e-03 8.631015e-05 0.0
-2.610319e-03 8.202510e-05 0.0
-2.686733e-03 7.703710e-05 0.0
-2.758385e-03 7.153011e-05 0.0
-2.824799e-03 6.571729e-05 0.0
-2.885526e-03 5.976703e-05 0.0
-2.940199e-03 5.375967e-05 0.0
-2.988536e-03 4.768484e-05 0.0
-3.030331e-03 4.147154e-05 0.0
-3.065418e-03 3.503266e-05 0.0
-3.093641e-03 2.830456e-05 0.0
-3.114831e-03 2.126872e-05 0.0
-3.128808e-03 1.395298e-05 0.0
-3.135394e-03 6.418422e-06 0.0
-3.134432e-03 -1.257437e-06 0.0
-3.125821e-03 -8.989448e-06 0.0
-3.109521e-03 -1.670941e-05 0.0
-3.085545e-03 -2.437243e-05 0.0
-3.053957e-03 -3.194645e-05 0.0
-3.014863e-03 -3.940379e-05 0.0
-2.968410e-03 -4.671573e-05 0.0
-2.914779e-03 -5.385023e-05 0.0
-2.854190e-03 -6.077244e-05 0.0
-2.786897e-03 -6.744633e-05 0.0
-2.713194e-03 -7.383636e-05 0.0
-2.633410e-03 -7.990817e-05 0.0
-2.547911e-03 -8.562824e-05 0.0
-2.457096e-03 -9.096312e-05 0.0
-2.361397e-03 -9.587871e-05 0.0
-2.261272e-03 -1.003402e-04 0.0
-2.157210e-03 -1.043131e-04 0.0
-2.049721e-03 -1.077647e-04 0.0
-1.939340e-03 -1.106659e-04 0.0
-1.826626e-03 -1.129933e-04 0.0
-1.712153e-03 -1.147295e-04 0.0
-1.596515e-03 -1.158637e-04 0.0
-1.480315e-03 -1.163905e-04 0.0
-1.364165e-03 -1.163094e-04 0.0
-1.248677e-03 -1.156235e-04 0.0
-1.134465e-03 -1.143369e-04 0.0
-1.022133e-03 -1.124547e-04 0.0
-9.122800e-04 -1.099835e-04 0.0
-8.054903e-04 -1.069316e-04 0.0
-7.023347e-04 -1.033101e-04 0.0
-6.033657e-04 -9.913382e-05 0.0
-5.091152e-04 -9.442186e-05 0.0
-4.200906e-04 -8.919789e-05 0.0
-3.367716e-04 -8.349028e-05 0.0
-2.596058e-04 -7.733194e-05 0.0
-1.890047e-04 -7.076036e-05 0.0
-1.253387e-04 -6.381769e-05 0.0
-6.893209e-05 -5.655113e-05 0.0
-2.005663e-05 -4.901370e-05 0.0
2.107560e-05 -4.126539e-05 0.0
5.432116e-05 -3.337494e-05 0.0
7.961733e-05 -2.542297e-05 0.0
9.699733e-05 -1.750518e-05 0.0
1.066115e-04 -9.738448e-06 0.0
1.087571e-04 -2.269262e-06 0.0
1.039204e-04 4.713150e-06 0.0
9.284010e-05 1.095675e-05 0.0
7.660117e-05 1.611535e-05 0.0
5.677673e-05 1.970083e-05 0.0
3.563273e-05 2.102020e-05 0.0
1.637312e-05 1.913563e-05 0.0
3.193918e-06 1.305516e-05 0.0
0.000000e+00 3.069885e-06 0.0
0.000000e+00 -3.073149e-06 0.0
0.000000e+00 1.709724e-05 0.0
1.593026e-05 -2.344324e-05 0.0
3.741151e-05 -3.202061e-05 0.0
4.602909e-05 -1.917714e-05 0.0
3.246899e-05 6.009967e-06 0.0
-7.316495e-06 3.837918e-05 0.0
-7.412356e-05 7.563897e-05 0.0
-1.674323e-04 1.164037e-04 0.0
-2.866750e-04 1.589340e-04 0.0
-4.316167e-04 2.008145e-04 0.0
-6.020450e-04 2.394559e-04 0.0
-7.972045e-04 2.729065e-04 0.0
-1.015402e-03 3.004372e-04 0.0
-1.254007e-03 3.226034e-04 0.0
-1.509810e-03 3.408107e-04 0.0
-1.779543e-03 3.566462e-04 0.0
-2.060326e-03 3.712907e-04 0.0
-2.349892e-03 3.852187e-04 0.0
-2.646569e-03 3.982254e-04 0.0
-2.949101e-03 4.096787e-04 0.0
-3.256422e-03 4.188420e-04 0.0
-3.567458e-03 4.251414e-04 0.0
-3.881020e-03 4.283161e-04 0.0
-4.195760e-03 4.284496e-04 0.0
-4.510197e-03 4.259122e-04 0.0
-4.822778e-03 4.212503e-04 0.0
-5.131958e-03 4.150503e-04 0.0
-5.436290e-03 4.078040e-04 0.0
-5.734493e-03 3.998045e-04 0.0
-6.025485e-03 3.910993e-04 0.0
-6.308363e-03 3.815170e-04 0.0
-6.582344e-03 3.707570e-04 0.0
-6.846677e-03 3.585123e-04 0.0
-7.100570e-03 3.445801e-04 0.0
-7.343139e-03 3.289228e-04 0.0
-7.573420e-03 3.116624e-04 0.0
-7.790398e-03 2.930203e-04 0.0
-7.993068e-03 2.732326e-04 0.0
-8.180483e-03 2.524770e-04 0.0
-8.351782e-03 2.308375e-04 0.0
-8.506190e-03 2.083107e-04 0.0
-8.643000e-03 1.848451e-04 0.0
-8.761552e-03 1.603893e-04 0.0
-8.861212e-03 1.349310e-04 0.0
-8.941373e-03 1.085146e-04 0.0
-9.001464e-03 8.123817e-05 0.0
-9.040974e-03 5.323677e-05 0.0
-9.059475e-03 2.466585e-05 0.0
-9.056643e-03 -4.307817e-06 0.0
-9.032286e-03 -3.350015e-05 0.0
-8.986342e-03 -6.274047e-05 0.0
-8.918868e-03 -9.188102e-05 0.0
-8.830037e-03 -1.207819e-04 0.0
-8.720128e-03 -1.493033e-04 0.0
-8.589529e-03 -1.773026e-04 0.0
-8.438733e-03 -2.046353e-04 0.0
-8.268344e-03 -2.311573e-04 0.0
-8.079070e-03 -2.567264e-04 0.0
-7.871728e-03 -2.812030e-04 0.0
-7.647233e-03 -3.044502e-04 0.0
-7.406602e-03 -3.263335e-04 0.0
-7.150942e-03 -3.467206e-04 0.0
-6.881452e-03 -3.654831e-04 0.0
-6.599412e-03 -3.824980e-04 0.0
-6.306184e-03 -3.976508e-04 0.0
-6.003198e-03 -4.108381e-04 0.0
-5.691954e-03 -4.219701e-04 0.0
-5.374009e-03 -4.309714e-04 0.0
-5.050968e-03 -4.377816e-04 0.0
-4.724476e-03 -4.423546e-04 0.0
-4.396207e-03 -4.446580e-04 0.0
-4.067851e-03 -4.446721e-04 0.0
-3.741107e-03 -4.423903e-04 0.0
-3.417668e-03 -4.378158e-04 0.0
-3.099216e-03 -4.309619e-04 0.0
-2.787410e-03 -4.218540e-04 0.0
-2.483881e-03 -4.105301e-04 0.0
-2.190217e-03 -3.970421e-04 0.0
-1.907956e-03 -3.814566e-04 0.0
-1.638576e-03 -3.638554e-04 0.0
-1.383484e-03 -3.443353e-04 0.0
-1.144004e-03 -3.230088e-04 0.0
-9.213650e-04 -3.000040e-04 0.0
-7.166887e-04 -2.754660e-04 0.0
-5.309758e-04 -2.495582e-04 0.0
-3.650896e-04 -2.224646e-04 0.0
-2.197379e-04 -1.943931e-04 0.0
-9.545157e-05 -1.655806e-04 0.0
7.442807e-06 -1.362994e-04 0.0
8.885514e-05 -1.068665e-04 0.0
1.489757e-04 -7.765773e-05 0.0
1.883305e-04 -4.912580e-05 0.0
2.078546e-04 -2.182616e-05 0.0
2.089897e-04 3.545224e-06 0.0
1.938138e-04 2.609976e-05 0.0
1.652102e-04 4.468630e-05 0.0
1.270731e-04 5.780521e-05 0.0
8.452304e-05 6.353749e-05 0.0
4.402615e-05 5.959977e-05 0.0
1.318704e-05 4.386157e-05 0.0
0.000000e+00 1.622427e-05 0.0
0.000000e+00 -1.622653e-05 0.0
0.000000e+00 3.370044e-05 0.0
1.488276e-05 -3.329784e-05 0.0
2.376158e-05 -4.175629e-05 0.0
1.014933e-05 -1.104392e-05 0.0
-3.529827e-05 4.451116e-05 0.0
-1.172850e-04 1.160321e-04 0.0
-2.381109e-04 1.973859e-04 0.0
-3.991064e-04 2.834272e-04 0.0
-6.011022e-04 3.693763e-04 0.0
-8.441901e-04 4.510465e-04 0.0
-1.127264e-03 5.254490e-04 0.0
-1.447794e-03 5.912207e-04 0.0
-1.802034e-03 6.485596e-04 0.0
-2.185574e-03 6.986905e-04 0.0
-2.593994e-03 7.431250e-04 0.0
-3.023353e-03 7.830318e-04 0.0
-3.470387e-03 8.189196e-04 0.0
-3.932437e-03 8.506586e-04 0.0
-4.407226e-03 8.777295e-04 0.0
-4.892614e-03 8.995388e-04 0.0
-5.386418e-03 9.156753e-04 0.0
-5.886337e-03 9.260477e-04 0.0
-6.389949e-03 9.309066e-04 0.0
-6.894764e-03 9.307797e-04 0.0
-7.398307e-03 9.263524e-04 0.0
-7.898198e-03 9.183281e-04 0.0
-8.392240e-03 9.072905e-04 0.0
-8.878466e-03 8.935989e-04 0.0
-9.355152e-03 8.773480e-04 0.0
-9.820765e-03 8.584052e-04 0.0
-1.027389e-02 8.365141e-04 0.0
-1.071311e-02 8.114256e-04 0.0
-1.113698e-02 7.830089e-04 0.0
-1.154394e-02 7.513045e-04 0.0
-1.193239e-02 7.165060e-04 0.0
-1.230071e-02 6.788892e-04 0.0
-1.264735e-02 6.387228e-04 0.0
-1.297084e-02 5.962009e-04 0.0
-1.326984e-02 5.514173e-04 0.0
-1.354311e-02 5.043860e-04 0.0
-1.378947e-02 4.550886e-04 0.0
-1.400780e-02 4.035265e-04 0.0
-1.419699e-02 3.497576e-04 0.0
-1.435600e-02 2.939090e-04 0.0
-1.448385e-02 2.361687e-04 0.0
-1.457965e-02 1.767668e-04 0.0
-1.464263e-02 1.159587e-04 0.0
-1.467218e-02 5.401780e-05 0.0
-1.466785e-02 -8.758543e-06 0.0
-1.462937e-02 -7.203153e-05 0.0
-1.455666e-02 -1.354595e-04 0.0
-1.444981e-02 -1.987181e-04 0.0
-1.430908e-02 -2.614883e-04 0.0
-1.413492e-02 -3.234517e-04 0.0
-1.392792e-02 -3.842905e-04 0.0
-1.368886e-02 -4.436884e-04 0.0
-1.341870e-02 -5.013322e-04 0.0
-1.311855e-02 -5.569126e-04 0.0
-1.278969e-02 -6.101242e-04 0.0
-1.243356e-02 -6.606665e-04 0.0
-1.205177e-02 -7.082451e-04 0.0
-1.164604e-02 -7.525747e-04 0.0
-1.121826e-02 -7.933826e-04 0.0
-1.077044e-02 -8.304133e-04 0.0
-1.030474e-02 -8.634317e-04 0.0
-9.823392e-03 -8.922270e-04 0.0
-9.328765e-03 -9.166138e-04 0.0
-8.823303e-03 -9.364331e-04 0.0
-8.309526e-03 -9.515524e-04 0.0
-7.790017e-03 -9.618657e-04 0.0
-7.267399e-03 -9.672934e-04 0.0
-6.744324e-03 -9.677836e-04 0.0
-6.223455e-03 -9.633133e-04 0.0
-5.707453e-03 -9.538857e-04 0.0
-5.198958e-03 -9.395305e-04 0.0
-4.700580e-03 -9.203057e-04 0.0
-4.214878e-03 -8.962992e-04 0.0
-3.744349e-03 -8.676296e-04 0.0
-3.291408e-03 -8.344466e-04 0.0
-2.858372e-03 -7.969318e-04 0.0
-2.447442e-03 -7.552988e-04 0.0
-2.060685e-03 -7.097947e-04 0.0
-1.700014e-03 -6.607013e-04 0.0
-1.367169e-03 -6.083377e-04 0.0
-1.063690e-03 -5.530643e-04 0.0
-7.908950e-04 -4.952880e-04 0.0
-5.498491e-04 -4.354690e-04 0.0
-3.413297e-04 -3.741314e-04 0.0
-1.657853e-04 -3.118761e-04 0.0
-2.328523e-05 -2.493996e-04 0.0
8.654205e-05 -1.875183e-04 0.0
1.645864e-04 -1.272035e-04 0.0
2.123546e-04 -6.962750e-05 0.0
2.320884e-04 -1.622158e-05 0.0
2.269111e-04 3.124423e-05 0.0
2.009966e-04 7.056819e-05 0.0
1.597470e-04 9.902207e-05 0.0
1.099483e-04 1.133032e-04 0.0
5.985722e-05 1.096580e-04 0.0
1.925660e-05 8.442938e-05 0.0
0.000000e+00 3.544809e-05 0.0
0.000000e+00 -3.544391e-05 0.0
0.000000e+00 4.154481e-05 0.0
6.561146e-06 -3.718005e-05 0.0
-7.182271e-06 -3.344650e-05 0.0
-5.288339e-05 2.761746e-05 0.0
-1.391953e-04 1.265552e-04 0.0
-2.716172e-04 2.497499e-04 0.0
-4.540778e-04 3.864636e-04 0.0
-6.894023e-04 5.277338e-04 0.0
-9.789966e-04 6.663290e-04 0.0
-1.322359e-03 7.971147e-04 0.0
-1.716922e-03 9.172700e-04 0.0
-2.158429e-03 1.026036e-03 0.0
-2.641692e-03 1.124025e-03 0.0
-3.161424e-03 1.212361e-03 0.0
-3.712830e-03 1.291980e-03 0.0
-4.291831e-03 1.363268e-03 0.0
-4.894957e-03 1.426069e-03 0.0
-5.519072e-03 1.479923e-03 0.0
-6.161101e-03 1.524362e-03 0.0
-6.817855e-03 1.559148e-03 0.0
-7.485981e-03 1.584395e-03 0.0
-8.161999e-03 1.600565e-03 0.0
-8.842398e-03 1.608396e-03 0.0
-9.523743e-03 1.608768e-03 0.0
-1.020278e-02 1.602550e-03 0.0
-1.087651e-02 1.590461e-03 0.0
-1.154227e-02 1.572965e-03 0.0
-1.219766e-02 1.550240e-03 0.0
-1.284055e-02 1.522225e-03 0.0
-1.346888e-02 1.488743e-03 0.0
-1.408063e-02 1.449638e-03 0.0
-1.467367e-02 1.404887e-03 0.0
-1.524581e-02 1.354643e-03 0.0
-1.579481e-02 1.299202e-03 0.0
-1.631843e-02 1.238916e-03 0.0
-1.681456e-02 1.174105e-03 0.0
-1.728123e-02 1.104990e-03 0.0
-1.771663e-02 1.031686e-03 0.0
-1.811904e-02 9.542344e-04 0.0
-1.848683e-02 8.726601e-04 0.0
-1.881842e-02 7.870282e-04 0.0
-1.911226e-02 6.974783e-04 0.0
-1.936684e-02 6.042307e-04 0.0
-1.958077e-02 5.075732e-04 0.0
-1.975275e-02 4.078405e-04 0.0
-1.988164e-02 3.053984e-04 0.0
-1.996650e-02 2.006392e-04 0.0
-2.000656e-02 9.399029e-05 0.0
-2.000127e-02 -1.406942e-05 0.0
-1.995029e-02 -1.229887e-04 0.0
-1.985353e-02 -2.321938e-04 0.0
-1.971109e-02 -3.411241e-04 0.0
-1.952333e-02 -4.492253e-04 0.0
-1.929081e-02 -5.559471e-04 0.0
-1.901436e-02 -6.607430e-04 0.0
-1.869500e-02 -7.630705e-04 0.0
-1.833399e-02 -8.623909e-04 0.0
-1.793282e-02 -9.581705e-04 0.0
-1.749317e-02 -1.049882e-03 0.0
-1.701696e-02 -1.137006e-03 0.0
-1.650630e-02 -1.219041e-03 0.0
-1.596349e-02 -1.295502e-03 0.0
-1.539104e-02 -1.365932e-03 0.0
-1.479160e-02 -1.429905e-03 0.0
-1.416803e-02 -1.487027e-03 0.0
-1.352331e-02 -1.536947e-03 0.0
-1.286057e-02 -1.579348e-03 0.0
-1.218304e-02 -1.613958e-03 0.0
-1.149405e-02 -1.640543e-03 0.0
-1.079703e-02 -1.658915e-03 0.0
-1.009545e-02 -1.668931e-03 0.0
-9.392803e-03 -1.670495e-03 0.0
-8.692630e-03 -1.663564e-03 0.0
-7.998453e-03 -1.648144e-03 0.0
-7.313772e-03 -1.624287e-03 0.0
-6.642044e-03 -1.592099e-03 0.0
-5.986663e-03 -1.551733e-03 0.0
-5.350936e-03 -1.503399e-03 0.0
-4.738059e-03 -1.447357e-03 0.0
-4.151096e-03 -1.383922e-03 0.0
-3.592955e-03 -1.313465e-03 0.0
-3.066362e-03 -1.236413e-03 0.0
-2.573832e-03 -1.153257e-03 0.0
-2.117646e-03 -1.064552e-03 0.0
-1.699816e-03 -9.709247e-04 0.0
-1.322051e-03 -8.730852e-04 0.0
-9.857177e-04 -7.718349e-04 0.0
-6.917988e-04 -6.680842e-04 0.0
-4.408365e-04 -5.628727e-04 0.0
-2.328729e-04 -4.573974e-04 0.0
-6.737615e-05 -3.530490e-04 0.0
5.684680e-05 -2.514599e-04 0.0
1.417518e-04 -1.545656e-04 0.0
1.901819e-04 -6.468462e-05 0.0
2.060014e-04 1.539207e-05 0.0
1.942419e-04 8.229501e-05 0.0
1.612475e-04 1.319835e-04 0.0
1.148139e-04 1.597039e-04 0.0
6.435189e-05 1.600871e-04 0.0
2.125253e-05 1.274959e-04 0.0
0.000000e+00 5.666776e-05 0.0
0.000000e+00 -5.665233e-05 0.0
0.000000e+00 3.629041e-05 0.0
-6.610869e-06 -3.320934e-05 0.0
-4.730596e-05 -9.758607e-08 0.0
-1.302931e-04 1.059747e-04 0.0
-2.635657e-04 2.610091e-04 0.0
-4.533850e-04 4.464300e-04 0.0
-7.046939e-04 6.472163e-04 0.0
-1.020677e-03 8.514744e-04 0.0
-1.402107e-03 1.050562e-03 0.0
-1.847101e-03 1.239100e-03 0.0
-2.351531e-03 1.414518e-03 0.0
-2.909928e-03 1.576169e-03 0.0
-3.516489e-03 1.724305e-03 0.0
-4.165810e-03 1.859258e-03 0.0
-4.853188e-03 1.981013e-03 0.0
-5.574520e-03 2.089175e-03 0.0
-6.325998e-03 2.183186e-03 0.0
-7.103797e-03 2.262603e-03 0.0
-7.903887e-03 2.327308e-03 0.0
-8.721989e-03 2.377599e-03 0.0
-9.553648e-03 2.414161e-03 0.0
-1.039437e-02 2.437971e-03 0.0
-1.123976e-02 2.450140e-03 0.0
-1.208568e-02 2.451752e-03 0.0
-1.292831e-02 2.443702e-03 0.0
-1.376425e-02 2.426599e-03 0.0
-1.459043e-02 2.400738e-03 0.0
-1.540407e-02 2.366171e-03 0.0
-1.620252e-02 2.322834e-03 0.0
-1.698313e-02 2.270703e-03 0.0
-1.774314e-02 2.209900e-03 0.0
-1.847971e-02 2.140728e-03 0.0
-1.918998e-02 2.063614e-03 0.0
-1.987111e-02 1.979017e-03 0.0
-2.052044e-02 1.887329e-03 0.0
-2.113548e-02 1.788821e-03 0.0
-2.171392e-02 1.683642e-03 0.0
-2.225359e-02 1.571871e-03 0.0
-2.275241e-02 1.453589e-03 0.0
-2.320834e-02 1.328932e-03 0.0
-2.361937e-02 1.198129e-03 0.0
-2.398357e-02 1.061499e-03 0.0
-2.429909e-02 9.194323e-04 0.0
-2.456422e-02 7.723713e-04 0.0
-2.477744e-02 6.207949e-04 0.0
-2.493741e-02 4.652179e-04 0.0
-2.504304e-02 3.062036e-04 0.0
-2.509342e-02 1.443806e-04 0.0
-2.508791e-02 -1.953759e-05 0.0
-2.502611e-02 -1.847369e-04 0.0
-2.490789e-02 -3.503635e-04 0.0
-2.473341e-02 -5.155753e-04 0.0
-2.450308e-02 -6.795377e-04 0.0
-2.421761e-02 -8.414220e-04 0.0
-2.387798e-02 -1.000403e-03 0.0
-2.348546e-02 -1.155661e-03 0.0
-2.304158e-02 -1.306377e-03 0.0
-2.254814e-02 -1.451742e-03 0.0
-2.200721e-02 -1.590958e-03 0.0
-2.142111e-02 -1.723244e-03 0.0
-2.079242e-02 -1.847848e-03 0.0
-2.012395e-02 -1.964050e-03 0.0
-1.941875e-02 -2.071170e-03 0.0
-1.868009e-02 -2.168576e-03 0.0
-1.791142e-02 -2.255684e-03 0.0
-1.711638e-02 -2.331960e-03 0.0
-1.629880e-02 -2.396930e-03 0.0
-1.546260e-02 -2.450174e-03 0.0
-1.461185e-02 -2.491334e-03 0.0
-1.375071e-02 -2.520121e-03 0.0
-1.288341e-02 -2.536313e-03 0.0
-1.201423e-02 -2.539763e-03 0.0
-1.114747e-02 -2.530406e-03 0.0
-1.028744e-02 -2.508252e-03 0.0
-9.438401e-03 -2.473384e-03 0.0
-8.604585e-03 -2.425962e-03 0.0
-7.790129e-03 -2.366225e-03 0.0
-6.999068e-03 -2.294489e-03 0.0
-6.235300e-03 -2.211150e-03 0.0
-5.502558e-03 -2.116687e-03 0.0
-4.804383e-03 -2.011665e-03 0.0
-4.144088e-03 -1.896735e-03 0.0
-3.524730e-03 -1.772645e-03 0.0
-2.949071e-03 -1.640243e-03 0.0
-2.419542e-03 -1.500487e-03 0.0
-1.938202e-03 -1.354461e-03 0.0
-1.506687e-03 -1.203385e-03 0.0
-1.126164e-03 -1.048643e-03 0.0
-7.972676e-04 -8.918047e-04 0.0
-5.200313e-04 -7.346683e-04 0.0
-2.938125e-04 -5.793017e-04 0.0
-1.172022e-04 -4.281036e-04 0.0
1.207552e-05 -2.838764e-04 0.0
9.727256e-05 -1.499144e-04 0.0
1.427385e-04 -3.010650e-05 0.0
1.540445e-04 7.095623e-05 0.0
1.381123e-04 1.478827e-04 0.0
1.033630e-04 1.944201e-04 0.0
5.995345e-05 2.034638e-04 0.0
2.026823e-05 1.671483e-04 0.0
0.000000e+00 7.690319e-05 0.0
0.000000e+00 -7.687270e-05 0.0
0.000000e+00 1.689647e-05 0.0
-2.180983e-05 -1.927629e-05 0.0
-9.035873e-05 6.312084e-05 0.0
-2.134789e-04 2.296566e-04 0.0
-3.985388e-04 4.526520e-04 0.0
-6.519086e-04 7.093425e-04 0.0
-9.782908e-04 9.816454e-04 0.0
-1.379844e-03 1.256043e-03 0.0
-1.855734e-03 1.523391e-03 0.0
-2.402438e-03 1.778293e-03 0.0
-3.014661e-03 2.018016e-03 0.0
-3.686453e-03 2.241294e-03 0.0
-4.412075e-03 2.447348e-03 0.0
-5.186400e-03 2.635361e-03 0.0
-6.004863e-03 2.804380e-03 0.0
-6.863156e-03 2.953499e-03 0.0
-7.756886e-03 3.082103e-03 0.0
-8.681365e-03 3.190055e-03 0.0
-9.631554e-03 3.277748e-03 0.0
-1.060216e-02 3.346044e-03 0.0
-1.158779e-02 3.396144e-03 0.0
-1.258314e-02 3.429403e-03 0.0
-1.358321e-02 3.447142e-03 0.0
-1.458337e-02 3.450473e-03 0.0
-1.557944e-02 3.440184e-03 0.0
-1.656770e-02 3.416726e-03 0.0
-1.754472e-02 3.380293e-03 0.0
-1.850724e-02 3.330976e-03 0.0
-1.945197e-02 3.268915e-03 0.0
-2.037555e-02 3.194415e-03 0.0
-2.127452e-02 3.107961e-03 0.0
-2.214539e-02 3.010149e-03 0.0
-2.298475e-02 2.901576e-03 0.0
-2.378938e-02 2.782736e-03 0.0
-2.455627e-02 2.653969e-03 0.0
-2.528263e-02 2.515483e-03 0.0
-2.596582e-02 2.367414e-03 0.0
-2.660330e-02 2.209907e-03 0.0
-2.719256e-02 2.043182e-03 0.0
-2.773116e-02 1.867559e-03 0.0
-2.821671e-02 1.683457e-03 0.0
-2.864693e-02 1.491372e-03 0.0
-2.901969e-02 1.291850e-03 0.0
-2.933306e-02 1.085482e-03 0.0
-2.958530e-02 8.729037e-04 0.0
-2.977493e-02 6.548119e-04 0.0
-2.990068e-02 4.319854e-04 0.0
-2.996154e-02 2.053028e-04 0.0
-2.995677e-02 -2.424381e-05 0.0
-2.988591e-02 -2.555399e-04 0.0
-2.974881e-02 -4.874157e-04 0.0
-2.954566e-02 -7.187104e-04 0.0
-2.927694e-02 -9.482690e-04 0.0
-2.894348e-02 -1.174939e-03 0.0
-2.854640e-02 -1.397571e-03 0.0
-2.808717e-02 -1.615015e-03 0.0
-2.756757e-02 -1.826130e-03 0.0
-2.698968e-02 -2.029786e-03 0.0
-2.635591e-02 -2.224874e-03 0.0
-2.566894e-02 -2.410316e-03 0.0
-2.493177e-02 -2.585076e-03 0.0
-2.414768e-02 -2.748162e-03 0.0
-2.332020e-02 -2.898639e-03 0.0
-2.245312e-02 -3.035629e-03 0.0
-2.155047e-02 -3.158321e-03 0.0
-2.061646e-02 -3.265970e-03 0.0
-1.965551e-02 -3.357907e-03 0.0
-1.867220e-02 -3.433542e-03 0.0
-1.767124e-02 -3.492373e-03 0.0
-1.665746e-02 -3.533991e-03 0.0
-1.563578e-02 -3.558087e-03 0.0
-1.461117e-02 -3.564458e-03 0.0
-1.358864e-02 -3.553010e-03 0.0
-1.257319e-02 -3.523758e-03 0.0
-1.156979e-02 -3.476821e-03 0.0
-1.058336e-02 -3.412424e-03 0.0
-9.618706e-03 -3.330898e-03 0.0
-8.680530e-03 -3.232686e-03 0.0
-7.773362e-03 -3.118340e-03 0.0
-6.901542e-03 -2.988532e-03 0.0
-6.069183e-03 -2.844052e-03 0.0
-5.280135e-03 -2.685815e-03 0.0
-4.537944e-03 -2.514871e-03 0.0
-3.845813e-03 -2.332411e-03 0.0
-3.206556e-03 -2.139782e-03 0.0
-2.622553e-03 -1.938501e-03 0.0
-2.095699e-03 -1.730276e-03 0.0
-1.627342e-03 -1.517036e-03 0.0
-1.218222e-03 -1.300960e-03 0.0
-8.684024e-04 -1.084522e-03 0.0
-5.771903e-04 -8.705473e-04 0.0
-3.430512e-04 -6.622757e-04 0.0
-1.635171e-04 -4.634434e-04 0.0
-3.508713e-05 -2.783770e-04 0.0
4.687469e-05 -1.121008e-04 0.0
8.824753e-05 2.955076e-05 0.0
9.627779e-05 1.398196e-04 0.0
7.973264e-05 2.109326e-04 0.0
4.915176e-05 2.340122e-04 0.0
1.730617e-05 1.989614e-04 0.0
0.000000e+00 9.417687e-05 0.0
0.000000e+00 -9.412824e-05 0.0
0.000000e+00 -1.534286e-05 0.0
-3.623652e-05 6.981291e-06 0.0
-1.323496e-04 1.589189e-04 0.0
-2.977807e-04 4.010017e-04 0.0
-5.388363e-04 7.029590e-04 0.0
-8.607943e-04 1.039382e-03 0.0
-1.266690e-03 1.390709e-03 0.0
-1.756589e-03 1.742931e-03 0.0
-2.327682e-03 2.086802e-03 0.0
-2.975101e-03 2.416620e-03 0.0
-3.693029e-03 2.728848e-03 0.0
-4.475636e-03 3.020986e-03 0.0
-5.317564e-03 3.290912e-03 0.0
-6.213939e-03 3.536704e-03 0.0
-7.160090e-03 3.756763e-03 0.0
-8.151210e-03 3.950029e-03 0.0
-9.182112e-03 4.116121e-03 0.0
-1.024717e-02 4.255362e-03 0.0
-1.134041e-02 4.368677e-03 0.0
-1.245566e-02 4.457422e-03 0.0
-1.358683e-02 4.523163e-03 0.0
-1.472808e-02 4.567453e-03 0.0
-1.587400e-02 4.591631e-03 0.0
-1.701969e-02 4.596696e-03 0.0
-1.816073e-02 4.583281e-03 0.0
-1.929305e-02 4.551758e-03 0.0
-2.041277e-02 4.502397e-03 0.0
-2.151601e-02 4.435541e-03 0.0
-2.259878e-02 4.351708e-03 0.0
-2.365700e-02 4.251600e-03 0.0
-2.468661e-02 4.136014e-03 0.0
-2.568362e-02 4.005717e-03 0.0
-2.664426e-02 3.861335e-03 0.0
-2.756502e-02 3.703312e-03 0.0
-2.844262e-02 3.531938e-03 0.0
-2.927395e-02 3.347428e-03 0.0
-3.005598e-02 3.150011e-03 0.0
-3.078577e-02 2.939999e-03 0.0
-3.146041e-02 2.717810e-03 0.0
-3.207707e-02 2.483965e-03 0.0
-3.263303e-02 2.239061e-03 0.0
-3.312575e-02 1.983748e-03 0.0
-3.355286e-02 1.718722e-03 0.0
-3.391223e-02 1.444734e-03 0.0
-3.420195e-02 1.162609e-03 0.0
-3.442036e-02 8.732689e-04 0.0
-3.456604e-02 5.777513e-04 0.0
-3.463788e-02 2.772225e-04 0.0
-3.463504e-02 -2.701569e-05 0.0
-3.455702e-02 -3.335207e-04 0.0
-3.440364e-02 -6.407756e-04 0.0
-3.417511e-02 -9.472659e-04 0.0
-3.387197e-02 -1.251476e-03 0.0
-3.349514e-02 -1.551887e-03 0.0
-3.304589e-02 -1.846978e-03 0.0
-3.252584e-02 -2.135234e-03 0.0
-3.193698e-02 -2.415148e-03 0.0
-3.128166e-02 -2.685238e-03 0.0
-3.056257e-02 -2.944052e-03 0.0
-2.978275e-02 -3.190181e-03 0.0
-2.894555e-02 -3.422271e-03 0.0
-2.805466e-02 -3.639023e-03 0.0
-2.711406e-02 -3.839209e-03 0.0
-2.612800e-02 -4.021672e-03 0.0
-2.510100e-02 -4.185335e-03 0.0
-2.403780e-02 -4.329212e-03 0.0
-2.294336e-02 -4.452414e-03 0.0
-2.182284e-02 -4.554158e-03 0.0
-2.068153e-02 -4.633781e-03 0.0
-1.952488e-02 -4.690742e-03 0.0
-1.835841e-02 -4.724634e-03 0.0
-1.718774e-02 -4.735189e-03 0.0
-1.601852e-02 -4.722282e-03 0.0
-1.485638e-02 -4.685931e-03 0.0
-1.370693e-02 -4.626291e-03 0.0
-1.257572e-02 -4.543656e-03 0.0
-1.146818e-02 -4.438461e-03 0.0
-1.038960e-02 -4.311288e-03 0.0
-9.345098e-03 -4.162868e-03 0.0
-8.339575e-03 -3.994087e-03 0.0
-7.377670e-03 -3.805992e-03 0.0
-6.463728e-03 -3.599796e-03 0.0
-5.601750e-03 -3.376889e-03 0.0
-4.795350e-03 -3.138851e-03 0.0
-4.047706e-03 -2.887464e-03 0.0
-3.361510e-03 -2.624734e-03 0.0
-2.738909e-03 -2.352914e-03 0.0
-2.181445e-03 -2.074535e-03 0.0
-1.689992e-03 -1.792446e-03 0.0
-1.264687e-03 -1.509861e-03 0.0
-9.048505e-04 -1.230417e-03 0.0
-6.089105e-04 -9.582484e-04 0.0
-3.743175e-04 -6.980689e-04 0.0
-1.974577e-04 -4.552690e-04 0.0
-7.356423e-05 -2.360262e-04 0.0
3.378065e-06 -4.742363e-05 0.0
4.074198e-05 1.024235e-04 0.0
4.740559e-05 2.042371e-04 0.0
3.396747e-05 2.474184e-04 0.0
1.309129e-05 2.198057e-04 0.0
0.000000e+00 1.072363e-04 0.0
0.000000e+00 -1.071670e-04 0.0
0.000000e+00 -5.826935e-05 0.0
-4.791666e-05 4.735821e-05 0.0
-1.716647e-04 2.878908e-04 0.0
-3.816284e-04 6.197882e-04 0.0
-6.821145e-04 1.011412e-03 0.0
-1.075981e-03 1.436499e-03 0.0
-1.563538e-03 1.875348e-03 0.0
-2.142361e-03 2.314029e-03 0.0
-2.807920e-03 2.743047e-03 0.0
-3.554595e-03 3.155853e-03 0.0
-4.376593e-03 3.547570e-03 0.0
-5.268460e-03 3.914214e-03 0.0
-6.225127e-03 4.252415e-03 0.0
-7.241663e-03 4.559477e-03 0.0
-8.312946e-03 4.833544e-03 0.0
-9.433417e-03 5.073703e-03 0.0
-1.059700e-02 5.279971e-03 0.0
-1.179716e-02 5.453153e-03 0.0
-1.302714e-02 5.594631e-03 0.0
-1.428012e-02 5.706097e-03 0.0
-1.554955e-02 5.789287e-03 0.0
-1.682928e-02 5.845750e-03 0.0
-1.811373e-02 5.876694e-03 0.0
-1.939781e-02 5.882956e-03 0.0
-2.067682e-02 5.865103e-03 0.0
-2.194626e-02 5.823615e-03 0.0
-2.320165e-02 5.759059e-03 0.0
-2.443840e-02 5.672198e-03 0.0
-2.565183e-02 5.563980e-03 0.0
-2.683728e-02 5.435433e-03 0.0
-2.799023e-02 5.287525e-03 0.0
-2.910640e-02 5.121049e-03 0.0
-3.018175e-02 4.936582e-03 0.0
-3.121254e-02 4.734528e-03 0.0
-3.219517e-02 4.515207e-03 0.0
-3.312615e-02 4.278954e-03 0.0
-3.400207e-02 4.026188e-03 0.0
-3.481957e-02 3.757435e-03 0.0
-3.557536e-02 3.473321e-03 0.0
-3.626630e-02 3.174543e-03 0.0
-3.688941e-02 2.861850e-03 0.0
-3.744191e-02 2.536038e-03 0.0
-3.792124e-02 2.197965e-03 0.0
-3.832508e-02 1.848577e-03 0.0
-3.865133e-02 1.488926e-03 0.0
-3.889817e-02 1.120198e-03 0.0
-3.906406e-02 7.437211e-04 0.0
-3.914774e-02 3.609744e-04 0.0
-3.914830e-02 -2.640787e-05 0.0
-3.906518e-02 -4.166307e-04 0.0
-3.889820e-02 -8.077984e-04 0.0
-3.864755e-02 -1.198006e-03 0.0
-3.831382e-02 -1.585338e-03 0.0
-3.789801e-02 -1.967872e-03 0.0
-3.740149e-02 -2.343681e-03 0.0
-3.682604e-02 -2.710850e-03 0.0
-3.617383e-02 -3.067479e-03 0.0
-3.544743e-02 -3.411703e-03 0.0
-3.464980e-02 -3.741697e-03 0.0
-3.378427e-02 -4.055689e-03 0.0
-3.285454e-02 -4.351969e-03 0.0
-3.186463e-02 -4.628897e-03 0.0
-3.081892e-02 -4.884911e-03 0.0
-2.972208e-02 -5.118541e-03 0.0
-2.857906e-02 -5.328415e-03 0.0
-2.739508e-02 -5.513277e-03 0.0
-2.617560e-02 -5.671997e-03 0.0
-2.492628e-02 -5.803581e-03 0.0
-2.365297e-02 -5.907189e-03 0.0
-2.236165e-02 -5.982136e-03 0.0
-2.105844e-02 -6.027905e-03 0.0
-1.974951e-02 -6.044152e-03 0.0
-1.844110e-02 -6.030714e-03 0.0
-1.713945e-02 -5.987607e-03 0.0
-1.585073e-02 -5.915022e-03 0.0
-1.458108e-02 -5.813325e-03 0.0
-1.333651e-02 -5.683064e-03 0.0
-1.212285e-02 -5.524973e-03 0.0
-1.094578e-02 -5.339977e-03 0.0