# vtk DataFile Version 3.0
Vector Field
ASCII
DATASET RECTILINEAR_GRID
DIMENSIONS 102 102 1
X_COORDINATES 102 double
0.000000 0.100000 0.200000 0.300000 0.400000 0.500000 0.600000 0.700000 0.800000 0.900000 1.000000 1.100000 1.200000 1.300000 1.400000 1.500000 1.600000 1.700000 1.800000 1.900000 2.000000 2.100000 2.200000 2.300000 2.400000 2.500000 2.600000 2.700000 2.800000 2.900000 3.000000 3.100000 3.200000 3.300000 3.400000 3.500000 3.600000 3.700000 3.800000 3.900000 4.000000 4.100000 4.200000 4.300000 4.400000 4.500000 4.600000 4.700000 4.800000 4.900000 5.000000 5.100000 5.200000 5.300000 5.400000 5.500000 5.600000 5.700000 5.800000 5.900000 6.000000 6.100000 6.200000 6.300000 6.400000 6.500000 6.600000 6.700000 6.800000 6.900000 7.000000 7.100000 7.200000 7.300000 7.400000 7.500000 7.600000 7.700000 7.800000 7.900000 8.000000 8.100000 8.200000 8.300000 8.400000 8.500000 8.600000 8.700000 8.800000 8.900000 9.000000 9.100000 9.200000 9.300000 9.400000 9.500000 9.600000 9.700000 9.800000 9.900000 10.000000 10.100000 
Y_COORDINATES 102 double
0.000000 0.100000 0.200000 0.300000 0.400000 0.500000 0.600000 0.700000 0.800000 0.900000 1.000000 1.100000 1.200000 1.300000 1.400000 1.500000 1.600000 1.700000 1.800000 1.900000 2.000000 2.100000 2.200000 2.300000 2.400000 2.500000 2.600000 2.700000 2.800000 2.900000 3.000000 3.100000 3.200000 3.300000 3.400000 3.500000 3.600000 3.700000 3.800000 3.900000 4.000000 4.100000 4.200000 4.300000 4.400000 4.500000 4.600000 4.700000 4.800000 4.900000 5.000000 5.100000 5.200000 5.300000 5.400000 5.500000 5.600000 5.700000 5.800000 5.900000 6.000000 6.100000 6.200000 6.300000 6.400000 6.500000 6.600000 6.700000 6.800000 6.900000 7.000000 7.100000 7.200000 7.300000 7.400000 7.500000 7.600000 7.700000 7.800000 7.900000 8.000000 8.100000 8.200000 8.300000 8.400000 8.500000 8.600000 8.700000 8.800000 8.900000 9.000000 9.100000 9.200000 9.300000 9.400000 9.500000 9.600000 9.700000 9.800000 9.900000 10.000000 10.100000 
Z_COORDINATES 1 double
0.0
POINT_DATA 10404
VECTORS Velocity double
0.000000e+00 0.000000e+00 0.0
-1.930647e-05 0.000000e+00 0.0
-4.372614e-05 0.000000e+00 0.0
-5.793260e-05 0.000000e+00 0.0
-5.786416e-05 0.000000e+00 0.0
-4.460227e-05 0.000000e+00 0.0
-2.108682e-05 0.000000e+00 0.0
1.062239e-05 0.000000e+00 0.0
5.048430e-05 0.000000e+00 0.0
1.000769e-04 0.000000e+00 0.0
1.613191e-04 0.000000e+00 0.0
2.351873e-04 0.000000e+00 0.0
3.210785e-04 0.000000e+00 0.0
4.170035e-04 0.000000e+00 0.0
5.203498e-04 0.000000e+00 0.0
6.287492e-04 0.000000e+00 0.0
7.406408e-04 0.000000e+00 0.0
8.553587e-04 0.000000e+00 0.0
9.728305e-04 0.000000e+00 0.0
1.093118e-03 0.000000e+00 0.0
1.216047e-03 0.000000e+00 0.0
1.341051e-03 0.000000e+00 0.0
1.467251e-03 0.000000e+00 0.0
1.593659e-03 0.000000e+00 0.0
1.719384e-03 0.000000e+00 0.0
1.843762e-03 0.000000e+00 0.0
1.966356e-03 0.000000e+00 0.0
2.086875e-03 0.000000e+00 0.0
2.205057e-03 0.000000e+00 0.0
2.320582e-03 0.000000e+00 0.0
2.433035e-03 0.000000e+00 0.0
2.541928e-03 0.000000e+00 0.0
2.646750e-03 0.000000e+00 0.0
2.747022e-03 0.000000e+00 0.0
2.842323e-03 0.000000e+00 0.0
2.932292e-03 0.000000e+00 0.0
3.016606e-03 0.000000e+00 0.0
3.094949e-03 0.000000e+00 0.0
3.166992e-03 0.000000e+00 0.0
3.232381e-03 0.000000e+00 0.0
3.290751e-03 0.000000e+00 0.0
3.341737e-03 0.000000e+00 0.0
3.384993e-03 0.000000e+00 0.0
3.420210e-03 0.000000e+00 0.0
3.447114e-03 0.000000e+00 0.0
3.465477e-03 0.000000e+00 0.0
3.475106e-03 0.000000e+00 0.0
3.475854e-03 0.000000e+00 0.0
3.467628e-03 0.000000e+00 0.0
3.450398e-03 0.000000e+00 0.0
3.424185e-03 0.000000e+00 0.0
3.389059e-03 0.000000e+00 0.0
3.345136e-03 0.000000e+00 0.0
3.292583e-03 0.000000e+00 0.0
3.231615e-03 0.000000e+00 0.0
3.162495e-03 0.000000e+00 0.0
3.085531e-03 0.000000e+00 0.0
3.001076e-03 0.000000e+00 0.0
2.909526e-03 0.000000e+00 0.0
2.811321e-03 0.000000e+00 0.0
2.706938e-03 0.000000e+00 0.0
2.596899e-03 0.000000e+00 0.0
2.481762e-03 0.000000e+00 0.0
2.362119e-03 0.000000e+00 0.0
2.238597e-03 0.000000e+00 0.0
2.111846e-03 0.000000e+00 0.0
1.982539e-03 0.000000e+00 0.0
1.851366e-03 0.000000e+00 0.0
1.719031e-03 0.000000e+00 0.0
1.586245e-03 0.000000e+00 0.0
1.453724e-03 0.000000e+00 0.0
1.322188e-03 0.000000e+00 0.0
1.192350e-03 0.000000e+00 0.0
1.064921e-03 0.000000e+00 0.0
9.405999e-04 0.000000e+00 0.0
8.200677e-04 0.000000e+00 0.0
7.039860e-04 0.000000e+00 0.0
5.929901e-04 0.000000e+00 0.0
4.876853e-04 0.000000e+00 0.0
3.886432e-04 0.000000e+00 0.0
2.963974e-04 0.000000e+00 0.0
2.114399e-04 0.000000e+00 0.0
1.342159e-04 0.000000e+00 0.0
6.511930e-05 0.000000e+00 0.0
4.485934e-06 0.000000e+00 0.0
-4.741294e-05 0.000000e+00 0.0
-9.037890e-05 0.000000e+00 0.0
-1.242967e-04 0.000000e+00 0.0
-1.491454e-04 0.000000e+00 0.0
-1.650134e-04 0.000000e+00 0.0
-1.721184e-04 0.000000e+00 0.0
-1.708335e-04 0.000000e+00 0.0
-1.617234e-04 0.000000e+00 0.0
-1.455952e-04 0.000000e+00 0.0
-1.235701e-04 0.000000e+00 0.0
-9.718788e-05 0.000000e+00 0.0
-6.855513e-05 0.000000e+00 0.0
-4.053985e-05 0.000000e+00 0.0
-1.694992e-05 0.000000e+00 0.0
-2.348367e-06 0.000000e+00 0.0
-0.000000e+00 0.000000e+00 0.0
0.000000e+00 0.000000e+00 0.0
0.000000e+00 6.673763e-07 0.0
1.996554e-05 8.844363e-07 0.0
2.379796e-05 -2.195079e-05 0.0
2.981694e-05 -3.010860e-05 0.0
3.537079e-05 -2.298546e-05 0.0
3.670672e-05 -4.925025e-06 0.0
2.867390e-05 1.778960e-05 0.0
6.340873e-06 3.899104e-05 0.0
-3.314894e-05 5.477481e-05 0.0
-8.967310e-05 6.443538e-05 0.0
-1.605763e-04 6.990607e-05 0.0
-2.420642e-04 7.420554e-05 0.0
-3.307419e-04 7.978734e-05 0.0
-4.245892e-04 8.755303e-05 0.0
-5.230815e-04 9.681432e-05 0.0
-6.266239e-04 1.059878e-04 0.0
-7.357320e-04 1.135256e-04 0.0
-8.503949e-04 1.186021e-04 0.0
-9.698579e-04 1.213104e-04 0.0
-1.092809e-03 1.224063e-04 0.0
-1.217783e-03 1.228270e-04 0.0
-1.343537e-03 1.232567e-04 0.0
-1.469256e-03 1.239143e-04 0.0
-1.594525e-03 1.245988e-04 0.0
-1.719153e-03 1.249050e-04 0.0
-1.842961e-03 1.244698e-04 0.0
-1.965634e-03 1.231344e-04 0.0
-2.086677e-03 1.209715e-04 0.0
-2.205481e-03 1.182025e-04 0.0
-2.321419e-03 1.150670e-04 0.0
-2.433939e-03 1.117167e-04 0.0
-2.542604e-03 1.081721e-04 0.0
-2.647074e-03 1.043472e-04 0.0
-2.747060e-03 1.001152e-04 0.0
-2.842262e-03 9.537618e-05 0.0
-2.932338e-03 9.009838e-05 0.0
-3.016890e-03 8.432127e-05 0.0
-3.095493e-03 7.812801e-05 0.0
-3.167716e-03 7.160624e-05 0.0
-3.233159e-03 6.481626e-05 0.0
-3.291463e-03 5.777810e-05 0.0
-3.342310e-03 5.047835e-05 0.0
-3.385417e-03 4.288932e-05 0.0
-3.420521e-03 3.499000e-05 0.0
-3.447370e-03 2.678021e-05 0.0
-3.465732e-03 1.828481e-05 0.0
-3.475395e-03 9.549789e-06 0.0
-3.476188e-03 6.360709e-07 0.0
-3.468001e-03 -8.380812e-06 0.0
-3.450796e-03 -1.742531e-05 0.0
-3.424595e-03 -2.644253e-05 0.0
-3.389472e-03 -3.538627e-05 0.0
-3.345550e-03 -4.421183e-05 0.0
-3.292997e-03 -5.287198e-05 0.0
-3.232026e-03 -6.131591e-05 0.0
-3.162895e-03 -6.949076e-05 0.0
-3.085908e-03 -7.734445e-05 0.0
-3.001416e-03 -8.482868e-05 0.0
-2.909818e-03 -9.190071e-05 0.0
-2.811560e-03 -9.852338e-05 0.0
-2.707128e-03 -1.046635e-04 0.0
-2.597049e-03 -1.102895e-04 0.0
-2.481886e-03 -1.153691e-04 0.0
-2.362231e-03 -1.198686e-04 0.0
-2.238701e-03 -1.237536e-04 0.0
-2.111943e-03 -1.269911e-04 0.0
-1.982621e-03 -1.295525e-04 0.0
-1.851424e-03 -1.314160e-04 0.0
-1.719055e-03 -1.325675e-04 0.0
-1.586232e-03 -1.330007e-04 0.0
-1.453677e-03 -1.327158e-04 0.0
-1.322114e-03 -1.317175e-04 0.0
-1.192261e-03 -1.300117e-04 0.0
-1.064827e-03 -1.276053e-04 0.0
-9.405054e-04 -1.245072e-04 0.0
-8.199745e-04 -1.207292e-04 0.0
-7.038912e-04 -1.162878e-04 0.0
-5.928885e-04 -1.112056e-04 0.0
-4.875721e-04 -1.055112e-04 0.0
-3.885156e-04 -9.923957e-05 0.0
-2.962557e-04 -9.243084e-05 0.0
-2.112874e-04 -8.512977e-05 0.0
-1.340577e-04 -7.738517e-05 0.0
-6.496068e-05 -6.924994e-05 0.0
-4.331432e-06 -6.078173e-05 0.0
4.756037e-05 -5.204415e-05 0.0
9.051783e-05 -4.310860e-05 0.0
1.244268e-04 -3.405710e-05 0.0
1.492668e-04 -2.498337e-05 0.0
1.651260e-04 -1.599690e-05 0.0
1.722215e-04 -7.227496e-06 0.0
1.709261e-04 1.168356e-06 0.0
1.618042e-04 8.998264e-06 0.0
1.456629e-04 1.601946e-05 0.0
1.236241e-04 2.191740e-05 0.0
9.722831e-05 2.627372e-05 0.0
6.858284e-05 2.852194e-05 0.0
4.055741e-05 2.790114e-05 0.0
1.696186e-05 2.347099e-05 0.0
2.357968e-06 1.447839e-05 0.0
0.000000e+00 2.232482e-06 0.0
0.000000e+00 -2.253564e-06 0.0
0.000000e+00 1.236709e-05 0.0
1.403677e-05 -3.179422e-05 0.0
3.201081e-05 -5.622601e-05 0.0
4.662430e-05 -4.579619e-05 0.0
4.545564e-05 -9.587186e-06 0.0
1.832269e-05 4.010186e-05 0.0
-4.208309e-05 9.298449e-05 0.0
-1.393999e-04 1.423468e-04 0.0
-2.735321e-04 1.856305e-04 0.0
-4.415491e-04 2.235680e-04 0.0
-6.391825e-04 2.584195e-04 0.0
-8.622750e-04 2.921820e-04 0.0
-1.107648e-03 3.255109e-04 0.0
-1.373214e-03 3.576211e-04 0.0
-1.657526e-03 3.869397e-04 0.0
-1.959154e-03 4.120036e-04 0.0
-2.276229e-03 4.321152e-04 0.0
-2.606347e-03 4.475113e-04 0.0
-2.946773e-03 4.590829e-04 0.0
-3.294788e-03 4.678831e-04 0.0
-3.647987e-03 4.746905e-04 0.0
-4.004401e-03 4.798071e-04 0.0
-4.362447e-03 4.831155e-04 0.0
-4.720760e-03 4.843020e-04 0.0
-5.078013e-03 4.831032e-04 0.0
-5.432809e-03 4.794632e-04 0.0
-5.783662e-03 4.735504e-04 0.0
-6.129054e-03 4.656644e-04 0.0
-6.467516e-03 4.561019e-04 0.0
-6.797691e-03 4.450525e-04 0.0
-7.118349e-03 4.325632e-04 0.0
-7.428358e-03 4.185721e-04 0.0
-7.726636e-03 4.029790e-04 0.0
-8.012103e-03 3.857158e-04 0.0
-8.283654e-03 3.667849e-04 0.0
-8.540165e-03 3.462584e-04 0.0
-8.780507e-03 3.242474e-04 0.0
-9.003578e-03 3.008624e-04 0.0
-9.208327e-03 2.761833e-04 0.0
-9.393762e-03 2.502518e-04 0.0
-9.558947e-03 2.230832e-04 0.0
-9.703003e-03 1.946893e-04 0.0
-9.825100e-03 1.651016e-04 0.0
-9.924458e-03 1.343850e-04 0.0
-1.000036e-02 1.026406e-04 0.0
-1.005218e-02 7.000073e-05 0.0
-1.007937e-02 3.662186e-05 0.0
-1.008153e-02 2.683543e-06 0.0
-1.005842e-02 -3.160142e-05 0.0
-1.000993e-02 -6.600798e-05 0.0
-9.936127e-03 -1.003386e-04 0.0
-9.837211e-03 -1.344055e-04 0.0
-9.713512e-03 -1.680220e-04 0.0
-9.565497e-03 -2.009999e-04 0.0
-9.393763e-03 -2.331511e-04 0.0
-9.199041e-03 -2.642913e-04 0.0
-8.982190e-03 -2.942430e-04 0.0
-8.744203e-03 -3.228375e-04 0.0
-8.486194e-03 -3.499150e-04 0.0
-8.209399e-03 -3.753226e-04 0.0
-7.915167e-03 -3.989130e-04 0.0
-7.604951e-03 -4.205432e-04 0.0
-7.280302e-03 -4.400752e-04 0.0
-6.942860e-03 -4.573781e-04 0.0
-6.594350e-03 -4.723318e-04 0.0
-6.236569e-03 -4.848306e-04 0.0
-5.871380e-03 -4.947861e-04 0.0
-5.500701e-03 -5.021284e-04 0.0
-5.126489e-03 -5.068066e-04 0.0
-4.750735e-03 -5.087874e-04 0.0
-4.375439e-03 -5.080548e-04 0.0
-4.002606e-03 -5.046091e-04 0.0
-3.634225e-03 -4.984621e-04 0.0
-3.272266e-03 -4.896392e-04 0.0
-2.918664e-03 -4.781816e-04 0.0
-2.575308e-03 -4.641472e-04 0.0
-2.244033e-03 -4.476126e-04 0.0
-1.926604e-03 -4.286726e-04 0.0
-1.624704e-03 -4.074404e-04 0.0
-1.339922e-03 -3.840468e-04 0.0
-1.073741e-03 -3.586397e-04 0.0
-8.275174e-04 -3.313842e-04 0.0
-6.024737e-04 -3.024640e-04 0.0
-3.996784e-04 -2.720827e-04 0.0
-2.200300e-04 -2.404672e-04 0.0
-6.423740e-05 -2.078710e-04 0.0
6.720289e-05 -1.745788e-04 0.0
1.740326e-04 -1.409124e-04 0.0
2.562688e-04 -1.072418e-04 0.0
3.142422e-04 -7.399128e-05 0.0
3.486500e-04 -4.165670e-05 0.0
3.606215e-04 -1.082652e-05 0.0
3.518027e-04 1.779075e-05 0.0
3.244651e-04 4.332778e-05 0.0
2.816434e-04 6.470735e-05 0.0
2.273039e-04 8.057939e-05 0.0
1.665304e-04 8.926046e-05 0.0
1.056706e-04 8.872654e-05 0.0
5.228469e-05 7.682182e-05 0.0
1.458254e-05 5.214610e-05 0.0
0.000000e+00 1.678081e-05 0.0
0.000000e+00 -1.680072e-05 0.0
0.000000e+00 2.958214e-05 0.0
1.169619e-06 -5.882573e-05 0.0
1.775773e-05 -7.425111e-05 0.0
1.947384e-05 -3.532431e-05 0.0
-1.124899e-05 3.862016e-05 0.0
-8.697239e-05 1.294975e-04 0.0
-2.145148e-04 2.248914e-04 0.0
-3.953228e-04 3.181392e-04 0.0
-6.269816e-04 4.071297e-04 0.0
-9.052472e-04 4.921827e-04 0.0
-1.225791e-03 5.739766e-04 0.0
-1.585112e-03 6.522833e-04 0.0
-1.980551e-03 7.257593e-04 0.0
-2.409737e-03 7.925308e-04 0.0
-2.869949e-03 8.510356e-04 0.0
-3.357773e-03 9.006203e-04 0.0
-3.869167e-03 9.416455e-04 0.0
-4.399826e-03 9.751529e-04 0.0
-4.945627e-03 1.002338e-03 0.0
-5.502929e-03 1.024108e-03 0.0
-6.068644e-03 1.040886e-03 0.0
-6.640109e-03 1.052687e-03 0.0
-7.214873e-03 1.059351e-03 0.0
-7.790501e-03 1.060790e-03 0.0
-8.364490e-03 1.057120e-03 0.0
-8.934286e-03 1.048671e-03 0.0
-9.497379e-03 1.035879e-03 0.0
-1.005139e-02 1.019146e-03 0.0
-1.059413e-02 9.987402e-04 0.0
-1.112357e-02 9.747743e-04 0.0
-1.163783e-02 9.472472e-04 0.0
-1.213504e-02 9.161212e-04 0.0
-1.261339e-02 8.813922e-04 0.0
-1.307101e-02 8.431242e-04 0.0
-1.350606e-02 8.014435e-04 0.0
-1.391671e-02 7.565060e-04 0.0
-1.430120e-02 7.084584e-04 0.0
-1.465784e-02 6.574142e-04 0.0
-1.498503e-02 6.034514e-04 0.0
-1.528125e-02 5.466311e-04 0.0
-1.554504e-02 4.870245e-04 0.0
-1.577500e-02 4.247367e-04 0.0
-1.596984e-02 3.599199e-04 0.0
-1.612832e-02 2.927745e-04 0.0
-1.624934e-02 2.235423e-04 0.0
-1.633197e-02 1.525002e-04 0.0
-1.637541e-02 7.995961e-05 0.0
-1.637909e-02 6.275549e-06 0.0
-1.634263e-02 -6.813347e-05 0.0
-1.626591e-02 -1.428131e-04 0.0
-1.614902e-02 -2.173355e-04 0.0
-1.599225e-02 -2.912844e-04 0.0
-1.579613e-02 -3.642494e-04 0.0
-1.556140e-02 -4.358261e-04 0.0
-1.528900e-02 -5.056183e-04 0.0
-1.498008e-02 -5.732411e-04 0.0
-1.463600e-02 -6.383215e-04 0.0
-1.425834e-02 -7.004982e-04 0.0
-1.384883e-02 -7.594205e-04 0.0
-1.340943e-02 -8.147475e-04 0.0
-1.294224e-02 -8.661491e-04 0.0
-1.244954e-02 -9.133084e-04 0.0
-1.193376e-02 -9.559264e-04 0.0
-1.139748e-02 -9.937270e-04 0.0
-1.084341e-02 -1.026462e-03 0.0
-1.027437e-02 -1.053914e-03 0.0
-9.693287e-03 -1.075901e-03 0.0
-9.103175e-03 -1.092273e-03 0.0
-8.507106e-03 -1.102916e-03 0.0
-7.908198e-03 -1.107748e-03 0.0
-7.309591e-03 -1.106727e-03 0.0
-6.714428e-03 -1.099844e-03 0.0
-6.125837e-03 -1.087125e-03 0.0
-5.546913e-03 -1.068627e-03 0.0
-4.980699e-03 -1.044447e-03 0.0
-4.430170e-03 -1.014715e-03 0.0
-3.898209e-03 -9.796016e-04 0.0
-3.387591e-03 -9.393141e-04 0.0
-2.900958e-03 -8.940965e-04 0.0
-2.440803e-03 -8.442298e-04 0.0
-2.009441e-03 -7.900332e-04 0.0
-1.608995e-03 -7.318659e-04 0.0
-1.241364e-03 -6.701298e-04 0.0
-9.082056e-04 -6.052739e-04 0.0
-6.109015e-04 -5.377994e-04 0.0
-3.505294e-04 -4.682665e-04 0.0
-1.278251e-04 -3.973029e-04 0.0
5.685983e-05 -3.256156e-04 0.0
2.036050e-04 -2.540061e-04 0.0
3.129872e-04 -1.833955e-04 0.0
3.861508e-04 -1.148460e-04 0.0
4.248943e-04 -4.959992e-05 0.0
4.317779e-04 1.087361e-05 0.0
4.102502e-04 6.481958e-05 0.0
3.647917e-04 1.101287e-04 0.0
3.010686e-04 1.442647e-04 0.0
2.260691e-04 1.642227e-04 0.0
1.481686e-04 1.665912e-04 0.0
7.705624e-05 1.478982e-04 0.0
2.356573e-05 1.056015e-04 0.0
0.000000e+00 4.031161e-05 0.0
0.000000e+00 -4.032953e-05 0.0
0.000000e+00 4.449551e-05 0.0
-9.161017e-06 -6.984923e-05 0.0
-6.596716e-06 -6.445838e-05 0.0
-3.582225e-05 1.184287e-05 0.0
-1.150172e-04 1.314174e-04 0.0
-2.552297e-04 2.731064e-04 0.0
-4.606693e-04 4.236574e-04 0.0
-7.305101e-04 5.760529e-04 0.0
-1.061356e-03 7.270258e-04 0.0
-1.449359e-03 8.746427e-04 0.0
-1.891318e-03 1.016776e-03 0.0
-2.384665e-03 1.150734e-03 0.0
-2.926799e-03 1.273744e-03 0.0
-3.514359e-03 1.383719e-03 0.0
-4.142894e-03 1.479773e-03 0.0
-4.807057e-03 1.562225e-03 0.0
-5.501145e-03 1.632176e-03 0.0
-6.219684e-03 1.690917e-03 0.0
-6.957804e-03 1.739461e-03 0.0
-7.711312e-03 1.778345e-03 0.0
-8.476501e-03 1.807730e-03 0.0
-9.249880e-03 1.827641e-03 0.0
-1.002795e-02 1.838214e-03 0.0
-1.080712e-02 1.839809e-03 0.0
-1.158377e-02 1.832984e-03 0.0
-1.235437e-02 1.818372e-03 0.0
-1.311559e-02 1.796537e-03 0.0
-1.386437e-02 1.767875e-03 0.0
-1.459789e-02 1.732609e-03 0.0
-1.531347e-02 1.690839e-03 0.0
-1.600853e-02 1.642631e-03 0.0
-1.668047e-02 1.588085e-03 0.0
-1.732672e-02 1.527362e-03 0.0
-1.794469e-02 1.460673e-03 0.0
-1.853189e-02 1.388243e-03 0.0
-1.908590e-02 1.310276e-03 0.0
-1.960440e-02 1.226933e-03 0.0
-2.008520e-02 1.138343e-03 0.0
-2.052618e-02 1.044628e-03 0.0
-2.092534e-02 9.459310e-04 0.0
-2.128071e-02 8.424444e-04 0.0
-2.159045e-02 7.344205e-04 0.0
-2.185282e-02 6.221702e-04 0.0
-2.206624e-02 5.060558e-04 0.0
-2.222930e-02 3.864852e-04 0.0
-2.234080e-02 2.639140e-04 0.0
-2.239976e-02 1.388567e-04 0.0
-2.240546e-02 1.190512e-05 0.0
-2.235742e-02 -1.162485e-04 0.0
-2.225549e-02 -2.448481e-04 0.0
-2.209979e-02 -3.731633e-04 0.0
-2.189070e-02 -5.004815e-04 0.0
-2.162893e-02 -6.261052e-04 0.0
-2.131545e-02 -7.493529e-04 0.0
-2.095151e-02 -8.695588e-04 0.0
-2.053867e-02 -9.860725e-04 0.0
-2.007872e-02 -1.098257e-03 0.0
-1.957373e-02 -1.205490e-03 0.0
-1.902601e-02 -1.307161e-03 0.0
-1.843814e-02 -1.402676e-03 0.0
-1.781290e-02 -1.491466e-03 0.0
-1.715330e-02 -1.572988e-03 0.0
-1.646256e-02 -1.646737e-03 0.0
-1.574409e-02 -1.712251e-03 0.0
-1.500148e-02 -1.769114e-03 0.0
-1.423847e-02 -1.816960e-03 0.0
-1.345893e-02 -1.855477e-03 0.0
-1.266684e-02 -1.884407e-03 0.0
-1.186626e-02 -1.903546e-03 0.0
-1.106133e-02 -1.912749e-03 0.0
-1.025619e-02 -1.911936e-03 0.0
-9.455011e-03 -1.901090e-03 0.0
-8.661936e-03 -1.880254e-03 0.0
-7.881071e-03 -1.849533e-03 0.0
-7.116452e-03 -1.809093e-03 0.0
-6.372027e-03 -1.759162e-03 0.0
-5.651618e-03 -1.700030e-03 0.0
-4.958903e-03 -1.632052e-03 0.0
-4.297384e-03 -1.555644e-03 0.0
-3.670357e-03 -1.471288e-03 0.0
-3.080889e-03 -1.379535e-03 0.0
-2.531780e-03 -1.281006e-03 0.0
-2.025539e-03 -1.176398e-03 0.0
-1.564344e-03 -1.066492e-03 0.0
-1.150004e-03 -9.521573e-04 0.0
-7.839220e-04 -8.343653e-04 0.0
-4.670413e-04 -7.142011e-04 0.0
-1.997959e-04 -5.928818e-04 0.0
1.795293e-05 -4.717807e-04 0.0
1.869846e-04 -3.524582e-04 0.0
3.088066e-04 -2.367036e-04 0.0
3.857502e-04 -1.265824e-04 0.0
4.210783e-04 -2.449496e-05 0.0
4.191068e-04 6.675056e-05 0.0
3.853316e-04 1.438642e-04 0.0
3.265501e-04 2.030079e-04 0.0
2.509632e-04 2.397730e-04 0.0
1.682428e-04 2.492766e-04 0.0
8.960829e-05 2.264979e-04 0.0
2.813868e-05 1.670367e-04 0.0
0.000000e+00 6.841590e-05 0.0
0.000000e+00 -6.842836e-05 0.0
0.000000e+00 5.013164e-05 0.0
-1.454082e-05 -6.128706e-05 0.0
-3.755996e-05 -2.219929e-05 0.0
-1.119991e-04 1.011534e-04 0.0
-2.528005e-04 2.760467e-04 0.0
-4.672275e-04 4.802129e-04 0.0
-7.565166e-04 6.996409e-04 0.0
-1.118581e-03 9.257016e-04 0.0
-1.550452e-03 1.152349e-03 0.0
-2.049606e-03 1.374298e-03 0.0
-2.614026e-03 1.586453e-03 0.0
-3.241436e-03 1.784279e-03 0.0
-3.928451e-03 1.964479e-03 0.0
-4.670173e-03 2.125418e-03 0.0
-5.460429e-03 2.267014e-03 0.0
-6.292439e-03 2.390195e-03 0.0
-7.159560e-03 2.496204e-03 0.0
-8.055785e-03 2.586061e-03 0.0
-8.975855e-03 2.660360e-03 0.0
-9.915069e-03 2.719367e-03 0.0
-1.086895e-02 2.763277e-03 0.0
-1.183301e-02 2.792457e-03 0.0
-1.280264e-02 2.807540e-03 0.0
-1.377316e-02 2.809368e-03 0.0
-1.474005e-02 2.798830e-03 0.0
-1.569901e-02 2.776706e-03 0.0
-1.664611e-02 2.743579e-03 0.0
-1.757768e-02 2.699830e-03 0.0
-1.849027e-02 2.645709e-03 0.0
-1.938054e-02 2.581428e-03 0.0
-2.024515e-02 2.507232e-03 0.0
-2.108080e-02 2.423417e-03 0.0
-2.188422e-02 2.330316e-03 0.0
-2.265220e-02 2.228257e-03 0.0
-2.338170e-02 2.117525e-03 0.0
-2.406977e-02 1.998355e-03 0.0
-2.471362e-02 1.870945e-03 0.0
-2.531056e-02 1.735490e-03 0.0
-2.585801e-02 1.592217e-03 0.0
-2.635348e-02 1.441416e-03 0.0
-2.679456e-02 1.283443e-03 0.0
-2.717900e-02 1.118726e-03 0.0
-2.750472e-02 9.477499e-04 0.0
-2.776982e-02 7.710559e-04 0.0
-2.797265e-02 5.892469e-04 0.0
-2.811178e-02 4.030015e-04 0.0
-2.818608e-02 2.130943e-04 0.0
-2.819468e-02 2.041682e-05 0.0
-2.813704e-02 -1.740048e-04 0.0
-2.801296e-02 -3.690554e-04 0.0
-2.782258e-02 -5.636499e-04 0.0
-2.756640e-02 -7.567294e-04 0.0
-2.724527e-02 -9.472589e-04 0.0
-2.686038e-02 -1.134225e-03 0.0
-2.641328e-02 -1.316633e-03 0.0
-2.590583e-02 -1.493501e-03 0.0
-2.534022e-02 -1.663865e-03 0.0
-2.471898e-02 -1.826773e-03 0.0
-2.404491e-02 -1.981299e-03 0.0
-2.332113e-02 -2.126544e-03 0.0
-2.255103e-02 -2.261651e-03 0.0
-2.173828e-02 -2.385812e-03 0.0
-2.088679e-02 -2.498273e-03 0.0
-2.000074e-02 -2.598346e-03 0.0
-1.908447e-02 -2.685410e-03 0.0
-1.814255e-02 -2.758915e-03 0.0
-1.717969e-02 -2.818385e-03 0.0
-1.620073e-02 -2.863423e-03 0.0
-1.521062e-02 -2.893718e-03 0.0
-1.421439e-02 -2.909048e-03 0.0
-1.321709e-02 -2.909285e-03 0.0
-1.222382e-02 -2.894404e-03 0.0
-1.123964e-02 -2.864471e-03 0.0
-1.026955e-02 -2.819643e-03 0.0
-9.318491e-03 -2.760168e-03 0.0
-8.391282e-03 -2.686389e-03 0.0
-7.492594e-03 -2.598741e-03 0.0
-6.626917e-03 -2.497756e-03 0.0
-5.798529e-03 -2.384062e-03 0.0
-5.011458e-03 -2.258390e-03 0.0
-4.269447e-03 -2.121574e-03 0.0
-3.575916e-03 -1.974560e-03 0.0
-2.933924e-03 -1.818408e-03 0.0
-2.346126e-03 -1.654306e-03 0.0
-1.814725e-03 -1.483575e-03 0.0
-1.341423e-03 -1.307688e-03 0.0
-9.273652e-04 -1.128285e-03 0.0
-5.730799e-04 -9.471991e-04 0.0
-2.784092e-04 -7.664892e-04 0.0
-4.243180e-05 -5.884772e-04 0.0
1.366195e-04 -4.157984e-04 0.0
2.614528e-04 -2.514592e-04 0.0
3.358266e-04 -9.891075e-05 0.0
3.646521e-04 3.788569e-05 0.0
3.541030e-04 1.543764e-04 0.0
3.117166e-04 2.453596e-04 0.0
2.464915e-04 3.049653e-04 0.0
1.690048e-04 3.267312e-04 0.0
9.163899e-05 3.038317e-04 0.0
2.914722e-05 2.294962e-04 0.0
0.000000e+00 9.753064e-05 0.0
0.000000e+00 -9.753284e-05 0.0
0.000000e+00 4.068314e-05 0.0
-1.717991e-05 -3.472469e-05 0.0
-7.521524e-05 5.307825e-05 0.0
-2.042860e-04 2.359602e-04 0.0
-4.138735e-04 4.791063e-04 0.0
-7.070359e-04 7.597362e-04 0.0
-1.082964e-03 1.062185e-03 0.0
-1.539605e-03 1.374833e-03 0.0
-2.075197e-03 1.687931e-03 0.0
-2.688429e-03 1.992819e-03 0.0
-3.377643e-03 2.282171e-03 0.0
-4.139849e-03 2.550599e-03 0.0
-4.970200e-03 2.794996e-03 0.0
-5.862186e-03 3.014326e-03 0.0
-6.808362e-03 3.208936e-03 0.0
-7.801214e-03 3.379737e-03 0.0
-8.833776e-03 3.527570e-03 0.0
-9.899833e-03 3.652950e-03 0.0
-1.099375e-02 3.756152e-03 0.0
-1.211015e-02 3.837472e-03 0.0
-1.324361e-02 3.897466e-03 0.0
-1.438857e-02 3.937024e-03 0.0
-1.553940e-02 3.957281e-03 0.0
-1.669061e-02 3.959421e-03 0.0
-1.783697e-02 3.944490e-03 0.0
-1.897365e-02 3.913306e-03 0.0
-2.009615e-02 3.866462e-03 0.0
-2.120022e-02 3.804409e-03 0.0
-2.228174e-02 3.727551e-03 0.0
-2.333667e-02 3.636319e-03 0.0
-2.436098e-02 3.531187e-03 0.0
-2.535069e-02 3.412648e-03 0.0
-2.630194e-02 3.281166e-03 0.0
-2.721103e-02 3.137145e-03 0.0
-2.807440e-02 2.980922e-03 0.0
-2.888866e-02 2.812788e-03 0.0
-2.965055e-02 2.633029e-03 0.0
-3.035691e-02 2.441972e-03 0.0
-3.100470e-02 2.240007e-03 0.0
-3.159098e-02 2.027604e-03 0.0
-3.211298e-02 1.805304e-03 0.0
-3.256809e-02 1.573714e-03 0.0
-3.295393e-02 1.333506e-03 0.0
-3.326834e-02 1.085428e-03 0.0
-3.350945e-02 8.303187e-04 0.0
-3.367565e-02 5.691346e-04 0.0
-3.376562e-02 3.029683e-04 0.0
-3.377840e-02 3.306315e-05 0.0
-3.371336e-02 -2.391780e-04 0.0
-3.357028e-02 -5.122423e-04 0.0
-3.334933e-02 -7.846526e-04 0.0
-3.305109e-02 -1.054963e-03 0.0
-3.267656e-02 -1.321753e-03 0.0
-3.222712e-02 -1.583621e-03 0.0
-3.170454e-02 -1.839183e-03 0.0
-3.111099e-02 -2.087064e-03 0.0
-3.044900e-02 -2.325911e-03 0.0
-2.972146e-02 -2.554394e-03 0.0
-2.893163e-02 -2.771221e-03 0.0
-2.808311e-02 -2.975148e-03 0.0
-2.717985e-02 -3.164989e-03 0.0
-2.622607e-02 -3.339631e-03 0.0
-2.522634e-02 -3.498035e-03 0.0
-2.418547e-02 -3.639245e-03 0.0
-2.310852e-02 -3.762397e-03 0.0
-2.200075e-02 -3.866720e-03 0.0
-2.086765e-02 -3.951546e-03 0.0
-1.971481e-02 -4.016318e-03 0.0
-1.854799e-02 -4.060598e-03 0.0
-1.737302e-02 -4.084073e-03 0.0
-1.619578e-02 -4.086562e-03 0.0
-1.502218e-02 -4.068025e-03 0.0
-1.385812e-02 -4.028549e-03 0.0
-1.270943e-02 -3.968349e-03 0.0
-1.158185e-02 -3.887765e-03 0.0
-1.048099e-02 -3.787267e-03 0.0
-9.412305e-03 -3.667457e-03 0.0
-8.381017e-03 -3.529073e-03 0.0
-7.392116e-03 -3.372990e-03 0.0
-6.450302e-03 -3.200228e-03 0.0
-5.559942e-03 -3.011954e-03 0.0
-4.725031e-03 -2.809488e-03 0.0
-3.949139e-03 -2.594317e-03 0.0
-3.235369e-03 -2.368097e-03 0.0
-2.586299e-03 -2.132672e-03 0.0
-2.003926e-03 -1.890094e-03 0.0
-1.489609e-03 -1.642641e-03 0.0
-1.044000e-03 -1.392851e-03 0.0
-6.669744e-04 -1.143561e-03 0.0
-3.575513e-04 -8.979459e-04 0.0
-1.138116e-04 -6.595814e-04 0.0
6.719232e-05 -4.325033e-04 0.0
1.895262e-04 -2.212808e-04 0.0
2.584772e-04 -3.109796e-05 0.0
2.806450e-04 1.321784e-04 0.0
2.640385e-04 2.619377e-04 0.0
2.181811e-04 3.507950e-04 0.0
1.542728e-04 3.906113e-04 0.0
8.549199e-05 3.725836e-04 0.0
2.759158e-05 2.873671e-04 0.0
0.000000e+00 1.250924e-04 0.0
0.000000e+00 -1.250803e-04 0.0
0.000000e+00 1.264901e-05 0.0
-2.132470e-05 5.765973e-06 0.0
-1.203108e-04 1.606057e-04 0.0
-3.081839e-04 4.193069e-04 0.0
-5.887186e-04 7.468242e-04 0.0
-9.617825e-04 1.119281e-03 0.0
-1.425865e-03 1.518219e-03 0.0
-1.979713e-03 1.928266e-03 0.0
-2.622574e-03 2.336093e-03 0.0
-3.353391e-03 2.730541e-03 0.0
-4.169705e-03 3.103174e-03 0.0
-5.066997e-03 3.448572e-03 0.0
-6.038790e-03 3.764031e-03 0.0
-7.077355e-03 4.048760e-03 0.0
-8.174635e-03 4.302915e-03 0.0
-9.322959e-03 4.526848e-03 0.0
-1.051532e-02 4.720770e-03 0.0
-1.174528e-02 4.884797e-03 0.0
-1.300660e-02 5.019196e-03 0.0
-1.429303e-02 5.124614e-03 0.0
-1.559814e-02 5.202136e-03 0.0
-1.691542e-02 5.253153e-03 0.0
-1.823848e-02 5.279139e-03 0.0
-1.956122e-02 5.281436e-03 0.0
-2.087795e-02 5.261129e-03 0.0
-2.218333e-02 5.219071e-03 0.0
-2.347233e-02 5.155957e-03 0.0
-2.474006e-02 5.072432e-03 0.0
-2.598173e-02 4.969158e-03 0.0
-2.719260e-02 4.846826e-03 0.0
-2.836803e-02 4.706129e-03 0.0
-2.950348e-02 4.547708e-03 0.0
-3.059462e-02 4.372121e-03 0.0
-3.163728e-02 4.179839e-03 0.0
-3.262747e-02 3.971278e-03 0.0
-3.356134e-02 3.746842e-03 0.0
-3.443519e-02 3.506969e-03 0.0
-3.524540e-02 3.252165e-03 0.0
-3.598850e-02 2.983014e-03 0.0
-3.666120e-02 2.700172e-03 0.0
-3.726036e-02 2.404367e-03 0.0
-3.778309e-02 2.096395e-03 0.0
-3.822675e-02 1.777142e-03 0.0
-3.858896e-02 1.447599e-03 0.0
-3.886762e-02 1.108898e-03 0.0
-3.906093e-02 7.623233e-04 0.0
-3.916744e-02 4.093292e-04 0.0
-3.918606e-02 5.154362e-05 0.0
-3.911610e-02 -3.092294e-04 0.0
-3.895732e-02 -6.710519e-04 0.0
-3.870992e-02 -1.032021e-03 0.0
-3.837456e-02 -1.390262e-03 0.0
-3.795234e-02 -1.743915e-03 0.0
-3.744481e-02 -2.091135e-03 0.0
-3.685393e-02 -2.430088e-03 0.0
-3.618211e-02 -2.758957e-03 0.0
-3.543217e-02 -3.075950e-03 0.0
-3.460734e-02 -3.379319e-03 0.0
-3.371128e-02 -3.667369e-03 0.0
-3.274802e-02 -3.938472e-03 0.0
-3.172197e-02 -4.191079e-03 0.0
-3.063789e-02 -4.423730e-03 0.0
-2.950089e-02 -4.635058e-03 0.0
-2.831636e-02 -4.823805e-03 0.0
-2.708997e-02 -4.988823e-03 0.0
-2.582765e-02 -5.129092e-03 0.0
-2.453553e-02 -5.243725e-03 0.0
-2.321991e-02 -5.331983e-03 0.0
-2.188727e-02 -5.393286e-03 0.0
-2.054415e-02 -5.427215e-03 0.0
-1.919721e-02 -5.433527e-03 0.0
-1.785310e-02 -5.412156e-03 0.0
-1.651845e-02 -5.363207e-03 0.0
-1.519987e-02 -5.286953e-03 0.0
-1.390382e-02 -5.183834e-03 0.0
-1.263666e-02 -5.054459e-03 0.0
-1.140453e-02 -4.899617e-03 0.0
-1.021335e-02 -4.720275e-03 0.0
-9.068773e-03 -4.517586e-03 0.0
-7.976125e-03 -4.292894e-03 0.0
-6.940361e-03 -4.047736e-03 0.0
-5.966014e-03 -3.783856e-03 0.0
-5.057146e-03 -3.503211e-03 0.0
-4.217292e-03 -3.207984e-03 0.0
-3.449402e-03 -2.900602e-03 0.0
-2.755780e-03 -2.583760e-03 0.0
-2.138022e-03 -2.260446e-03 0.0
-1.596947e-03 -1.933973e-03 0.0
-1.132522e-03 -1.608029e-03 0.0
-7.437898e-04 -1.286717e-03 0.0
-4.287855e-04 -9.746200e-04 0.0
-1.844548e-04 -6.768637e-04 0.0
-6.568341e-06 -3.991932e-04 0.0
1.103605e-04 -1.480503e-04 0.0
1.731651e-04 6.935115e-05 0.0
1.901258e-04 2.449542e-04 0.0
1.710786e-04 3.698185e-04 0.0
1.275930e-04 4.340715e-04 0.0
7.327313e-05 4.268769e-04 0.0
2.426035e-05 3.363527e-04 0.0
0.000000e+00 1.493255e-04 0.0
0.000000e+00 -1.492972e-04 0.0
0.000000e+00 -3.454774e-05 0.0
-3.045735e-05 5.628951e-05 0.0
-1.721610e-04 3.001588e-04 0.0
-4.186218e-04 6.544372e-04 0.0
-7.691821e-04 1.084401e-03 0.0
-1.222057e-03 1.564051e-03 0.0
-1.775924e-03 2.071502e-03 0.0
-2.430161e-03 2.587861e-03 0.0
-3.184008e-03 3.097226e-03 0.0
-4.035386e-03 3.587210e-03 0.0
-4.980110e-03 4.049219e-03 0.0
-6.011873e-03 4.478113e-03 0.0
-7.122898e-03 4.871301e-03 0.0
-8.304858e-03 5.227650e-03 0.0
-9.549624e-03 5.546605e-03 0.0
-1.084960e-02 5.827745e-03 0.0
-1.219768e-02 6.070776e-03 0.0
-1.358690e-02 6.275740e-03 0.0
-1.501023e-02 6.443224e-03 0.0
-1.646046e-02 6.574384e-03 0.0
-1.793028e-02 6.670791e-03 0.0
-1.941247e-02 6.734161e-03 0.0
-2.090014e-02 6.766112e-03 0.0
-2.238678e-02 6.768022e-03 0.0
-2.386628e-02 6.741020e-03 0.0
-2.533280e-02 6.686086e-03 0.0
-2.678072e-02 6.604144e-03 0.0
-2.820450e-02 6.496128e-03 0.0
-2.959871e-02 6.362989e-03 0.0
-3.095801e-02 6.205658e-03 0.0
-3.227724e-02 6.024991e-03 0.0
-3.355144e-02 5.821740e-03 0.0
-3.477582e-02 5.596550e-03 0.0
-3.594581e-02 5.349992e-03 0.0
-3.705699e-02 5.082615e-03 0.0
-3.810507e-02 4.794994e-03 0.0
-3.908590e-02 4.487765e-03 0.0
-3.999546e-02 4.161633e-03 0.0
-4.082993e-02 3.817373e-03 0.0
-4.158565e-02 3.455829e-03 0.0
-4.225923e-02 3.077918e-03 0.0
-4.284750e-02 2.684655e-03 0.0
-4.334759e-02 2.277177e-03 0.0
-4.375686e-02 1.856774e-03 0.0
-4.407303e-02 1.424911e-03 0.0
-4.429411e-02 9.832383e-04 0.0
-4.441851e-02 5.335933e-04 0.0
-4.444504e-02 7.800380e-05 0.0
-4.437296e-02 -3.813093e-04 0.0
-4.420200e-02 -8.419538e-04 0.0
-4.393239e-02 -1.301562e-03 0.0
-4.356481e-02 -1.757778e-03 0.0
-4.310046e-02 -2.208254e-03 0.0
-4.254100e-02 -2.650646e-03 0.0
-4.188855e-02 -3.082626e-03 0.0
-4.114573e-02 -3.501891e-03 0.0
-4.031560e-02 -3.906180e-03 0.0
-3.940171e-02 -4.293291e-03 0.0
-3.840804e-02 -4.661092e-03 0.0
-3.733900e-02 -5.007535e-03 0.0
-3.619942e-02 -5.330668e-03 0.0
-3.499453e-02 -5.628641e-03 0.0
-3.372989e-02 -5.899722e-03 0.0
-3.241142e-02 -6.142309e-03 0.0
-3.104535e-02 -6.354943e-03 0.0
-2.963817e-02 -6.536324e-03 0.0
-2.819662e-02 -6.685325e-03 0.0
-2.672763e-02 -6.801005e-03 0.0
-2.523833e-02 -6.882620e-03 0.0
-2.373593e-02 -6.929632e-03 0.0
-2.222776e-02 -6.941717e-03 0.0
-2.072116e-02 -6.918773e-03 0.0
-1.922347e-02 -6.860919e-03 0.0
-1.774196e-02 -6.768485e-03 0.0
-1.628380e-02 -6.642013e-03 0.0
-1.485602e-02 -6.482266e-03 0.0
-1.346543e-02 -6.290231e-03 0.0
-1.211860e-02 -6.067127e-03 0.0
-1.082179e-02 -5.814406e-03 0.0
-9.580946e-03 -5.533764e-03 0.0