# vtk DataFile Version 3.0
Vector Field
ASCII
DATASET RECTILINEAR_GRID
DIMENSIONS 102 102 1
X_COORDINATES 102 double
0.000000 0.100000 0.200000 0.300000 0.400000 0.500000 0.600000 0.700000 0.800000 0.900000 1.000000 1.100000 1.200000 1.300000 1.400000 1.500000 1.600000 1.700000 1.800000 1.900000 2.000000 2.100000 2.200000 2.300000 2.400000 2.500000 2.600000 2.700000 2.800000 2.900000 3.000000 3.100000 3.200000 3.300000 3.400000 3.500000 3.600000 3.700000 3.800000 3.900000 4.000000 4.100000 4.200000 4.300000 4.400000 4.500000 4.600000 4.700000 4.800000 4.900000 5.000000 5.100000 5.200000 5.300000 5.400000 5.500000 5.600000 5.700000 5.800000 5.900000 6.000000 6.100000 6.200000 6.300000 6.400000 6.500000 6.600000 6.700000 6.800000 6.900000 7.000000 7.100000 7.200000 7.300000 7.400000 7.500000 7.600000 7.700000 7.800000 7.900000 8.000000 8.100000 8.200000 8.300000 8.400000 8.500000 8.600000 8.700000 8.800000 8.900000 9.000000 9.100000 9.200000 9.300000 9.400000 9.500000 9.600000 9.700000 9.800000 9.900000 10.000000 10.100000 
Y_COORDINATES 102 double
0.000000 0.100000 0.200000 0.300000 0.400000 0.500000 0.600000 0.700000 0.800000 0.900000 1.000000 1.100000 1.200000 1.300000 1.400000 1.500000 1.600000 1.700000 1.800000 1.900000 2.000000 2.100000 2.200000 2.300000 2.400000 2.500000 2.600000 2.700000 2.800000 2.900000 3.000000 3.100000 3.200000 3.300000 3.400000 3.500000 3.600000 3.700000 3.800000 3.900000 4.000000 4.100000 4.200000 4.300000 4.400000 4.500000 4.600000 4.700000 4.800000 4.900000 5.000000 5.100000 5.200000 5.300000 5.400000 5.500000 5.600000 5.700000 5.800000 5.900000 6.000000 6.100000 6.200000 6.300000 6.400000 6.500000 6.600000 6.700000 6.800000 6.900000 7.000000 7.100000 7.200000 7.300000 7.400000 7.500000 7.600000 7.700000 7.800000 7.900000 8.000000 8.100000 8.200000 8.300000 8.400000 8.500000 8.600000 8.700000 8.800000 8.900000 9.000000 9.100000 9.200000 9.300000 9.400000 9.500000 9.600000 9.700000 9.800000 9.900000 10.000000 10.100000 
Z_COORDINATES 1 double
0.0
POINT_DATA 10404
VECTORS Velocity double
0.000000e+00 0.000000e+00 0.0
-9.451490e-06 0.000000e+00 0.0
-3.661634e-05 0.000000e+00 0.0
-5.894398e-05 0.000000e+00 0.0
-6.732287e-05 0.000000e+00 0.0
-5.920138e-05 0.000000e+00 0.0
-3.624018e-05 0.000000e+00 0.0
-1.561892e-06 0.000000e+00 0.0
4.257102e-05 0.000000e+00 0.0
9.588903e-05 0.000000e+00 0.0
1.598420e-04 0.000000e+00 0.0
2.363369e-04 0.000000e+00 0.0
3.263020e-04 0.000000e+00 0.0
4.288519e-04 0.000000e+00 0.0
5.414205e-04 0.000000e+00 0.0
6.606868e-04 0.000000e+00 0.0
7.837444e-04 0.000000e+00 0.0
9.089158e-04 0.000000e+00 0.0
1.035877e-03 0.000000e+00 0.0
1.165146e-03 0.000000e+00 0.0
1.297287e-03 0.000000e+00 0.0
1.432280e-03 0.000000e+00 0.0
1.569310e-03 0.000000e+00 0.0
1.707010e-03 0.000000e+00 0.0
1.843940e-03 0.000000e+00 0.0
1.979023e-03 0.000000e+00 0.0
2.111722e-03 0.000000e+00 0.0
2.241929e-03 0.000000e+00 0.0
2.369679e-03 0.000000e+00 0.0
2.494848e-03 0.000000e+00 0.0
2.617008e-03 0.000000e+00 0.0
2.735453e-03 0.000000e+00 0.0
2.849368e-03 0.000000e+00 0.0
2.958014e-03 0.000000e+00 0.0
3.060853e-03 0.000000e+00 0.0
3.157558e-03 0.000000e+00 0.0
3.247930e-03 0.000000e+00 0.0
3.331785e-03 0.000000e+00 0.0
3.408854e-03 0.000000e+00 0.0
3.478752e-03 0.000000e+00 0.0
3.541006e-03 0.000000e+00 0.0
3.595114e-03 0.000000e+00 0.0
3.640611e-03 0.000000e+00 0.0
3.677115e-03 0.000000e+00 0.0
3.704331e-03 0.000000e+00 0.0
3.722042e-03 0.000000e+00 0.0
3.730088e-03 0.000000e+00 0.0
3.728348e-03 0.000000e+00 0.0
3.716755e-03 0.000000e+00 0.0
3.695288e-03 0.000000e+00 0.0
3.663969e-03 0.000000e+00 0.0
3.622873e-03 0.000000e+00 0.0
3.572134e-03 0.000000e+00 0.0
3.511949e-03 0.000000e+00 0.0
3.442579e-03 0.000000e+00 0.0
3.364343e-03 0.000000e+00 0.0
3.277613e-03 0.000000e+00 0.0
3.182809e-03 0.000000e+00 0.0
3.080395e-03 0.000000e+00 0.0
2.970875e-03 0.000000e+00 0.0
2.854798e-03 0.000000e+00 0.0
2.732751e-03 0.000000e+00 0.0
2.605362e-03 0.000000e+00 0.0
2.473296e-03 0.000000e+00 0.0
2.337253e-03 0.000000e+00 0.0
2.197961e-03 0.000000e+00 0.0
2.056176e-03 0.000000e+00 0.0
1.912670e-03 0.000000e+00 0.0
1.768229e-03 0.000000e+00 0.0
1.623649e-03 0.000000e+00 0.0
1.479723e-03 0.000000e+00 0.0
1.337247e-03 0.000000e+00 0.0
1.197007e-03 0.000000e+00 0.0
1.059777e-03 0.000000e+00 0.0
9.263177e-04 0.000000e+00 0.0
7.973674e-04 0.000000e+00 0.0
6.736392e-04 0.000000e+00 0.0
5.558159e-04 0.000000e+00 0.0
4.445455e-04 0.000000e+00 0.0
3.404369e-04 0.000000e+00 0.0
2.440549e-04 0.000000e+00 0.0
1.559154e-04 0.000000e+00 0.0
7.647930e-05 0.000000e+00 0.0
6.146491e-06 0.000000e+00 0.0
-5.475082e-05 0.000000e+00 0.0
-1.059560e-04 0.000000e+00 0.0
-1.472982e-04 0.000000e+00 0.0
-1.787018e-04 0.000000e+00 0.0
-2.002004e-04 0.000000e+00 0.0
-2.119539e-04 0.000000e+00 0.0
-2.142710e-04 0.000000e+00 0.0
-2.076389e-04 0.000000e+00 0.0
-1.927647e-04 0.000000e+00 0.0
-1.706311e-04 0.000000e+00 0.0
-1.425770e-04 0.000000e+00 0.0
-1.104098e-04 0.000000e+00 0.0
-7.656181e-05 0.000000e+00 0.0
-4.428613e-05 0.000000e+00 0.0
-1.780797e-05 0.000000e+00 0.0
-2.014931e-06 0.000000e+00 0.0
-0.000000e+00 0.000000e+00 0.0
0.000000e+00 0.000000e+00 0.0
0.000000e+00 1.229721e-05 0.0
5.720721e-06 -1.561108e-05 0.0
2.081853e-05 -2.974311e-05 0.0
3.916920e-05 -2.729257e-05 0.0
5.402582e-05 -1.318580e-05 0.0
5.925809e-05 6.412293e-06 0.0
4.957305e-05 2.586936e-05 0.0
2.162999e-05 4.152380e-05 0.0
-2.506987e-05 5.243873e-05 0.0
-8.830988e-05 6.007432e-05 0.0
-1.643287e-04 6.701609e-05 0.0
-2.494387e-04 7.542684e-05 0.0
-3.412958e-04 8.598877e-05 0.0
-4.392810e-04 9.777353e-05 0.0
-5.439696e-04 1.089544e-04 0.0
-6.561151e-04 1.178622e-04 0.0
-7.757493e-04 1.237891e-04 0.0
-9.018342e-04 1.271706e-04 0.0
-1.032541e-03 1.291589e-04 0.0
-1.165899e-03 1.309126e-04 0.0
-1.300414e-03 1.330191e-04 0.0
-1.435344e-03 1.353239e-04 0.0
-1.570561e-03 1.371785e-04 0.0
-1.706139e-03 1.379026e-04 0.0
-1.841942e-03 1.371790e-04 0.0
-1.977412e-03 1.351902e-04 0.0
-2.111630e-03 1.324693e-04 0.0
-2.243560e-03 1.295939e-04 0.0
-2.372322e-03 1.269033e-04 0.0
-2.497352e-03 1.243770e-04 0.0
-2.618390e-03 1.217053e-04 0.0
-2.735332e-03 1.184813e-04 0.0
-2.848048e-03 1.144027e-04 0.0
-2.956250e-03 1.093875e-04 0.0
-3.059460e-03 1.035691e-04 0.0
-3.157068e-03 9.719918e-05 0.0
-3.248441e-03 9.052274e-05 0.0
-3.333010e-03 8.368453e-05 0.0
-3.410319e-03 7.670048e-05 0.0
-3.480017e-03 6.948898e-05 0.0
-3.541816e-03 6.193345e-05 0.0
-3.595447e-03 5.394228e-05 0.0
-3.640620e-03 4.548314e-05 0.0
-3.677021e-03 3.658594e-05 0.0
-3.704327e-03 2.732338e-05 0.0
-3.722232e-03 1.778409e-05 0.0
-3.730474e-03 8.051961e-06 0.0
-3.728861e-03 -1.800024e-06 0.0
-3.717300e-03 -1.169683e-05 0.0
-3.695785e-03 -2.158301e-05 0.0
-3.664376e-03 -3.141951e-05 0.0
-3.623190e-03 -4.116759e-05 0.0
-3.572389e-03 -5.078182e-05 0.0
-3.512183e-03 -6.020906e-05 0.0
-3.442825e-03 -6.939081e-05 0.0
-3.364620e-03 -7.826691e-05 0.0
-3.277920e-03 -8.677890e-05 0.0
-3.183132e-03 -9.487224e-05 0.0
-3.080713e-03 -1.024972e-04 0.0
-2.971171e-03 -1.096083e-04 0.0
-2.855057e-03 -1.161638e-04 0.0
-2.732969e-03 -1.221245e-04 0.0
-2.605542e-03 -1.274537e-04 0.0
-2.473445e-03 -1.321170e-04 0.0
-2.337379e-03 -1.360833e-04 0.0
-2.198073e-03 -1.393248e-04 0.0
-2.056280e-03 -1.418181e-04 0.0
-1.912770e-03 -1.435436e-04 0.0
-1.768327e-03 -1.444865e-04 0.0
-1.623745e-03 -1.446364e-04 0.0
-1.479817e-03 -1.439888e-04 0.0
-1.337334e-03 -1.425440e-04 0.0
-1.197082e-03 -1.403070e-04 0.0
-1.059835e-03 -1.372888e-04 0.0
-9.263529e-04 -1.335063e-04 0.0
-7.973766e-04 -1.289822e-04 0.0
-6.736219e-04 -1.237445e-04 0.0
-5.557746e-04 -1.178254e-04 0.0
-4.444855e-04 -1.112609e-04 0.0
-3.403649e-04 -1.040908e-04 0.0
-2.439775e-04 -9.635863e-05 0.0
-1.558377e-04 -8.811269e-05 0.0
-7.640454e-05 -7.940676e-05 0.0
-6.075939e-06 -7.030098e-05 0.0
5.481750e-05 -6.086259e-05 0.0
1.060199e-04 -5.116698e-05 0.0
1.473604e-04 -4.129995e-05 0.0
1.787627e-04 -3.135735e-05 0.0
2.002596e-04 -2.144844e-05 0.0
2.120102e-04 -1.169976e-05 0.0
2.143226e-04 -2.260333e-06 0.0
2.076844e-04 6.691151e-06 0.0
1.928027e-04 1.493525e-05 0.0
1.706610e-04 2.219599e-05 0.0
1.425987e-04 2.811767e-05 0.0
1.104234e-04 3.223159e-05 0.0
7.656793e-05 3.391265e-05 0.0
4.428580e-05 3.234032e-05 0.0
1.780241e-05 2.654215e-05 0.0
2.008056e-06 1.585346e-05 0.0
0.000000e+00 2.067209e-06 0.0
0.000000e+00 -2.070150e-06 0.0
0.000000e+00 2.653482e-05 0.0
1.162109e-05 -4.229579e-05 0.0
4.275821e-05 -6.069408e-05 0.0
6.843666e-05 -4.373979e-05 0.0
7.298776e-05 -4.734893e-06 0.0
4.540314e-05 4.404707e-05 0.0
-2.053591e-05 9.423801e-05 0.0
-1.264835e-04 1.417820e-04 0.0
-2.705619e-04 1.861688e-04 0.0
-4.490055e-04 2.287570e-04 0.0
-6.578454e-04 2.709225e-04 0.0
-8.940199e-04 3.128124e-04 0.0
-1.155599e-03 3.531318e-04 0.0
-1.441258e-03 3.898426e-04 0.0
-1.749471e-03 4.212251e-04 0.0
-2.077936e-03 4.466651e-04 0.0
-2.423517e-03 4.667824e-04 0.0
-2.782665e-03 4.829298e-04 0.0
-3.152033e-03 4.964211e-04 0.0
-3.528916e-03 5.079337e-04 0.0
-3.911345e-03 5.173620e-04 0.0
-4.297840e-03 5.241149e-04 0.0
-4.687007e-03 5.276181e-04 0.0
-5.077235e-03 5.277149e-04 0.0
-5.466607e-03 5.247724e-04 0.0
-5.853041e-03 5.194894e-04 0.0
-6.234528e-03 5.125524e-04 0.0
-6.609342e-03 5.043429e-04 0.0
-6.976090e-03 4.948366e-04 0.0
-7.333633e-03 4.837107e-04 0.0
-7.680919e-03 4.705690e-04 0.0
-8.016826e-03 4.551575e-04 0.0
-8.340092e-03 4.374705e-04 0.0
-8.649329e-03 4.177221e-04 0.0
-8.943105e-03 3.962263e-04 0.0
-9.220040e-03 3.732594e-04 0.0
-9.478857e-03 3.489704e-04 0.0
-9.718404e-03 3.233677e-04 0.0
-9.937616e-03 2.963685e-04 0.0
-1.013548e-02 2.678745e-04 0.0
-1.031101e-02 2.378362e-04 0.0
-1.046321e-02 2.062838e-04 0.0
-1.059113e-02 1.733230e-04 0.0
-1.069387e-02 1.391091e-04 0.0
-1.077059e-02 1.038178e-04 0.0
-1.082060e-02 6.762641e-05 0.0
-1.084333e-02 3.071187e-05 0.0
-1.083838e-02 -6.734486e-06 0.0
-1.080553e-02 -4.447763e-05 0.0
-1.074475e-02 -8.228862e-05 0.0
-1.065615e-02 -1.199573e-04 0.0
-1.054003e-02 -1.572765e-04 0.0
-1.039679e-02 -1.940371e-04 0.0
-1.022702e-02 -2.300288e-04 0.0
-1.003142e-02 -2.650426e-04 0.0
-9.810864e-03 -2.988742e-04 0.0
-9.566353e-03 -3.313265e-04 0.0
-9.299037e-03 -3.622098e-04 0.0
-9.010199e-03 -3.913430e-04 0.0
-8.701255e-03 -4.185531e-04 0.0
-8.373741e-03 -4.436752e-04 0.0
-8.029309e-03 -4.665538e-04 0.0
-7.669720e-03 -4.870436e-04 0.0
-7.296833e-03 -5.050112e-04 0.0
-6.912592e-03 -5.203367e-04 0.0
-6.519021e-03 -5.329148e-04 0.0
-6.118209e-03 -5.426558e-04 0.0
-5.712296e-03 -5.494869e-04 0.0
-5.303460e-03 -5.533532e-04 0.0
-4.893902e-03 -5.542197e-04 0.0
-4.485834e-03 -5.520732e-04 0.0
-4.081462e-03 -5.469204e-04 0.0
-3.682975e-03 -5.387861e-04 0.0
-3.292532e-03 -5.277140e-04 0.0
-2.912249e-03 -5.137664e-04 0.0
-2.544184e-03 -4.970240e-04 0.0
-2.190326e-03 -4.775849e-04 0.0
-1.852577e-03 -4.555646e-04 0.0
-1.532738e-03 -4.310959e-04 0.0
-1.232500e-03 -4.043303e-04 0.0
-9.534234e-04 -3.754383e-04 0.0
-6.969256e-04 -3.446116e-04 0.0
-4.642655e-04 -3.120643e-04 0.0
-2.565247e-04 -2.780352e-04 0.0
-7.458779e-05 -2.427896e-04 0.0
8.088000e-05 -2.066228e-04 0.0
2.094568e-04 -1.698644e-04 0.0
3.110008e-04 -1.328896e-04 0.0
3.856839e-04 -9.612098e-05 0.0
4.340390e-04 -6.004526e-05 0.0
4.570180e-04 -2.523010e-05 0.0
4.560650e-04 7.653731e-06 0.0
4.332094e-04 3.780121e-05 0.0
3.911843e-04 6.423260e-05 0.0
3.335740e-04 8.574061e-05 0.0
2.649892e-04 1.008297e-04 0.0
1.912493e-04 1.076664e-04 0.0
1.194982e-04 1.041053e-04 0.0
5.807307e-05 8.798109e-05 0.0
1.575298e-05 5.818721e-05 0.0
0.000000e+00 1.783369e-05 0.0
0.000000e+00 -1.784122e-05 0.0
0.000000e+00 4.194060e-05 0.0
1.065503e-05 -6.276165e-05 0.0
3.704867e-05 -7.781350e-05 0.0
4.389190e-05 -3.784864e-05 0.0
1.253369e-05 3.589808e-05 0.0
-6.875822e-05 1.265936e-04 0.0
-2.052815e-04 2.238599e-04 0.0
-3.973128e-04 3.226329e-04 0.0
-6.422227e-04 4.211062e-04 0.0
-9.365346e-04 5.184772e-04 0.0
-1.277222e-03 6.133841e-04 0.0
-1.661961e-03 7.034923e-04 0.0
-2.088582e-03 7.860861e-04 0.0
-2.554274e-03 8.590701e-04 0.0
-3.055125e-03 9.216995e-04 0.0
-3.586248e-03 9.746326e-04 0.0
-4.142394e-03 1.019343e-03 0.0
-4.718667e-03 1.057280e-03 0.0
-5.310987e-03 1.089238e-03 0.0
-5.916099e-03 1.115220e-03 0.0
-6.531236e-03 1.134772e-03 0.0
-7.153664e-03 1.147506e-03 0.0
-7.780393e-03 1.153501e-03 0.0
-8.408153e-03 1.153376e-03 0.0
-9.033609e-03 1.148048e-03 0.0
-9.653649e-03 1.138365e-03 0.0
-1.026557e-02 1.124804e-03 0.0
-1.086710e-02 1.107400e-03 0.0
-1.145621e-02 1.085882e-03 0.0
-1.203096e-02 1.059928e-03 0.0
-1.258931e-02 1.029385e-03 0.0
-1.312905e-02 9.943626e-04 0.0
-1.364792e-02 9.551840e-04 0.0
-1.414362e-02 9.122422e-04 0.0
-1.461403e-02 8.658579e-04 0.0
-1.505714e-02 8.161990e-04 0.0
-1.547111e-02 7.632845e-04 0.0
-1.585420e-02 7.070520e-04 0.0
-1.620473e-02 6.474449e-04 0.0
-1.652101e-02 5.844788e-04 0.0
-1.680141e-02 5.182678e-04 0.0
-1.704431e-02 4.490132e-04 0.0
-1.724823e-02 3.769732e-04 0.0
-1.741179e-02 3.024326e-04 0.0
-1.753380e-02 2.256878e-04 0.0
-1.761326e-02 1.470486e-04 0.0
-1.764935e-02 6.685647e-05 0.0
-1.764150e-02 -1.448908e-05 0.0
-1.758940e-02 -9.649855e-05 0.0
-1.749297e-02 -1.786715e-04 0.0
-1.735239e-02 -2.605310e-04 0.0
-1.716809e-02 -3.416118e-04 0.0
-1.694073e-02 -4.214568e-04 0.0
-1.667120e-02 -4.996165e-04 0.0
-1.636064e-02 -5.756510e-04 0.0
-1.601042e-02 -6.491317e-04 0.0
-1.562213e-02 -7.196415e-04 0.0
-1.519757e-02 -7.867766e-04 0.0
-1.473877e-02 -8.501469e-04 0.0
-1.424794e-02 -9.093775e-04 0.0
-1.372750e-02 -9.641110e-04 0.0
-1.318005e-02 -1.014010e-03 0.0
-1.260834e-02 -1.058761e-03 0.0
-1.201529e-02 -1.098076e-03 0.0
-1.140395e-02 -1.131697e-03 0.0
-1.077750e-02 -1.159395e-03 0.0
-1.013921e-02 -1.180978e-03 0.0
-9.492438e-03 -1.196290e-03 0.0
-8.840599e-03 -1.205214e-03 0.0
-8.187151e-03 -1.207678e-03 0.0
-7.535569e-03 -1.203653e-03 0.0
-6.889320e-03 -1.193155e-03 0.0
-6.251846e-03 -1.176238e-03 0.0
-5.626544e-03 -1.152994e-03 0.0
-5.016738e-03 -1.123554e-03 0.0
-4.425664e-03 -1.088088e-03 0.0
-3.856444e-03 -1.046803e-03 0.0
-3.312065e-03 -9.999469e-04 0.0
-2.795358e-03 -9.478094e-04 0.0
-2.308973e-03 -8.907213e-04 0.0
-1.855355e-03 -8.290580e-04 0.0
-1.436722e-03 -7.632418e-04 0.0
-1.055035e-03 -6.937443e-04 0.0
-7.119710e-04 -6.210900e-04 0.0
-4.088888e-04 -5.458616e-04 0.0
-1.467952e-04 -4.687068e-04 0.0
7.369725e-05 -3.903486e-04 0.0
2.524128e-04 -3.115981e-04 0.0
3.896775e-04 -2.333790e-04 0.0
4.863813e-04 -1.567421e-04 0.0
5.440583e-04 -8.289882e-05 0.0
5.649836e-04 -1.326172e-05 0.0
5.522891e-04 5.050711e-05 0.0
5.100979e-04 1.064364e-04 0.0
4.436745e-04 1.521774e-04 0.0
3.595774e-04 1.849402e-04 0.0
2.657797e-04 2.014776e-04 0.0
1.716919e-04 1.982063e-04 0.0
8.801429e-05 1.716716e-04 0.0
2.645637e-05 1.197579e-04 0.0
0.000000e+00 4.430266e-05 0.0
0.000000e+00 -4.431039e-05 0.0
0.000000e+00 5.371716e-05 0.0
7.208157e-06 -6.909408e-05 0.0
1.300094e-05 -7.009318e-05 0.0
-1.820728e-05 2.983407e-06 0.0
-1.039418e-04 1.225610e-04 0.0
-2.538706e-04 2.687521e-04 0.0
-4.713857e-04 4.292150e-04 0.0
-7.559879e-04 5.966438e-04 0.0
-1.105650e-03 7.661609e-04 0.0
-1.518324e-03 9.334063e-04 0.0
-1.992248e-03 1.093858e-03 0.0
-2.525336e-03 1.243252e-03 0.0
-3.114316e-03 1.378470e-03 0.0
-3.754307e-03 1.498172e-03 0.0
-4.439094e-03 1.602728e-03 0.0
-5.161954e-03 1.693518e-03 0.0
-5.916558e-03 1.771989e-03 0.0
-6.697525e-03 1.838974e-03 0.0
-7.500406e-03 1.894556e-03 0.0
-8.321256e-03 1.938418e-03 0.0
-9.156108e-03 1.970391e-03 0.0
-1.000065e-02 1.990839e-03 0.0
-1.085028e-02 2.000691e-03 0.0
-1.170036e-02 2.001151e-03 0.0
-1.254661e-02 1.993281e-03 0.0
-1.338531e-02 1.977713e-03 0.0
-1.421324e-02 1.954597e-03 0.0
-1.502752e-02 1.923776e-03 0.0
-1.582531e-02 1.885066e-03 0.0
-1.660366e-02 1.838480e-03 0.0
-1.735945e-02 1.784301e-03 0.0
-1.808949e-02 1.723004e-03 0.0
-1.879068e-02 1.655092e-03 0.0
-1.946007e-02 1.580954e-03 0.0
-2.009499e-02 1.500795e-03 0.0
-2.069291e-02 1.414664e-03 0.0
-2.125144e-02 1.322537e-03 0.0
-2.176823e-02 1.224423e-03 0.0
-2.224094e-02 1.120422e-03 0.0
-2.266727e-02 1.010751e-03 0.0
-2.304500e-02 8.957196e-04 0.0
-2.337201e-02 7.757011e-04 0.0
-2.364640e-02 6.510983e-04 0.0
-2.386642e-02 5.223354e-04 0.0
-2.403059e-02 3.898667e-04 0.0
-2.413764e-02 2.541980e-04 0.0
-2.418658e-02 1.159139e-04 0.0
-2.417668e-02 -2.429499e-05 0.0
-2.410753e-02 -1.656074e-04 0.0
-2.397904e-02 -3.071752e-04 0.0
-2.379144e-02 -4.481808e-04 0.0
-2.354530e-02 -5.878288e-04 0.0
-2.324149e-02 -7.253421e-04 0.0
-2.288120e-02 -8.599607e-04 0.0
-2.246595e-02 -9.909406e-04 0.0
-2.199754e-02 -1.117555e-03 0.0
-2.147809e-02 -1.239096e-03 0.0
-2.090999e-02 -1.354872e-03 0.0
-2.029591e-02 -1.464217e-03 0.0
-1.963879e-02 -1.566488e-03 0.0
-1.894183e-02 -1.661075e-03 0.0
-1.820846e-02 -1.747399e-03 0.0
-1.744231e-02 -1.824924e-03 0.0
-1.664726e-02 -1.893159e-03 0.0
-1.582733e-02 -1.951661e-03 0.0
-1.498672e-02 -2.000042e-03 0.0
-1.412975e-02 -2.037973e-03 0.0
-1.326087e-02 -2.065188e-03 0.0
-1.238460e-02 -2.081491e-03 0.0
-1.150551e-02 -2.086756e-03 0.0
-1.062821e-02 -2.080934e-03 0.0
-9.757292e-03 -2.064050e-03 0.0
-8.897319e-03 -2.036191e-03 0.0
-8.052791e-03 -1.997510e-03 0.0
-7.228116e-03 -1.948226e-03 0.0
-6.427586e-03 -1.888624e-03 0.0
-5.655339e-03 -1.819060e-03 0.0
-4.915337e-03 -1.739959e-03 0.0
-4.211333e-03 -1.651820e-03 0.0
-3.546841e-03 -1.555216e-03 0.0
-2.925101e-03 -1.450795e-03 0.0
-2.349045e-03 -1.339291e-03 0.0
-1.821264e-03 -1.221517e-03 0.0
-1.343965e-03 -1.098382e-03 0.0
-9.189285e-04 -9.708917e-04 0.0
-5.474652e-04 -8.401655e-04 0.0
-2.303600e-04 -7.074499e-04 0.0
3.218618e-05 -5.741400e-04 0.0
2.406197e-04 -4.418069e-04 0.0
3.961208e-04 -3.122354e-04 0.0
5.006932e-04 -1.874614e-04 0.0
5.572667e-04 -6.982352e-05 0.0
5.698131e-04 3.797339e-05 0.0
5.434749e-04 1.327878e-04 0.0
4.846910e-04 2.109742e-04 0.0
4.013145e-04 2.683292e-04 0.0
3.026961e-04 3.001081e-04 0.0
1.997210e-04 3.011930e-04 0.0
1.048493e-04 2.665547e-04 0.0
3.241984e-05 1.921988e-04 0.0
0.000000e+00 7.673386e-05 0.0
0.000000e+00 -7.673887e-05 0.0
0.000000e+00 5.742959e-05 0.0
2.119564e-06 -5.946959e-05 0.0
-2.481254e-05 -3.203770e-05 0.0
-1.073621e-04 8.733646e-05 0.0
-2.591358e-04 2.666133e-04 0.0
-4.866626e-04 4.835699e-04 0.0
-7.918149e-04 7.231292e-04 0.0
-1.174385e-03 9.743280e-04 0.0
-1.633777e-03 1.228075e-03 0.0
-2.169379e-03 1.476200e-03 0.0
-2.779891e-03 1.711691e-03 0.0
-3.462352e-03 1.929445e-03 0.0
-4.211641e-03 2.126778e-03 0.0
-5.020815e-03 2.303221e-03 0.0
-5.882097e-03 2.459663e-03 0.0
-6.787976e-03 2.597268e-03 0.0
-7.731904e-03 2.716714e-03 0.0
-8.708336e-03 2.818024e-03 0.0
-9.712256e-03 2.900932e-03 0.0
-1.073859e-02 2.965439e-03 0.0
-1.178183e-02 3.012186e-03 0.0
-1.283611e-02 3.042434e-03 0.0
-1.389556e-02 3.057715e-03 0.0
-1.495472e-02 3.059370e-03 0.0
-1.600879e-02 3.048238e-03 0.0
-1.705360e-02 3.024639e-03 0.0
-1.808536e-02 2.988587e-03 0.0
-1.910035e-02 2.940097e-03 0.0
-2.009471e-02 2.879409e-03 0.0
-2.106441e-02 2.807037e-03 0.0
-2.200538e-02 2.723662e-03 0.0
-2.291367e-02 2.629946e-03 0.0
-2.378557e-02 2.526383e-03 0.0
-2.461768e-02 2.413245e-03 0.0
-2.540680e-02 2.290632e-03 0.0
-2.614990e-02 2.158588e-03 0.0
-2.684396e-02 2.017202e-03 0.0
-2.748601e-02 1.866682e-03 0.0
-2.807310e-02 1.707360e-03 0.0
-2.860239e-02 1.539670e-03 0.0
-2.907116e-02 1.364104e-03 0.0
-2.947691e-02 1.181187e-03 0.0
-2.981738e-02 9.914733e-04 0.0
-3.009056e-02 7.955606e-04 0.0
-3.029468e-02 5.941212e-04 0.0
-3.042827e-02 3.879292e-04 0.0
-3.049014e-02 1.778864e-04 0.0
-3.047944e-02 -3.495833e-05 0.0
-3.039568e-02 -2.493934e-04 0.0
-3.023876e-02 -4.641650e-04 0.0
-3.000898e-02 -6.780567e-04 0.0
-2.970701e-02 -8.898830e-04 0.0
-2.933393e-02 -1.098485e-03 0.0
-2.889120e-02 -1.302726e-03 0.0
-2.838066e-02 -1.501495e-03 0.0
-2.780451e-02 -1.693699e-03 0.0
-2.716531e-02 -1.878273e-03 0.0
-2.646599e-02 -2.054178e-03 0.0
-2.570980e-02 -2.220407e-03 0.0
-2.490030e-02 -2.375993e-03 0.0
-2.404137e-02 -2.520014e-03 0.0
-2.313720e-02 -2.651603e-03 0.0
-2.219221e-02 -2.769951e-03 0.0
-2.121109e-02 -2.874317e-03 0.0
-2.019875e-02 -2.964037e-03 0.0
-1.916029e-02 -3.038527e-03 0.0
-1.810098e-02 -3.097293e-03 0.0
-1.702623e-02 -3.139937e-03 0.0
-1.594154e-02 -3.166163e-03 0.0
-1.485250e-02 -3.175779e-03 0.0
-1.376471e-02 -3.168703e-03 0.0
-1.268378e-02 -3.144966e-03 0.0
-1.161527e-02 -3.104690e-03 0.0
-1.056469e-02 -3.048099e-03 0.0
-9.537411e-03 -2.975517e-03 0.0
-8.538677e-03 -2.887373e-03 0.0
-7.573549e-03 -2.784202e-03 0.0
-6.646871e-03 -2.666646e-03 0.0
-5.763234e-03 -2.535460e-03 0.0
-4.926933e-03 -2.391513e-03 0.0
-4.141933e-03 -2.235791e-03 0.0
-3.411817e-03 -2.069400e-03 0.0
-2.739752e-03 -1.893579e-03 0.0
-2.128430e-03 -1.709701e-03 0.0
-1.580028e-03 -1.519292e-03 0.0
-1.096145e-03 -1.324047e-03 0.0
-6.777437e-04 -1.125848e-03 0.0
-3.250844e-04 -9.267941e-04 0.0
-3.764674e-05 -7.292367e-04 0.0
1.859489e-04 -5.358208e-04 0.0
3.480361e-04 -3.495369e-04 0.0
4.520126e-04 -1.737876e-04 0.0
5.024411e-04 -1.244287e-05 0.0
5.051630e-04 1.300776e-04 0.0
4.674043e-04 2.487438e-04 0.0
3.978712e-04 3.378725e-04 0.0
3.068384e-04 3.911508e-04 0.0
2.062553e-04 4.017858e-04 0.0
1.099796e-04 3.628404e-04 0.0
3.440419e-05 2.677841e-04 0.0
0.000000e+00 1.111480e-04 0.0
0.000000e+00 -1.111491e-04 0.0
0.000000e+00 4.828011e-05 0.0
-6.174255e-06 -3.556725e-05 0.0
-7.368660e-05 3.908738e-05 0.0
-2.150021e-04 2.219513e-04 0.0
-4.387827e-04 4.778447e-04 0.0
-7.487917e-04 7.819877e-04 0.0
-1.146395e-03 1.115501e-03 0.0
-1.632386e-03 1.462890e-03 0.0
-2.207427e-03 1.810818e-03 0.0
-2.871320e-03 2.148163e-03 0.0
-3.621898e-03 2.466658e-03 0.0
-4.454393e-03 2.761295e-03 0.0
-5.361722e-03 3.029986e-03 0.0
-6.335548e-03 3.272531e-03 0.0
-7.367540e-03 3.489378e-03 0.0
-8.450218e-03 3.680721e-03 0.0
-9.577086e-03 3.846279e-03 0.0
-1.074218e-02 3.985648e-03 0.0
-1.193943e-02 4.098860e-03 0.0
-1.316228e-02 4.186740e-03 0.0
-1.440374e-02 4.250841e-03 0.0
-1.565680e-02 4.293019e-03 0.0
-1.691486e-02 4.314922e-03 0.0
-1.817207e-02 4.317651e-03 0.0
-1.942329e-02 4.301746e-03 0.0
-2.066379e-02 4.267442e-03 0.0
-2.188894e-02 4.215006e-03 0.0
-2.309399e-02 4.144955e-03 0.0
-2.427403e-02 4.058093e-03 0.0
-2.542410e-02 3.955361e-03 0.0
-2.653945e-02 3.837632e-03 0.0
-2.761558e-02 3.705552e-03 0.0
-2.864837e-02 3.559501e-03 0.0
-2.963396e-02 3.399671e-03 0.0
-3.056863e-02 3.226199e-03 0.0
-3.144873e-02 3.039284e-03 0.0
-3.227065e-02 2.839257e-03 0.0
-3.303080e-02 2.626586e-03 0.0
-3.372571e-02 2.401832e-03 0.0
-3.435207e-02 2.165617e-03 0.0
-3.490682e-02 1.918587e-03 0.0
-3.538713e-02 1.661424e-03 0.0
-3.579043e-02 1.394866e-03 0.0
-3.611445e-02 1.119747e-03 0.0
-3.635719e-02 8.370244e-04 0.0
-3.651696e-02 5.478071e-04 0.0
-3.659243e-02 2.533723e-04 0.0
-3.658261e-02 -4.482403e-05 0.0
-3.648696e-02 -3.451376e-04 0.0
-3.630537e-02 -6.458631e-04 0.0
-3.603818e-02 -9.453370e-04 0.0
-3.568620e-02 -1.241932e-03 0.0
-3.525067e-02 -1.534050e-03 0.0
-3.473327e-02 -1.820124e-03 0.0
-3.413614e-02 -2.098611e-03 0.0
-3.346182e-02 -2.367996e-03 0.0
-3.271327e-02 -2.626797e-03 0.0
-3.189387e-02 -2.873569e-03 0.0
-3.100737e-02 -3.106913e-03 0.0
-3.005790e-02 -3.325483e-03 0.0
-2.904995e-02 -3.527998e-03 0.0
-2.798835e-02 -3.713250e-03 0.0
-2.687822e-02 -3.880119e-03 0.0
-2.572500e-02 -4.027574e-03 0.0
-2.453437e-02 -4.154694e-03 0.0
-2.331223e-02 -4.260669e-03 0.0
-2.206471e-02 -4.344812e-03 0.0
-2.079806e-02 -4.406570e-03 0.0
-1.951868e-02 -4.445523e-03 0.0
-1.823304e-02 -4.461399e-03 0.0
-1.694766e-02 -4.454072e-03 0.0
-1.566905e-02 -4.423570e-03 0.0
-1.440370e-02 -4.370053e-03 0.0
-1.315799e-02 -4.293825e-03 0.0
-1.193820e-02 -4.195331e-03 0.0
-1.075043e-02 -4.075162e-03 0.0
-9.600574e-03 -3.934062e-03 0.0
-8.494298e-03 -3.772925e-03 0.0
-7.436956e-03 -3.592801e-03 0.0
-6.433566e-03 -3.394900e-03 0.0
-5.488759e-03 -3.180595e-03 0.0
-4.606728e-03 -2.951431e-03 0.0
-3.791176e-03 -2.709132e-03 0.0
-3.045263e-03 -2.455615e-03 0.0
-2.371548e-03 -2.193007e-03 0.0
-1.771927e-03 -1.923666e-03 0.0
-1.247565e-03 -1.650204e-03 0.0
-7.988281e-04 -1.375523e-03 0.0
-4.251974e-04 -1.102857e-03 0.0
-1.251914e-04 -8.358156e-04 0.0
1.037273e-04 -5.784446e-04 0.0
2.652408e-04 -3.352907e-04 0.0
3.642876e-04 -1.114802e-04 0.0
4.071523e-04 8.722150e-05 0.0
4.015647e-04 2.543396e-04 0.0
3.567864e-04 3.826587e-04 0.0
2.837220e-04 4.642232e-04 0.0
1.950900e-04 4.904261e-04 0.0
1.057597e-04 4.521792e-04 0.0
3.344400e-05 3.401085e-04 0.0
0.000000e+00 1.446007e-04 0.0
0.000000e+00 -1.445975e-04 0.0
0.000000e+00 2.185952e-05 0.0
-1.933876e-05 1.094459e-07 0.0
-1.308608e-04 1.454045e-04 0.0
-3.334352e-04 4.126559e-04 0.0
-6.313735e-04 7.641621e-04 0.0
-1.026793e-03 1.171864e-03 0.0
-1.521315e-03 1.612456e-03 0.0
-2.116533e-03 2.066080e-03 0.0
-2.813226e-03 2.516201e-03 0.0
-3.610115e-03 2.950165e-03 0.0
-4.503063e-03 3.359540e-03 0.0
-5.485251e-03 3.739677e-03 0.0
-6.548217e-03 4.088528e-03 0.0
-7.683193e-03 4.405222e-03 0.0
-8.882061e-03 4.689013e-03 0.0
-1.013758e-02 4.938959e-03 0.0
-1.144297e-02 5.154228e-03 0.0
-1.279130e-02 5.334654e-03 0.0
-1.417510e-02 5.481070e-03 0.0
-1.558637e-02 5.595194e-03 0.0
-1.701709e-02 5.679145e-03 0.0
-1.845963e-02 5.734853e-03 0.0
-1.990716e-02 5.763698e-03 0.0
-2.135357e-02 5.766483e-03 0.0
-2.279320e-02 5.743706e-03 0.0
-2.422052e-02 5.695924e-03 0.0
-2.562985e-02 5.623981e-03 0.0
-2.701542e-02 5.529013e-03 0.0
-2.837142e-02 5.412270e-03 0.0
-2.969229e-02 5.274888e-03 0.0
-3.097279e-02 5.117717e-03 0.0
-3.220808e-02 4.941298e-03 0.0
-3.339360e-02 4.745961e-03 0.0
-3.452498e-02 4.531973e-03 0.0
-3.559791e-02 4.299677e-03 0.0
-3.660813e-02 4.049552e-03 0.0
-3.755142e-02 3.782214e-03 0.0
-3.842369e-02 3.498369e-03 0.0
-3.922106e-02 3.198768e-03 0.0
-3.993987e-02 2.884183e-03 0.0
-4.057674e-02 2.555423e-03 0.0
-4.112854e-02 2.213359e-03 0.0
-4.159246e-02 1.858977e-03 0.0
-4.196595e-02 1.493407e-03 0.0
-4.224678e-02 1.117956e-03 0.0
-4.243309e-02 7.341163e-04 0.0
-4.252337e-02 3.435810e-04 0.0
-4.251656e-02 -5.175346e-05 0.0
-4.241204e-02 -4.497791e-04 0.0
-4.220970e-02 -8.483000e-04 0.0
-4.190994e-02 -1.245163e-03 0.0
-4.151364e-02 -1.638250e-03 0.0
-4.102220e-02 -2.025478e-03 0.0
-4.043750e-02 -2.404792e-03 0.0
-3.976192e-02 -2.774165e-03 0.0
-3.899828e-02 -3.131607e-03 0.0
-3.814990e-02 -3.475166e-03 0.0
-3.722054e-02 -3.802940e-03 0.0
-3.621440e-02 -4.113086e-03 0.0
-3.513609e-02 -4.403835e-03 0.0
-3.399063e-02 -4.673501e-03 0.0
-3.278343e-02 -4.920497e-03 0.0
-3.152024e-02 -5.143347e-03 0.0
-3.020713e-02 -5.340701e-03 0.0
-2.885049e-02 -5.511344e-03 0.0
-2.745694e-02 -5.654210e-03 0.0
-2.603334e-02 -5.768393e-03 0.0
-2.458673e-02 -5.853156e-03 0.0
-2.312430e-02 -5.907938e-03 0.0
-2.165333e-02 -5.932364e-03 0.0
-2.018116e-02 -5.926251e-03 0.0
-1.871513e-02 -5.889618e-03 0.0
-1.726255e-02 -5.822665e-03 0.0
-1.583061e-02 -5.725780e-03 0.0
-1.442642e-02 -5.599540e-03 0.0
-1.305687e-02 -5.444720e-03 0.0
-1.172865e-02 -5.262289e-03 0.0
-1.044815e-02 -5.053422e-03 0.0
-9.221454e-03 -4.819497e-03 0.0
-8.054254e-03 -4.562101e-03 0.0
-6.951810e-03 -4.283042e-03 0.0
-5.918894e-03 -3.984350e-03 0.0
-4.959732e-03 -3.668297e-03 0.0
-4.077941e-03 -3.337405e-03 0.0
-3.276472e-03 -2.994473e-03 0.0
-2.557538e-03 -2.642594e-03 0.0
-1.922545e-03 -2.285189e-03 0.0
-1.372016e-03 -1.926042e-03 0.0
-9.055167e-04 -1.569347e-03 0.0
-5.215658e-04 -1.219758e-03 0.0
-2.175544e-04 -8.824484e-04 0.0
1.034560e-05 -5.631840e-04 0.0
1.672638e-04 -2.683925e-04 0.0
2.597273e-04 -5.236172e-06 0.0
2.957528e-04 2.183201e-04 0.0
2.849394e-04 3.934786e-04 0.0
2.385920e-04 5.105775e-04 0.0
1.699240e-04 5.591016e-04 0.0
9.440866e-05 5.277023e-04 0.0
3.038532e-05 4.041395e-04 0.0
0.000000e+00 1.749937e-04 0.0
0.000000e+00 -1.749856e-04 0.0
0.000000e+00 -2.452995e-05 0.0
-3.751603e-05 4.624339e-05 0.0
-1.926950e-04 2.893679e-04 0.0
-4.558924e-04 6.642406e-04 0.0
-8.285229e-04 1.130877e-03 0.0
-1.312018e-03 1.657441e-03 0.0
-1.908155e-03 2.216529e-03 0.0
-2.618179e-03 2.785120e-03 0.0
-3.441406e-03 3.345079e-03 0.0
-4.374249e-03 3.883482e-03 0.0
-5.410249e-03 4.392136e-03 0.0
-6.541046e-03 4.866287e-03 0.0
-7.757715e-03 5.303033e-03 0.0
-9.051771e-03 5.700113e-03 0.0
-1.041545e-02 6.055452e-03 0.0
-1.184135e-02 6.367412e-03 0.0
-1.332180e-02 6.635309e-03 0.0
-1.484849e-02 6.859729e-03 0.0
-1.641258e-02 7.042359e-03 0.0
-1.800511e-02 7.185438e-03 0.0
-1.961758e-02 7.291099e-03 0.0
-2.124223e-02 7.360963e-03 0.0
-2.287208e-02 7.396097e-03 0.0
-2.450056e-02 7.397291e-03 0.0
-2.612123e-02 7.365422e-03 0.0
-2.772753e-02 7.301689e-03 0.0
-2.931280e-02 7.207598e-03 0.0
-3.087040e-02 7.084753e-03 0.0
-3.239398e-02 6.934593e-03 0.0
-3.387758e-02 6.758227e-03 0.0
-3.531567e-02 6.556408e-03 0.0
-3.670301e-02 6.329654e-03 0.0
-3.803455e-02 6.078415e-03 0.0
-3.930532e-02 5.803211e-03 0.0
-4.051040e-02 5.504704e-03 0.0
-4.164495e-02 5.183680e-03 0.0
-4.270427e-02 4.841001e-03 0.0
-4.368389e-02 4.477559e-03 0.0
-4.457958e-02 4.094254e-03 0.0
-4.538739e-02 3.692017e-03 0.0
-4.610364e-02 3.271853e-03 0.0
-4.672495e-02 2.834889e-03 0.0
-4.724822e-02 2.382417e-03 0.0
-4.767066e-02 1.915922e-03 0.0
-4.798983e-02 1.437100e-03 0.0
-4.820367e-02 9.478591e-04 0.0
-4.831056e-02 4.503332e-04 0.0
-4.830932e-02 -5.311751e-05 0.0
-4.819931e-02 -5.598957e-04 0.0
-4.798038e-02 -1.067279e-03 0.0
-4.765297e-02 -1.572585e-03 0.0
-4.721803e-02 -2.073163e-03 0.0
-4.667707e-02 -2.566395e-03 0.0
-4.603213e-02 -3.049690e-03 0.0
-4.528578e-02 -3.520492e-03 0.0
-4.444110e-02 -3.976284e-03 0.0
-4.350169e-02 -4.414598e-03 0.0
-4.247164e-02 -4.833029e-03 0.0
-4.135553e-02 -5.229249e-03 0.0
-4.015839e-02 -5.601021e-03 0.0
-3.888573e-02 -5.946216e-03 0.0
-3.754343e-02 -6.262829e-03 0.0
-3.613779e-02 -6.548996e-03 0.0
-3.467549e-02 -6.803008e-03 0.0
-3.316349e-02 -7.023326e-03 0.0
-3.160908e-02 -7.208597e-03 0.0
-3.001980e-02 -7.357665e-03 0.0
-2.840336e-02 -7.469582e-03 0.0
-2.676768e-02 -7.543623e-03 0.0
-2.512077e-02 -7.579292e-03 0.0
-2.347071e-02 -7.576332e-03 0.0
-2.182561e-02 -7.534747e-03 0.0
-2.019352e-02 -7.454775e-03 0.0
-1.858243e-02 -7.336891e-03 0.0
-1.700017e-02 -7.181812e-03 0.0
-1.545439e-02 -6.990504e-03 0.0
-1.395250e-02 -6.764182e-03 0.0
-1.250160e-02 -6.504318e-03 0.0
-1.110846e-02 -6.212643e-03 0.0
-9.779411e-03 -5.891157e-03 0.0