# vtk DataFile Version 3.0
Vector Field
ASCII
DATASET RECTILINEAR_GRID
DIMENSIONS 102 102 1
X_COORDINATES 102 double
0.000000 0.100000 0.200000 0.300000 0.400000 0.500000 0.600000 0.700000 0.800000 0.900000 1.000000 1.100000 1.200000 1.300000 1.400000 1.500000 1.600000 1.700000 1.800000 1.900000 2.000000 2.100000 2.200000 2.300000 2.400000 2.500000 2.600000 2.700000 2.800000 2.900000 3.000000 3.100000 3.200000 3.300000 3.400000 3.500000 3.600000 3.700000 3.800000 3.900000 4.000000 4.100000 4.200000 4.300000 4.400000 4.500000 4.600000 4.700000 4.800000 4.900000 5.000000 5.100000 5.200000 5.300000 5.400000 5.500000 5.600000 5.700000 5.800000 5.900000 6.000000 6.100000 6.200000 6.300000 6.400000 6.500000 6.600000 6.700000 6.800000 6.900000 7.000000 7.100000 7.200000 7.300000 7.400000 7.500000 7.600000 7.700000 7.800000 7.900000 8.000000 8.100000 8.200000 8.300000 8.400000 8.500000 8.600000 8.700000 8.800000 8.900000 9.000000 9.100000 9.200000 9.300000 9.400000 9.500000 9.600000 9.700000 9.800000 9.900000 10.000000 10.100000 
Y_COORDINATES 102 double
0.000000 0.100000 0.200000 0.300000 0.400000 0.500000 0.600000 0.700000 0.800000 0.900000 1.000000 1.100000 1.200000 1.300000 1.400000 1.500000 1.600000 1.700000 1.800000 1.900000 2.000000 2.100000 2.200000 2.300000 2.400000 2.500000 2.600000 2.700000 2.800000 2.900000 3.000000 3.100000 3.200000 3.300000 3.400000 3.500000 3.600000 3.700000 3.800000 3.900000 4.000000 4.100000 4.200000 4.300000 4.400000 4.500000 4.600000 4.700000 4.800000 4.900000 5.000000 5.100000 5.200000 5.300000 5.400000 5.500000 5.600000 5.700000 5.800000 5.900000 6.000000 6.100000 6.200000 6.300000 6.400000 6.500000 6.600000 6.700000 6.800000 6.900000 7.000000 7.100000 7.200000 7.300000 7.400000 7.500000 7.600000 7.700000 7.800000 7.900000 8.000000 8.100000 8.200000 8.300000 8.400000 8.500000 8.600000 8.700000 8.800000 8.900000 9.000000 9.100000 9.200000 9.300000 9.400000 9.500000 9.600000 9.700000 9.800000 9.900000 10.000000 10.100000 
Z_COORDINATES 1 double
0.0
POINT_DATA 10404
VECTORS Velocity double
0.000000e+00 0.000000e+00 0.0
2.086315e-05 0.000000e+00 0.0
-4.563872e-06 0.000000e+00 0.0
-3.619340e-05 0.000000e+00 0.0
-5.854512e-05 0.000000e+00 0.0
-6.298583e-05 0.000000e+00 0.0
-4.733201e-05 0.000000e+00 0.0
-1.348397e-05 0.000000e+00 0.0
3.528860e-05 0.000000e+00 0.0
9.616875e-05 0.000000e+00 0.0
1.673294e-04 0.000000e+00 0.0
2.476045e-04 0.000000e+00 0.0
3.359929e-04 0.000000e+00 0.0
4.314623e-04 0.000000e+00 0.0
5.330903e-04 0.000000e+00 0.0
6.402869e-04 0.000000e+00 0.0
7.528277e-04 0.000000e+00 0.0
8.706220e-04 0.000000e+00 0.0
9.933540e-04 0.000000e+00 0.0
1.120227e-03 0.000000e+00 0.0
1.249970e-03 0.000000e+00 0.0
1.381094e-03 0.000000e+00 0.0
1.512256e-03 0.000000e+00 0.0
1.642534e-03 0.000000e+00 0.0
1.771488e-03 0.000000e+00 0.0
1.899018e-03 0.000000e+00 0.0
2.025109e-03 0.000000e+00 0.0
2.149602e-03 0.000000e+00 0.0
2.272093e-03 0.000000e+00 0.0
2.391967e-03 0.000000e+00 0.0
2.508527e-03 0.000000e+00 0.0
2.621128e-03 0.000000e+00 0.0
2.729256e-03 0.000000e+00 0.0
2.832534e-03 0.000000e+00 0.0
2.930666e-03 0.000000e+00 0.0
3.023361e-03 0.000000e+00 0.0
3.110288e-03 0.000000e+00 0.0
3.191057e-03 0.000000e+00 0.0
3.265239e-03 0.000000e+00 0.0
3.332407e-03 0.000000e+00 0.0
3.392161e-03 0.000000e+00 0.0
3.444145e-03 0.000000e+00 0.0
3.488045e-03 0.000000e+00 0.0
3.523578e-03 0.000000e+00 0.0
3.550478e-03 0.000000e+00 0.0
3.568500e-03 0.000000e+00 0.0
3.577424e-03 0.000000e+00 0.0
3.577074e-03 0.000000e+00 0.0
3.567347e-03 0.000000e+00 0.0
3.548215e-03 0.000000e+00 0.0
3.519719e-03 0.000000e+00 0.0
3.481955e-03 0.000000e+00 0.0
3.435068e-03 0.000000e+00 0.0
3.379248e-03 0.000000e+00 0.0
3.314728e-03 0.000000e+00 0.0
3.241782e-03 0.000000e+00 0.0
3.160733e-03 0.000000e+00 0.0
3.071950e-03 0.000000e+00 0.0
2.975851e-03 0.000000e+00 0.0
2.872904e-03 0.000000e+00 0.0
2.763624e-03 0.000000e+00 0.0
2.648567e-03 0.000000e+00 0.0
2.528327e-03 0.000000e+00 0.0
2.403532e-03 0.000000e+00 0.0
2.274838e-03 0.000000e+00 0.0
2.142928e-03 0.000000e+00 0.0
2.008505e-03 0.000000e+00 0.0
1.872290e-03 0.000000e+00 0.0
1.735019e-03 0.000000e+00 0.0
1.597437e-03 0.000000e+00 0.0
1.460296e-03 0.000000e+00 0.0
1.324344e-03 0.000000e+00 0.0
1.190326e-03 0.000000e+00 0.0
1.058979e-03 0.000000e+00 0.0
9.310223e-04 0.000000e+00 0.0
8.071618e-04 0.000000e+00 0.0
6.880781e-04 0.000000e+00 0.0
5.744259e-04 0.000000e+00 0.0
4.668280e-04 0.000000e+00 0.0
3.658718e-04 0.000000e+00 0.0
2.721043e-04 0.000000e+00 0.0
1.860272e-04 0.000000e+00 0.0
1.080914e-04 0.000000e+00 0.0
3.869163e-05 0.000000e+00 0.0
-2.183997e-05 0.000000e+00 0.0
-7.324073e-05 0.000000e+00 0.0
-1.153264e-04 0.000000e+00 0.0
-1.480008e-04 0.000000e+00 0.0
-1.712678e-04 0.000000e+00 0.0
-1.852478e-04 0.000000e+00 0.0
-1.901982e-04 0.000000e+00 0.0
-1.865420e-04 0.000000e+00 0.0
-1.749050e-04 0.000000e+00 0.0
-1.561697e-04 0.000000e+00 0.0
-1.315498e-04 0.000000e+00 0.0
-1.026985e-04 0.000000e+00 0.0
-7.185981e-05 0.000000e+00 0.0
-4.206299e-05 0.000000e+00 0.0
-1.728810e-05 0.000000e+00 0.0
-2.218455e-06 0.000000e+00 0.0
-0.000000e+00 0.000000e+00 0.0
0.000000e+00 0.000000e+00 0.0
0.000000e+00 4.160678e-05 0.0
1.824585e-05 -2.600411e-06 0.0
4.737882e-05 -6.892574e-06 0.0
6.400645e-05 -4.389937e-06 0.0
6.611207e-05 -1.556665e-06 0.0
5.492365e-05 3.179713e-06 0.0
3.190148e-05 1.074563e-05 0.0
-2.346621e-06 2.099296e-05 0.0
-4.767879e-05 3.314002e-05 0.0
-1.037684e-04 4.643565e-05 0.0
-1.699216e-04 6.037524e-05 0.0
-2.453815e-04 7.445716e-05 0.0
-3.297042e-04 8.788165e-05 0.0
-4.228140e-04 9.956311e-05 0.0
-5.246671e-04 1.085096e-04 0.0
-6.347696e-04 1.143122e-04 0.0
-7.518964e-04 1.174007e-04 0.0
-8.742078e-04 1.188809e-04 0.0
-9.997002e-04 1.200379e-04 0.0
-1.126734e-03 1.217803e-04 0.0
-1.254363e-03 1.243150e-04 0.0
-1.382315e-03 1.271861e-04 0.0
-1.510700e-03 1.296111e-04 0.0
-1.639602e-03 1.309037e-04 0.0
-1.768793e-03 1.307685e-04 0.0
-1.897659e-03 1.293545e-04 0.0
-2.025335e-03 1.270927e-04 0.0
-2.150927e-03 1.244425e-04 0.0
-2.273703e-03 1.216877e-04 0.0
-2.393169e-03 1.188645e-04 0.0
-2.509020e-03 1.158214e-04 0.0
-2.621024e-03 1.123485e-04 0.0
-2.728911e-03 1.082960e-04 0.0
-2.832317e-03 1.036301e-04 0.0
-2.930786e-03 9.841749e-05 0.0
-3.023825e-03 9.276641e-05 0.0
-3.110956e-03 8.676633e-05 0.0
-3.191752e-03 8.045502e-05 0.0
-3.265840e-03 7.382173e-05 0.0
-3.332884e-03 6.683440e-05 0.0
-3.392555e-03 5.947078e-05 0.0
-3.444521e-03 5.173673e-05 0.0
-3.488448e-03 4.366587e-05 0.0
-3.524006e-03 3.530558e-05 0.0
-3.550899e-03 2.669989e-05 0.0
-3.568873e-03 1.787926e-05 0.0
-3.577725e-03 8.862206e-06 0.0
-3.577313e-03 -3.316075e-07 0.0
-3.567561e-03 -9.658780e-06 0.0
-3.548454e-03 -1.906065e-05 0.0
-3.520024e-03 -2.847444e-05 0.0
-3.482341e-03 -3.782840e-05 0.0
-3.435522e-03 -4.704691e-05 0.0
-3.379735e-03 -5.605827e-05 0.0
-3.315203e-03 -6.480087e-05 0.0
-3.242208e-03 -7.322535e-05 0.0
-3.161087e-03 -8.129284e-05 0.0
-3.072227e-03 -8.897053e-05 0.0
-2.976065e-03 -9.622677e-05 0.0
-2.873076e-03 -1.030275e-04 0.0
-2.763777e-03 -1.093347e-04 0.0
-2.648718e-03 -1.151072e-04 0.0
-2.528486e-03 -1.203025e-04 0.0
-2.403699e-03 -1.248801e-04 0.0
-2.275009e-03 -1.288030e-04 0.0
-2.143092e-03 -1.320400e-04 0.0
-2.008653e-03 -1.345664e-04 0.0
-1.872417e-03 -1.363635e-04 0.0
-1.735121e-03 -1.374186e-04 0.0
-1.597515e-03 -1.377240e-04 0.0
-1.460350e-03 -1.372774e-04 0.0
-1.324376e-03 -1.360804e-04 0.0
-1.190338e-03 -1.341383e-04 0.0
-1.058971e-03 -1.314602e-04 0.0
-9.309961e-04 -1.280600e-04 0.0
-8.071183e-04 -1.239560e-04 0.0
-6.880194e-04 -1.191717e-04 0.0
-5.743547e-04 -1.137347e-04 0.0
-4.667482e-04 -1.076774e-04 0.0
-3.657877e-04 -1.010360e-04 0.0
-2.720197e-04 -9.385071e-05 0.0
-1.859448e-04 -8.616604e-05 0.0
-1.080127e-04 -7.803124e-05 0.0
-3.861660e-05 -6.950104e-05 0.0
2.191249e-05 -6.063658e-05 0.0
7.331227e-05 -5.150643e-05 0.0
1.153981e-04 -4.218890e-05 0.0
1.480728e-04 -3.277255e-05 0.0
1.713396e-04 -2.335876e-05 0.0
1.853179e-04 -1.406493e-05 0.0
1.902644e-04 -5.029437e-06 0.0
1.866018e-04 3.581705e-06 0.0
1.749564e-04 1.156487e-05 0.0
1.562110e-04 1.866371e-05 0.0
1.315804e-04 2.454692e-05 0.0
1.027187e-04 2.877563e-05 0.0
7.187099e-05 3.075956e-05 0.0
4.206715e-05 2.971365e-05 0.0
1.728771e-05 2.468776e-05 0.0
2.216542e-06 1.497893e-05 0.0
0.000000e+00 2.124313e-06 0.0
0.000000e+00 -2.117668e-06 0.0
0.000000e+00 5.554958e-05 0.0
3.205161e-05 -1.161259e-05 0.0
5.887158e-05 -3.560403e-05 0.0
7.259155e-05 -2.862514e-05 0.0
6.349010e-05 -4.307810e-06 0.0
2.578959e-05 3.184273e-05 0.0
-4.388898e-05 7.516130e-05 0.0
-1.469050e-04 1.219806e-04 0.0
-2.828956e-04 1.698102e-04 0.0
-4.503408e-04 2.171030e-04 0.0
-6.472795e-04 2.626994e-04 0.0
-8.718286e-04 3.053568e-04 0.0
-1.122273e-03 3.436984e-04 0.0
-1.396787e-03 3.765802e-04 0.0
-1.693072e-03 4.035691e-04 0.0
-2.008206e-03 4.251656e-04 0.0
-2.338831e-03 4.425899e-04 0.0
-2.681586e-03 4.572384e-04 0.0
-3.033541e-03 4.701071e-04 0.0
-3.392414e-03 4.814739e-04 0.0
-3.756515e-03 4.909648e-04 0.0
-4.124468e-03 4.979123e-04 0.0
-4.494900e-03 5.017811e-04 0.0
-4.866243e-03 5.024429e-04 0.0
-5.236720e-03 5.001972e-04 0.0
-5.604472e-03 4.955852e-04 0.0
-5.967725e-03 4.891303e-04 0.0
-6.324912e-03 4.811449e-04 0.0
-6.674683e-03 4.716816e-04 0.0
-7.015844e-03 4.606139e-04 0.0
-7.347252e-03 4.477746e-04 0.0
-7.667742e-03 4.330701e-04 0.0
-7.976093e-03 4.165229e-04 0.0
-8.271053e-03 3.982441e-04 0.0
-8.551381e-03 3.783688e-04 0.0
-8.815880e-03 3.569996e-04 0.0
-9.063414e-03 3.341831e-04 0.0
-9.292901e-03 3.099234e-04 0.0
-9.503300e-03 2.842151e-04 0.0
-9.693589e-03 2.570757e-04 0.0
-9.862774e-03 2.285596e-04 0.0
-1.000989e-02 1.987533e-04 0.0
-1.013403e-02 1.677595e-04 0.0
-1.023437e-02 1.356807e-04 0.0
-1.031017e-02 1.026134e-04 0.0
-1.036080e-02 6.865501e-05 0.0
-1.038574e-02 3.392184e-05 0.0
-1.038460e-02 -1.428515e-06 0.0
-1.035715e-02 -3.717256e-05 0.0
-1.030330e-02 -7.305908e-05 0.0
-1.022312e-02 -1.088494e-04 0.0
-1.011682e-02 -1.443148e-04 0.0
-9.984775e-03 -1.792397e-04 0.0
-9.827484e-03 -2.134242e-04 0.0
-9.645605e-03 -2.466843e-04 0.0
-9.439937e-03 -2.788475e-04 0.0
-9.211414e-03 -3.097482e-04 0.0
-8.961100e-03 -3.392224e-04 0.0
-8.690185e-03 -3.671057e-04 0.0
-8.399978e-03 -3.932328e-04 0.0
-8.091902e-03 -4.174407e-04 0.0
-7.767489e-03 -4.395719e-04 0.0
-7.428374e-03 -4.594786e-04 0.0
-7.076288e-03 -4.770262e-04 0.0
-6.713047e-03 -4.920950e-04 0.0
-6.340545e-03 -5.045820e-04 0.0
-5.960740e-03 -5.144011e-04 0.0
-5.575642e-03 -5.214831e-04 0.0
-5.187303e-03 -5.257761e-04 0.0
-4.797796e-03 -5.272456e-04 0.0
-4.409211e-03 -5.258767e-04 0.0
-4.023631e-03 -5.216722e-04 0.0
-3.643130e-03 -5.146507e-04 0.0
-3.269753e-03 -5.048470e-04 0.0
-2.905512e-03 -4.923131e-04 0.0
-2.552363e-03 -4.771183e-04 0.0
-2.212205e-03 -4.593490e-04 0.0
-1.886856e-03 -4.391089e-04 0.0
-1.578046e-03 -4.165183e-04 0.0
-1.287403e-03 -3.917154e-04 0.0
-1.016437e-03 -3.648560e-04 0.0
-7.665275e-04 -3.361150e-04 0.0
-5.389061e-04 -3.056882e-04 0.0
-3.346429e-04 -2.737940e-04 0.0
-1.546265e-04 -2.406758e-04 0.0
4.563558e-07 -2.066060e-04 0.0
1.301446e-04 -1.718893e-04 0.0
2.342331e-04 -1.368708e-04 0.0
3.128082e-04 -1.019435e-04 0.0
3.662903e-04 -6.755858e-05 0.0
3.954882e-04 -3.424185e-05 0.0
4.016681e-04 -2.616016e-06 0.0
3.866414e-04 2.657056e-05 0.0
3.528774e-04 5.240444e-05 0.0
3.036445e-04 7.375513e-05 0.0
2.431814e-04 8.921334e-05 0.0
1.768806e-04 9.703501e-05 0.0
1.114196e-04 9.514931e-05 0.0
5.467452e-05 8.140800e-05 0.0
1.506665e-05 5.456250e-05 0.0
0.000000e+00 1.716699e-05 0.0
0.000000e+00 -1.715843e-05 0.0
0.000000e+00 5.887688e-05 0.0
3.075387e-05 -2.885715e-05 0.0
4.192287e-05 -5.746426e-05 0.0
3.339855e-05 -3.125984e-05 0.0
-8.123541e-06 2.947826e-05 0.0
-9.188017e-05 1.118049e-04 0.0
-2.234526e-04 2.060184e-04 0.0
-4.050694e-04 3.053421e-04 0.0
-6.364753e-04 4.053023e-04 0.0
-9.160492e-04 5.027573e-04 0.0
-1.241641e-03 5.951128e-04 0.0
-1.610835e-03 6.800788e-04 0.0
-2.020737e-03 7.559354e-04 0.0
-2.467684e-03 8.219454e-04 0.0
-2.947201e-03 8.785076e-04 0.0
-3.454344e-03 9.268637e-04 0.0
-3.984264e-03 9.684814e-04 0.0
-4.532699e-03 1.004433e-03 0.0
-5.096164e-03 1.035074e-03 0.0
-5.671798e-03 1.060133e-03 0.0
-6.257012e-03 1.079091e-03 0.0
-6.849144e-03 1.091621e-03 0.0
-7.445301e-03 1.097831e-03 0.0
-8.042413e-03 1.098253e-03 0.0
-8.637434e-03 1.093619e-03 0.0
-9.227539e-03 1.084583e-03 0.0
-9.810227e-03 1.071548e-03 0.0
-1.038329e-02 1.054632e-03 0.0
-1.094469e-02 1.033778e-03 0.0
-1.149244e-02 1.008903e-03 0.0
-1.202453e-02 9.800051e-04 0.0
-1.253888e-02 9.471982e-04 0.0
-1.303343e-02 9.106681e-04 0.0
-1.350617e-02 8.706039e-04 0.0
-1.395518e-02 8.271443e-04 0.0
-1.437863e-02 7.803657e-04 0.0
-1.477475e-02 7.303059e-04 0.0
-1.514185e-02 6.770043e-04 0.0
-1.547824e-02 6.205342e-04 0.0
-1.578230e-02 5.610141e-04 0.0
-1.605243e-02 4.985993e-04 0.0
-1.628715e-02 4.334642e-04 0.0
-1.648510e-02 3.657890e-04 0.0
-1.664502e-02 2.957589e-04 0.0
-1.676583e-02 2.235777e-04 0.0
-1.684656e-02 1.494890e-04 0.0
-1.688645e-02 7.379896e-05 0.0
-1.688490e-02 -3.104797e-06 0.0
-1.684154e-02 -8.073844e-05 0.0
-1.675623e-02 -1.585871e-04 0.0
-1.662911e-02 -2.361700e-04 0.0
-1.646050e-02 -3.130366e-04 0.0
-1.625101e-02 -3.887625e-04 0.0
-1.600145e-02 -4.629439e-04 0.0
-1.571286e-02 -5.351911e-04 0.0
-1.538651e-02 -6.051209e-04 0.0
-1.502384e-02 -6.723532e-04 0.0
-1.462653e-02 -7.365095e-04 0.0
-1.419644e-02 -7.972152e-04 0.0
-1.373562e-02 -8.541045e-04 0.0
-1.324630e-02 -9.068261e-04 0.0
-1.273089e-02 -9.550490e-04 0.0
-1.219196e-02 -9.984666e-04 0.0
-1.163223e-02 -1.036800e-03 0.0
-1.105456e-02 -1.069800e-03 0.0
-1.046191e-02 -1.097249e-03 0.0
-9.857365e-03 -1.118962e-03 0.0
-9.244073e-03 -1.134788e-03 0.0
-8.625249e-03 -1.144612e-03 0.0
-8.004151e-03 -1.148356e-03 0.0
-7.384056e-03 -1.145984e-03 0.0
-6.768241e-03 -1.137500e-03 0.0
-6.159962e-03 -1.122942e-03 0.0
-5.562438e-03 -1.102386e-03 0.0
-4.978828e-03 -1.075942e-03 0.0
-4.412211e-03 -1.043760e-03 0.0
-3.865567e-03 -1.006024e-03 0.0
-3.341753e-03 -9.629587e-04 0.0
-2.843486e-03 -9.148249e-04 0.0
-2.373316e-03 -8.619240e-04 0.0
-1.933609e-03 -8.045981e-04 0.0
-1.526521e-03 -7.432327e-04 0.0
-1.153972e-03 -6.782595e-04 0.0
-8.176206e-04 -6.101605e-04 0.0
-5.188335e-04 -5.394724e-04 0.0
-2.586526e-04 -4.667938e-04 0.0
-3.775521e-05 -3.927935e-04 0.0
1.435882e-04 -3.182232e-04 0.0
2.855666e-04 -2.439348e-04 0.0
3.888964e-04 -1.709054e-04 0.0
4.548925e-04 -1.002588e-04 0.0
4.855604e-04 -3.330773e-05 0.0
4.837065e-04 2.839888e-05 0.0
4.530678e-04 8.301705e-05 0.0
3.984575e-04 1.283395e-04 0.0
3.259183e-04 1.617272e-04 0.0
2.428503e-04 1.800783e-04 0.0
1.580574e-04 1.799179e-04 0.0
8.164014e-05 1.578013e-04 0.0
2.477177e-05 1.114072e-04 0.0
0.000000e+00 4.191530e-05 0.0
0.000000e+00 -4.190124e-05 0.0
0.000000e+00 5.331186e-05 0.0
1.638424e-05 -4.373969e-05 0.0
4.487612e-06 -5.802691e-05 0.0
-3.784223e-05 3.065092e-06 0.0
-1.255434e-04 1.138854e-04 0.0
-2.689353e-04 2.552995e-04 0.0
-4.739045e-04 4.135475e-04 0.0
-7.427139e-04 5.789366e-04 0.0
-1.075278e-03 7.445179e-04 0.0
-1.470236e-03 9.049451e-04 0.0
-1.925394e-03 1.055960e-03 0.0
-2.437608e-03 1.194477e-03 0.0
-3.002529e-03 1.318878e-03 0.0
-3.614654e-03 1.429047e-03 0.0
-4.267805e-03 1.525968e-03 0.0
-4.955846e-03 1.610995e-03 0.0
-5.673293e-03 1.685157e-03 0.0
-6.415536e-03 1.748814e-03 0.0
-7.178638e-03 1.801750e-03 0.0
-7.958906e-03 1.843588e-03 0.0
-8.752494e-03 1.874220e-03 0.0
-9.555255e-03 1.894035e-03 0.0
-1.036285e-02 1.903859e-03 0.0
-1.117101e-02 1.904684e-03 0.0
-1.197582e-02 1.897366e-03 0.0
-1.277379e-02 1.882455e-03 0.0
-1.356180e-02 1.860194e-03 0.0
-1.433698e-02 1.830646e-03 0.0
-1.509650e-02 1.793861e-03 0.0
-1.583748e-02 1.749978e-03 0.0
-1.655703e-02 1.699247e-03 0.0
-1.725227e-02 1.641968e-03 0.0
-1.792042e-02 1.578419e-03 0.0
-1.855883e-02 1.508803e-03 0.0
-1.916499e-02 1.433254e-03 0.0
-1.973648e-02 1.351863e-03 0.0
-2.027093e-02 1.264736e-03 0.0
-2.076603e-02 1.172018e-03 0.0
-2.121951e-02 1.073905e-03 0.0
-2.162920e-02 9.706324e-04 0.0
-2.199303e-02 8.624558e-04 0.0
-2.230908e-02 7.496429e-04 0.0
-2.257558e-02 6.324787e-04 0.0
-2.279095e-02 5.112862e-04 0.0
-2.295376e-02 3.864512e-04 0.0
-2.306278e-02 2.584459e-04 0.0
-2.311702e-02 1.278428e-04 0.0
-2.311570e-02 -4.678169e-06 0.0
-2.305836e-02 -1.383254e-04 0.0
-2.294485e-02 -2.722760e-04 0.0
-2.277534e-02 -4.057581e-04 0.0
-2.255032e-02 -5.380401e-04 0.0
-2.227058e-02 -6.684184e-04 0.0
-2.193721e-02 -7.962060e-04 0.0
-2.155158e-02 -9.207238e-04 0.0
-2.111534e-02 -1.041296e-03 0.0
-2.063044e-02 -1.157251e-03 0.0
-2.009907e-02 -1.267926e-03 0.0
-1.952368e-02 -1.372675e-03 0.0
-1.890699e-02 -1.470874e-03 0.0
-1.825195e-02 -1.561932e-03 0.0
-1.756177e-02 -1.645293e-03 0.0
-1.683983e-02 -1.720442e-03 0.0
-1.608974e-02 -1.786911e-03 0.0
-1.531528e-02 -1.844276e-03 0.0
-1.452037e-02 -1.892165e-03 0.0
-1.370908e-02 -1.930260e-03 0.0
-1.288558e-02 -1.958300e-03 0.0
-1.205412e-02 -1.976084e-03 0.0
-1.121901e-02 -1.983478e-03 0.0
-1.038459e-02 -1.980416e-03 0.0
-9.555211e-03 -1.966900e-03 0.0
-8.735177e-03 -1.942995e-03 0.0
-7.928759e-03 -1.908826e-03 0.0
-7.140147e-03 -1.864583e-03 0.0
-6.373424e-03 -1.810518e-03 0.0
-5.632538e-03 -1.746948e-03 0.0
-4.921280e-03 -1.674256e-03 0.0
-4.243249e-03 -1.592892e-03 0.0
-3.601827e-03 -1.503377e-03 0.0
-3.000143e-03 -1.406304e-03 0.0
-2.441049e-03 -1.302341e-03 0.0
-1.927079e-03 -1.192237e-03 0.0
-1.460416e-03 -1.076828e-03 0.0
-1.042850e-03 -9.570421e-04 0.0
-6.757355e-04 -8.339141e-04 0.0
-3.599419e-04 -7.085978e-04 0.0
-9.579580e-05 -5.823854e-04 0.0
1.169816e-04 -4.567331e-04 0.0
2.793444e-04 -3.332928e-04 0.0
3.930188e-04 -2.139600e-04 0.0
4.605955e-04 -1.009117e-04 0.0
4.856422e-04 3.325419e-06 0.0
4.728278e-04 9.580589e-05 0.0
4.280483e-04 1.730948e-04 0.0
3.585460e-04 2.312065e-04 0.0
2.730026e-04 2.655991e-04 0.0
1.815934e-04 2.713046e-04 0.0
9.604563e-05 2.433265e-04 0.0
2.994169e-05 1.774886e-04 0.0
0.000000e+00 7.183449e-05 0.0
0.000000e+00 -7.181170e-05 0.0
0.000000e+00 4.096841e-05 0.0
-3.251369e-06 -4.848407e-05 0.0
-4.308929e-05 -2.809606e-05 0.0
-1.281309e-04 8.396589e-05 0.0
-2.725242e-04 2.583224e-04 0.0
-4.856981e-04 4.713470e-04 0.0
-7.728184e-04 7.058612e-04 0.0
-1.135972e-03 9.491260e-04 0.0
-1.575304e-03 1.191374e-03 0.0
-2.089561e-03 1.425011e-03 0.0
-2.676041e-03 1.644492e-03 0.0
-3.330379e-03 1.846450e-03 0.0
-4.046629e-03 2.029591e-03 0.0
-4.817844e-03 2.194147e-03 0.0
-5.636933e-03 2.340999e-03 0.0
-6.497402e-03 2.470883e-03 0.0
-7.393656e-03 2.583978e-03 0.0
-8.320804e-03 2.680001e-03 0.0
-9.274177e-03 2.758622e-03 0.0
-1.024889e-02 2.819904e-03 0.0
-1.123965e-02 2.864505e-03 0.0
-1.224095e-02 2.893563e-03 0.0
-1.324735e-02 2.908373e-03 0.0
-1.425380e-02 2.910057e-03 0.0
-1.525581e-02 2.899373e-03 0.0
-1.624932e-02 2.876741e-03 0.0
-1.723057e-02 2.842402e-03 0.0
-1.819590e-02 2.796587e-03 0.0
-1.914159e-02 2.739628e-03 0.0
-2.006393e-02 2.671957e-03 0.0
-2.095923e-02 2.594037e-03 0.0
-2.182396e-02 2.506276e-03 0.0
-2.265474e-02 2.408984e-03 0.0
-2.344835e-02 2.302380e-03 0.0
-2.420172e-02 2.186642e-03 0.0
-2.491183e-02 2.061961e-03 0.0
-2.557575e-02 1.928572e-03 0.0
-2.619060e-02 1.786764e-03 0.0
-2.675359e-02 1.636862e-03 0.0
-2.726209e-02 1.479210e-03 0.0
-2.771364e-02 1.314171e-03 0.0
-2.810592e-02 1.142133e-03 0.0
-2.843684e-02 9.635446e-04 0.0
-2.870447e-02 7.789378e-04 0.0
-2.890710e-02 5.889556e-04 0.0
-2.904327e-02 3.943613e-04 0.0
-2.911176e-02 1.960397e-04 0.0
-2.911169e-02 -5.004799e-06 0.0
-2.904253e-02 -2.076461e-04 0.0
-2.890412e-02 -4.107176e-04 0.0
-2.869670e-02 -6.131061e-04 0.0
-2.842088e-02 -8.137343e-04 0.0
-2.807761e-02 -1.011545e-03 0.0
-2.766823e-02 -1.205489e-03 0.0
-2.719439e-02 -1.394523e-03 0.0
-2.665809e-02 -1.577609e-03 0.0
-2.606169e-02 -1.753724e-03 0.0
-2.540784e-02 -1.921864e-03 0.0
-2.469954e-02 -2.081063e-03 0.0
-2.394010e-02 -2.230390e-03 0.0
-2.313312e-02 -2.368965e-03 0.0
-2.228248e-02 -2.495962e-03 0.0
-2.139232e-02 -2.610611e-03 0.0
-2.046704e-02 -2.712206e-03 0.0
-1.951121e-02 -2.800110e-03 0.0
-1.852962e-02 -2.873761e-03 0.0
-1.752722e-02 -2.932676e-03 0.0
-1.650907e-02 -2.976458e-03 0.0
-1.548037e-02 -3.004804e-03 0.0
-1.444636e-02 -3.017506e-03 0.0
-1.341233e-02 -3.014459e-03 0.0
-1.238359e-02 -2.995665e-03 0.0
-1.136540e-02 -2.961213e-03 0.0
-1.036297e-02 -2.911290e-03 0.0
-9.381411e-03 -2.846176e-03 0.0
-8.425718e-03 -2.766249e-03 0.0
-7.500716e-03 -2.671987e-03 0.0
-6.611035e-03 -2.563968e-03 0.0
-5.761076e-03 -2.442874e-03 0.0
-4.954971e-03 -2.309496e-03 0.0
-4.196548e-03 -2.164734e-03 0.0
-3.489289e-03 -2.009603e-03 0.0
-2.836287e-03 -1.845240e-03 0.0
-2.240204e-03 -1.672913e-03 0.0
-1.703224e-03 -1.494031e-03 0.0
-1.226993e-03 -1.310159e-03 0.0
-8.125715e-04 -1.123040e-03 0.0
-4.603626e-04 -9.346194e-04 0.0
-1.700458e-04 -7.470777e-04 0.0
5.950441e-05 -5.628715e-04 0.0
2.303010e-04 -3.847842e-04 0.0
3.453518e-04 -2.159884e-04 0.0
4.087608e-04 -6.010730e-05 0.0
4.258358e-04 7.870882e-05 0.0
4.031980e-04 1.957120e-04 0.0
3.488771e-04 2.855072e-04 0.0
2.724067e-04 3.420492e-04 0.0
1.849348e-04 3.587553e-04 0.0
9.945258e-05 3.287874e-04 0.0
3.138052e-05 2.455392e-04 0.0
0.000000e+00 1.031936e-04 0.0
0.000000e+00 -1.031599e-04 0.0
0.000000e+00 2.170279e-05 0.0
-2.335589e-05 -3.846668e-05 0.0
-9.482679e-05 3.730814e-05 0.0
-2.290440e-04 2.172476e-04 0.0
-4.374776e-04 4.693541e-04 0.0
-7.276123e-04 7.667595e-04 0.0
-1.103607e-03 1.089098e-03 0.0
-1.567291e-03 1.420532e-03 0.0
-2.118686e-03 1.748671e-03 0.0
-2.755965e-03 2.064243e-03 0.0
-3.475224e-03 2.361064e-03 0.0
-4.270579e-03 2.635789e-03 0.0
-5.134783e-03 2.887198e-03 0.0
-6.060182e-03 3.115170e-03 0.0
-7.039561e-03 3.319742e-03 0.0
-8.066544e-03 3.500610e-03 0.0
-9.135431e-03 3.657187e-03 0.0
-1.024072e-02 3.789017e-03 0.0
-1.137660e-02 3.896206e-03 0.0
-1.253683e-02 3.979594e-03 0.0
-1.371482e-02 4.040593e-03 0.0
-1.490405e-02 4.080802e-03 0.0
-1.609843e-02 4.101632e-03 0.0
-1.729243e-02 4.104101e-03 0.0
-1.848106e-02 4.088859e-03 0.0
-1.965968e-02 4.056369e-03 0.0
-2.082374e-02 4.007097e-03 0.0
-2.196871e-02 3.941613e-03 0.0
-2.309005e-02 3.860582e-03 0.0
-2.418331e-02 3.764674e-03 0.0
-2.524417e-02 3.654477e-03 0.0
-2.626856e-02 3.530450e-03 0.0
-2.725255e-02 3.392942e-03 0.0
-2.819240e-02 3.242250e-03 0.0
-2.908446e-02 3.078680e-03 0.0
-2.992515e-02 2.902579e-03 0.0
-3.071100e-02 2.714343e-03 0.0
-3.143863e-02 2.514400e-03 0.0
-3.210483e-02 2.303192e-03 0.0
-3.270659e-02 2.081179e-03 0.0
-3.324107e-02 1.848859e-03 0.0
-3.370562e-02 1.606806e-03 0.0
-3.409780e-02 1.355697e-03 0.0
-3.441540e-02 1.096344e-03 0.0
-3.465644e-02 8.296959e-04 0.0
-3.481924e-02 5.568373e-04 0.0
-3.490243e-02 2.789846e-04 0.0
-3.490503e-02 -2.516391e-06 0.0
-3.482648e-02 -2.861803e-04 0.0
-3.466663e-02 -5.704520e-04 0.0
-3.442575e-02 -8.538173e-04 0.0
-3.410455e-02 -1.134784e-03 0.0
-3.370414e-02 -1.411868e-03 0.0
-3.322601e-02 -1.683593e-03 0.0
-3.267209e-02 -1.948488e-03 0.0
-3.204469e-02 -2.205103e-03 0.0
-3.134650e-02 -2.452014e-03 0.0
-3.058063e-02 -2.687836e-03 0.0
-2.975053e-02 -2.911233e-03 0.0
-2.886004e-02 -3.120926e-03 0.0
-2.791333e-02 -3.315698e-03 0.0
-2.691489e-02 -3.494404e-03 0.0
-2.586953e-02 -3.655975e-03 0.0
-2.478232e-02 -3.799428e-03 0.0
-2.365856e-02 -3.923873e-03 0.0
-2.250381e-02 -4.028525e-03 0.0
-2.132379e-02 -4.112710e-03 0.0
-2.012439e-02 -4.175874e-03 0.0
-1.891162e-02 -4.217590e-03 0.0
-1.769158e-02 -4.237564e-03 0.0
-1.647043e-02 -4.235642e-03 0.0
-1.525430e-02 -4.211814e-03 0.0
-1.404935e-02 -4.166201e-03 0.0
-1.286162e-02 -4.099052e-03 0.0
-1.169708e-02 -4.010754e-03 0.0
-1.056153e-02 -3.901828e-03 0.0
-9.460608e-03 -3.772937e-03 0.0
-8.399706e-03 -3.624886e-03 0.0
-7.383963e-03 -3.458626e-03 0.0
-6.418201e-03 -3.275260e-03 0.0
-5.506891e-03 -3.076044e-03 0.0
-4.654100e-03 -2.862395e-03 0.0
-3.863446e-03 -2.635900e-03 0.0
-3.138042e-03 -2.398329e-03 0.0
-2.480448e-03 -2.151644e-03 0.0
-1.892608e-03 -1.898024e-03 0.0
-1.375786e-03 -1.639890e-03 0.0
-9.305015e-04 -1.379933e-03 0.0
-5.564532e-04 -1.121155e-03 0.0
-2.524384e-04 -8.669124e-04 0.0
-1.626742e-05 -6.209786e-04 0.0
1.553258e-04 -3.876024e-04 0.0
2.667810e-04 -1.715815e-04 0.0
3.238123e-04 2.165958e-05 0.0
3.334998e-04 1.860070e-04 0.0
3.043811e-04 3.146075e-04 0.0
2.465606e-04 3.998505e-04 0.0
1.718728e-04 4.334228e-04 0.0
9.419848e-05 4.064412e-04 0.0
3.009829e-05 3.096189e-04 0.0
0.000000e+00 1.332715e-04 0.0
0.000000e+00 -1.332262e-04 0.0
0.000000e+00 -6.725858e-06 0.0
-4.174225e-05 -1.184835e-05 0.0
-1.475945e-04 1.406385e-04 0.0
-3.351025e-04 4.065292e-04 0.0
-6.122710e-04 7.515515e-04 0.0
-9.844350e-04 1.146233e-03 0.0
-1.454685e-03 1.567241e-03 0.0
-2.024190e-03 1.996058e-03 0.0
-2.692045e-03 2.418446e-03 0.0
-3.454997e-03 2.824278e-03 0.0
-4.307504e-03 3.207165e-03 0.0
-5.242357e-03 3.563602e-03 0.0
-6.251675e-03 3.891782e-03 0.0
-7.327828e-03 4.190499e-03 0.0
-8.463896e-03 4.458540e-03 0.0
-9.653555e-03 4.694677e-03 0.0
-1.089060e-02 4.898055e-03 0.0
-1.216846e-02 5.068608e-03 0.0
-1.348002e-02 5.207200e-03 0.0
-1.481779e-02 5.315406e-03 0.0
-1.617431e-02 5.395069e-03 0.0
-1.754251e-02 5.447870e-03 0.0
-1.891591e-02 5.475098e-03 0.0
-2.028861e-02 5.477672e-03 0.0
-2.165505e-02 5.456316e-03 0.0
-2.300984e-02 5.411768e-03 0.0
-2.434760e-02 5.344881e-03 0.0
-2.566300e-02 5.256596e-03 0.0
-2.695080e-02 5.147839e-03 0.0
-2.820597e-02 5.019423e-03 0.0
-2.942370e-02 4.872005e-03 0.0
-3.059940e-02 4.706108e-03 0.0
-3.172863e-02 4.522188e-03 0.0
-3.280711e-02 4.320701e-03 0.0
-3.383064e-02 4.102134e-03 0.0
-3.479511e-02 3.867013e-03 0.0
-3.569660e-02 3.615881e-03 0.0
-3.653131e-02 3.349288e-03 0.0
-3.729569e-02 3.067802e-03 0.0
-3.798633e-02 2.772034e-03 0.0
-3.860007e-02 2.462682e-03 0.0
-3.913393e-02 2.140569e-03 0.0
-3.958515e-02 1.806664e-03 0.0
-3.995123e-02 1.462091e-03 0.0
-4.022998e-02 1.108125e-03 0.0
-4.041954e-02 7.461798e-04 0.0
-4.051844e-02 3.778117e-04 0.0
-4.052561e-02 4.730198e-06 0.0
-4.044044e-02 -3.711815e-04 0.0
-4.026278e-02 -7.479228e-04 0.0
-3.999294e-02 -1.123513e-03 0.0
-3.963167e-02 -1.495981e-03 0.0
-3.918019e-02 -1.863357e-03 0.0
-3.864018e-02 -2.223687e-03 0.0
-3.801375e-02 -2.575031e-03 0.0
-3.730348e-02 -2.915485e-03 0.0
-3.651241e-02 -3.243186e-03 0.0
-3.564398e-02 -3.556326e-03 0.0
-3.470209e-02 -3.853159e-03 0.0
-3.369103e-02 -4.132006e-03 0.0
-3.261546e-02 -4.391271e-03 0.0
-3.148041e-02 -4.629445e-03 0.0
-3.029128e-02 -4.845117e-03 0.0
-2.905372e-02 -5.036990e-03 0.0
-2.777372e-02 -5.203890e-03 0.0
-2.645748e-02 -5.344778e-03 0.0
-2.511145e-02 -5.458764e-03 0.0
-2.374222e-02 -5.545113e-03 0.0
-2.235658e-02 -5.603255e-03 0.0
-2.096138e-02 -5.632794e-03 0.0
-1.956353e-02 -5.633514e-03 0.0
-1.817000e-02 -5.605386e-03 0.0
-1.678767e-02 -5.548557e-03 0.0
-1.542341e-02 -5.463350e-03 0.0
-1.408393e-02 -5.350262e-03 0.0
-1.277580e-02 -5.209975e-03 0.0
-1.150539e-02 -5.043358e-03 0.0
-1.027881e-02 -4.851466e-03 0.0
-9.101886e-03 -4.635552e-03 0.0
-7.980081e-03 -4.397064e-03 0.0
-6.918471e-03 -4.137657e-03 0.0
-5.921679e-03 -3.859196e-03 0.0
-4.993824e-03 -3.563772e-03 0.0
-4.138464e-03 -3.253713e-03 0.0
-3.358536e-03 -2.931601e-03 0.0
-2.656292e-03 -2.600298e-03 0.0
-2.033236e-03 -2.262975e-03 0.0
-1.490050e-03 -1.923146e-03 0.0
-1.026521e-03 -1.584707e-03 0.0
-6.414579e-04 -1.251995e-03 0.0
-3.326152e-04 -9.298385e-04 0.0
-9.660302e-05 -6.236303e-04 0.0
7.119702e-05 -3.393968e-04 0.0
1.767150e-04 -8.387420e-05 0.0
2.272887e-04 1.354167e-04 0.0
2.317571e-04 3.101211e-04 0.0
2.005761e-04 4.310127e-04 0.0
1.460050e-04 4.879739e-04 0.0
8.242966e-05 4.699966e-04 0.0
2.690524e-05 3.651236e-04 0.0
0.000000e+00 1.601572e-04 0.0
0.000000e+00 -1.601006e-04 0.0
0.000000e+00 -4.717802e-05 0.0
-5.782430e-05 3.154054e-05 0.0
-1.996607e-04 2.830898e-04 0.0
-4.426698e-04 6.539960e-04 0.0
-7.915380e-04 1.107619e-03 0.0
-1.249553e-03 1.612290e-03 0.0
-1.818405e-03 2.142314e-03 0.0
-2.497783e-03 2.677440e-03 0.0
-3.284939e-03 3.202573e-03 0.0
-4.174665e-03 3.707312e-03 0.0
-5.159894e-03 4.184989e-03 0.0
-6.232698e-03 4.631346e-03 0.0
-7.385247e-03 5.043292e-03 0.0
-8.610291e-03 5.418174e-03 0.0
-9.901064e-03 5.753687e-03 0.0
-1.125081e-02 6.048218e-03 0.0
-1.265232e-02 6.301234e-03 0.0
-1.409774e-02 6.513386e-03 0.0
-1.557878e-02 6.686233e-03 0.0
-1.708715e-02 6.821735e-03 0.0
-1.861494e-02 6.921768e-03 0.0
-2.015482e-02 6.987856e-03 0.0
-2.170001e-02 7.021180e-03 0.0
-2.324412e-02 7.022754e-03 0.0
-2.478087e-02 6.993614e-03 0.0
-2.630408e-02 6.934927e-03 0.0
-2.780760e-02 6.847947e-03 0.0
-2.928546e-02 6.733897e-03 0.0
-3.073188e-02 6.593859e-03 0.0
-3.214137e-02 6.428734e-03 0.0
-3.350866e-02 6.239264e-03 0.0
-3.482866e-02 6.026111e-03 0.0
-3.609644e-02 5.789918e-03 0.0
-3.730715e-02 5.531347e-03 0.0
-3.845611e-02 5.251077e-03 0.0
-3.953879e-02 4.949790e-03 0.0
-4.055086e-02 4.628159e-03 0.0
-4.148818e-02 4.286869e-03 0.0
-4.234683e-02 3.926650e-03 0.0
-4.312308e-02 3.548327e-03 0.0
-4.381342e-02 3.152863e-03 0.0
-4.441454e-02 2.741380e-03 0.0
-4.492340e-02 2.315163e-03 0.0
-4.533728e-02 1.875656e-03 0.0
-4.565378e-02 1.424454e-03 0.0
-4.587092e-02 9.633069e-04 0.0
-4.598710e-02 4.941312e-04 0.0
-4.600121e-02 1.903844e-05 0.0
-4.591256e-02 -4.596393e-04 0.0
-4.572095e-02 -9.393945e-04 0.0
-4.542670e-02 -1.417723e-03 0.0
-4.503061e-02 -1.892125e-03 0.0
-4.453397e-02 -2.360107e-03 0.0
-4.393859e-02 -2.819200e-03 0.0
-4.324677e-02 -3.266966e-03 0.0
-4.246134e-02 -3.701011e-03 0.0
-4.158558e-02 -4.118997e-03 0.0
-4.062328e-02 -4.518649e-03 0.0
-3.957868e-02 -4.897764e-03 0.0
-3.845645e-02 -5.254222e-03 0.0
-3.726172e-02 -5.586002e-03 0.0
-3.599998e-02 -5.891189e-03 0.0
-3.467711e-02 -6.167996e-03 0.0
-3.329934e-02 -6.414777e-03 0.0
-3.187320e-02 -6.630042e-03 0.0
-3.040553e-02 -6.812472e-03 0.0
-2.890338e-02 -6.960933e-03 0.0
-2.737403e-02 -7.074485e-03 0.0
-2.582491e-02 -7.152395e-03 0.0
-2.426359e-02 -7.194145e-03 0.0
-2.269770e-02 -7.199444e-03 0.0
-2.113488e-02 -7.168234e-03 0.0
-1.958278e-02 -7.100687e-03 0.0
-1.804895e-02 -6.997196e-03 0.0
-1.654085e-02 -6.858381e-03 0.0
-1.506574e-02 -6.685092e-03 0.0
-1.363068e-02 -6.478418e-03 0.0
-1.224245e-02 -6.239687e-03 0.0
-1.090754e-02 -5.970473e-03 0.0